<?xml version="1.0" encoding="ISO-8859-1"?>
<modeling>
 <generator>
  <i name="program" type="string">vasp </i>
  <i name="version" type="string">5.4.4.18Apr17-6-g9f103f2a35  </i>
  <i name="subversion" type="string">(build Jul 31 2017 11:33:29) complex            parallel </i>
  <i name="platform" type="string">LinuxIFC </i>
  <i name="date" type="string">2021 09 25 </i>
  <i name="time" type="string">01:01:13 </i>
 </generator>
 <incar>
  <i type="string" name="SYSTEM"> La2O2S</i>
  <i type="string" name="PREC">normal</i>
  <i type="int" name="NELMIN">     4</i>
  <i type="int" name="IBRION">     2</i>
  <i type="int" name="NFREE">    10</i>
  <i name="EDIFF">      0.00000100</i>
  <i name="EDIFFG">     -0.01000000</i>
  <i type="int" name="NSW">   200</i>
  <i type="int" name="ISIF">     3</i>
  <i name="ENCUT">    600.00000000</i>
  <i name="ENAUG">    900.00000000</i>
  <i type="int" name="ISMEAR">    -5</i>
  <i type="logical" name="LWAVE"> F  </i>
  <i type="logical" name="LCHARG"> F  </i>
  <v type="int" name="KPOINT_BSE">    -1     0     0     0</v>
 </incar>
 <structure name="primitive_cell" >
  <crystal>
   <varray name="basis" >
    <v>      11.17850000       0.00000000       0.00000000 </v>
    <v>       0.00000000       9.57460000       0.00000000 </v>
    <v>       0.00000000       0.00000000      11.18240000 </v>
   </varray>
   <i name="volume">   1196.84853820 </i>
   <varray name="rec_basis" >
    <v>       0.08945744       0.00000000       0.00000000 </v>
    <v>       0.00000000       0.10444301       0.00000000 </v>
    <v>       0.00000000       0.00000000       0.08942624 </v>
   </varray>
  </crystal>
  <varray name="positions" >
   <v>       0.37539000       0.00017000       0.43687000 </v>
   <v>      -0.49987000      -0.07798000       0.31246000 </v>
   <v>       0.25013000       0.07798000       0.31246000 </v>
   <v>       0.49987000       0.07798000      -0.43754000 </v>
   <v>       0.24987000      -0.07798000      -0.43754000 </v>
   <v>      -0.37461000      -0.00017000       0.43687000 </v>
   <v>       0.37461000       0.00017000       0.18687000 </v>
   <v>       0.37461000       0.00017000      -0.31313000 </v>
   <v>       0.49987000      -0.29519000       0.31282000 </v>
   <v>       0.24987000       0.29519000       0.31282000 </v>
   <v>      -0.49987000       0.29519000      -0.43718000 </v>
   <v>       0.25013000      -0.29519000      -0.43718000 </v>
   <v>       0.49995000       0.32677000       0.31286000 </v>
   <v>       0.24995000      -0.32677000       0.31286000 </v>
   <v>      -0.49995000      -0.32677000      -0.43714000 </v>
   <v>       0.25005000       0.32677000      -0.43714000 </v>
   <v>      -0.37539000      -0.00017000       0.18687000 </v>
   <v>      -0.37539000      -0.00017000      -0.31313000 </v>
   <v>       0.12461000      -0.00017000       0.18687000 </v>
   <v>       0.12461000      -0.00017000      -0.31313000 </v>
   <v>       0.49987000       0.07798000       0.06246000 </v>
   <v>      -0.24987000       0.07798000       0.31246000 </v>
   <v>      -0.25013000      -0.07798000      -0.43754000 </v>
   <v>       0.24987000      -0.07798000       0.06246000 </v>
   <v>       0.00013000      -0.07798000       0.31246000 </v>
   <v>      -0.49987000      -0.07798000      -0.18754000 </v>
   <v>      -0.00013000       0.07798000      -0.43754000 </v>
   <v>       0.25013000       0.07798000      -0.18754000 </v>
   <v>      -0.49987000       0.29519000       0.06282000 </v>
   <v>      -0.25013000       0.29519000       0.31282000 </v>
   <v>       0.25013000      -0.29519000       0.06282000 </v>
   <v>      -0.24987000      -0.29519000      -0.43718000 </v>
   <v>      -0.00013000      -0.29519000       0.31282000 </v>
   <v>       0.00013000       0.29519000      -0.43718000 </v>
   <v>       0.49987000      -0.29519000      -0.18718000 </v>
   <v>       0.24987000       0.29519000      -0.18718000 </v>
   <v>      -0.49995000      -0.32677000       0.06286000 </v>
   <v>       0.25005000       0.32677000       0.06286000 </v>
   <v>      -0.25005000      -0.32677000       0.31286000 </v>
   <v>      -0.24995000       0.32677000      -0.43714000 </v>
   <v>      -0.00005000       0.32677000       0.31286000 </v>
   <v>       0.00005000      -0.32677000      -0.43714000 </v>
   <v>       0.49995000       0.32677000      -0.18714000 </v>
   <v>       0.24995000      -0.32677000      -0.18714000 </v>
   <v>      -0.12461000       0.00017000       0.43687000 </v>
   <v>       0.37539000       0.00017000      -0.06313000 </v>
   <v>      -0.25013000      -0.07798000       0.06246000 </v>
   <v>      -0.00013000       0.07798000       0.06246000 </v>
   <v>      -0.24987000       0.07798000      -0.18754000 </v>
   <v>       0.00013000      -0.07798000      -0.18754000 </v>
   <v>      -0.12539000       0.00017000       0.18687000 </v>
   <v>      -0.12539000       0.00017000      -0.31313000 </v>
   <v>       0.12539000      -0.00017000      -0.06313000 </v>
   <v>      -0.37461000      -0.00017000      -0.06313000 </v>
   <v>      -0.24987000      -0.29519000       0.06282000 </v>
   <v>       0.00013000       0.29519000       0.06282000 </v>
   <v>      -0.25013000       0.29519000      -0.18718000 </v>
   <v>      -0.00013000      -0.29519000      -0.18718000 </v>
   <v>      -0.24995000       0.32677000       0.06286000 </v>
   <v>       0.00005000      -0.32677000       0.06286000 </v>
   <v>      -0.25005000      -0.32677000      -0.18714000 </v>
   <v>      -0.00005000       0.32677000      -0.18714000 </v>
   <v>      -0.12461000       0.00017000      -0.06313000 </v>
  </varray>
 </structure>
 <varray name="primitive_index" >
  <v type="int" >        1 </v>
  <v type="int" >       53 </v>
  <v type="int" >       51 </v>
  <v type="int" >       56 </v>
  <v type="int" >       58 </v>
  <v type="int" >        4 </v>
  <v type="int" >        3 </v>
  <v type="int" >       10 </v>
  <v type="int" >       19 </v>
  <v type="int" >       18 </v>
  <v type="int" >       28 </v>
  <v type="int" >       25 </v>
  <v type="int" >       34 </v>
  <v type="int" >       35 </v>
  <v type="int" >       45 </v>
  <v type="int" >       40 </v>
  <v type="int" >        5 </v>
  <v type="int" >       13 </v>
  <v type="int" >        2 </v>
  <v type="int" >        9 </v>
  <v type="int" >       48 </v>
  <v type="int" >       55 </v>
  <v type="int" >       62 </v>
  <v type="int" >       50 </v>
  <v type="int" >       49 </v>
  <v type="int" >       61 </v>
  <v type="int" >       60 </v>
  <v type="int" >       59 </v>
  <v type="int" >       20 </v>
  <v type="int" >       22 </v>
  <v type="int" >       17 </v>
  <v type="int" >       29 </v>
  <v type="int" >       23 </v>
  <v type="int" >       24 </v>
  <v type="int" >       27 </v>
  <v type="int" >       26 </v>
  <v type="int" >       37 </v>
  <v type="int" >       32 </v>
  <v type="int" >       39 </v>
  <v type="int" >       44 </v>
  <v type="int" >       38 </v>
  <v type="int" >       41 </v>
  <v type="int" >       42 </v>
  <v type="int" >       43 </v>
  <v type="int" >       15 </v>
  <v type="int" >        8 </v>
  <v type="int" >       54 </v>
  <v type="int" >       52 </v>
  <v type="int" >       63 </v>
  <v type="int" >       57 </v>
  <v type="int" >        6 </v>
  <v type="int" >       14 </v>
  <v type="int" >        7 </v>
  <v type="int" >       11 </v>
  <v type="int" >       21 </v>
  <v type="int" >       16 </v>
  <v type="int" >       30 </v>
  <v type="int" >       31 </v>
  <v type="int" >       36 </v>
  <v type="int" >       33 </v>
  <v type="int" >       47 </v>
  <v type="int" >       46 </v>
  <v type="int" >       12 </v>
 </varray>
 <kpoints>
  <generation param="Gamma">
   <v type="int" name="divisions">       2        2        2 </v>
   <v name="usershift">      0.00000000       0.00000000       0.00000000 </v>
   <v name="genvec1">      0.50000000       0.00000000       0.00000000 </v>
   <v name="genvec2">      0.00000000       0.50000000       0.00000000 </v>
   <v name="genvec3">      0.00000000       0.00000000       0.50000000 </v>
   <v name="shift">      0.00000000       0.00000000       0.00000000 </v>
  </generation>
  <varray name="kpointlist" >
   <v>       0.00000000       0.00000000       0.00000000 </v>
   <v>       0.50000000       0.00000000       0.00000000 </v>
   <v>       0.00000000       0.50000000       0.00000000 </v>
   <v>       0.50000000       0.50000000       0.00000000 </v>
   <v>       0.00000000       0.00000000       0.50000000 </v>
   <v>       0.50000000       0.00000000       0.50000000 </v>
   <v>       0.00000000       0.50000000       0.50000000 </v>
   <v>       0.50000000       0.50000000       0.50000000 </v>
  </varray>
  <varray name="weights" >
   <v>       0.12500000 </v>
   <v>       0.12500000 </v>
   <v>       0.12500000 </v>
   <v>       0.12500000 </v>
   <v>       0.12500000 </v>
   <v>       0.12500000 </v>
   <v>       0.12500000 </v>
   <v>       0.12500000 </v>
  </varray>
  <varray name="tetrahedronlist"  type="int" >
   <v type="int" >        2        1        2        4        5 </v>
   <v type="int" >        2        1        3        4        5 </v>
   <v type="int" >        2        3        4        5        7 </v>
   <v type="int" >        2        2        4        5        6 </v>
   <v type="int" >        2        4        5        6        8 </v>
   <v type="int" >        2        4        5        7        8 </v>
   <v type="int" >        2        1        2        3        6 </v>
   <v type="int" >        2        2        3        4        6 </v>
   <v type="int" >        2        3        4        6        8 </v>
   <v type="int" >        2        1        3        5        6 </v>
   <v type="int" >        2        3        5        6        7 </v>
   <v type="int" >        2        3        6        7        8 </v>
   <v type="int" >        2        2        3        4        7 </v>
   <v type="int" >        2        1        2        3        7 </v>
   <v type="int" >        2        1        2        5        7 </v>
   <v type="int" >        2        2        4        7        8 </v>
   <v type="int" >        2        2        6        7        8 </v>
   <v type="int" >        2        2        5        6        7 </v>
   <v type="int" >        2        1        3        4        8 </v>
   <v type="int" >        2        1        2        4        8 </v>
   <v type="int" >        2        1        2        6        8 </v>
   <v type="int" >        2        1        3        7        8 </v>
   <v type="int" >        2        1        5        7        8 </v>
   <v type="int" >        2        1        5        6        8 </v>
  </varray>
  <i name="volumeweight">      0.02083333 </i>
 </kpoints>
 <parameters>
  <separator name="general" >
   <i type="string" name="SYSTEM">La2O2S</i>
   <i type="logical" name="LCOMPAT"> F  </i>
  </separator>
  <separator name="electronic" >
   <i type="string" name="PREC">normal</i>
   <i name="ENMAX">    600.00000000</i>
   <i name="ENAUG">    900.00000000</i>
   <i name="EDIFF">      0.00000100</i>
   <i type="int" name="IALGO">    38</i>
   <i type="int" name="IWAVPR">    11</i>
   <i type="int" name="NBANDS">   308</i>
   <i name="NELECT">    476.00000000</i>
   <i type="int" name="TURBO">     0</i>
   <i type="int" name="IRESTART">     0</i>
   <i type="int" name="NREBOOT">     0</i>
   <i type="int" name="NMIN">     0</i>
   <i name="EREF">      0.00000000</i>
   <separator name="electronic smearing" >
    <i type="int" name="ISMEAR">    -5</i>
    <i name="SIGMA">      0.20000000</i>
    <i name="KSPACING">      0.50000000</i>
    <i type="logical" name="KGAMMA"> T  </i>
   </separator>
   <separator name="electronic projectors" >
    <i type="logical" name="LREAL"> F  </i>
    <v name="ROPT">      0.00000000      0.00000000      0.00000000      0.00000000      0.00000000</v>
    <i type="int" name="LMAXPAW">  -100</i>
    <i type="int" name="LMAXMIX">     2</i>
    <i type="logical" name="NLSPLINE"> F  </i>
   </separator>
   <separator name="electronic startup" >
    <i type="int" name="ISTART">     0</i>
    <i type="int" name="ICHARG">     2</i>
    <i type="int" name="INIWAV">     1</i>
   </separator>
   <separator name="electronic spin" >
    <i type="int" name="ISPIN">     1</i>
    <i type="logical" name="LNONCOLLINEAR"> F  </i>
    <v name="MAGMOM">      1.00000000      1.00000000      1.00000000      1.00000000      1.00000000      1.00000000      1.00000000      1.00000000      1.00000000      1.00000000      1.00000000      1.00000000      1.00000000      1.00000000      1.00000000      1.00000000      1.00000000      1.00000000      1.00000000      1.00000000
      1.00000000      1.00000000      1.00000000      1.00000000      1.00000000      1.00000000      1.00000000      1.00000000      1.00000000      1.00000000      1.00000000      1.00000000      1.00000000      1.00000000      1.00000000      1.00000000      1.00000000      1.00000000      1.00000000      1.00000000
      1.00000000      1.00000000      1.00000000      1.00000000      1.00000000      1.00000000      1.00000000      1.00000000      1.00000000      1.00000000      1.00000000      1.00000000      1.00000000      1.00000000      1.00000000      1.00000000      1.00000000      1.00000000      1.00000000      1.00000000
      1.00000000      1.00000000      1.00000000</v>
    <i name="NUPDOWN">     -1.00000000</i>
    <i type="logical" name="LSORBIT"> F  </i>
    <v name="SAXIS">      0.00000000      0.00000000      1.00000000</v>
    <i type="logical" name="LSPIRAL"> F  </i>
    <v name="QSPIRAL">      0.00000000      0.00000000      0.00000000</v>
    <i type="logical" name="LZEROZ"> F  </i>
   </separator>
   <separator name="electronic exchange-correlation" >
    <i type="logical" name="LASPH"> F  </i>
    <i type="logical" name="LMETAGGA"> F  </i>
   </separator>
   <separator name="electronic convergence" >
    <i type="int" name="NELM">    60</i>
    <i type="int" name="NELMDL">    -5</i>
    <i type="int" name="NELMIN">     4</i>
    <i name="ENINI">    600.00000000</i>
    <separator name="electronic convergence detail" >
     <i type="logical" name="LDIAG"> T  </i>
     <i type="logical" name="LSUBROT"> F  </i>
     <i name="WEIMIN">      0.00100000</i>
     <i name="EBREAK">      0.00000000</i>
     <i name="DEPER">      0.30000000</i>
     <i type="int" name="NRMM">     4</i>
     <i name="TIME">      0.40000000</i>
    </separator>
   </separator>
   <separator name="electronic mixer" >
    <i name="AMIX">      0.40000000</i>
    <i name="BMIX">      1.00000000</i>
    <i name="AMIN">      0.10000000</i>
    <i name="AMIX_MAG">      1.60000000</i>
    <i name="BMIX_MAG">      1.00000000</i>
    <separator name="electronic mixer details" >
     <i type="int" name="IMIX">     4</i>
     <i type="logical" name="MIXFIRST"> F  </i>
     <i type="int" name="MAXMIX">   -45</i>
     <i name="WC">    100.00000000</i>
     <i type="int" name="INIMIX">     1</i>
     <i type="int" name="MIXPRE">     1</i>
     <i type="int" name="MREMOVE">     5</i>
    </separator>
   </separator>
   <separator name="electronic dipolcorrection" >
    <i type="logical" name="LDIPOL"> F  </i>
    <i type="logical" name="LMONO"> F  </i>
    <i type="int" name="IDIPOL">     0</i>
    <i name="EPSILON">      1.00000000</i>
    <v name="DIPOL">   -100.00000000   -100.00000000   -100.00000000</v>
    <i name="EFIELD">      0.00000000</i>
   </separator>
  </separator>
  <separator name="grids" >
   <i type="int" name="NGX">    70</i>
   <i type="int" name="NGY">    60</i>
   <i type="int" name="NGZ">    70</i>
   <i type="int" name="NGXF">   140</i>
   <i type="int" name="NGYF">   120</i>
   <i type="int" name="NGZF">   140</i>
   <i type="logical" name="ADDGRID"> F  </i>
  </separator>
  <separator name="ionic" >
   <i type="int" name="NSW">   200</i>
   <i type="int" name="IBRION">     2</i>
   <i type="int" name="MDALGO">     0</i>
   <i type="int" name="ISIF">     3</i>
   <i name="PSTRESS">      0.00000000</i>
   <i name="EDIFFG">     -0.01000000</i>
   <i type="int" name="NFREE">    10</i>
   <i name="POTIM">      0.50000000</i>
   <i name="SMASS">     -3.00000000</i>
   <i name="SCALEE">      1.00000000</i>
  </separator>
  <separator name="ionic md" >
   <i name="TEBEG">      0.00010000</i>
   <i name="TEEND">      0.00010000</i>
   <i type="int" name="NBLOCK">     1</i>
   <i type="int" name="KBLOCK">   200</i>
   <i type="int" name="NPACO">   256</i>
   <i name="APACO">     16.00000000</i>
  </separator>
  <separator name="symmetry" >
   <i type="int" name="ISYM">     2</i>
   <i name="SYMPREC">      0.00001000</i>
  </separator>
  <separator name="dos" >
   <i type="int" name="LORBIT">     0</i>
   <v name="RWIGS">     -1.00000000     -1.00000000     -1.00000000     -1.00000000     -1.00000000</v>
   <i type="int" name="NEDOS">   301</i>
   <i name="EMIN">     10.00000000</i>
   <i name="EMAX">    -10.00000000</i>
   <i name="EFERMI">      0.00000000</i>
  </separator>
  <separator name="writing" >
   <i type="int" name="NWRITE">     2</i>
   <i type="logical" name="LWAVE"> F  </i>
   <i type="logical" name="LDOWNSAMPLE"> F  </i>
   <i type="logical" name="LCHARG"> F  </i>
   <i type="logical" name="LPARD"> F  </i>
   <i type="logical" name="LVTOT"> F  </i>
   <i type="logical" name="LVHAR"> F  </i>
   <i type="logical" name="LELF"> F  </i>
   <i type="logical" name="LOPTICS"> F  </i>
   <v name="STM">      0.00000000      0.00000000      0.00000000      0.00000000      0.00000000      0.00000000      0.00000000</v>
  </separator>
  <separator name="performance" >
   <i type="int" name="NPAR">    28</i>
   <i type="int" name="NSIM">     4</i>
   <i type="int" name="NBLK">    -1</i>
   <i type="logical" name="LPLANE"> T  </i>
   <i type="logical" name="LSCALAPACK"> T  </i>
   <i type="logical" name="LSCAAWARE"> F  </i>
   <i type="logical" name="LSCALU"> F  </i>
   <i type="logical" name="LASYNC"> F  </i>
   <i type="logical" name="LORBITALREAL"> F  </i>
  </separator>
  <separator name="miscellaneous" >
   <i type="int" name="IDIOT">     3</i>
   <i type="int" name="ISPECIAL">     0</i>
   <i type="logical" name="LMUSIC"> F  </i>
   <v name="POMASS">      7.01000000     24.30500000    208.98000000     32.06600000     16.00000000</v>
   <v name="DARWINR">      0.00000000      0.00000000      0.00000000      0.00000000      0.00000000</v>
   <v name="DARWINV">      1.00000000      1.00000000      1.00000000      1.00000000      1.00000000</v>
   <i type="logical" name="LCORR"> T  </i>
  </separator>
  <i type="logical" name="GGA_COMPAT"> T  </i>
  <i type="logical" name="LBERRY"> F  </i>
  <i type="int" name="ICORELEVEL">     0</i>
  <i type="logical" name="LDAU"> F  </i>
  <i type="int" name="I_CONSTRAINED_M">     0</i>
  <separator name="electronic exchange-correlation" >
   <i type="string" name="GGA">--</i>
   <i type="int" name="VOSKOWN">     0</i>
   <i type="logical" name="LHFCALC"> F  </i>
   <i type="string" name="PRECFOCK"></i>
   <i type="logical" name="LSYMGRAD"> F  </i>
   <i type="logical" name="LHFONE"> F  </i>
   <i type="logical" name="LRHFCALC"> F  </i>
   <i type="logical" name="LTHOMAS"> F  </i>
   <i type="logical" name="LMODELHF"> F  </i>
   <i name="ENCUT4O">     -1.00000000</i>
   <i type="int" name="EXXOEP">     0</i>
   <i type="int" name="FOURORBIT">     0</i>
   <i name="AEXX">      0.00000000</i>
   <i name="HFALPHA">      0.00000000</i>
   <i name="MCALPHA">      0.00000000</i>
   <i name="ALDAX">      1.00000000</i>
   <i name="AGGAX">      1.00000000</i>
   <i name="ALDAC">      1.00000000</i>
   <i name="AGGAC">      1.00000000</i>
   <i type="int" name="NKREDX">     1</i>
   <i type="int" name="NKREDY">     1</i>
   <i type="int" name="NKREDZ">     1</i>
   <i type="logical" name="SHIFTRED"> F  </i>
   <i type="logical" name="ODDONLY"> F  </i>
   <i type="logical" name="EVENONLY"> F  </i>
   <i type="int" name="LMAXFOCK">     0</i>
   <i type="int" name="NMAXFOCKAE">     0</i>
   <i type="logical" name="LFOCKAEDFT"> F  </i>
   <i name="HFSCREEN">      0.00000000</i>
   <i name="HFSCREENC">      0.00000000</i>
   <i type="int" name="NBANDSGWLOW">     0</i>
  </separator>
  <separator name="vdW DFT" >
   <i type="logical" name="LUSE_VDW"> F  </i>
   <i name="Zab_VDW">     -0.84910000</i>
   <i name="PARAM1">      0.12340000</i>
   <i name="PARAM2">      1.00000000</i>
   <i name="PARAM3">      0.00000000</i>
  </separator>
  <separator name="model GW" >
   <i type="int" name="MODEL_GW">     0</i>
   <i name="MODEL_EPS0">     11.39855751</i>
   <i name="MODEL_ALPHA">      1.00000000</i>
  </separator>
  <separator name="linear response parameters" >
   <i type="logical" name="LEPSILON"> F  </i>
   <i type="logical" name="LRPA"> F  </i>
   <i type="logical" name="LNABLA"> F  </i>
   <i type="logical" name="LVEL"> F  </i>
   <i type="int" name="KINTER">     0</i>
   <i name="CSHIFT">      0.10000000</i>
   <i name="OMEGAMAX">     -1.00000000</i>
   <i name="DEG_THRESHOLD">      0.00200000</i>
   <i name="RTIME">     -0.10000000</i>
   <i name="WPLASMAI">      0.00000000</i>
   <v name="DFIELD">      0.00000000      0.00000000      0.00000000</v>
   <v name="WPLASMA">      0.00000000      0.00000000      0.00000000      0.00000000      0.00000000      0.00000000      0.00000000      0.00000000      0.00000000</v>
  </separator>
  <separator name="orbital magnetization" >
   <i type="logical" name="NUCIND"> F  </i>
   <v name="MAGPOS">      0.00000000      0.00000000      0.00000000</v>
   <i type="logical" name="LNICSALL"> T  </i>
   <i type="logical" name="ORBITALMAG"> F  </i>
   <i type="logical" name="LMAGBLOCH"> F  </i>
   <i type="logical" name="LCHIMAG"> F  </i>
   <i type="logical" name="LGAUGE"> T  </i>
   <i type="int" name="MAGATOM">     0</i>
   <v name="MAGDIPOL">      0.00000000      0.00000000      0.00000000</v>
   <v name="AVECCONST">      0.00000000      0.00000000      0.00000000</v>
  </separator>
  <separator name="response functions" >
   <i type="logical" name="LADDER"> F  </i>
   <i type="logical" name="LRPAFORCE"> F  </i>
   <i type="logical" name="LFXC"> F  </i>
   <i type="logical" name="LHARTREE"> T  </i>
   <i type="int" name="IBSE">     0</i>
   <v type="int" name="KPOINT">    -1     0     0     0</v>
   <i type="logical" name="LTCTE"> F  </i>
   <i type="logical" name="LTETE"> F  </i>
   <i type="logical" name="LTRIPLET"> F  </i>
   <i type="logical" name="LFXCEPS"> F  </i>
   <i type="logical" name="LFXHEG"> F  </i>
   <i type="int" name="NATURALO">     2</i>
   <i type="logical" name="L2ORDER"> F  </i>
   <i type="logical" name="LMP2LT"> F  </i>
   <i type="logical" name="LUSEW"> F  </i>
   <i name="ENCUTGW">     -2.00000000</i>
   <i name="ENCUTGWSOFT">     -2.00000000</i>
   <i name="ENCUTLF">     -1.00000000</i>
   <i type="int" name="LMAXMP2">    -1</i>
   <i name="SCISSOR">      0.00000000</i>
   <i type="int" name="NOMEGA">     0</i>
   <i type="int" name="NOMEGAR">     0</i>
   <i type="int" name="NBANDSGW">    -1</i>
   <i type="int" name="NBANDSO">    -1</i>
   <i type="int" name="NBANDSV">    -1</i>
   <i type="int" name="NELM">     1</i>
   <i type="int" name="NELMHF">     1</i>
   <i type="int" name="DIM">     3</i>
   <i type="int" name="ANTIRES">     0</i>
   <i name="OMEGAMAX">    -30.00000000</i>
   <i name="OMEGAMIN">    -30.00000000</i>
   <i name="OMEGATL">   -200.00000000</i>
   <i type="int" name="OMEGAGRID">   140</i>
   <i name="CSHIFT">     -0.10000000</i>
   <i type="logical" name="SELFENERGY"> F  </i>
   <i type="logical" name="LSPECTRAL"> F  </i>
   <i type="logical" name="LSPECTRALGW"> F  </i>
   <i type="logical" name="LSINGLES"> F  </i>
   <i type="logical" name="LFERMIGW"> F  </i>
   <i type="logical" name="ODDONLYGW"> F  </i>
   <i type="logical" name="EVENONLYGW"> F  </i>
   <i type="int" name="NKREDLFX">     1</i>
   <i type="int" name="NKREDLFY">     1</i>
   <i type="int" name="NKREDLFZ">     1</i>
   <i type="int" name="MAXMEM">  2800</i>
   <i type="int" name="TELESCOPE">     0</i>
   <i type="int" name="TAUPAR">     1</i>
   <i type="int" name="OMEGAPAR">    -1</i>
   <i name="LAMBDA">      1.00000000</i>
  </separator>
  <separator name="External order field" >
   <i name="OFIELD_KAPPA">      0.00000000</i>
   <v name="OFIELD_K">      0.00000000      0.00000000      0.00000000</v>
   <i name="OFIELD_Q6_NEAR">      0.00000000</i>
   <i name="OFIELD_Q6_FAR">      0.00000000</i>
   <i name="OFIELD_A">      0.00000000</i>
  </separator>
 </parameters>
 <atominfo>
  <atoms>      63 </atoms>
  <types>       5 </types>
  <array name="atoms" >
   <dimension dim="1">ion</dimension>
   <field type="string">element</field>
   <field type="int">atomtype</field>
   <set>
    <rc><c>Li</c><c>   1</c></rc>
    <rc><c>Li</c><c>   1</c></rc>
    <rc><c>Li</c><c>   1</c></rc>
    <rc><c>Li</c><c>   1</c></rc>
    <rc><c>Li</c><c>   1</c></rc>
    <rc><c>Li</c><c>   1</c></rc>
    <rc><c>Li</c><c>   1</c></rc>
    <rc><c>Li</c><c>   1</c></rc>
    <rc><c>Li</c><c>   1</c></rc>
    <rc><c>Li</c><c>   1</c></rc>
    <rc><c>Li</c><c>   1</c></rc>
    <rc><c>Li</c><c>   1</c></rc>
    <rc><c>Li</c><c>   1</c></rc>
    <rc><c>Li</c><c>   1</c></rc>
    <rc><c>Mg</c><c>   2</c></rc>
    <rc><c>Bi</c><c>   3</c></rc>
    <rc><c>Bi</c><c>   3</c></rc>
    <rc><c>Bi</c><c>   3</c></rc>
    <rc><c>Bi</c><c>   3</c></rc>
    <rc><c>Bi</c><c>   3</c></rc>
    <rc><c>Bi</c><c>   3</c></rc>
    <rc><c>Bi</c><c>   3</c></rc>
    <rc><c>Bi</c><c>   3</c></rc>
    <rc><c>Bi</c><c>   3</c></rc>
    <rc><c>Bi</c><c>   3</c></rc>
    <rc><c>Bi</c><c>   3</c></rc>
    <rc><c>Bi</c><c>   3</c></rc>
    <rc><c>Bi</c><c>   3</c></rc>
    <rc><c>Bi</c><c>   3</c></rc>
    <rc><c>Bi</c><c>   3</c></rc>
    <rc><c>Bi</c><c>   3</c></rc>
    <rc><c>S </c><c>   4</c></rc>
    <rc><c>S </c><c>   4</c></rc>
    <rc><c>S </c><c>   4</c></rc>
    <rc><c>S </c><c>   4</c></rc>
    <rc><c>S </c><c>   4</c></rc>
    <rc><c>S </c><c>   4</c></rc>
    <rc><c>S </c><c>   4</c></rc>
    <rc><c>S </c><c>   4</c></rc>
    <rc><c>S </c><c>   4</c></rc>
    <rc><c>S </c><c>   4</c></rc>
    <rc><c>S </c><c>   4</c></rc>
    <rc><c>S </c><c>   4</c></rc>
    <rc><c>S </c><c>   4</c></rc>
    <rc><c>S </c><c>   4</c></rc>
    <rc><c>S </c><c>   4</c></rc>
    <rc><c>S </c><c>   4</c></rc>
    <rc><c>O </c><c>   5</c></rc>
    <rc><c>O </c><c>   5</c></rc>
    <rc><c>O </c><c>   5</c></rc>
    <rc><c>O </c><c>   5</c></rc>
    <rc><c>O </c><c>   5</c></rc>
    <rc><c>O </c><c>   5</c></rc>
    <rc><c>O </c><c>   5</c></rc>
    <rc><c>O </c><c>   5</c></rc>
    <rc><c>O </c><c>   5</c></rc>
    <rc><c>O </c><c>   5</c></rc>
    <rc><c>O </c><c>   5</c></rc>
    <rc><c>O </c><c>   5</c></rc>
    <rc><c>O </c><c>   5</c></rc>
    <rc><c>O </c><c>   5</c></rc>
    <rc><c>O </c><c>   5</c></rc>
    <rc><c>O </c><c>   5</c></rc>
   </set>
  </array>
  <array name="atomtypes" >
   <dimension dim="1">type</dimension>
   <field type="int">atomspertype</field>
   <field type="string">element</field>
   <field>mass</field>
   <field>valence</field>
   <field type="string">pseudopotential</field>
   <set>
    <rc><c>  14</c><c>Li</c><c>      7.01000000</c><c>      3.00000000</c><c>  PAW_PBE Li_sv 10Sep2004               </c></rc>
    <rc><c>   1</c><c>Mg</c><c>     24.30500000</c><c>      2.00000000</c><c>  PAW_PBE Mg 13Apr2007                  </c></rc>
    <rc><c>  16</c><c>Bi</c><c>    208.98000000</c><c>     15.00000000</c><c>  PAW_PBE Bi_d 06Sep2000                </c></rc>
    <rc><c>  16</c><c>S </c><c>     32.06600000</c><c>      6.00000000</c><c>  PAW_PBE S 06Sep2000                   </c></rc>
    <rc><c>  16</c><c>O </c><c>     16.00000000</c><c>      6.00000000</c><c>  PAW_PBE O 08Apr2002                   </c></rc>
   </set>
  </array>
 </atominfo>
 <structure name="initialpos" >
  <crystal>
   <varray name="basis" >
    <v>      11.17850000       0.00000000       0.00000000 </v>
    <v>       0.00000000       9.57460000       0.00000000 </v>
    <v>       0.00000000       0.00000000      11.18240000 </v>
   </varray>
   <i name="volume">   1196.84853820 </i>
   <varray name="rec_basis" >
    <v>       0.08945744       0.00000000       0.00000000 </v>
    <v>       0.00000000       0.10444301       0.00000000 </v>
    <v>       0.00000000       0.00000000       0.08942624 </v>
   </varray>
  </crystal>
  <varray name="positions" >
   <v>       0.37539000       0.00017000       0.43687000 </v>
   <v>       0.12461000       0.99983000       0.18687000 </v>
   <v>       0.37461000       0.00017000       0.18687000 </v>
   <v>       0.62539000       0.99983000       0.43687000 </v>
   <v>       0.62461000       0.99983000       0.18687000 </v>
   <v>       0.87461000       0.00017000       0.18687000 </v>
   <v>       0.12539000       0.99983000       0.93687000 </v>
   <v>       0.37539000       0.00017000       0.93687000 </v>
   <v>       0.12461000       0.99983000       0.68687000 </v>
   <v>       0.37461000       0.00017000       0.68687000 </v>
   <v>       0.62539000       0.99983000       0.93687000 </v>
   <v>       0.87539000       0.00017000       0.93687000 </v>
   <v>       0.62461000       0.99983000       0.68687000 </v>
   <v>       0.87461000       0.00017000       0.68687000 </v>
   <v>       0.87539000       0.00017000       0.43687000 </v>
   <v>       0.00013000       0.29519000       0.06282000 </v>
   <v>       0.25013000       0.70481000       0.06282000 </v>
   <v>       0.24987000       0.29519000       0.31282000 </v>
   <v>       0.49987000       0.70481000       0.31282000 </v>
   <v>       0.50013000       0.29519000       0.06282000 </v>
   <v>       0.75013000       0.70481000       0.06282000 </v>
   <v>       0.74987000       0.29519000       0.31282000 </v>
   <v>       0.99987000       0.70481000       0.31282000 </v>
   <v>       0.00013000       0.29519000       0.56282000 </v>
   <v>       0.25013000       0.70481000       0.56282000 </v>
   <v>       0.24987000       0.29519000       0.81282000 </v>
   <v>       0.49987000       0.70481000       0.81282000 </v>
   <v>       0.50013000       0.29519000       0.56282000 </v>
   <v>       0.75013000       0.70481000       0.56282000 </v>
   <v>       0.74987000       0.29519000       0.81282000 </v>
   <v>       0.99987000       0.70481000       0.81282000 </v>
   <v>       0.25005000       0.32677000       0.06286000 </v>
   <v>       0.00005000       0.67323000       0.06286000 </v>
   <v>       0.49995000       0.32677000       0.31286000 </v>
   <v>       0.24995000       0.67323000       0.31286000 </v>
   <v>       0.75005000       0.32677000       0.06286000 </v>
   <v>       0.50005000       0.67323000       0.06286000 </v>
   <v>       0.99995000       0.32677000       0.31286000 </v>
   <v>       0.74995000       0.67323000       0.31286000 </v>
   <v>       0.25005000       0.32677000       0.56286000 </v>
   <v>       0.00005000       0.67323000       0.56286000 </v>
   <v>       0.49995000       0.32677000       0.81286000 </v>
   <v>       0.24995000       0.67323000       0.81286000 </v>
   <v>       0.75005000       0.32677000       0.56286000 </v>
   <v>       0.50005000       0.67323000       0.56286000 </v>
   <v>       0.99995000       0.32677000       0.81286000 </v>
   <v>       0.74995000       0.67323000       0.81286000 </v>
   <v>       0.49987000       0.07798000       0.06246000 </v>
   <v>       0.00013000       0.92202000       0.31246000 </v>
   <v>       0.24987000       0.92202000       0.06246000 </v>
   <v>       0.25013000       0.07798000       0.31246000 </v>
   <v>       0.99987000       0.07798000       0.06246000 </v>
   <v>       0.50013000       0.92202000       0.31246000 </v>
   <v>       0.74987000       0.92202000       0.06246000 </v>
   <v>       0.75013000       0.07798000       0.31246000 </v>
   <v>       0.49987000       0.07798000       0.56246000 </v>
   <v>       0.00013000       0.92202000       0.81246000 </v>
   <v>       0.24987000       0.92202000       0.56246000 </v>
   <v>       0.25013000       0.07798000       0.81246000 </v>
   <v>       0.99987000       0.07798000       0.56246000 </v>
   <v>       0.50013000       0.92202000       0.81246000 </v>
   <v>       0.74987000       0.92202000       0.56246000 </v>
   <v>       0.75013000       0.07798000       0.81246000 </v>
  </varray>
 </structure>
 <calculation>
  <scstep>
   <time name="dav">   64.91   65.23</time>
   <time name="total">   65.00   65.31</time>
   <energy>
    <i name="alphaZ">   1086.17722071 </i>
    <i name="ewald"> -31336.03865543 </i>
    <i name="hartreedc"> -12725.07018022 </i>
    <i name="XCdc">   1542.79848885 </i>
    <i name="pawpsdc">  37012.13516878 </i>
    <i name="pawaedc"> -36680.30965123 </i>
    <i name="eentropy">      0.00000000 </i>
    <i name="bandstr">   1532.78958441 </i>
    <i name="atom">  45556.09114881 </i>
    <i name="e_fr_energy">   5988.57312470 </i>
    <i name="e_wo_entrp">   5988.57312470 </i>
    <i name="e_0_energy">   5988.57312470 </i>
   </energy>
  </scstep>
  <scstep>
   <time name="dav">   65.40   65.51</time>
   <time name="total">   65.41   65.52</time>
   <energy>
    <i name="e_fr_energy">    775.99576595 </i>
    <i name="e_wo_entrp">    775.99576595 </i>
    <i name="e_0_energy">    775.99576595 </i>
   </energy>
  </scstep>
  <scstep>
   <time name="dav">   71.55   71.64</time>
   <time name="total">   71.55   71.64</time>
   <energy>
    <i name="e_fr_energy">   -242.73589907 </i>
    <i name="e_wo_entrp">   -242.73589907 </i>
    <i name="e_0_energy">   -242.73589907 </i>
   </energy>
  </scstep>
  <scstep>
   <time name="dav">   79.22   79.40</time>
   <time name="total">   79.23   79.40</time>
   <energy>
    <i name="e_fr_energy">   -357.06885048 </i>
    <i name="e_wo_entrp">   -357.06885048 </i>
    <i name="e_0_energy">   -357.06885048 </i>
   </energy>
  </scstep>
  <scstep>
   <time name="dav">  106.86  107.06</time>
   <time name="total">  107.60  107.81</time>
   <energy>
    <i name="e_fr_energy">   -367.14259213 </i>
    <i name="e_wo_entrp">   -367.14259213 </i>
    <i name="e_0_energy">   -367.14259213 </i>
   </energy>
  </scstep>
  <scstep>
   <time name="dav">   93.59   93.63</time>
   <time name="total">   94.40   94.44</time>
   <energy>
    <i name="e_fr_energy">   -305.84368006 </i>
    <i name="e_wo_entrp">   -305.84368006 </i>
    <i name="e_0_energy">   -305.84368006 </i>
   </energy>
  </scstep>
  <scstep>
   <time name="dav">   74.15   74.25</time>
   <time name="total">   74.96   75.06</time>
   <energy>
    <i name="e_fr_energy">   -308.04592456 </i>
    <i name="e_wo_entrp">   -308.04592456 </i>
    <i name="e_0_energy">   -308.04592456 </i>
   </energy>
  </scstep>
  <scstep>
   <time name="dav">   83.51   83.63</time>
   <time name="total">   84.32   84.44</time>
   <energy>
    <i name="e_fr_energy">   -306.54225622 </i>
    <i name="e_wo_entrp">   -306.54225622 </i>
    <i name="e_0_energy">   -306.54225622 </i>
   </energy>
  </scstep>
  <scstep>
   <time name="dav">   92.76   93.72</time>
   <time name="total">   93.57   94.52</time>
   <energy>
    <i name="e_fr_energy">   -305.85577307 </i>
    <i name="e_wo_entrp">   -305.85577307 </i>
    <i name="e_0_energy">   -305.85577307 </i>
   </energy>
  </scstep>
  <scstep>
   <time name="dav">   80.25   80.96</time>
   <time name="total">   81.11   81.84</time>
   <energy>
    <i name="e_fr_energy">   -305.84343427 </i>
    <i name="e_wo_entrp">   -305.84343427 </i>
    <i name="e_0_energy">   -305.84343427 </i>
   </energy>
  </scstep>
  <scstep>
   <time name="dav">   85.63   85.99</time>
   <time name="total">   86.44   86.81</time>
   <energy>
    <i name="e_fr_energy">   -305.85727088 </i>
    <i name="e_wo_entrp">   -305.85727088 </i>
    <i name="e_0_energy">   -305.85727088 </i>
   </energy>
  </scstep>
  <scstep>
   <time name="dav">   90.26   90.49</time>
   <time name="total">   91.07   91.30</time>
   <energy>
    <i name="e_fr_energy">   -305.86211194 </i>
    <i name="e_wo_entrp">   -305.86211194 </i>
    <i name="e_0_energy">   -305.86211194 </i>
   </energy>
  </scstep>
  <scstep>
   <time name="dav">   79.02   79.14</time>
   <time name="total">   79.84   79.97</time>
   <energy>
    <i name="e_fr_energy">   -305.86305320 </i>
    <i name="e_wo_entrp">   -305.86305320 </i>
    <i name="e_0_energy">   -305.86305320 </i>
   </energy>
  </scstep>
  <scstep>
   <time name="dav">   83.75   83.87</time>
   <time name="total">   84.56   84.68</time>
   <energy>
    <i name="e_fr_energy">   -305.86323741 </i>
    <i name="e_wo_entrp">   -305.86323741 </i>
    <i name="e_0_energy">   -305.86323741 </i>
   </energy>
  </scstep>
  <scstep>
   <time name="dav">   86.35   86.39</time>
   <time name="total">   87.16   87.21</time>
   <energy>
    <i name="e_fr_energy">   -305.86326517 </i>
    <i name="e_wo_entrp">   -305.86326517 </i>
    <i name="e_0_energy">   -305.86326517 </i>
   </energy>
  </scstep>
  <scstep>
   <time name="dav">   71.08   71.07</time>
   <time name="total">   71.89   71.89</time>
   <energy>
    <i name="e_fr_energy">   -305.86328066 </i>
    <i name="e_wo_entrp">   -305.86328066 </i>
    <i name="e_0_energy">   -305.86328066 </i>
   </energy>
  </scstep>
  <scstep>
   <time name="dav">   79.78   79.85</time>
   <time name="total">   80.60   80.66</time>
   <energy>
    <i name="e_fr_energy">   -305.86328283 </i>
    <i name="e_wo_entrp">   -305.86328283 </i>
    <i name="e_0_energy">   -305.86328283 </i>
   </energy>
  </scstep>
  <scstep>
   <time name="dav">   61.28   61.43</time>
   <time name="total">   61.35   61.50</time>
   <energy>
    <i name="alphaZ">   1086.17722071 </i>
    <i name="ewald"> -31336.03865543 </i>
    <i name="hartreedc"> -12961.24566416 </i>
    <i name="XCdc">   1565.18161085 </i>
    <i name="pawpsdc">  44045.90775696 </i>
    <i name="pawaedc"> -43690.32702932 </i>
    <i name="eentropy">      0.00000000 </i>
    <i name="bandstr">  -4571.60967148 </i>
    <i name="atom">  45556.09114881 </i>
    <i name="e_fr_energy">   -305.86328304 </i>
    <i name="e_wo_entrp">   -305.86328304 </i>
    <i name="e_0_energy">   -305.86328304 </i>
   </energy>
  </scstep>
  <structure>
   <crystal>
    <varray name="basis" >
     <v>      11.17850000       0.00000000       0.00000000 </v>
     <v>       0.00000000       9.57460000       0.00000000 </v>
     <v>       0.00000000       0.00000000      11.18240000 </v>
    </varray>
    <i name="volume">   1196.84853820 </i>
    <varray name="rec_basis" >
     <v>       0.08945744       0.00000000       0.00000000 </v>
     <v>       0.00000000       0.10444301       0.00000000 </v>
     <v>       0.00000000       0.00000000       0.08942624 </v>
    </varray>
   </crystal>
   <varray name="positions" >
    <v>       0.37539000       0.00017000       0.43687000 </v>
    <v>       0.12461000       0.99983000       0.18687000 </v>
    <v>       0.37461000       0.00017000       0.18687000 </v>
    <v>       0.62539000       0.99983000       0.43687000 </v>
    <v>       0.62461000       0.99983000       0.18687000 </v>
    <v>       0.87461000       0.00017000       0.18687000 </v>
    <v>       0.12539000       0.99983000       0.93687000 </v>
    <v>       0.37539000       0.00017000       0.93687000 </v>
    <v>       0.12461000       0.99983000       0.68687000 </v>
    <v>       0.37461000       0.00017000       0.68687000 </v>
    <v>       0.62539000       0.99983000       0.93687000 </v>
    <v>       0.87539000       0.00017000       0.93687000 </v>
    <v>       0.62461000       0.99983000       0.68687000 </v>
    <v>       0.87461000       0.00017000       0.68687000 </v>
    <v>       0.87539000       0.00017000       0.43687000 </v>
    <v>       0.00013000       0.29519000       0.06282000 </v>
    <v>       0.25013000       0.70481000       0.06282000 </v>
    <v>       0.24987000       0.29519000       0.31282000 </v>
    <v>       0.49987000       0.70481000       0.31282000 </v>
    <v>       0.50013000       0.29519000       0.06282000 </v>
    <v>       0.75013000       0.70481000       0.06282000 </v>
    <v>       0.74987000       0.29519000       0.31282000 </v>
    <v>       0.99987000       0.70481000       0.31282000 </v>
    <v>       0.00013000       0.29519000       0.56282000 </v>
    <v>       0.25013000       0.70481000       0.56282000 </v>
    <v>       0.24987000       0.29519000       0.81282000 </v>
    <v>       0.49987000       0.70481000       0.81282000 </v>
    <v>       0.50013000       0.29519000       0.56282000 </v>
    <v>       0.75013000       0.70481000       0.56282000 </v>
    <v>       0.74987000       0.29519000       0.81282000 </v>
    <v>       0.99987000       0.70481000       0.81282000 </v>
    <v>       0.25005000       0.32677000       0.06286000 </v>
    <v>       0.00005000       0.67323000       0.06286000 </v>
    <v>       0.49995000       0.32677000       0.31286000 </v>
    <v>       0.24995000       0.67323000       0.31286000 </v>
    <v>       0.75005000       0.32677000       0.06286000 </v>
    <v>       0.50005000       0.67323000       0.06286000 </v>
    <v>       0.99995000       0.32677000       0.31286000 </v>
    <v>       0.74995000       0.67323000       0.31286000 </v>
    <v>       0.25005000       0.32677000       0.56286000 </v>
    <v>       0.00005000       0.67323000       0.56286000 </v>
    <v>       0.49995000       0.32677000       0.81286000 </v>
    <v>       0.24995000       0.67323000       0.81286000 </v>
    <v>       0.75005000       0.32677000       0.56286000 </v>
    <v>       0.50005000       0.67323000       0.56286000 </v>
    <v>       0.99995000       0.32677000       0.81286000 </v>
    <v>       0.74995000       0.67323000       0.81286000 </v>
    <v>       0.49987000       0.07798000       0.06246000 </v>
    <v>       0.00013000       0.92202000       0.31246000 </v>
    <v>       0.24987000       0.92202000       0.06246000 </v>
    <v>       0.25013000       0.07798000       0.31246000 </v>
    <v>       0.99987000       0.07798000       0.06246000 </v>
    <v>       0.50013000       0.92202000       0.31246000 </v>
    <v>       0.74987000       0.92202000       0.06246000 </v>
    <v>       0.75013000       0.07798000       0.31246000 </v>
    <v>       0.49987000       0.07798000       0.56246000 </v>
    <v>       0.00013000       0.92202000       0.81246000 </v>
    <v>       0.24987000       0.92202000       0.56246000 </v>
    <v>       0.25013000       0.07798000       0.81246000 </v>
    <v>       0.99987000       0.07798000       0.56246000 </v>
    <v>       0.50013000       0.92202000       0.81246000 </v>
    <v>       0.74987000       0.92202000       0.56246000 </v>
    <v>       0.75013000       0.07798000       0.81246000 </v>
   </varray>
  </structure>
  <varray name="forces" >
   <v>      -0.53865008      -0.00072352       0.00539598 </v>
   <v>       0.12930320       0.06621077       0.41816559 </v>
   <v>      -0.18940048       0.06131248       0.16149343 </v>
   <v>      -0.53718735      -0.00087044       0.00609453 </v>
   <v>      -0.11709803      -0.06706559      -0.09109321 </v>
   <v>       0.20616189      -0.06536711      -0.31956887 </v>
   <v>       0.03541635       0.00024465       0.00568837 </v>
   <v>      -0.03773692      -0.00059074       0.00567124 </v>
   <v>       0.12950007      -0.06581570      -0.40731009 </v>
   <v>      -0.18927838      -0.06256520      -0.14910265 </v>
   <v>      -0.04954205       0.00039920       0.00568971 </v>
   <v>       0.01963822      -0.00043779       0.00566586 </v>
   <v>      -0.11679945       0.06741624       0.10152108 </v>
   <v>       0.20535626       0.06334737       0.33120721 </v>
   <v>       1.05315307      -0.00661566       0.03197313 </v>
   <v>       0.13892517       0.00516746      -0.02779219 </v>
   <v>       0.00590661       0.01228492       0.03448224 </v>
   <v>      -0.07359775      -1.03911118       0.14196566 </v>
   <v>      -0.25056094      -0.01199796      -0.00691562 </v>
   <v>      -0.16021206      -0.01048541      -0.00186146 </v>
   <v>      -0.00931726      -0.02298261      -0.06921421 </v>
   <v>      -0.10163061       1.04955009      -0.15073498 </v>
   <v>       0.44969685       0.00892565       0.02323808 </v>
   <v>       0.43232768      -0.00503752      -0.03211910 </v>
   <v>      -0.08676274       1.03111017      -0.15298717 </v>
   <v>       0.01842055      -0.01184296      -0.04181780 </v>
   <v>      -0.14714724       0.01028216      -0.00704963 </v>
   <v>      -0.26115452       0.01146903      -0.00144506 </v>
   <v>      -0.10798152      -1.03745302       0.14368523 </v>
   <v>       0.00235696       0.02221867       0.05981007 </v>
   <v>       0.14978137      -0.00498223       0.01854444 </v>
   <v>      -0.00583479       0.22092837      -0.10867580 </v>
   <v>      -0.07779845      -0.18326269      -0.00486374 </v>
   <v>       0.26769168       0.18497257       0.00273473 </v>
   <v>       0.02080603      -0.19418598      -0.11806621 </v>
   <v>       0.00035763       0.14425228       0.07877264 </v>
   <v>       0.07914226      -0.17867257      -0.00049479 </v>
   <v>      -0.32034454       0.11061856       0.03225106 </v>
   <v>       0.03761879      -0.09983362       0.12536574 </v>
   <v>       0.01769202       0.19306630       0.11716947 </v>
   <v>      -0.31832416      -0.11246201      -0.03158445 </v>
   <v>       0.08039370       0.17853260       0.00010927 </v>
   <v>      -0.00396314      -0.22053819       0.10684652 </v>
   <v>       0.03687006       0.10060141      -0.12594143 </v>
   <v>       0.26459402      -0.18529985      -0.00276116 </v>
   <v>      -0.07656611       0.18280685       0.00381951 </v>
   <v>       0.00157605      -0.14489440      -0.07760584 </v>
   <v>       0.09257965      -0.01595836      -0.00290276 </v>
   <v>      -1.32291856       0.00286032      -0.11506721 </v>
   <v>       0.00667034      -0.03519319      -0.07690934 </v>
   <v>       0.60078743       0.84455058      -0.66201206 </v>
   <v>      -0.08421303      -0.01904087      -0.00207370 </v>
   <v>       0.23395227       0.02573293      -0.00138657 </v>
   <v>       0.00708880       0.07796973       0.07590951 </v>
   <v>       0.46060870      -0.84802117       0.55449623 </v>
   <v>       0.24349240      -0.02467372      -0.00095467 </v>
   <v>      -0.09431312       0.01959671      -0.00046490 </v>
   <v>       0.61041256      -0.83986246       0.66472101 </v>
   <v>      -0.00439424       0.03501341       0.07346609 </v>
   <v>      -1.31538424      -0.00647467       0.10657139 </v>
   <v>       0.08123082       0.01639674       0.00030854 </v>
   <v>       0.48262874       0.85143250      -0.57454133 </v>
   <v>      -0.00402643      -0.07695234      -0.07751556 </v>
  </varray>
  <varray name="stress" >
   <v>      -9.94461247      -0.05855512       0.01098456 </v>
   <v>      -0.05855499     -14.90642191      -0.14939124 </v>
   <v>       0.01098451      -0.14939110      -8.90219396 </v>
  </varray>
  <energy>
   <i name="e_fr_energy">   -322.96771605 </i>
   <i name="e_wo_entrp">   -322.96771605 </i>
   <i name="e_0_energy">      0.00000000 </i>
  </energy>
  <time name="totalsc"> 1583.98 1588.17</time>
 </calculation>
 <calculation>
  <scstep>
   <time name="dav">   70.83   70.97</time>
   <time name="total">   71.69   71.83</time>
   <energy>
    <i name="alphaZ">   1107.42566027 </i>
    <i name="ewald"> -31543.27319136 </i>
    <i name="hartreedc"> -13038.76821149 </i>
    <i name="XCdc">   1576.67863509 </i>
    <i name="pawpsdc">  44045.89804102 </i>
    <i name="pawaedc"> -43690.31912627 </i>
    <i name="eentropy">      0.00000000 </i>
    <i name="bandstr">  -4320.48964310 </i>
    <i name="atom">  45556.09114881 </i>
    <i name="e_fr_energy">   -306.75668703 </i>
    <i name="e_wo_entrp">   -306.75668703 </i>
    <i name="e_0_energy">   -306.75668703 </i>
   </energy>
  </scstep>
  <scstep>
   <time name="dav">   74.58   74.68</time>
   <time name="total">   75.45   75.56</time>
   <energy>
    <i name="e_fr_energy">   -306.38199907 </i>
    <i name="e_wo_entrp">   -306.38199907 </i>
    <i name="e_0_energy">   -306.38199907 </i>
   </energy>
  </scstep>
  <scstep>
   <time name="dav">   93.13   93.32</time>
   <time name="total">   93.95   94.16</time>
   <energy>
    <i name="e_fr_energy">   -306.14499080 </i>
    <i name="e_wo_entrp">   -306.14499080 </i>
    <i name="e_0_energy">   -306.14499080 </i>
   </energy>
  </scstep>
  <scstep>
   <time name="dav">   86.95   87.11</time>
   <time name="total">   87.77   87.93</time>
   <energy>
    <i name="e_fr_energy">   -306.11346641 </i>
    <i name="e_wo_entrp">   -306.11346641 </i>
    <i name="e_0_energy">   -306.11346641 </i>
   </energy>
  </scstep>
  <scstep>
   <time name="dav">   81.24   81.40</time>
   <time name="total">   82.06   82.22</time>
   <energy>
    <i name="e_fr_energy">   -306.11573624 </i>
    <i name="e_wo_entrp">   -306.11573624 </i>
    <i name="e_0_energy">   -306.11573624 </i>
   </energy>
  </scstep>
  <scstep>
   <time name="dav">   86.57   86.76</time>
   <time name="total">   87.39   87.58</time>
   <energy>
    <i name="e_fr_energy">   -306.11517453 </i>
    <i name="e_wo_entrp">   -306.11517453 </i>
    <i name="e_0_energy">   -306.11517453 </i>
   </energy>
  </scstep>
  <scstep>
   <time name="dav">   91.29   91.50</time>
   <time name="total">   92.11   92.32</time>
   <energy>
    <i name="e_fr_energy">   -306.11500431 </i>
    <i name="e_wo_entrp">   -306.11500431 </i>
    <i name="e_0_energy">   -306.11500431 </i>
   </energy>
  </scstep>
  <scstep>
   <time name="dav">   89.04   89.07</time>
   <time name="total">   89.85   89.89</time>
   <energy>
    <i name="e_fr_energy">   -306.11508667 </i>
    <i name="e_wo_entrp">   -306.11508667 </i>
    <i name="e_0_energy">   -306.11508667 </i>
   </energy>
  </scstep>
  <scstep>
   <time name="dav">   83.86   83.99</time>
   <time name="total">   84.71   84.84</time>
   <energy>
    <i name="e_fr_energy">   -306.11508567 </i>
    <i name="e_wo_entrp">   -306.11508567 </i>
    <i name="e_0_energy">   -306.11508567 </i>
   </energy>
  </scstep>
  <scstep>
   <time name="dav">   73.21   73.42</time>
   <time name="total">   74.02   74.24</time>
   <energy>
    <i name="e_fr_energy">   -306.11508921 </i>
    <i name="e_wo_entrp">   -306.11508921 </i>
    <i name="e_0_energy">   -306.11508921 </i>
   </energy>
  </scstep>
  <scstep>
   <time name="dav">   92.47   92.59</time>
   <time name="total">   93.29   93.41</time>
   <energy>
    <i name="e_fr_energy">   -306.11508676 </i>
    <i name="e_wo_entrp">   -306.11508676 </i>
    <i name="e_0_energy">   -306.11508676 </i>
   </energy>
  </scstep>
  <scstep>
   <time name="dav">   66.24   66.37</time>
   <time name="total">   66.31   66.45</time>
   <energy>
    <i name="alphaZ">   1107.42566027 </i>
    <i name="ewald"> -31543.27319136 </i>
    <i name="hartreedc"> -12854.46190905 </i>
    <i name="XCdc">   1567.92982562 </i>
    <i name="pawpsdc">  44419.35683114 </i>
    <i name="pawaedc"> -44066.50788319 </i>
    <i name="eentropy">      0.00000000 </i>
    <i name="bandstr">  -4492.67556916 </i>
    <i name="atom">  45556.09114881 </i>
    <i name="e_fr_energy">   -306.11508691 </i>
    <i name="e_wo_entrp">   -306.11508691 </i>
    <i name="e_0_energy">   -306.11508691 </i>
   </energy>
  </scstep>
  <structure>
   <crystal>
    <varray name="basis" >
     <v>      11.11490973      -0.00037443       0.00007024 </v>
     <v>      -0.00032070       9.49295806      -0.00081821 </v>
     <v>       0.00007026      -0.00095561      11.12545556 </v>
    </varray>
    <i name="volume">   1173.88432061 </i>
    <varray name="rec_basis" >
     <v>       0.08996924       0.00000304      -0.00000057 </v>
     <v>       0.00000355       0.10534124       0.00000905 </v>
     <v>      -0.00000057       0.00000775       0.08988396 </v>
    </varray>
   </crystal>
   <varray name="positions" >
    <v>       0.37306537       0.00016635       0.43689328 </v>
    <v>       0.12516803       0.00016361       0.18867403 </v>
    <v>       0.37379261       0.00047893       0.18756671 </v>
    <v>       0.62307168       0.99982561       0.43689629 </v>
    <v>       0.62410464       0.99949208       0.18647701 </v>
    <v>       0.87549973      -0.00015936       0.18549133 </v>
    <v>       0.12554285       0.99983123       0.93689454 </v>
    <v>       0.37522714       0.00016702       0.93689447 </v>
    <v>       0.12516888       0.99949838       0.68511280 </v>
    <v>       0.37379314      -0.00014524       0.68622675 </v>
    <v>       0.62517619       0.99983201       0.93689455 </v>
    <v>       0.87547475       0.00016779       0.93689444 </v>
    <v>       0.62410593       0.00016968       0.68730798 </v>
    <v>       0.87549625       0.00048918       0.68829888 </v>
    <v>       0.87993506       0.00013667       0.43700794 </v>
    <v>       0.00072955       0.29521604       0.06270010 </v>
    <v>       0.25015549       0.70487190       0.06296876 </v>
    <v>       0.24955238       0.28995433       0.31343246 </v>
    <v>       0.49878866       0.70474955       0.31279016 </v>
    <v>       0.49943858       0.29513717       0.06281197 </v>
    <v>       0.75008979       0.70469420       0.06252140 </v>
    <v>       0.74943140       0.30047827       0.31216971 </v>
    <v>       0.00181074       0.70485497       0.31292025 </v>
    <v>       0.00199578       0.29516462       0.56268143 </v>
    <v>       0.24975556       0.71000536       0.56215999 </v>
    <v>       0.24994950       0.29513033       0.81263959 </v>
    <v>       0.49923496       0.70486181       0.81278959 </v>
    <v>       0.49900294       0.29524779       0.56281377 </v>
    <v>       0.74966399       0.69958268       0.56343988 </v>
    <v>       0.74988017       0.29530195       0.81307803 </v>
    <v>       0.00051641       0.70478490       0.81290000 </v>
    <v>       0.25002482       0.32788317       0.06239116 </v>
    <v>      -0.00028575       0.67230661       0.06283902 </v>
    <v>       0.50110527       0.32770200       0.31287180 </v>
    <v>       0.25003979       0.67225157       0.31235064 </v>
    <v>       0.75005154       0.32749683       0.06319984 </v>
    <v>       0.50039155       0.67232974       0.06285787 </v>
    <v>       0.99856750       0.32732736       0.31299914 </v>
    <v>       0.75011235       0.67272698       0.31340085 </v>
    <v>       0.25012635       0.32774279       0.56336549 </v>
    <v>      -0.00132378       0.67266335       0.56272374 </v>
    <v>       0.50029695       0.32766956       0.81286047 </v>
    <v>       0.24993290       0.67211879       0.81332095 </v>
    <v>       0.75020912       0.32727689       0.56231667 </v>
    <v>       0.50119190       0.67229635       0.56284809 </v>
    <v>       0.99961957       0.32769109       0.81287648 </v>
    <v>       0.74995680       0.67249993       0.81252520 </v>
    <v>       0.50026954       0.07789959       0.06244748 </v>
    <v>      -0.00557927       0.92203441       0.31196358 </v>
    <v>       0.24989879       0.92184268       0.06212820 </v>
    <v>       0.25272280       0.08223536       0.30960397 </v>
    <v>       0.99950656       0.07788406       0.06245105 </v>
    <v>       0.50113966       0.92214966       0.31245402 </v>
    <v>       0.74990059       0.92241286       0.06278749 </v>
    <v>       0.75211783       0.07370715       0.31485219 </v>
    <v>       0.50092083       0.07785568       0.56245588 </v>
    <v>      -0.00027702       0.92211874       0.81245799 </v>
    <v>       0.25250434       0.91778826       0.56532771 </v>
    <v>       0.25011104       0.07815642       0.81277694 </v>
    <v>       0.99419324       0.07794738       0.56291977 </v>
    <v>       0.50048056       0.92210262       0.81246133 </v>
    <v>       0.75195286       0.92631003       0.55998134 </v>
    <v>       0.75011262       0.07759227       0.81212559 </v>
   </varray>
  </structure>
  <varray name="forces" >
   <v>      -0.33853788      -0.00263861       0.00530771 </v>
   <v>       0.02483899       0.03261896       0.30799873 </v>
   <v>      -0.08127458       0.02801116       0.07261667 </v>
   <v>      -0.20213645       0.00225949       0.00685735 </v>
   <v>       0.00208152      -0.03621618       0.01272020 </v>
   <v>       0.06247615      -0.03541518      -0.16603227 </v>
   <v>       0.01979319       0.00076441       0.00608612 </v>
   <v>      -0.02035078      -0.00123638       0.00605448 </v>
   <v>       0.02381267      -0.03001146      -0.29751755 </v>
   <v>      -0.07995867      -0.02858568      -0.05970505 </v>
   <v>      -0.02951473       0.00119631       0.00639873 </v>
   <v>       0.00110339      -0.00088638       0.00611762 </v>
   <v>       0.00334364       0.03732475      -0.00147088 </v>
   <v>       0.06053640       0.03055974       0.18476536 </v>
   <v>       0.28456286       0.00063609       0.02582556 </v>
   <v>       0.05324550       0.30002576      -0.02604687 </v>
   <v>       0.01081920      -0.36227305      -0.02952249 </v>
   <v>      -0.06648438       1.13484120       0.07549236 </v>
   <v>      -0.02641522      -0.28780153      -0.00893446 </v>
   <v>      -0.07387111       0.29562230      -0.00305139 </v>
   <v>      -0.00908909      -0.22866775       0.00709825 </v>
   <v>      -0.04408770      -0.05278060      -0.01783862 </v>
   <v>       0.15246565      -0.31413535       0.00900818 </v>
   <v>       0.13985349       0.31333678      -0.01955679 </v>
   <v>      -0.07061826      -1.13369159      -0.07869733 </v>
   <v>       0.02015387       0.36229418       0.02221749 </v>
   <v>      -0.06533402      -0.29549567      -0.00476717 </v>
   <v>      -0.03545381       0.28923704       0.00063101 </v>
   <v>      -0.05345911       0.05400804       0.00730978 </v>
   <v>       0.00017277       0.22979829      -0.01405050 </v>
   <v>       0.06230834      -0.29997586       0.01885936 </v>
   <v>      -0.00813007       0.20831678      -0.04685679 </v>
   <v>      -0.02821249      -0.17949173       0.00282815 </v>
   <v>       0.10224936       0.18836089       0.00193215 </v>
   <v>       0.01612020      -0.11532869      -0.06322336 </v>
   <v>       0.00063288       0.15939192       0.02144906 </v>
   <v>       0.03394910      -0.17813042      -0.00132421 </v>
   <v>      -0.14511941       0.11743131       0.03340115 </v>
   <v>       0.02815604      -0.22322012       0.05484059 </v>
   <v>       0.01513263       0.11427980       0.06234698 </v>
   <v>      -0.14424029      -0.11907533      -0.03266796 </v>
   <v>       0.03441293       0.17808887       0.00086347 </v>
   <v>      -0.00772050      -0.20796692       0.04557086 </v>
   <v>       0.02706233       0.22321933      -0.05444565 </v>
   <v>       0.10206296      -0.18755238      -0.00177905 </v>
   <v>      -0.02826588       0.17893759      -0.00402988 </v>
   <v>       0.00149358      -0.15936203      -0.02212976 </v>
   <v>       0.01747050      -0.29041423      -0.00489611 </v>
   <v>      -0.65163730       0.15165570      -0.29226888 </v>
   <v>      -0.00427113       0.33311921      -0.00168590 </v>
   <v>       0.48708929      -1.28368450      -0.51160966 </v>
   <v>       0.00586628      -0.28297929      -0.00248397 </v>
   <v>      -0.00008744       0.26805062      -0.00545933 </v>
   <v>      -0.00080154       0.23155973      -0.00956415 </v>
   <v>       0.28424208       0.30869688       0.26046655 </v>
   <v>       0.00968822      -0.27046409       0.00131818 </v>
   <v>      -0.00390177       0.28404984      -0.00280437 </v>
   <v>       0.49004982       1.27795501       0.50444623 </v>
   <v>      -0.01234861      -0.33209472      -0.00183284 </v>
   <v>      -0.64737299      -0.15163603       0.28063503 </v>
   <v>       0.00981545       0.28984547       0.00080488 </v>
   <v>       0.30124854      -0.30069370      -0.27035566 </v>
   <v>      -0.00961462      -0.23358797       0.00434062 </v>
  </varray>
  <varray name="stress" >
   <v>       3.90727302      -0.04421100      -0.00163814 </v>
   <v>      -0.04421049       5.05942987       0.49735565 </v>
   <v>      -0.00163789       0.49735559       3.12654325 </v>
  </varray>
  <energy>
   <i name="e_fr_energy">   -323.46951758 </i>
   <i name="e_wo_entrp">   -323.46951758 </i>
   <i name="e_0_energy">      0.00000000 </i>
  </energy>
  <time name="totalsc"> 1110.10 1112.36</time>
 </calculation>
 <calculation>
  <scstep>
   <time name="dav">   77.71   78.60</time>
   <time name="total">   78.53   79.42</time>
   <energy>
    <i name="alphaZ">   1106.70818947 </i>
    <i name="ewald"> -31536.50133394 </i>
    <i name="hartreedc"> -12851.74570788 </i>
    <i name="XCdc">   1567.54333424 </i>
    <i name="pawpsdc">  44419.21403157 </i>
    <i name="pawaedc"> -44066.37271780 </i>
    <i name="eentropy">      0.00000000 </i>
    <i name="bandstr">  -4501.06259839 </i>
    <i name="atom">  45556.09114881 </i>
    <i name="e_fr_energy">   -306.12565392 </i>
    <i name="e_wo_entrp">   -306.12565392 </i>
    <i name="e_0_energy">   -306.12565392 </i>
   </energy>
  </scstep>
  <scstep>
   <time name="dav">   71.74   72.81</time>
   <time name="total">   72.55   73.64</time>
   <energy>
    <i name="e_fr_energy">   -306.12493147 </i>
    <i name="e_wo_entrp">   -306.12493147 </i>
    <i name="e_0_energy">   -306.12493147 </i>
   </energy>
  </scstep>
  <scstep>
   <time name="dav">   86.84   87.25</time>
   <time name="total">   87.65   88.07</time>
   <energy>
    <i name="e_fr_energy">   -306.12466855 </i>
    <i name="e_wo_entrp">   -306.12466855 </i>
    <i name="e_0_energy">   -306.12466855 </i>
   </energy>
  </scstep>
  <scstep>
   <time name="dav">   92.11   92.73</time>
   <time name="total">   92.92   93.55</time>
   <energy>
    <i name="e_fr_energy">   -306.12463251 </i>
    <i name="e_wo_entrp">   -306.12463251 </i>
    <i name="e_0_energy">   -306.12463251 </i>
   </energy>
  </scstep>
  <scstep>
   <time name="dav">   81.50   81.95</time>
   <time name="total">   82.32   82.77</time>
   <energy>
    <i name="e_fr_energy">   -306.12462634 </i>
    <i name="e_wo_entrp">   -306.12462634 </i>
    <i name="e_0_energy">   -306.12462634 </i>
   </energy>
  </scstep>
  <scstep>
   <time name="dav">   73.85   73.98</time>
   <time name="total">   74.67   74.80</time>
   <energy>
    <i name="e_fr_energy">   -306.12461949 </i>
    <i name="e_wo_entrp">   -306.12461949 </i>
    <i name="e_0_energy">   -306.12461949 </i>
   </energy>
  </scstep>
  <scstep>
   <time name="dav">   56.78   56.92</time>
   <time name="total">   57.61   57.75</time>
   <energy>
    <i name="e_fr_energy">   -306.12461457 </i>
    <i name="e_wo_entrp">   -306.12461457 </i>
    <i name="e_0_energy">   -306.12461457 </i>
   </energy>
  </scstep>
  <scstep>
   <time name="dav">   53.17   53.42</time>
   <time name="total">   53.25   53.50</time>
   <energy>
    <i name="alphaZ">   1106.70818947 </i>
    <i name="ewald"> -31536.50133394 </i>
    <i name="hartreedc"> -12857.88940706 </i>
    <i name="XCdc">   1567.83545951 </i>
    <i name="pawpsdc">  44405.97940554 </i>
    <i name="pawaedc"> -44053.03530706 </i>
    <i name="eentropy">      0.00000000 </i>
    <i name="bandstr">  -4495.31276964 </i>
    <i name="atom">  45556.09114881 </i>
    <i name="e_fr_energy">   -306.12461437 </i>
    <i name="e_wo_entrp">   -306.12461437 </i>
    <i name="e_0_energy">   -306.12461437 </i>
   </energy>
  </scstep>
  <structure>
   <crystal>
    <varray name="basis" >
     <v>      11.11702994      -0.00036194       0.00006790 </v>
     <v>      -0.00031001       9.49568014      -0.00079093 </v>
     <v>       0.00006792      -0.00092374      11.12735418 </v>
    </varray>
    <i name="volume">   1174.64534120 </i>
    <varray name="rec_basis" >
     <v>       0.08995208       0.00000294      -0.00000055 </v>
     <v>       0.00000343       0.10531105       0.00000874 </v>
     <v>      -0.00000055       0.00000749       0.08986862 </v>
    </varray>
   </crystal>
   <varray name="positions" >
    <v>       0.37314332       0.00016648       0.43689250 </v>
    <v>       0.12514932       0.00015238       0.18861357 </v>
    <v>       0.37382002       0.00046854       0.18754336 </v>
    <v>       0.62314942       0.99982576       0.43689541 </v>
    <v>       0.62412159       0.99950345       0.18649018 </v>
    <v>       0.87546989      -0.00014828       0.18553753 </v>
    <v>       0.12553772       0.99983119       0.93689372 </v>
    <v>       0.37523260       0.00016712       0.93689365 </v>
    <v>       0.12515014       0.99950954       0.68517169 </v>
    <v>       0.37382053      -0.00013464       0.68624830 </v>
    <v>       0.62518336       0.99983194       0.93689372 </v>
    <v>       0.87547191       0.00016787       0.93689362 </v>
    <v>       0.62412284       0.00015826       0.68729330 </v>
    <v>       0.87546653       0.00047844       0.68825099 </v>
    <v>       0.87978265       0.00013778       0.43700332 </v>
    <v>       0.00070945       0.29521516       0.06270412 </v>
    <v>       0.25015464       0.70486982       0.06296378 </v>
    <v>       0.24956303       0.29013039       0.31341195 </v>
    <v>       0.49882492       0.70475158       0.31279116 </v>
    <v>       0.49946176       0.29513895       0.06281224 </v>
    <v>       0.75009114       0.70469809       0.06253141 </v>
    <v>       0.74944610       0.30030044       0.31219149 </v>
    <v>       0.00174566       0.70485346       0.31291689 </v>
    <v>       0.00193322       0.29516547       0.56268608 </v>
    <v>       0.24976811       0.70983065       0.56218209 </v>
    <v>       0.24994683       0.29513234       0.81264564 </v>
    <v>       0.49925626       0.70486007       0.81279061 </v>
    <v>       0.49904074       0.29524585       0.56281397 </v>
    <v>       0.74967962       0.69975847       0.56341912 </v>
    <v>       0.74987983       0.29529819       0.81306938 </v>
    <v>       0.00049473       0.70478574       0.81289732 </v>
    <v>       0.25002566       0.32784574       0.06240686 </v>
    <v>      -0.00027449       0.67233766       0.06283972 </v>
    <v>       0.50106653       0.32767066       0.31287140 </v>
    <v>       0.25003678       0.67228448       0.31236772 </v>
    <v>       0.75005149       0.32747239       0.06318845 </v>
    <v>       0.50038010       0.67236001       0.06285794 </v>
    <v>       0.99861386       0.32730862       0.31299447 </v>
    <v>       0.75010691       0.67274389       0.31338272 </v>
    <v>       0.25012379       0.32771007       0.56334855 </v>
    <v>      -0.00127771       0.67268241       0.56272831 </v>
    <v>       0.50028532       0.32763930       0.81286045 </v>
    <v>       0.24993347       0.67215616       0.81330551 </v>
    <v>       0.75020378       0.32725985       0.56233488 </v>
    <v>       0.50115361       0.67232774       0.56284849 </v>
    <v>       0.99963065       0.32766012       0.81287592 </v>
    <v>       0.74995657       0.67252449       0.81253642 </v>
    <v>       0.50025615       0.07790230       0.06244790 </v>
    <v>      -0.00538783       0.92203394       0.31198022 </v>
    <v>       0.24989782       0.92184864       0.06213932 </v>
    <v>       0.25263585       0.08209226       0.30969968 </v>
    <v>       0.99951875       0.07788729       0.06245135 </v>
    <v>       0.50110580       0.92214530       0.31245422 </v>
    <v>       0.74989957       0.92239965       0.06277651 </v>
    <v>       0.75205118       0.07385083       0.31477203 </v>
    <v>       0.50088559       0.07785986       0.56245602 </v>
    <v>      -0.00026338       0.92211542       0.81245806 </v>
    <v>       0.25241600       0.91793056       0.56523162 </v>
    <v>       0.25011167       0.07815049       0.81276632 </v>
    <v>       0.99438360       0.07794848       0.56290436 </v>
    <v>       0.50046881       0.92209984       0.81246129 </v>
    <v>       0.75188302       0.92616577       0.56006439 </v>
    <v>       0.75011321       0.07760531       0.81213679 </v>
   </varray>
  </structure>
  <varray name="forces" >
   <v>      -0.34544013      -0.00257541       0.00529596 </v>
   <v>       0.02850384       0.03391689       0.31179717 </v>
   <v>      -0.08521583       0.02942721       0.07583413 </v>
   <v>      -0.21323395       0.00215748       0.00680043 </v>
   <v>      -0.00201430      -0.03727852       0.00926976 </v>
   <v>       0.06748238      -0.03649458      -0.17098707 </v>
   <v>       0.02043784       0.00074545       0.00606725 </v>
   <v>      -0.02106552      -0.00121384       0.00604555 </v>
   <v>       0.02755970      -0.03139355      -0.30138185 </v>
   <v>      -0.08397938      -0.03003987      -0.06295533 </v>
   <v>      -0.03022125       0.00117028       0.00637521 </v>
   <v>       0.00183748      -0.00087038       0.00609902 </v>
   <v>      -0.00077776       0.03835890       0.00194421 </v>
   <v>       0.06558205       0.03174571       0.18945727 </v>
   <v>       0.31238145       0.00041086       0.02611239 </v>
   <v>       0.05618761       0.28982244      -0.02622511 </v>
   <v>       0.01069931      -0.34923469      -0.02732932 </v>
   <v>      -0.06539750       1.04306309       0.07633705 </v>
   <v>      -0.03401537      -0.27818515      -0.00889604 </v>
   <v>      -0.07683495       0.28498330      -0.00306953 </v>
   <v>      -0.00910302      -0.22161960       0.00449249 </v>
   <v>      -0.04628956      -0.02163325      -0.02254612 </v>
   <v>       0.16241579      -0.30371036       0.00954480 </v>
   <v>       0.14963986       0.30306907      -0.02002002 </v>
   <v>      -0.06988595      -1.04235735      -0.07986917 </v>
   <v>       0.02016529       0.34928368       0.02001288 </v>
   <v>      -0.06814385      -0.28486946      -0.00479640 </v>
   <v>      -0.04310761       0.27954814       0.00058545 </v>
   <v>      -0.05560390       0.02314763       0.01216065 </v>
   <v>       0.00026124       0.22268516      -0.01154516 </v>
   <v>       0.06531280      -0.28976847       0.01895391 </v>
   <v>      -0.00805687       0.20880533      -0.04909581 </v>
   <v>      -0.02979526      -0.17966018       0.00251548 </v>
   <v>       0.10816990       0.18837359       0.00195332 </v>
   <v>       0.01610772      -0.11807152      -0.06508695 </v>
   <v>       0.00065513       0.15899116       0.02354975 </v>
   <v>       0.03542456      -0.17820778      -0.00129474 </v>
   <v>      -0.15119909       0.11734919       0.03338457 </v>
   <v>       0.02853274      -0.21930946       0.05734545 </v>
   <v>       0.01506289       0.11701831       0.06420702 </v>
   <v>      -0.15027411      -0.11900339      -0.03265251 </v>
   <v>       0.03590634       0.17816423       0.00083532 </v>
   <v>      -0.00760880      -0.20845238       0.04778482 </v>
   <v>       0.02744872       0.21933260      -0.05698728 </v>
   <v>       0.10788199      -0.18759501      -0.00180871 </v>
   <v>      -0.02981346       0.17910844      -0.00371452 </v>
   <v>       0.00152410      -0.15898244      -0.02416859 </v>
   <v>       0.01989393      -0.28077112      -0.00485060 </v>
   <v>      -0.67604041       0.14806285      -0.28460325 </v>
   <v>      -0.00390462       0.32027500      -0.00425196 </v>
   <v>       0.48991736      -1.19337444      -0.51550999 </v>
   <v>       0.00289695      -0.27377686      -0.00242627 </v>
   <v>       0.00776729       0.25956405      -0.00528046 </v>
   <v>      -0.00047445       0.22609595      -0.00668719 </v>
   <v>       0.29093258       0.27503362       0.27108258 </v>
   <v>       0.01753262      -0.26186251       0.00120380 </v>
   <v>      -0.00688240       0.27483325      -0.00276949 </v>
   <v>       0.49320798       1.18818859       0.50882029 </v>
   <v>      -0.01208325      -0.31928809       0.00073819 </v>
   <v>      -0.67172758      -0.14821775       0.27307849 </v>
   <v>       0.01211621       0.28023043       0.00080845 </v>
   <v>       0.30811463      -0.26712283      -0.28126633 </v>
   <v>      -0.00937012      -0.22802166       0.00158268 </v>
  </varray>
  <varray name="stress" >
   <v>       3.39403477      -0.04451023      -0.00122129 </v>
   <v>      -0.04451042       4.22635417       0.46089330 </v>
   <v>      -0.00122173       0.46089360       2.67550927 </v>
  </varray>
  <energy>
   <i name="e_fr_energy">   -323.47044231 </i>
   <i name="e_wo_entrp">   -323.47044231 </i>
   <i name="e_0_energy">      0.00000000 </i>
  </energy>
  <time name="totalsc">  709.98  715.55</time>
 </calculation>
 <calculation>
  <scstep>
   <time name="dav">   64.61   65.29</time>
   <time name="total">   65.43   66.11</time>
   <energy>
    <i name="alphaZ">   1111.16665804 </i>
    <i name="ewald"> -31691.75667961 </i>
    <i name="hartreedc"> -12771.61013124 </i>
    <i name="XCdc">   1569.57308269 </i>
    <i name="pawpsdc">  44405.91171556 </i>
    <i name="pawaedc"> -44052.96841384 </i>
    <i name="eentropy">      0.00000000 </i>
    <i name="bandstr">  -4432.21749756 </i>
    <i name="atom">  45556.09114881 </i>
    <i name="e_fr_energy">   -305.81011716 </i>
    <i name="e_wo_entrp">   -305.81011716 </i>
    <i name="e_0_energy">   -305.81011716 </i>
   </energy>
  </scstep>
  <scstep>
   <time name="dav">   77.03   78.02</time>
   <time name="total">   77.84   78.86</time>
   <energy>
    <i name="e_fr_energy">   -306.36824850 </i>
    <i name="e_wo_entrp">   -306.36824850 </i>
    <i name="e_0_energy">   -306.36824850 </i>
   </energy>
  </scstep>
  <scstep>
   <time name="dav">   99.09   99.94</time>
   <time name="total">   99.91  100.76</time>
   <energy>
    <i name="e_fr_energy">   -306.33806133 </i>
    <i name="e_wo_entrp">   -306.33806133 </i>
    <i name="e_0_energy">   -306.33806133 </i>
   </energy>
  </scstep>
  <scstep>
   <time name="dav">   78.43   78.55</time>
   <time name="total">   79.26   79.38</time>
   <energy>
    <i name="e_fr_energy">   -306.31797679 </i>
    <i name="e_wo_entrp">   -306.31797679 </i>
    <i name="e_0_energy">   -306.31797679 </i>
   </energy>
  </scstep>
  <scstep>
   <time name="dav">   85.44   85.63</time>
   <time name="total">   86.26   86.45</time>
   <energy>
    <i name="e_fr_energy">   -306.31592193 </i>
    <i name="e_wo_entrp">   -306.31592193 </i>
    <i name="e_0_energy">   -306.31592193 </i>
   </energy>
  </scstep>
  <scstep>
   <time name="dav">   86.52   87.31</time>
   <time name="total">   87.34   88.13</time>
   <energy>
    <i name="e_fr_energy">   -306.31604752 </i>
    <i name="e_wo_entrp">   -306.31604752 </i>
    <i name="e_0_energy">   -306.31604752 </i>
   </energy>
  </scstep>
  <scstep>
   <time name="dav">   80.13   81.13</time>
   <time name="total">   80.95   81.95</time>
   <energy>
    <i name="e_fr_energy">   -306.31596613 </i>
    <i name="e_wo_entrp">   -306.31596613 </i>
    <i name="e_0_energy">   -306.31596613 </i>
   </energy>
  </scstep>
  <scstep>
   <time name="dav">   86.27   87.33</time>
   <time name="total">   87.12   88.22</time>
   <energy>
    <i name="e_fr_energy">   -306.31594430 </i>
    <i name="e_wo_entrp">   -306.31594430 </i>
    <i name="e_0_energy">   -306.31594430 </i>
   </energy>
  </scstep>
  <scstep>
   <time name="dav">   85.86   87.11</time>
   <time name="total">   86.67   87.93</time>
   <energy>
    <i name="e_fr_energy">   -306.31595588 </i>
    <i name="e_wo_entrp">   -306.31595588 </i>
    <i name="e_0_energy">   -306.31595588 </i>
   </energy>
  </scstep>
  <scstep>
   <time name="dav">   82.98   83.52</time>
   <time name="total">   83.80   84.34</time>
   <energy>
    <i name="e_fr_energy">   -306.31595816 </i>
    <i name="e_wo_entrp">   -306.31595816 </i>
    <i name="e_0_energy">   -306.31595816 </i>
   </energy>
  </scstep>
  <scstep>
   <time name="dav">   62.52   62.98</time>
   <time name="total">   63.34   63.80</time>
   <energy>
    <i name="e_fr_energy">   -306.31595986 </i>
    <i name="e_wo_entrp">   -306.31595986 </i>
    <i name="e_0_energy">   -306.31595986 </i>
   </energy>
  </scstep>
  <scstep>
   <time name="dav">   54.04   54.26</time>
   <time name="total">   54.12   54.34</time>
   <energy>
    <i name="alphaZ">   1111.16665804 </i>
    <i name="ewald"> -31691.75667961 </i>
    <i name="hartreedc"> -12727.64357147 </i>
    <i name="XCdc">   1567.40693570 </i>
    <i name="pawpsdc">  44316.58489289 </i>
    <i name="pawaedc"> -43961.77814984 </i>
    <i name="eentropy">      0.00000000 </i>
    <i name="bandstr">  -4476.38719528 </i>
    <i name="atom">  45556.09114881 </i>
    <i name="e_fr_energy">   -306.31596076 </i>
    <i name="e_wo_entrp">   -306.31596076 </i>
    <i name="e_0_energy">   -306.31596076 </i>
   </energy>
  </scstep>
  <structure>
   <crystal>
    <varray name="basis" >
     <v>      11.10610675      -0.00082539       0.00009548 </v>
     <v>      -0.00070618       9.47713461       0.00124043 </v>
     <v>       0.00009565       0.00145747      11.11531564 </v>
    </varray>
    <i name="volume">   1169.93216943 </i>
    <varray name="rec_basis" >
     <v>       0.09004055       0.00000671      -0.00000078 </v>
     <v>       0.00000784       0.10551713      -0.00001384 </v>
     <v>      -0.00000077      -0.00001178       0.08996596 </v>
    </varray>
   </crystal>
   <varray name="positions" >
    <v>       0.37047278       0.00015153       0.43692715 </v>
    <v>       0.12555580       0.00049381       0.19087274 </v>
    <v>       0.37303726       0.00077453       0.18822387 </v>
    <v>       0.62105197       0.99983434       0.43693807 </v>
    <v>       0.62385605       0.99914307       0.18633046 </v>
    <v>       0.87621298      -0.00050042       0.18410083 </v>
    <v>       0.12570350       0.99983559       0.93693231 </v>
    <v>       0.37505902       0.00015948       0.93693211 </v>
    <v>       0.12555299       0.99918190       0.68298116 </v>
    <v>       0.37304336      -0.00044699       0.68565042 </v>
    <v>       0.62494442       0.99983887       0.93693365 </v>
    <v>       0.87552291       0.00016236       0.93693231 </v>
    <v>       0.62386330       0.00052498       0.68752417 </v>
    <v>       0.87619966       0.00080150       0.68979273 </v>
    <v>       0.88343921       0.00012302       0.43718581 </v>
    <v>       0.00125642       0.29669105       0.06253038 </v>
    <v>       0.25021366       0.70313891       0.06292152 </v>
    <v>       0.24911977       0.29272598       0.31405199 </v>
    <v>       0.49812867       0.70331685       0.31273760 </v>
    <v>       0.49877919       0.29655019       0.06279504 </v>
    <v>       0.75003143       0.70352063       0.06239899 </v>
    <v>       0.74902372       0.30288640       0.31176425 </v>
    <v>       0.00343211       0.70334374       0.31300881 </v>
    <v>       0.00352658       0.29668205       0.56252957 </v>
    <v>       0.24927649       0.70721804       0.56150269 </v>
    <v>       0.25007421       0.29686462       0.81264031 </v>
    <v>       0.49863972       0.70344882       0.81275440 </v>
    <v>       0.49828213       0.29668604       0.56281344 </v>
    <v>       0.74920301       0.69721118       0.56378618 </v>
    <v>       0.74988616       0.29647905       0.81315081 </v>
    <v>       0.00110476       0.70331063       0.81301948 </v>
    <v>       0.24997818       0.32946678       0.06195739 </v>
    <v>      -0.00057361       0.67096037       0.06283980 </v>
    <v>       0.50212001       0.32909635       0.31288590 </v>
    <v>       0.25015182       0.67118991       0.31182860 </v>
    <v>       0.75005513       0.32864521       0.06346257 </v>
[...]
       <r>   11.7103    0.0000 </r>
       <r>   11.7437    0.0000 </r>
      </set>
     </set>
    </set>
   </array>
  </eigenvalues>
  <separator name="orbital magnetization" >
   <v name="MAGDIPOLOUT">      0.00000000      0.00000000      0.00000000</v>
  </separator>
  <dos>
   <i name="efermi">      4.71776390 </i>
   <total>
    <array>
     <dimension dim="1">gridpoints</dimension>
     <dimension dim="2">spin</dimension>
     <field>energy</field>
     <field>total</field>
     <field>integrated</field>
     <set>
      <set comment="spin 1">
       <r>   -42.1469     0.0000     0.0000 </r>
       <r>   -41.9559     0.0000     0.0000 </r>
       <r>   -41.7648     0.0000     0.0000 </r>
       <r>   -41.5737     0.0000     0.0000 </r>
       <r>   -41.3826     0.0000     0.0000 </r>
       <r>   -41.1915     0.0000     0.0000 </r>
       <r>   -41.0004     0.0000     0.0000 </r>
       <r>   -40.8093     0.0000     0.0000 </r>
       <r>   -40.6182     0.0000     0.0000 </r>
       <r>   -40.4271     0.0000     0.0000 </r>
       <r>   -40.2360     0.0000     0.0000 </r>
       <r>   -40.0450     0.0000     0.0000 </r>
       <r>   -39.8539     0.0000     0.0000 </r>
       <r>   -39.6628     0.0000     0.0000 </r>
       <r>   -39.4717     0.0000     8.0000 </r>
       <r>   -39.2806     0.0000    20.0000 </r>
       <r>   -39.0895     0.0000    24.0000 </r>
       <r>   -38.8984     0.0000    28.0000 </r>
       <r>   -38.7073     0.0000    28.0000 </r>
       <r>   -38.5162     0.0000    28.0000 </r>
       <r>   -38.3252     0.0000    28.0000 </r>
       <r>   -38.1341     0.0000    28.0000 </r>
       <r>   -37.9430     0.0000    28.0000 </r>
       <r>   -37.7519     0.0000    28.0000 </r>
       <r>   -37.5608     0.0000    28.0000 </r>
       <r>   -37.3697     0.0000    28.0000 </r>
       <r>   -37.1786     0.0000    28.0000 </r>
       <r>   -36.9875     0.0000    28.0000 </r>
       <r>   -36.7964     0.0000    28.0000 </r>
       <r>   -36.6053     0.0000    28.0000 </r>
       <r>   -36.4143     0.0000    28.0000 </r>
       <r>   -36.2232     0.0000    28.0000 </r>
       <r>   -36.0321     0.0000    28.0000 </r>
       <r>   -35.8410     0.0000    28.0000 </r>
       <r>   -35.6499     0.0000    28.0000 </r>
       <r>   -35.4588     0.0000    28.0000 </r>
       <r>   -35.2677     0.0000    28.0000 </r>
       <r>   -35.0766     0.0000    28.0000 </r>
       <r>   -34.8855     0.0000    28.0000 </r>
       <r>   -34.6945     0.0000    28.0000 </r>
       <r>   -34.5034     0.0000    28.0000 </r>
       <r>   -34.3123     0.0000    28.0000 </r>
       <r>   -34.1212     0.0000    28.0000 </r>
       <r>   -33.9301     0.0000    28.0000 </r>
       <r>   -33.7390     0.0000    28.0000 </r>
       <r>   -33.5479     0.0000    28.0000 </r>
       <r>   -33.3568     0.0000    28.0000 </r>
       <r>   -33.1657     0.0000    28.0000 </r>
       <r>   -32.9746     0.0000    28.0000 </r>
       <r>   -32.7836     0.0000    28.0000 </r>
       <r>   -32.5925     0.0000    28.0000 </r>
       <r>   -32.4014     0.0000    28.0000 </r>
       <r>   -32.2103     0.0000    28.0000 </r>
       <r>   -32.0192     0.0000    28.0000 </r>
       <r>   -31.8281     0.0000    28.0000 </r>
       <r>   -31.6370     0.0000    28.0000 </r>
       <r>   -31.4459     0.0000    28.0000 </r>
       <r>   -31.2548     0.0000    28.0000 </r>
       <r>   -31.0638     0.0000    28.0000 </r>
       <r>   -30.8727     0.0000    28.0000 </r>
       <r>   -30.6816     0.0000    28.0000 </r>
       <r>   -30.4905     0.0000    28.0000 </r>
       <r>   -30.2994     0.0000    28.0000 </r>
       <r>   -30.1083     0.0000    28.0000 </r>
       <r>   -29.9172     0.0000    28.0000 </r>
       <r>   -29.7261     0.0000    28.0000 </r>
       <r>   -29.5350     0.0000    28.0000 </r>
       <r>   -29.3439     0.0000    28.0000 </r>
       <r>   -29.1529     0.0000    28.0000 </r>
       <r>   -28.9618     0.0000    28.0000 </r>
       <r>   -28.7707     0.0000    28.0000 </r>
       <r>   -28.5796     0.0000    28.0000 </r>
       <r>   -28.3885     0.0000    28.0000 </r>
       <r>   -28.1974     0.0000    28.0000 </r>
       <r>   -28.0063     0.0000    28.0000 </r>
       <r>   -27.8152     0.0000    28.0000 </r>
       <r>   -27.6241     0.0000    28.0000 </r>
       <r>   -27.4330     0.0000    28.0000 </r>
       <r>   -27.2420     0.0000    28.0000 </r>
       <r>   -27.0509     0.0000    28.0000 </r>
       <r>   -26.8598     0.0000    28.0000 </r>
       <r>   -26.6687     0.0000    28.0000 </r>
       <r>   -26.4776     0.0000    28.0000 </r>
       <r>   -26.2865     0.0000    28.0000 </r>
       <r>   -26.0954     0.0000    28.0000 </r>
       <r>   -25.9043     0.0000    28.0000 </r>
       <r>   -25.7132     0.0000    28.0000 </r>
       <r>   -25.5222     0.0000    28.0000 </r>
       <r>   -25.3311     0.0000    28.0000 </r>
       <r>   -25.1400     0.0000    28.0000 </r>
       <r>   -24.9489     0.0000    28.0000 </r>
       <r>   -24.7578     0.0000    28.0000 </r>
       <r>   -24.5667     0.0000    28.0000 </r>
       <r>   -24.3756     0.0000    28.0000 </r>
       <r>   -24.1845     0.0000    28.0000 </r>
       <r>   -23.9934     0.0000    28.0000 </r>
       <r>   -23.8023     0.0000    28.0000 </r>
       <r>   -23.6113     0.0000    28.0000 </r>
       <r>   -23.4202     0.0000    28.0000 </r>
       <r>   -23.2291     0.0000    28.0000 </r>
       <r>   -23.0380     0.0000    28.0000 </r>
       <r>   -22.8469     0.0000    28.0000 </r>
       <r>   -22.6558     0.0000    28.0000 </r>
       <r>   -22.4647     0.0000    28.0000 </r>
       <r>   -22.2736     0.0000    28.0000 </r>
       <r>   -22.0825     0.0000    28.0000 </r>
       <r>   -21.8915     0.0000    28.0000 </r>
       <r>   -21.7004     0.0000    28.0000 </r>
       <r>   -21.5093     0.0000    28.0000 </r>
       <r>   -21.3182     0.0000    28.0000 </r>
       <r>   -21.1271     0.0000    28.0000 </r>
       <r>   -20.9360     0.0000    28.0000 </r>
       <r>   -20.7449     0.0000    28.0000 </r>
       <r>   -20.5538     0.0000    28.0000 </r>
       <r>   -20.3627     0.0000    28.0000 </r>
       <r>   -20.1716     0.0000    28.0000 </r>
       <r>   -19.9806     0.0000    28.0000 </r>
       <r>   -19.7895     0.0000    28.0000 </r>
       <r>   -19.5984     0.0000    28.0000 </r>
       <r>   -19.4073     0.0000    28.0000 </r>
       <r>   -19.2162     0.0000    28.0000 </r>
       <r>   -19.0251     0.0000    28.0000 </r>
       <r>   -18.8340     0.0000    28.0000 </r>
       <r>   -18.6429     0.0000    28.0000 </r>
       <r>   -18.4518     0.0000    28.0000 </r>
       <r>   -18.2608  1423.3286    85.7994 </r>
       <r>   -18.0697     0.0000   172.0000 </r>
       <r>   -17.8786     0.0000   188.0000 </r>
       <r>   -17.6875     0.0000   188.0000 </r>
       <r>   -17.4964     0.0000   188.0000 </r>
       <r>   -17.3053     0.0000   188.0000 </r>
       <r>   -17.1142     0.0000   188.0000 </r>
       <r>   -16.9231     0.0000   188.0000 </r>
       <r>   -16.7320     0.0000   188.0000 </r>
       <r>   -16.5409     0.0000   188.0000 </r>
       <r>   -16.3499     0.0000   188.0000 </r>
       <r>   -16.1588     0.0000   188.0000 </r>
       <r>   -15.9677     0.0000   188.0000 </r>
       <r>   -15.7766     0.0000   188.0000 </r>
       <r>   -15.5855     0.0000   188.0000 </r>
       <r>   -15.3944     0.0000   188.0000 </r>
       <r>   -15.2033     0.0000   188.0000 </r>
       <r>   -15.0122     0.0000   188.0000 </r>
       <r>   -14.8211     0.0000   188.0000 </r>
       <r>   -14.6301     0.0000   188.0000 </r>
       <r>   -14.4390     0.0000   188.0000 </r>
       <r>   -14.2479     0.0000   188.0000 </r>
       <r>   -14.0568     0.0000   188.0000 </r>
       <r>   -13.8657     0.0000   188.0000 </r>
       <r>   -13.6746     0.0000   188.0000 </r>
       <r>   -13.4835     0.0000   188.0000 </r>
       <r>   -13.2924     0.0000   188.0000 </r>
       <r>   -13.1013     0.0000   188.0000 </r>
       <r>   -12.9102     0.0000   188.0000 </r>
       <r>   -12.7192     0.0000   188.0000 </r>
       <r>   -12.5281     6.2367   191.9998 </r>
       <r>   -12.3370   172.9781   200.8779 </r>
       <r>   -12.1459     0.0000   218.0000 </r>
       <r>   -11.9548     0.0000   220.0000 </r>
       <r>   -11.7637     0.0000   220.0000 </r>
       <r>   -11.5726     0.0000   220.0000 </r>
       <r>   -11.3815     0.0000   220.0000 </r>
       <r>   -11.1904     0.0000   220.0000 </r>
       <r>   -10.9994     0.0000   220.0000 </r>
       <r>   -10.8083     0.0000   220.0000 </r>
       <r>   -10.6172     0.0000   220.0000 </r>
       <r>   -10.4261     0.0000   220.0000 </r>
       <r>   -10.2350     0.0000   220.0000 </r>
       <r>   -10.0439     0.0000   220.0000 </r>
       <r>    -9.8528     0.0000   220.0000 </r>
       <r>    -9.6617     0.0000   220.0000 </r>
       <r>    -9.4706     0.0000   220.0000 </r>
       <r>    -9.2795     0.0000   220.0000 </r>
       <r>    -9.0885     5.7139   220.2685 </r>
       <r>    -8.8974    14.0108   222.2322 </r>
       <r>    -8.7063     4.3924   223.9397 </r>
       <r>    -8.5152    15.6643   225.5517 </r>
       <r>    -8.3241     6.5551   228.0440 </r>
       <r>    -8.1330    21.3229   233.7443 </r>
       <r>    -7.9419     2.9702   235.9441 </r>
       <r>    -7.7508    35.7163   239.9154 </r>
       <r>    -7.5597    24.1150   245.6322 </r>
       <r>    -7.3686    11.9604   248.5277 </r>
       <r>    -7.1776     8.4206   251.7658 </r>
       <r>    -6.9865     0.0000   252.0000 </r>
       <r>    -6.7954     0.0000   252.0000 </r>
       <r>    -6.6043     0.0000   252.0000 </r>
       <r>    -6.4132     0.0000   252.0000 </r>
       <r>    -6.2221     0.0000   252.0000 </r>
       <r>    -6.0310     0.0000   252.0000 </r>
       <r>    -5.8399    19.9059   253.7390 </r>
       <r>    -5.6488    44.7217   259.4212 </r>
       <r>    -5.4578    25.3884   261.5933 </r>
       <r>    -5.2667    32.6061   266.9750 </r>
       <r>    -5.0756    22.6100   271.8050 </r>
       <r>    -4.8845    10.5496   274.8926 </r>
       <r>    -4.6934     1.0007   276.0176 </r>
       <r>    -4.5023     9.6116   277.0215 </r>
       <r>    -4.3112    14.2550   279.4226 </r>
       <r>    -4.1201     3.9149   280.5357 </r>
       <r>    -3.9290     6.6557   281.5457 </r>
       <r>    -3.7379     6.4293   283.1314 </r>
       <r>    -3.5469     1.8597   283.7242 </r>
       <r>    -3.3558     0.6557   283.9645 </r>
       <r>    -3.1647     0.0000   284.0000 </r>
       <r>    -2.9736     0.0000   284.0000 </r>
       <r>    -2.7825     0.0000   284.0000 </r>
       <r>    -2.5914     0.0000   284.0000 </r>
       <r>    -2.4003     0.0000   284.0000 </r>
       <r>    -2.2092     0.0000   284.0000 </r>
       <r>    -2.0181     0.0000   284.0000 </r>
       <r>    -1.8271     0.0000   284.0000 </r>
       <r>    -1.6360     0.0000   284.0000 </r>
       <r>    -1.4449     0.0000   284.0000 </r>
       <r>    -1.2538     0.0000   284.0000 </r>
       <r>    -1.0627     2.1062   284.0541 </r>
       <r>    -0.8716     8.0231   285.2602 </r>
       <r>    -0.6805     4.9877   286.3624 </r>
       <r>    -0.4894    13.3211   288.0541 </r>
       <r>    -0.2983     8.7837   290.2478 </r>
       <r>    -0.1072    14.3695   292.0079 </r>
       <r>     0.0838    26.3775   296.1058 </r>
       <r>     0.2749    42.9132   301.3266 </r>
       <r>     0.4660    34.1696   309.5306 </r>
       <r>     0.6571    43.2065   316.8405 </r>
       <r>     0.8482    23.6385   324.3525 </r>
       <r>     1.0393    32.9621   330.3679 </r>
       <r>     1.2304    35.8392   335.5192 </r>
       <r>     1.4215    66.7469   343.0524 </r>
       <r>     1.6126    49.4927   352.2050 </r>
       <r>     1.8036    42.1317   359.9177 </r>
       <r>     1.9947    63.4842   369.1827 </r>
       <r>     2.1858    71.5294   382.7772 </r>
       <r>     2.3769    33.5502   393.9925 </r>
       <r>     2.5680    24.5256   399.4604 </r>
       <r>     2.7591    67.6220   407.4451 </r>
       <r>     2.9502    66.7899   422.6455 </r>
       <r>     3.1413    66.1670   434.5209 </r>
       <r>     3.3324    46.6344   448.9832 </r>
       <r>     3.5235    24.3945   458.6006 </r>
       <r>     3.7145    24.4503   462.7545 </r>
       <r>     3.9056    19.8854   470.0569 </r>
       <r>     4.0967    12.3341   472.9386 </r>
       <r>     4.2878     7.5705   474.8402 </r>
       <r>     4.4789     2.8192   475.8327 </r>
       <r>     4.6700     0.0000   476.0000 </r>
       <r>     4.8611     0.0000   476.0000 </r>
       <r>     5.0522     0.0000   476.0000 </r>
       <r>     5.2433     0.0000   476.0000 </r>
       <r>     5.4343     0.0000   476.0000 </r>
       <r>     5.6254     1.6178   476.0535 </r>
       <r>     5.8165     7.1300   476.8897 </r>
       <r>     6.0076    10.8709   478.7318 </r>
       <r>     6.1987    33.9318   481.2292 </r>
       <r>     6.3898    13.9044   485.1612 </r>
       <r>     6.5809    12.5867   487.6586 </r>
       <r>     6.7720    12.7445   490.0245 </r>
       <r>     6.9631    14.6450   492.6414 </r>
       <r>     7.1542    16.5938   495.6227 </r>
       <r>     7.3452    19.7538   499.0705 </r>
       <r>     7.5363    28.4508   503.6033 </r>
       <r>     7.7274    44.6428   510.1234 </r>
       <r>     7.9185    21.0173   517.6236 </r>
       <r>     8.1096    29.9192   522.7184 </r>
       <r>     8.3007    28.7646   528.0985 </r>
       <r>     8.4918    43.9755   535.3021 </r>
       <r>     8.6829    24.2445   542.4771 </r>
       <r>     8.8740    13.9216   545.6869 </r>
       <r>     9.0651    41.7486   550.5243 </r>
       <r>     9.2561    32.1595   557.9675 </r>
       <r>     9.4472    30.1069   564.0408 </r>
       <r>     9.6383    23.9333   570.2418 </r>
       <r>     9.8294     0.1426   571.9992 </r>
       <r>    10.0205     0.0000   572.0000 </r>
       <r>    10.2116    12.4778   573.0856 </r>
       <r>    10.4027     7.9174   575.3852 </r>
       <r>    10.5938    18.5953   577.6037 </r>
       <r>    10.7849    16.4580   581.3798 </r>
       <r>    10.9759    31.1145   585.7412 </r>
       <r>    11.1670    38.6861   594.4953 </r>
       <r>    11.3581    24.7102   601.1309 </r>
       <r>    11.5492    18.9447   605.2660 </r>
       <r>    11.7403    17.7528   609.3599 </r>
       <r>    11.9314    14.8169   612.8002 </r>
       <r>    12.1225     7.5554   614.8862 </r>
       <r>    12.3136     2.4026   615.8088 </r>
       <r>    12.5047     0.1190   615.9974 </r>
       <r>    12.6958     0.0000   616.0000 </r>
       <r>    12.8868     0.0000   616.0000 </r>
       <r>    13.0779     0.0000   616.0000 </r>
       <r>    13.2690     0.0000   616.0000 </r>
       <r>    13.4601     0.0000   616.0000 </r>
       <r>    13.6512     0.0000   616.0000 </r>
       <r>    13.8423     0.0000   616.0000 </r>
       <r>    14.0334     0.0000   616.0000 </r>
       <r>    14.2245     0.0000   616.0000 </r>
       <r>    14.4156     0.0000   616.0000 </r>
       <r>    14.6066     0.0000   616.0000 </r>
       <r>    14.7977     0.0000   616.0000 </r>
       <r>    14.9888     0.0000   616.0000 </r>
       <r>    15.1799     0.0000   616.0000 </r>
      </set>
     </set>
    </array>
   </total>
  </dos>
 </calculation>
 <structure name="finalpos" >
  <crystal>
   <varray name="basis" >
    <v>      11.11941706      -0.00050534       0.00003191 </v>
    <v>      -0.00045331       9.40282791       0.01294381 </v>
    <v>       0.00003472       0.01560261      11.11792479 </v>
   </varray>
   <i name="volume">   1162.42087194 </i>
   <varray name="rec_basis" >
    <v>       0.08993277       0.00000434      -0.00000029 </v>
    <v>       0.00000483       0.10635119      -0.00014925 </v>
    <v>      -0.00000026      -0.00012382       0.08994502 </v>
   </varray>
  </crystal>
  <varray name="positions" >
   <v>       0.35994884      -0.00016820       0.43731042 </v>
   <v>       0.12494993      -0.00099744       0.20092181 </v>
   <v>       0.37582811      -0.00092799       0.18448456 </v>
   <v>       0.61917886       0.00009171       0.43738733 </v>
   <v>       0.62374027       0.99866405       0.18809871 </v>
   <v>       0.87464475      -0.00165118       0.17977290 </v>
   <v>       0.12699762      -0.00000885       0.93737247 </v>
   <v>       0.37218200      -0.00001787       0.93737540 </v>
   <v>       0.12491899       0.00101211       0.67366572 </v>
   <v>       0.37588268       0.00091217       0.69028482 </v>
   <v>       0.62324955       0.00000752       0.93739735 </v>
   <v>       0.87764860       0.00001040       0.93742804 </v>
   <v>       0.62381161       0.00132037       0.68665723 </v>
   <v>       0.87460615       0.00162517       0.69510271 </v>
   <v>       0.88126296       0.00008378       0.43747016 </v>
   <v>       0.00088896       0.29929261       0.06218275 </v>
   <v>       0.25059894       0.69909913       0.06205653 </v>
   <v>       0.25227568       0.29598226       0.31109781 </v>
   <v>       0.49988552       0.69948402       0.31220293 </v>
   <v>       0.49923909       0.29939052       0.06247769 </v>
   <v>       0.74979632       0.70020610       0.06205692 </v>
   <v>       0.75012220       0.30789032       0.31299716 </v>
   <v>       0.00012924       0.69389805       0.31085425 </v>
   <v>       0.00012230       0.30620857       0.56427704 </v>
   <v>       0.25227623       0.70389443       0.56398524 </v>
   <v>       0.25061100       0.30088747       0.81301862 </v>
   <v>       0.49923947       0.70059881       0.81258164 </v>
   <v>       0.49990195       0.30052578       0.56286649 </v>
   <v>       0.75014246       0.69219660       0.56209872 </v>
   <v>       0.74980274       0.29979204       0.81302604 </v>
   <v>       0.00086830       0.70071373       0.81292737 </v>
   <v>       0.24990734       0.34821727       0.06283124 </v>
   <v>      -0.00058636       0.65346641       0.06198198 </v>
   <v>       0.50067180       0.34596426       0.31294359 </v>
   <v>       0.25057991       0.66570615       0.31215435 </v>
   <v>       0.75005406       0.34198487       0.06258291 </v>
   <v>       0.50082836       0.65478132       0.06220176 </v>
   <v>       0.99892967       0.33647505       0.31397670 </v>
   <v>       0.75079030       0.64881047       0.31276920 </v>
   <v>       0.25054456       0.33427242       0.56311554 </v>
   <v>      -0.00102707       0.66352681       0.56134580 </v>
   <v>       0.50079957       0.34524884       0.81309428 </v>
   <v>       0.24992564       0.65184090       0.81244227 </v>
   <v>       0.75075915       0.35127003       0.56253934 </v>
   <v>       0.50072408       0.65405850       0.56235241 </v>
   <v>       0.99938312       0.34651044       0.81333969 </v>
   <v>       0.75007621       0.65796050       0.81270896 </v>
   <v>       0.50051799       0.07752518       0.06183069 </v>
   <v>      -0.01984216       0.91513577       0.30444843 </v>
   <v>       0.25057694       0.92024096       0.05947640 </v>
   <v>       0.26280737       0.07928655       0.29846444 </v>
   <v>      -0.00006963       0.07764662       0.06149972 </v>
   <v>       0.50513997       0.92087951       0.31117202 </v>
   <v>       0.74925668       0.92261250       0.06347609 </v>
   <v>       0.75524930       0.08190336       0.32103731 </v>
   <v>       0.50522026       0.07914420       0.56376168 </v>
   <v>      -0.00012544       0.92234731       0.81346640 </v>
   <v>       0.26282314       0.92062091       0.57637696 </v>
   <v>       0.25061693       0.07975082       0.81541510 </v>
   <v>       0.98020349       0.08493764       0.57052066 </v>
   <v>       0.50053118       0.92246032       0.81305776 </v>
   <v>       0.75532838       0.91818214       0.55399827 </v>
   <v>       0.74926395       0.07738579       0.81147122 </v>
  </varray>
 </structure>
</modeling>
