<?xml version="1.0" encoding="ISO-8859-1"?>
<modeling>
 <generator>
  <i name="program" type="string">vasp </i>
  <i name="version" type="string">5.4.4.18Apr17-6-g9f103f2a35  </i>
  <i name="subversion" type="string">(build Jul 31 2017 11:33:29) complex            parallel </i>
  <i name="platform" type="string">LinuxIFC </i>
  <i name="date" type="string">2021 09 29 </i>
  <i name="time" type="string">13:35:16 </i>
 </generator>
 <incar>
  <i type="string" name="SYSTEM"> La2O2S</i>
  <i type="string" name="PREC">normal</i>
  <i type="int" name="NELMIN">     4</i>
  <i type="int" name="IBRION">     2</i>
  <i type="int" name="NFREE">    10</i>
  <i name="EDIFF">      0.00000100</i>
  <i name="EDIFFG">     -0.01000000</i>
  <i type="int" name="NSW">     1</i>
  <i type="int" name="ISIF">     2</i>
  <i name="ENCUT">    600.00000000</i>
  <i name="ENAUG">    900.00000000</i>
  <i type="int" name="ISMEAR">    -5</i>
  <i type="logical" name="LWAVE"> F  </i>
  <i type="logical" name="LCHARG"> F  </i>
  <v type="int" name="KPOINT_BSE">    -1     0     0     0</v>
 </incar>
 <structure name="primitive_cell" >
  <crystal>
   <varray name="basis" >
    <v>      -5.58925000       0.00000000       5.59120000 </v>
    <v>      -5.58925000       0.00000000      -5.59120000 </v>
    <v>       0.00000000      -9.57460000       0.00000000 </v>
   </varray>
   <i name="volume">    598.42426910 </i>
   <varray name="rec_basis" >
    <v>      -0.08945744       0.00000000       0.08942624 </v>
    <v>      -0.08945744       0.00000000      -0.08942624 </v>
    <v>       0.00000000      -0.10444301       0.00000000 </v>
   </varray>
  </crystal>
  <varray name="positions" >
   <v>       0.06148000       0.18774000      -0.00017000 </v>
   <v>      -0.18767000       0.18741000       0.07798000 </v>
   <v>       0.06233000       0.43741000      -0.07798000 </v>
   <v>       0.06259000      -0.06233000      -0.07798000 </v>
   <v>       0.31259000       0.18767000       0.07798000 </v>
   <v>      -0.18852000      -0.06226000       0.00016000 </v>
   <v>      -0.18705000       0.18731000       0.29519000 </v>
   <v>       0.06295000       0.43731000      -0.29519000 </v>
   <v>       0.06268000      -0.06294000      -0.29519000 </v>
   <v>       0.31268000       0.18706000       0.29519000 </v>
   <v>      -0.18709000       0.18719000      -0.32677000 </v>
   <v>       0.06291000       0.43719000       0.32677000 </v>
   <v>       0.06281000      -0.06291000       0.32677000 </v>
   <v>       0.31281000       0.18709000      -0.32677000 </v>
   <v>      -0.43774000       0.18852000       0.00016000 </v>
   <v>       0.06226000      -0.31148000       0.00016000 </v>
   <v>      -0.43741000       0.43767000      -0.07798000 </v>
   <v>      -0.43767000      -0.06259000      -0.07798000 </v>
   <v>      -0.18741000      -0.31233000       0.07798000 </v>
   <v>       0.31233000      -0.31259000       0.07798000 </v>
   <v>      -0.43732000       0.43706000      -0.29519000 </v>
   <v>      -0.43705000      -0.06269000      -0.29519000 </v>
   <v>      -0.18732000      -0.31294000       0.29519000 </v>
   <v>       0.31295000      -0.31269000       0.29519000 </v>
   <v>      -0.43719000       0.43709000       0.32677000 </v>
   <v>      -0.18719000      -0.31291000      -0.32677000 </v>
   <v>      -0.43709000      -0.06281000       0.32677000 </v>
   <v>       0.31291000      -0.31281000      -0.32677000 </v>
   <v>      -0.43852000      -0.31226000      -0.00017000 </v>
  </varray>
 </structure>
 <varray name="primitive_index" >
  <v type="int" >        1 </v>
  <v type="int" >       50 </v>
  <v type="int" >       45 </v>
  <v type="int" >       51 </v>
  <v type="int" >       52 </v>
  <v type="int" >        2 </v>
  <v type="int" >       14 </v>
  <v type="int" >       13 </v>
  <v type="int" >       23 </v>
  <v type="int" >       20 </v>
  <v type="int" >       29 </v>
  <v type="int" >       30 </v>
  <v type="int" >       40 </v>
  <v type="int" >       35 </v>
  <v type="int" >        7 </v>
  <v type="int" >       10 </v>
  <v type="int" >       43 </v>
  <v type="int" >       49 </v>
  <v type="int" >       56 </v>
  <v type="int" >       46 </v>
  <v type="int" >       15 </v>
  <v type="int" >       17 </v>
  <v type="int" >       12 </v>
  <v type="int" >       18 </v>
  <v type="int" >       32 </v>
  <v type="int" >       27 </v>
  <v type="int" >       34 </v>
  <v type="int" >       33 </v>
  <v type="int" >        6 </v>
 </varray>
 <kpoints>
  <generation param="Gamma">
   <v type="int" name="divisions">       2        2        2 </v>
   <v name="usershift">      0.00000000       0.00000000       0.00000000 </v>
   <v name="genvec1">      0.50000000       0.00000000       0.00000000 </v>
   <v name="genvec2">      0.00000000       0.50000000       0.00000000 </v>
   <v name="genvec3">      0.00000000       0.00000000       0.50000000 </v>
   <v name="shift">      0.00000000       0.00000000       0.00000000 </v>
  </generation>
  <varray name="kpointlist" >
   <v>       0.00000000       0.00000000       0.00000000 </v>
   <v>       0.50000000       0.00000000       0.00000000 </v>
   <v>       0.00000000       0.50000000       0.00000000 </v>
   <v>       0.50000000       0.50000000       0.00000000 </v>
   <v>       0.00000000       0.00000000       0.50000000 </v>
   <v>       0.50000000       0.00000000       0.50000000 </v>
   <v>       0.00000000       0.50000000       0.50000000 </v>
   <v>       0.50000000       0.50000000       0.50000000 </v>
  </varray>
  <varray name="weights" >
   <v>       0.12500000 </v>
   <v>       0.12500000 </v>
   <v>       0.12500000 </v>
   <v>       0.12500000 </v>
   <v>       0.12500000 </v>
   <v>       0.12500000 </v>
   <v>       0.12500000 </v>
   <v>       0.12500000 </v>
  </varray>
  <varray name="tetrahedronlist"  type="int" >
   <v type="int" >        2        1        2        4        5 </v>
   <v type="int" >        2        1        3        4        5 </v>
   <v type="int" >        2        3        4        5        7 </v>
   <v type="int" >        2        2        4        5        6 </v>
   <v type="int" >        2        4        5        6        8 </v>
   <v type="int" >        2        4        5        7        8 </v>
   <v type="int" >        2        1        2        3        6 </v>
   <v type="int" >        2        2        3        4        6 </v>
   <v type="int" >        2        3        4        6        8 </v>
   <v type="int" >        2        1        3        5        6 </v>
   <v type="int" >        2        3        5        6        7 </v>
   <v type="int" >        2        3        6        7        8 </v>
   <v type="int" >        2        2        3        4        7 </v>
   <v type="int" >        2        1        2        3        7 </v>
   <v type="int" >        2        1        2        5        7 </v>
   <v type="int" >        2        2        4        7        8 </v>
   <v type="int" >        2        2        6        7        8 </v>
   <v type="int" >        2        2        5        6        7 </v>
   <v type="int" >        2        1        3        4        8 </v>
   <v type="int" >        2        1        2        4        8 </v>
   <v type="int" >        2        1        2        6        8 </v>
   <v type="int" >        2        1        3        7        8 </v>
   <v type="int" >        2        1        5        7        8 </v>
   <v type="int" >        2        1        5        6        8 </v>
  </varray>
  <i name="volumeweight">      0.02083333 </i>
 </kpoints>
 <parameters>
  <separator name="general" >
   <i type="string" name="SYSTEM">La2O2S</i>
   <i type="logical" name="LCOMPAT"> F  </i>
  </separator>
  <separator name="electronic" >
   <i type="string" name="PREC">normal</i>
   <i name="ENMAX">    600.00000000</i>
   <i name="ENAUG">    900.00000000</i>
   <i name="EDIFF">      0.00000100</i>
   <i type="int" name="IALGO">    38</i>
   <i type="int" name="IWAVPR">    11</i>
   <i type="int" name="NBANDS">   280</i>
   <i name="NELECT">    456.00000000</i>
   <i type="int" name="TURBO">     0</i>
   <i type="int" name="IRESTART">     0</i>
   <i type="int" name="NREBOOT">     0</i>
   <i type="int" name="NMIN">     0</i>
   <i name="EREF">      0.00000000</i>
   <separator name="electronic smearing" >
    <i type="int" name="ISMEAR">    -5</i>
    <i name="SIGMA">      0.20000000</i>
    <i name="KSPACING">      0.50000000</i>
    <i type="logical" name="KGAMMA"> T  </i>
   </separator>
   <separator name="electronic projectors" >
    <i type="logical" name="LREAL"> F  </i>
    <v name="ROPT">      0.00000000      0.00000000      0.00000000      0.00000000      0.00000000</v>
    <i type="int" name="LMAXPAW">  -100</i>
    <i type="int" name="LMAXMIX">     2</i>
    <i type="logical" name="NLSPLINE"> F  </i>
   </separator>
   <separator name="electronic startup" >
    <i type="int" name="ISTART">     0</i>
    <i type="int" name="ICHARG">     2</i>
    <i type="int" name="INIWAV">     1</i>
   </separator>
   <separator name="electronic spin" >
    <i type="int" name="ISPIN">     1</i>
    <i type="logical" name="LNONCOLLINEAR"> F  </i>
    <v name="MAGMOM">      1.00000000      1.00000000      1.00000000      1.00000000      1.00000000      1.00000000      1.00000000      1.00000000      1.00000000      1.00000000      1.00000000      1.00000000      1.00000000      1.00000000      1.00000000      1.00000000      1.00000000      1.00000000      1.00000000      1.00000000
      1.00000000      1.00000000      1.00000000      1.00000000      1.00000000      1.00000000      1.00000000      1.00000000      1.00000000      1.00000000      1.00000000      1.00000000      1.00000000      1.00000000      1.00000000      1.00000000      1.00000000      1.00000000      1.00000000      1.00000000
      1.00000000      1.00000000      1.00000000      1.00000000      1.00000000      1.00000000      1.00000000      1.00000000      1.00000000      1.00000000      1.00000000      1.00000000      1.00000000      1.00000000      1.00000000      1.00000000      1.00000000      1.00000000</v>
    <i name="NUPDOWN">     -1.00000000</i>
    <i type="logical" name="LSORBIT"> F  </i>
    <v name="SAXIS">      0.00000000      0.00000000      1.00000000</v>
    <i type="logical" name="LSPIRAL"> F  </i>
    <v name="QSPIRAL">      0.00000000      0.00000000      0.00000000</v>
    <i type="logical" name="LZEROZ"> F  </i>
   </separator>
   <separator name="electronic exchange-correlation" >
    <i type="logical" name="LASPH"> F  </i>
    <i type="logical" name="LMETAGGA"> F  </i>
   </separator>
   <separator name="electronic convergence" >
    <i type="int" name="NELM">    60</i>
    <i type="int" name="NELMDL">    -5</i>
    <i type="int" name="NELMIN">     4</i>
    <i name="ENINI">    600.00000000</i>
    <separator name="electronic convergence detail" >
     <i type="logical" name="LDIAG"> T  </i>
     <i type="logical" name="LSUBROT"> F  </i>
     <i name="WEIMIN">      0.00100000</i>
     <i name="EBREAK">      0.00000000</i>
     <i name="DEPER">      0.30000000</i>
     <i type="int" name="NRMM">     4</i>
     <i name="TIME">      0.40000000</i>
    </separator>
   </separator>
   <separator name="electronic mixer" >
    <i name="AMIX">      0.40000000</i>
    <i name="BMIX">      1.00000000</i>
    <i name="AMIN">      0.10000000</i>
    <i name="AMIX_MAG">      1.60000000</i>
    <i name="BMIX_MAG">      1.00000000</i>
    <separator name="electronic mixer details" >
     <i type="int" name="IMIX">     4</i>
     <i type="logical" name="MIXFIRST"> F  </i>
     <i type="int" name="MAXMIX">   -45</i>
     <i name="WC">    100.00000000</i>
     <i type="int" name="INIMIX">     1</i>
     <i type="int" name="MIXPRE">     1</i>
     <i type="int" name="MREMOVE">     5</i>
    </separator>
   </separator>
   <separator name="electronic dipolcorrection" >
    <i type="logical" name="LDIPOL"> F  </i>
    <i type="logical" name="LMONO"> F  </i>
    <i type="int" name="IDIPOL">     0</i>
    <i name="EPSILON">      1.00000000</i>
    <v name="DIPOL">   -100.00000000   -100.00000000   -100.00000000</v>
    <i name="EFIELD">      0.00000000</i>
   </separator>
  </separator>
  <separator name="grids" >
   <i type="int" name="NGX">    70</i>
   <i type="int" name="NGY">    60</i>
   <i type="int" name="NGZ">    70</i>
   <i type="int" name="NGXF">   140</i>
   <i type="int" name="NGYF">   120</i>
   <i type="int" name="NGZF">   140</i>
   <i type="logical" name="ADDGRID"> F  </i>
  </separator>
  <separator name="ionic" >
   <i type="int" name="NSW">     1</i>
   <i type="int" name="IBRION">     2</i>
   <i type="int" name="MDALGO">     0</i>
   <i type="int" name="ISIF">     2</i>
   <i name="PSTRESS">      0.00000000</i>
   <i name="EDIFFG">     -0.01000000</i>
   <i type="int" name="NFREE">    10</i>
   <i name="POTIM">      0.50000000</i>
   <i name="SMASS">     -3.00000000</i>
   <i name="SCALEE">      1.00000000</i>
  </separator>
  <separator name="ionic md" >
   <i name="TEBEG">      0.00010000</i>
   <i name="TEEND">      0.00010000</i>
   <i type="int" name="NBLOCK">     1</i>
   <i type="int" name="KBLOCK">     1</i>
   <i type="int" name="NPACO">   256</i>
   <i name="APACO">     16.00000000</i>
  </separator>
  <separator name="symmetry" >
   <i type="int" name="ISYM">     2</i>
   <i name="SYMPREC">      0.00001000</i>
  </separator>
  <separator name="dos" >
   <i type="int" name="LORBIT">     0</i>
   <v name="RWIGS">     -1.00000000     -1.00000000     -1.00000000     -1.00000000     -1.00000000</v>
   <i type="int" name="NEDOS">   301</i>
   <i name="EMIN">     10.00000000</i>
   <i name="EMAX">    -10.00000000</i>
   <i name="EFERMI">      0.00000000</i>
  </separator>
  <separator name="writing" >
   <i type="int" name="NWRITE">     2</i>
   <i type="logical" name="LWAVE"> F  </i>
   <i type="logical" name="LDOWNSAMPLE"> F  </i>
   <i type="logical" name="LCHARG"> F  </i>
   <i type="logical" name="LPARD"> F  </i>
   <i type="logical" name="LVTOT"> F  </i>
   <i type="logical" name="LVHAR"> F  </i>
   <i type="logical" name="LELF"> F  </i>
   <i type="logical" name="LOPTICS"> F  </i>
   <v name="STM">      0.00000000      0.00000000      0.00000000      0.00000000      0.00000000      0.00000000      0.00000000</v>
  </separator>
  <separator name="performance" >
   <i type="int" name="NPAR">    28</i>
   <i type="int" name="NSIM">     4</i>
   <i type="int" name="NBLK">    -1</i>
   <i type="logical" name="LPLANE"> T  </i>
   <i type="logical" name="LSCALAPACK"> T  </i>
   <i type="logical" name="LSCAAWARE"> F  </i>
   <i type="logical" name="LSCALU"> F  </i>
   <i type="logical" name="LASYNC"> F  </i>
   <i type="logical" name="LORBITALREAL"> F  </i>
  </separator>
  <separator name="miscellaneous" >
   <i type="int" name="IDIOT">     3</i>
   <i type="int" name="ISPECIAL">     0</i>
   <i type="logical" name="LMUSIC"> F  </i>
   <v name="POMASS">      7.01000000     24.30500000    208.98000000     32.06600000     16.00000000</v>
   <v name="DARWINR">      0.00000000      0.00000000      0.00000000      0.00000000      0.00000000</v>
   <v name="DARWINV">      1.00000000      1.00000000      1.00000000      1.00000000      1.00000000</v>
   <i type="logical" name="LCORR"> T  </i>
  </separator>
  <i type="logical" name="GGA_COMPAT"> T  </i>
  <i type="logical" name="LBERRY"> F  </i>
  <i type="int" name="ICORELEVEL">     0</i>
  <i type="logical" name="LDAU"> F  </i>
  <i type="int" name="I_CONSTRAINED_M">     0</i>
  <separator name="electronic exchange-correlation" >
   <i type="string" name="GGA">--</i>
   <i type="int" name="VOSKOWN">     0</i>
   <i type="logical" name="LHFCALC"> F  </i>
   <i type="string" name="PRECFOCK"></i>
   <i type="logical" name="LSYMGRAD"> F  </i>
   <i type="logical" name="LHFONE"> F  </i>
   <i type="logical" name="LRHFCALC"> F  </i>
   <i type="logical" name="LTHOMAS"> F  </i>
   <i type="logical" name="LMODELHF"> F  </i>
   <i name="ENCUT4O">     -1.00000000</i>
   <i type="int" name="EXXOEP">     0</i>
   <i type="int" name="FOURORBIT">     0</i>
   <i name="AEXX">      0.00000000</i>
   <i name="HFALPHA">      0.00000000</i>
   <i name="MCALPHA">      0.00000000</i>
   <i name="ALDAX">      1.00000000</i>
   <i name="AGGAX">      1.00000000</i>
   <i name="ALDAC">      1.00000000</i>
   <i name="AGGAC">      1.00000000</i>
   <i type="int" name="NKREDX">     1</i>
   <i type="int" name="NKREDY">     1</i>
   <i type="int" name="NKREDZ">     1</i>
   <i type="logical" name="SHIFTRED"> F  </i>
   <i type="logical" name="ODDONLY"> F  </i>
   <i type="logical" name="EVENONLY"> F  </i>
   <i type="int" name="LMAXFOCK">     0</i>
   <i type="int" name="NMAXFOCKAE">     0</i>
   <i type="logical" name="LFOCKAEDFT"> F  </i>
   <i name="HFSCREEN">      0.00000000</i>
   <i name="HFSCREENC">      0.00000000</i>
   <i type="int" name="NBANDSGWLOW">     0</i>
  </separator>
  <separator name="vdW DFT" >
   <i type="logical" name="LUSE_VDW"> F  </i>
   <i name="Zab_VDW">     -0.84910000</i>
   <i name="PARAM1">      0.12340000</i>
   <i name="PARAM2">      1.00000000</i>
   <i name="PARAM3">      0.00000000</i>
  </separator>
  <separator name="model GW" >
   <i type="int" name="MODEL_GW">     0</i>
   <i name="MODEL_EPS0">     12.38119177</i>
   <i name="MODEL_ALPHA">      1.00000000</i>
  </separator>
  <separator name="linear response parameters" >
   <i type="logical" name="LEPSILON"> F  </i>
   <i type="logical" name="LRPA"> F  </i>
   <i type="logical" name="LNABLA"> F  </i>
   <i type="logical" name="LVEL"> F  </i>
   <i type="int" name="KINTER">     0</i>
   <i name="CSHIFT">      0.10000000</i>
   <i name="OMEGAMAX">     -1.00000000</i>
   <i name="DEG_THRESHOLD">      0.00200000</i>
   <i name="RTIME">     -0.10000000</i>
   <i name="WPLASMAI">      0.00000000</i>
   <v name="DFIELD">      0.00000000      0.00000000      0.00000000</v>
   <v name="WPLASMA">      0.00000000      0.00000000      0.00000000      0.00000000      0.00000000      0.00000000      0.00000000      0.00000000      0.00000000</v>
  </separator>
  <separator name="orbital magnetization" >
   <i type="logical" name="NUCIND"> F  </i>
   <v name="MAGPOS">      0.00000000      0.00000000      0.00000000</v>
   <i type="logical" name="LNICSALL"> T  </i>
   <i type="logical" name="ORBITALMAG"> F  </i>
   <i type="logical" name="LMAGBLOCH"> F  </i>
   <i type="logical" name="LCHIMAG"> F  </i>
   <i type="logical" name="LGAUGE"> T  </i>
   <i type="int" name="MAGATOM">     0</i>
   <v name="MAGDIPOL">      0.00000000      0.00000000      0.00000000</v>
   <v name="AVECCONST">      0.00000000      0.00000000      0.00000000</v>
  </separator>
  <separator name="response functions" >
   <i type="logical" name="LADDER"> F  </i>
   <i type="logical" name="LRPAFORCE"> F  </i>
   <i type="logical" name="LFXC"> F  </i>
   <i type="logical" name="LHARTREE"> T  </i>
   <i type="int" name="IBSE">     0</i>
   <v type="int" name="KPOINT">    -1     0     0     0</v>
   <i type="logical" name="LTCTE"> F  </i>
   <i type="logical" name="LTETE"> F  </i>
   <i type="logical" name="LTRIPLET"> F  </i>
   <i type="logical" name="LFXCEPS"> F  </i>
   <i type="logical" name="LFXHEG"> F  </i>
   <i type="int" name="NATURALO">     2</i>
   <i type="logical" name="L2ORDER"> F  </i>
   <i type="logical" name="LMP2LT"> F  </i>
   <i type="logical" name="LUSEW"> F  </i>
   <i name="ENCUTGW">     -2.00000000</i>
   <i name="ENCUTGWSOFT">     -2.00000000</i>
   <i name="ENCUTLF">     -1.00000000</i>
   <i type="int" name="LMAXMP2">    -1</i>
   <i name="SCISSOR">      0.00000000</i>
   <i type="int" name="NOMEGA">     0</i>
   <i type="int" name="NOMEGAR">     0</i>
   <i type="int" name="NBANDSGW">    -1</i>
   <i type="int" name="NBANDSO">    -1</i>
   <i type="int" name="NBANDSV">    -1</i>
   <i type="int" name="NELM">     1</i>
   <i type="int" name="NELMHF">     1</i>
   <i type="int" name="DIM">     3</i>
   <i type="int" name="ANTIRES">     0</i>
   <i name="OMEGAMAX">    -30.00000000</i>
   <i name="OMEGAMIN">    -30.00000000</i>
   <i name="OMEGATL">   -200.00000000</i>
   <i type="int" name="OMEGAGRID">   140</i>
   <i name="CSHIFT">     -0.10000000</i>
   <i type="logical" name="SELFENERGY"> F  </i>
   <i type="logical" name="LSPECTRAL"> F  </i>
   <i type="logical" name="LSPECTRALGW"> F  </i>
   <i type="logical" name="LSINGLES"> F  </i>
   <i type="logical" name="LFERMIGW"> F  </i>
   <i type="logical" name="ODDONLYGW"> F  </i>
   <i type="logical" name="EVENONLYGW"> F  </i>
   <i type="int" name="NKREDLFX">     1</i>
   <i type="int" name="NKREDLFY">     1</i>
   <i type="int" name="NKREDLFZ">     1</i>
   <i type="int" name="MAXMEM">  2800</i>
   <i type="int" name="TELESCOPE">     0</i>
   <i type="int" name="TAUPAR">     1</i>
   <i type="int" name="OMEGAPAR">    -1</i>
   <i name="LAMBDA">      1.00000000</i>
  </separator>
  <separator name="External order field" >
   <i name="OFIELD_KAPPA">      0.00000000</i>
   <v name="OFIELD_K">      0.00000000      0.00000000      0.00000000</v>
   <i name="OFIELD_Q6_NEAR">      0.00000000</i>
   <i name="OFIELD_Q6_FAR">      0.00000000</i>
   <i name="OFIELD_A">      0.00000000</i>
  </separator>
 </parameters>
 <atominfo>
  <atoms>      58 </atoms>
  <types>       5 </types>
  <array name="atoms" >
   <dimension dim="1">ion</dimension>
   <field type="string">element</field>
   <field type="int">atomtype</field>
   <set>
    <rc><c>Li</c><c>   1</c></rc>
    <rc><c>Li</c><c>   1</c></rc>
    <rc><c>Li</c><c>   1</c></rc>
    <rc><c>Li</c><c>   1</c></rc>
    <rc><c>Mg</c><c>   2</c></rc>
    <rc><c>Mg</c><c>   2</c></rc>
    <rc><c>Mg</c><c>   2</c></rc>
    <rc><c>Mg</c><c>   2</c></rc>
    <rc><c>Mg</c><c>   2</c></rc>
    <rc><c>Mg</c><c>   2</c></rc>
    <rc><c>Bi</c><c>   3</c></rc>
    <rc><c>Bi</c><c>   3</c></rc>
    <rc><c>Bi</c><c>   3</c></rc>
    <rc><c>Bi</c><c>   3</c></rc>
    <rc><c>Bi</c><c>   3</c></rc>
    <rc><c>Bi</c><c>   3</c></rc>
    <rc><c>Bi</c><c>   3</c></rc>
    <rc><c>Bi</c><c>   3</c></rc>
    <rc><c>Bi</c><c>   3</c></rc>
    <rc><c>Bi</c><c>   3</c></rc>
    <rc><c>Bi</c><c>   3</c></rc>
    <rc><c>Bi</c><c>   3</c></rc>
    <rc><c>Bi</c><c>   3</c></rc>
    <rc><c>Bi</c><c>   3</c></rc>
    <rc><c>Bi</c><c>   3</c></rc>
    <rc><c>Bi</c><c>   3</c></rc>
    <rc><c>S </c><c>   4</c></rc>
    <rc><c>S </c><c>   4</c></rc>
    <rc><c>S </c><c>   4</c></rc>
    <rc><c>S </c><c>   4</c></rc>
    <rc><c>S </c><c>   4</c></rc>
    <rc><c>S </c><c>   4</c></rc>
    <rc><c>S </c><c>   4</c></rc>
    <rc><c>S </c><c>   4</c></rc>
    <rc><c>S </c><c>   4</c></rc>
    <rc><c>S </c><c>   4</c></rc>
    <rc><c>S </c><c>   4</c></rc>
    <rc><c>S </c><c>   4</c></rc>
    <rc><c>S </c><c>   4</c></rc>
    <rc><c>S </c><c>   4</c></rc>
    <rc><c>S </c><c>   4</c></rc>
    <rc><c>S </c><c>   4</c></rc>
    <rc><c>O </c><c>   5</c></rc>
    <rc><c>O </c><c>   5</c></rc>
    <rc><c>O </c><c>   5</c></rc>
    <rc><c>O </c><c>   5</c></rc>
    <rc><c>O </c><c>   5</c></rc>
    <rc><c>O </c><c>   5</c></rc>
    <rc><c>O </c><c>   5</c></rc>
    <rc><c>O </c><c>   5</c></rc>
    <rc><c>O </c><c>   5</c></rc>
    <rc><c>O </c><c>   5</c></rc>
    <rc><c>O </c><c>   5</c></rc>
    <rc><c>O </c><c>   5</c></rc>
    <rc><c>O </c><c>   5</c></rc>
    <rc><c>O </c><c>   5</c></rc>
    <rc><c>O </c><c>   5</c></rc>
    <rc><c>O </c><c>   5</c></rc>
   </set>
  </array>
  <array name="atomtypes" >
   <dimension dim="1">type</dimension>
   <field type="int">atomspertype</field>
   <field type="string">element</field>
   <field>mass</field>
   <field>valence</field>
   <field type="string">pseudopotential</field>
   <set>
    <rc><c>   4</c><c>Li</c><c>      7.01000000</c><c>      3.00000000</c><c>  PAW_PBE Li_sv 10Sep2004               </c></rc>
    <rc><c>   6</c><c>Mg</c><c>     24.30500000</c><c>      2.00000000</c><c>  PAW_PBE Mg 13Apr2007                  </c></rc>
    <rc><c>  16</c><c>Bi</c><c>    208.98000000</c><c>     15.00000000</c><c>  PAW_PBE Bi_d 06Sep2000                </c></rc>
    <rc><c>  16</c><c>S </c><c>     32.06600000</c><c>      6.00000000</c><c>  PAW_PBE S 06Sep2000                   </c></rc>
    <rc><c>  16</c><c>O </c><c>     16.00000000</c><c>      6.00000000</c><c>  PAW_PBE O 08Apr2002                   </c></rc>
   </set>
  </array>
 </atominfo>
 <structure name="initialpos" >
  <crystal>
   <varray name="basis" >
    <v>      11.17850000       0.00000000       0.00000000 </v>
    <v>       0.00000000       9.57460000       0.00000000 </v>
    <v>       0.00000000       0.00000000      11.18240000 </v>
   </varray>
   <i name="volume">   1196.84853820 </i>
   <varray name="rec_basis" >
    <v>       0.08945744       0.00000000       0.00000000 </v>
    <v>       0.00000000       0.10444301       0.00000000 </v>
    <v>       0.00000000       0.00000000       0.08942624 </v>
   </varray>
  </crystal>
  <varray name="positions" >
   <v>       0.37539000       0.00017000       0.43687000 </v>
   <v>       0.62539000       0.99984000       0.43687000 </v>
   <v>       0.12539000       0.99984000       0.93687000 </v>
   <v>       0.87539000       0.00017000       0.93687000 </v>
   <v>       0.12461000       0.99984000       0.18687000 </v>
   <v>       0.87539000       0.00017000       0.43687000 </v>
   <v>       0.62461000       0.99984000       0.18687000 </v>
   <v>       0.37539000       0.00017000       0.93687000 </v>
   <v>       0.12461000       0.99984000       0.68687000 </v>
   <v>       0.62461000       0.99984000       0.68687000 </v>
   <v>       0.00013000       0.29519000       0.06281000 </v>
   <v>       0.25013000       0.70481000       0.06281000 </v>
   <v>       0.24987000       0.29519000       0.31282000 </v>
   <v>       0.49987000       0.70481000       0.31282000 </v>
   <v>       0.50013000       0.29519000       0.06281000 </v>
   <v>       0.75013000       0.70481000       0.06281000 </v>
   <v>       0.74987000       0.29519000       0.31282000 </v>
   <v>       0.99987000       0.70481000       0.31282000 </v>
   <v>       0.00013000       0.29519000       0.56281000 </v>
   <v>       0.25013000       0.70481000       0.56281000 </v>
   <v>       0.24987000       0.29519000       0.81282000 </v>
   <v>       0.49987000       0.70481000       0.81282000 </v>
   <v>       0.50013000       0.29519000       0.56281000 </v>
   <v>       0.75013000       0.70481000       0.56281000 </v>
   <v>       0.74987000       0.29519000       0.81282000 </v>
   <v>       0.99987000       0.70481000       0.81282000 </v>
   <v>       0.25005000       0.32677000       0.06286000 </v>
   <v>       0.00005000       0.67323000       0.06286000 </v>
   <v>       0.49995000       0.32677000       0.31286000 </v>
   <v>       0.24995000       0.67323000       0.31286000 </v>
   <v>       0.75005000       0.32677000       0.06286000 </v>
   <v>       0.50005000       0.67323000       0.06286000 </v>
   <v>       0.99995000       0.32677000       0.31286000 </v>
   <v>       0.74995000       0.67323000       0.31286000 </v>
   <v>       0.25005000       0.32677000       0.56286000 </v>
   <v>       0.00005000       0.67323000       0.56286000 </v>
   <v>       0.49995000       0.32677000       0.81286000 </v>
   <v>       0.24995000       0.67323000       0.81286000 </v>
   <v>       0.75005000       0.32677000       0.56286000 </v>
   <v>       0.50005000       0.67323000       0.56286000 </v>
   <v>       0.99995000       0.32677000       0.81286000 </v>
   <v>       0.74995000       0.67323000       0.81286000 </v>
   <v>       0.49987000       0.07798000       0.06246000 </v>
   <v>       0.24987000       0.92202000       0.06246000 </v>
   <v>       0.25013000       0.07798000       0.31246000 </v>
   <v>       0.00013000       0.92202000       0.31246000 </v>
   <v>       0.99987000       0.07798000       0.06246000 </v>
   <v>       0.74987000       0.92202000       0.06246000 </v>
   <v>       0.75013000       0.07798000       0.31246000 </v>
   <v>       0.50013000       0.92202000       0.31246000 </v>
   <v>       0.49987000       0.07798000       0.56246000 </v>
   <v>       0.24987000       0.92202000       0.56246000 </v>
   <v>       0.25013000       0.07798000       0.81246000 </v>
   <v>       0.00013000       0.92202000       0.81246000 </v>
   <v>       0.99987000       0.07798000       0.56246000 </v>
   <v>       0.74987000       0.92202000       0.56246000 </v>
   <v>       0.75013000       0.07798000       0.81246000 </v>
   <v>       0.50013000       0.92202000       0.81246000 </v>
  </varray>
 </structure>
 <calculation>
  <scstep>
   <time name="dav">   60.48   60.97</time>
   <time name="total">   60.57   61.06</time>
   <energy>
    <i name="alphaZ">   1054.17224280 </i>
    <i name="ewald"> -30188.71515079 </i>
    <i name="hartreedc"> -12696.55720322 </i>
    <i name="XCdc">   1173.24027146 </i>
    <i name="pawpsdc">  36541.05238669 </i>
    <i name="pawaedc"> -35795.85877930 </i>
    <i name="eentropy">      0.00000000 </i>
    <i name="bandstr">   1913.54375226 </i>
    <i name="atom">  43643.51795008 </i>
    <i name="e_fr_energy">   5644.39546997 </i>
    <i name="e_wo_entrp">   5644.39546997 </i>
    <i name="e_0_energy">   5644.39546997 </i>
   </energy>
  </scstep>
  <scstep>
   <time name="dav">   61.75   62.05</time>
   <time name="total">   61.76   62.06</time>
   <energy>
    <i name="e_fr_energy">    731.80130390 </i>
    <i name="e_wo_entrp">    731.80130390 </i>
    <i name="e_0_energy">    731.80130390 </i>
   </energy>
  </scstep>
  <scstep>
   <time name="dav">   70.62   71.17</time>
   <time name="total">   70.62   71.17</time>
   <energy>
    <i name="e_fr_energy">   -247.33829031 </i>
    <i name="e_wo_entrp">   -247.33829031 </i>
    <i name="e_0_energy">   -247.33829031 </i>
   </energy>
  </scstep>
  <scstep>
   <time name="dav">   72.69   73.47</time>
   <time name="total">   72.69   73.47</time>
   <energy>
    <i name="e_fr_energy">   -332.42853455 </i>
    <i name="e_wo_entrp">   -332.42853455 </i>
    <i name="e_0_energy">   -332.42853455 </i>
   </energy>
  </scstep>
  <scstep>
   <time name="dav">   92.14   92.97</time>
   <time name="total">   92.86   93.69</time>
   <energy>
    <i name="e_fr_energy">   -338.64494902 </i>
    <i name="e_wo_entrp">   -338.64494902 </i>
    <i name="e_0_energy">   -338.64494902 </i>
   </energy>
  </scstep>
  <scstep>
   <time name="dav">   86.28   86.82</time>
   <time name="total">   87.07   87.62</time>
   <energy>
    <i name="e_fr_energy">   -284.61095816 </i>
    <i name="e_wo_entrp">   -284.61095816 </i>
    <i name="e_0_energy">   -284.61095816 </i>
   </energy>
  </scstep>
  <scstep>
   <time name="dav">   65.25   65.73</time>
   <time name="total">   66.03   66.52</time>
   <energy>
    <i name="e_fr_energy">   -286.77435377 </i>
    <i name="e_wo_entrp">   -286.77435377 </i>
    <i name="e_0_energy">   -286.77435377 </i>
   </energy>
  </scstep>
  <scstep>
   <time name="dav">   74.31   75.07</time>
   <time name="total">   75.09   75.86</time>
   <energy>
    <i name="e_fr_energy">   -285.92792944 </i>
    <i name="e_wo_entrp">   -285.92792944 </i>
    <i name="e_0_energy">   -285.92792944 </i>
   </energy>
  </scstep>
  <scstep>
   <time name="dav">   77.47   78.32</time>
   <time name="total">   78.25   79.10</time>
   <energy>
    <i name="e_fr_energy">   -285.52285587 </i>
    <i name="e_wo_entrp">   -285.52285587 </i>
    <i name="e_0_energy">   -285.52285587 </i>
   </energy>
  </scstep>
  <scstep>
   <time name="dav">   74.81   75.52</time>
   <time name="total">   75.60   76.30</time>
   <energy>
    <i name="e_fr_energy">   -285.54012282 </i>
    <i name="e_wo_entrp">   -285.54012282 </i>
    <i name="e_0_energy">   -285.54012282 </i>
   </energy>
  </scstep>
  <scstep>
   <time name="dav">   81.48   82.36</time>
   <time name="total">   82.22   83.17</time>
   <energy>
    <i name="e_fr_energy">   -285.54353715 </i>
    <i name="e_wo_entrp">   -285.54353715 </i>
    <i name="e_0_energy">   -285.54353715 </i>
   </energy>
  </scstep>
  <scstep>
   <time name="dav">   72.62   73.15</time>
   <time name="total">   73.42   73.95</time>
   <energy>
    <i name="e_fr_energy">   -285.54688830 </i>
    <i name="e_wo_entrp">   -285.54688830 </i>
    <i name="e_0_energy">   -285.54688830 </i>
   </energy>
  </scstep>
  <scstep>
   <time name="dav">   71.80   72.38</time>
   <time name="total">   72.59   73.16</time>
   <energy>
    <i name="e_fr_energy">   -285.54778024 </i>
    <i name="e_wo_entrp">   -285.54778024 </i>
    <i name="e_0_energy">   -285.54778024 </i>
   </energy>
  </scstep>
  <scstep>
   <time name="dav">   68.13   68.58</time>
   <time name="total">   68.92   69.37</time>
   <energy>
    <i name="e_fr_energy">   -285.54803396 </i>
    <i name="e_wo_entrp">   -285.54803396 </i>
    <i name="e_0_energy">   -285.54803396 </i>
   </energy>
  </scstep>
  <scstep>
   <time name="dav">   86.22   86.65</time>
   <time name="total">   87.02   87.45</time>
   <energy>
    <i name="e_fr_energy">   -285.54805544 </i>
    <i name="e_wo_entrp">   -285.54805544 </i>
    <i name="e_0_energy">   -285.54805544 </i>
   </energy>
  </scstep>
  <scstep>
   <time name="dav">   61.26   61.81</time>
   <time name="total">   62.05   62.60</time>
   <energy>
    <i name="e_fr_energy">   -285.54807202 </i>
    <i name="e_wo_entrp">   -285.54807202 </i>
    <i name="e_0_energy">   -285.54807202 </i>
   </energy>
  </scstep>
  <scstep>
   <time name="dav">   72.61   73.22</time>
   <time name="total">   72.68   73.29</time>
   <energy>
    <i name="alphaZ">   1054.17224280 </i>
    <i name="ewald"> -30188.71515079 </i>
    <i name="hartreedc"> -12938.83031642 </i>
    <i name="XCdc">   1198.74867410 </i>
    <i name="pawpsdc">  43578.71146569 </i>
    <i name="pawaedc"> -42806.21419678 </i>
    <i name="eentropy">      0.00000000 </i>
    <i name="bandstr">  -3826.93874126 </i>
    <i name="atom">  43643.51795008 </i>
    <i name="e_fr_energy">   -285.54807258 </i>
    <i name="e_wo_entrp">   -285.54807258 </i>
    <i name="e_0_energy">   -285.54807258 </i>
   </energy>
  </scstep>
  <structure>
   <crystal>
    <varray name="basis" >
     <v>      11.17850000       0.00000000       0.00000000 </v>
     <v>       0.00000000       9.57460000       0.00000000 </v>
     <v>       0.00000000       0.00000000      11.18240000 </v>
    </varray>
    <i name="volume">   1196.84853820 </i>
    <varray name="rec_basis" >
     <v>       0.08945744       0.00000000       0.00000000 </v>
     <v>       0.00000000       0.10444301       0.00000000 </v>
     <v>       0.00000000       0.00000000       0.08942624 </v>
    </varray>
   </crystal>
   <varray name="positions" >
    <v>       0.37539000       0.00017000       0.43687000 </v>
    <v>       0.62539000       0.99984000       0.43687000 </v>
    <v>       0.12539000       0.99984000       0.93687000 </v>
    <v>       0.87539000       0.00017000       0.93687000 </v>
    <v>       0.12461000       0.99984000       0.18687000 </v>
    <v>       0.87539000       0.00017000       0.43687000 </v>
    <v>       0.62461000       0.99984000       0.18687000 </v>
    <v>       0.37539000       0.00017000       0.93687000 </v>
    <v>       0.12461000       0.99984000       0.68687000 </v>
    <v>       0.62461000       0.99984000       0.68687000 </v>
    <v>       0.00013000       0.29519000       0.06281000 </v>
    <v>       0.25013000       0.70481000       0.06281000 </v>
    <v>       0.24987000       0.29519000       0.31282000 </v>
    <v>       0.49987000       0.70481000       0.31282000 </v>
    <v>       0.50013000       0.29519000       0.06281000 </v>
    <v>       0.75013000       0.70481000       0.06281000 </v>
    <v>       0.74987000       0.29519000       0.31282000 </v>
    <v>       0.99987000       0.70481000       0.31282000 </v>
    <v>       0.00013000       0.29519000       0.56281000 </v>
    <v>       0.25013000       0.70481000       0.56281000 </v>
    <v>       0.24987000       0.29519000       0.81282000 </v>
    <v>       0.49987000       0.70481000       0.81282000 </v>
    <v>       0.50013000       0.29519000       0.56281000 </v>
    <v>       0.75013000       0.70481000       0.56281000 </v>
    <v>       0.74987000       0.29519000       0.81282000 </v>
    <v>       0.99987000       0.70481000       0.81282000 </v>
    <v>       0.25005000       0.32677000       0.06286000 </v>
    <v>       0.00005000       0.67323000       0.06286000 </v>
    <v>       0.49995000       0.32677000       0.31286000 </v>
    <v>       0.24995000       0.67323000       0.31286000 </v>
    <v>       0.75005000       0.32677000       0.06286000 </v>
    <v>       0.50005000       0.67323000       0.06286000 </v>
    <v>       0.99995000       0.32677000       0.31286000 </v>
    <v>       0.74995000       0.67323000       0.31286000 </v>
    <v>       0.25005000       0.32677000       0.56286000 </v>
    <v>       0.00005000       0.67323000       0.56286000 </v>
    <v>       0.49995000       0.32677000       0.81286000 </v>
    <v>       0.24995000       0.67323000       0.81286000 </v>
    <v>       0.75005000       0.32677000       0.56286000 </v>
    <v>       0.50005000       0.67323000       0.56286000 </v>
    <v>       0.99995000       0.32677000       0.81286000 </v>
    <v>       0.74995000       0.67323000       0.81286000 </v>
    <v>       0.49987000       0.07798000       0.06246000 </v>
    <v>       0.24987000       0.92202000       0.06246000 </v>
    <v>       0.25013000       0.07798000       0.31246000 </v>
    <v>       0.00013000       0.92202000       0.31246000 </v>
    <v>       0.99987000       0.07798000       0.06246000 </v>
    <v>       0.74987000       0.92202000       0.06246000 </v>
    <v>       0.75013000       0.07798000       0.31246000 </v>
    <v>       0.50013000       0.92202000       0.31246000 </v>
    <v>       0.49987000       0.07798000       0.56246000 </v>
    <v>       0.24987000       0.92202000       0.56246000 </v>
    <v>       0.25013000       0.07798000       0.81246000 </v>
    <v>       0.00013000       0.92202000       0.81246000 </v>
    <v>       0.99987000       0.07798000       0.56246000 </v>
    <v>       0.74987000       0.92202000       0.56246000 </v>
    <v>       0.75013000       0.07798000       0.81246000 </v>
    <v>       0.50013000       0.92202000       0.81246000 </v>
   </varray>
  </structure>
  <varray name="forces" >
   <v>      -0.51024432       0.00026844       0.00397737 </v>
   <v>      -0.47438602       0.00035207       0.00776186 </v>
   <v>      -0.47438602       0.00035207       0.00776186 </v>
   <v>      -0.51024432       0.00026844       0.00397737 </v>
   <v>       0.01154248       0.24176455       1.01902548 </v>
   <v>       0.98456540      -0.00485969       0.02835479 </v>
   <v>       0.00972889      -0.22961760      -0.96081466 </v>
   <v>       0.98456540      -0.00485969       0.02835479 </v>
   <v>       0.00972889      -0.22961760      -0.96081466 </v>
   <v>       0.01154248       0.24176455       1.01902548 </v>
   <v>      -0.28995788       0.04314529       0.02804841 </v>
   <v>       0.10429087      -1.00871569       0.22832989 </v>
   <v>       0.07056409      -1.01398835       0.15475544 </v>
   <v>      -0.27647198      -0.04657999      -0.03787889 </v>
   <v>       0.09894037      -0.06009573       0.00363037 </v>
   <v>       0.06177930       1.00261557      -0.16683169 </v>
   <v>       0.10705798       1.01839723      -0.23428723 </v>
   <v>       0.12233615       0.06063949      -0.01326767 </v>
   <v>       0.09894037      -0.06009573       0.00363037 </v>
   <v>       0.06177930       1.00261557      -0.16683169 </v>
   <v>       0.10705798       1.01839723      -0.23428723 </v>
   <v>       0.12233615       0.06063949      -0.01326767 </v>
   <v>      -0.28995788       0.04314529       0.02804841 </v>
   <v>       0.10429087      -1.00871569       0.22832989 </v>
   <v>       0.07056409      -1.01398835       0.15475544 </v>
   <v>      -0.27647198      -0.04657999      -0.03787889 </v>
   <v>      -0.02081794       0.10535782      -0.19896201 </v>
   <v>       0.24059473      -0.13321333       0.01845628 </v>
   <v>       0.24189696       0.13478258      -0.01897236 </v>
   <v>      -0.03490524      -0.12015187      -0.23092260 </v>
   <v>      -0.03915070       0.11910774       0.23095081 </v>
   <v>      -0.18457580      -0.09146368       0.00857251 </v>
   <v>      -0.18820356       0.09157910      -0.00770818 </v>
   <v>      -0.01847466      -0.10315108       0.19601871 </v>
   <v>      -0.03915070       0.11910774       0.23095081 </v>
   <v>      -0.18457580      -0.09146368       0.00857251 </v>
   <v>      -0.18820356       0.09157910      -0.00770818 </v>
   <v>      -0.01847466      -0.10315108       0.19601871 </v>
   <v>      -0.02081794       0.10535782      -0.19896201 </v>
   <v>       0.24059473      -0.13321333       0.01845628 </v>
   <v>       0.24189696       0.13478258      -0.01897236 </v>
   <v>      -0.03490524      -0.12015187      -0.23092260 </v>
   <v>      -0.14379349       0.26927195      -0.03767374 </v>
   <v>      -0.58303871       0.66459812      -0.80226136 </v>
   <v>      -0.51886814       0.92120073      -0.61795984 </v>
   <v>      -0.14835361      -0.27031909       0.02653876 </v>
   <v>       1.24746822      -0.00089950      -0.14789052 </v>
   <v>      -0.49890837      -0.92433939       0.61075763 </v>
   <v>      -0.61386147      -0.67083360       0.77137361 </v>
   <v>       1.24324647       0.00514791       0.13887883 </v>
   <v>       1.24746822      -0.00089950      -0.14789052 </v>
   <v>      -0.49890837      -0.92433939       0.61075763 </v>
   <v>      -0.61386147      -0.67083360       0.77137361 </v>
   <v>       1.24324647       0.00514791       0.13887883 </v>
   <v>      -0.14379349       0.26927195      -0.03767374 </v>
   <v>      -0.58303871       0.66459812      -0.80226136 </v>
   <v>      -0.51886814       0.92120073      -0.61795984 </v>
   <v>      -0.14835361      -0.27031909       0.02653876 </v>
  </varray>
  <varray name="stress" >
   <v>     -11.10976004      -0.35072282      -0.02173179 </v>
   <v>      -0.35072282     -12.91730907      -0.44379713 </v>
   <v>      -0.02173187      -0.44379713      -8.98556717 </v>
  </varray>
  <energy>
   <i name="e_fr_energy">   -297.20645129 </i>
   <i name="e_wo_entrp">   -297.20645129 </i>
   <i name="e_0_energy">      0.00000000 </i>
  </energy>
  <time name="totalsc"> 1368.60 1380.27</time>
  <eigenvalues>
   <array>
    <dimension dim="1">band</dimension>
    <dimension dim="2">kpoint</dimension>
    <dimension dim="3">spin</dimension>
    <field>eigene</field>
    <field>occ</field>
    <set>
     <set comment="spin 1">
      <set comment="kpoint 1">
       <r>  -40.3165    1.0000 </r>
       <r>  -40.3165    1.0000 </r>
       <r>  -39.4402    1.0000 </r>
       <r>  -39.4402    1.0000 </r>
       <r>  -18.8993    1.0000 </r>
       <r>  -18.8982    1.0000 </r>
       <r>  -18.8979    1.0000 </r>
       <r>  -18.8969    1.0000 </r>
       <r>  -18.8351    1.0000 </r>
       <r>  -18.8348    1.0000 </r>
       <r>  -18.8321    1.0000 </r>
       <r>  -18.8318    1.0000 </r>
       <r>  -18.8288    1.0000 </r>
       <r>  -18.8285    1.0000 </r>
       <r>  -18.8239    1.0000 </r>
       <r>  -18.8236    1.0000 </r>
       <r>  -18.7297    1.0000 </r>
       <r>  -18.7295    1.0000 </r>
       <r>  -18.7288    1.0000 </r>
       <r>  -18.7287    1.0000 </r>
       <r>  -18.7095    1.0000 </r>
       <r>  -18.7093    1.0000 </r>
       <r>  -18.7086    1.0000 </r>
       <r>  -18.7086    1.0000 </r>
       <r>  -18.7023    1.0000 </r>
       <r>  -18.7021    1.0000 </r>
       <r>  -18.7002    1.0000 </r>
       <r>  -18.6999    1.0000 </r>
       <r>  -18.6964    1.0000 </r>
       <r>  -18.6945    1.0000 </r>
       <r>  -18.6941    1.0000 </r>
       <r>  -18.6923    1.0000 </r>
       <r>  -18.6894    1.0000 </r>
       <r>  -18.6877    1.0000 </r>
       <r>  -18.6867    1.0000 </r>
       <r>  -18.6859    1.0000 </r>
       <r>  -18.6858    1.0000 </r>
       <r>  -18.6851    1.0000 </r>
       <r>  -18.6837    1.0000 </r>
       <r>  -18.6834    1.0000 </r>
       <r>  -18.6817    1.0000 </r>
       <r>  -18.6804    1.0000 </r>
       <r>  -18.6785    1.0000 </r>
       <r>  -18.6771    1.0000 </r>
       <r>  -18.6698    1.0000 </r>
       <r>  -18.6684    1.0000 </r>
       <r>  -18.6677    1.0000 </r>
       <r>  -18.6664    1.0000 </r>
       <r>  -18.5483    1.0000 </r>
       <r>  -18.5481    1.0000 </r>
       <r>  -18.5458    1.0000 </r>
       <r>  -18.5457    1.0000 </r>
       <r>  -18.5393    1.0000 </r>
       <r>  -18.5391    1.0000 </r>
       <r>  -18.5379    1.0000 </r>
       <r>  -18.5377    1.0000 </r>
       <r>  -18.5336    1.0000 </r>
       <r>  -18.5333    1.0000 </r>
       <r>  -18.5310    1.0000 </r>
       <r>  -18.5308    1.0000 </r>
       <r>  -18.5164    1.0000 </r>
       <r>  -18.5141    1.0000 </r>
       <r>  -18.5129    1.0000 </r>
       <r>  -18.5106    1.0000 </r>
       <r>  -18.5093    1.0000 </r>
       <r>  -18.5092    1.0000 </r>
       <r>  -18.5079    1.0000 </r>
       <r>  -18.5077    1.0000 </r>
       <r>  -18.5047    1.0000 </r>
       <r>  -18.5012    1.0000 </r>
       <r>  -18.5008    1.0000 </r>
       <r>  -18.4974    1.0000 </r>
       <r>  -18.4315    1.0000 </r>
       <r>  -18.4303    1.0000 </r>
       <r>  -18.4273    1.0000 </r>
       <r>  -18.4261    1.0000 </r>
       <r>  -18.3198    1.0000 </r>
       <r>  -18.3197    1.0000 </r>
       <r>  -18.3158    1.0000 </r>
       <r>  -18.3156    1.0000 </r>
       <r>  -18.2940    1.0000 </r>
       <r>  -18.2938    1.0000 </r>
       <r>  -18.2899    1.0000 </r>
       <r>  -18.2897    1.0000 </r>
       <r>  -13.5357    1.0000 </r>
       <r>  -13.5182    1.0000 </r>
       <r>  -13.4241    1.0000 </r>
       <r>  -13.4176    1.0000 </r>
       <r>  -12.8567    1.0000 </r>
       <r>  -12.8565    1.0000 </r>
       <r>  -12.7795    1.0000 </r>
       <r>  -12.7723    1.0000 </r>
       <r>  -12.7621    1.0000 </r>
       <r>  -12.7526    1.0000 </r>
       <r>  -12.6948    1.0000 </r>
       <r>  -12.6817    1.0000 </r>
       <r>  -12.1358    1.0000 </r>
       <r>  -12.1214    1.0000 </r>
       <r>  -12.0794    1.0000 </r>
       <r>  -12.0705    1.0000 </r>
       <r>   -9.3690    1.0000 </r>
       <r>   -9.0719    1.0000 </r>
       <r>   -8.6230    1.0000 </r>
       <r>   -8.5370    1.0000 </r>
       <r>   -8.5363    1.0000 </r>
       <r>   -8.4458    1.0000 </r>
       <r>   -8.3969    1.0000 </r>
       <r>   -8.3100    1.0000 </r>
       <r>   -8.3095    1.0000 </r>
       <r>   -8.2185    1.0000 </r>
       <r>   -8.0867    1.0000 </r>
       <r>   -8.0848    1.0000 </r>
       <r>   -8.0713    1.0000 </r>
       <r>   -8.0698    1.0000 </r>
       <r>   -7.4090    1.0000 </r>
       <r>   -7.4076    1.0000 </r>
       <r>   -6.4266    1.0000 </r>
       <r>   -6.4243    1.0000 </r>
       <r>   -6.3870    1.0000 </r>
       <r>   -6.3854    1.0000 </r>
       <r>   -5.5428    1.0000 </r>
       <r>   -5.4671    1.0000 </r>
       <r>   -5.4654    1.0000 </r>
       <r>   -5.4629    1.0000 </r>
       <r>   -5.3921    1.0000 </r>
       <r>   -5.3069    1.0000 </r>
       <r>   -5.3020    1.0000 </r>
       <r>   -5.2237    1.0000 </r>
       <r>   -5.1324    1.0000 </r>
       <r>   -5.0444    1.0000 </r>
       <r>   -3.8649    1.0000 </r>
       <r>   -3.7188    1.0000 </r>
       <r>   -1.5755    1.0000 </r>
       <r>   -1.3141    1.0000 </r>
       <r>   -1.1943    1.0000 </r>
       <r>   -0.9984    1.0000 </r>
       <r>   -0.6949    1.0000 </r>
       <r>   -0.6103    1.0000 </r>
       <r>   -0.5886    1.0000 </r>
       <r>   -0.4843    1.0000 </r>
       <r>   -0.2678    1.0000 </r>
       <r>   -0.2391    1.0000 </r>
       <r>   -0.2238    1.0000 </r>
       <r>   -0.1670    1.0000 </r>
       <r>   -0.0310    1.0000 </r>
       <r>    0.0282    1.0000 </r>
       <r>    0.1567    1.0000 </r>
       <r>    0.1989    1.0000 </r>
       <r>    0.2725    1.0000 </r>
       <r>    0.4089    1.0000 </r>
       <r>    0.4800    1.0000 </r>
       <r>    0.5394    1.0000 </r>
       <r>    0.6181    1.0000 </r>
       <r>    0.6187    1.0000 </r>
       <r>    0.6345    1.0000 </r>
       <r>    0.6554    1.0000 </r>
       <r>    0.7227    1.0000 </r>
       <r>    0.7344    1.0000 </r>
       <r>    0.8034    1.0000 </r>
       <r>    0.8169    1.0000 </r>
       <r>    0.8377    1.0000 </r>
       <r>    0.9025    1.0000 </r>
       <r>    0.9218    1.0000 </r>
       <r>    0.9869    1.0000 </r>
       <r>    1.0328    1.0000 </r>
       <r>    1.1321    1.0000 </r>
       <r>    1.1637    1.0000 </r>
       <r>    1.1844    1.0000 </r>
       <r>    1.2458    1.0000 </r>
       <r>    1.3124    1.0000 </r>
       <r>    1.3381    1.0000 </r>
       <r>    1.3748    1.0000 </r>
       <r>    1.4047    1.0000 </r>
       <r>    1.4508    1.0000 </r>
       <r>    1.4821    1.0000 </r>
       <r>    1.5247    1.0000 </r>
       <r>    1.5341    1.0000 </r>
       <r>    1.5611    1.0000 </r>
       <r>    1.7138    1.0000 </r>
       <r>    1.7733    1.0000 </r>
       <r>    1.8611    1.0000 </r>
       <r>    1.9179    1.0000 </r>
       <r>    1.9208    1.0000 </r>
       <r>    2.0263    1.0000 </r>
       <r>    2.0278    1.0000 </r>
       <r>    2.0304    1.0000 </r>
       <r>    2.1679    1.0000 </r>
       <r>    2.2086    1.0000 </r>
       <r>    2.3119    1.0000 </r>
       <r>    2.4234    1.0000 </r>
       <r>    2.4235    1.0000 </r>
       <r>    2.4523    1.0000 </r>
       <r>    2.5112    1.0000 </r>
       <r>    2.5161    1.0000 </r>
       <r>    2.5616    1.0000 </r>
       <r>    2.5678    1.0000 </r>
       <r>    2.5931    1.0000 </r>
       <r>    2.6489    1.0000 </r>
       <r>    2.6528    1.0000 </r>
       <r>    2.6746    1.0000 </r>
       <r>    2.7786    1.0000 </r>
       <r>    2.7860    1.0000 </r>
       <r>    2.8001    1.0000 </r>
       <r>    2.8525    1.0000 </r>
       <r>    2.8602    1.0000 </r>
       <r>    2.8736    1.0000 </r>
       <r>    2.9440    1.0000 </r>
       <r>    2.9480    1.0000 </r>
       <r>    2.9864    1.0000 </r>
       <r>    3.0073    1.0000 </r>
       <r>    3.0504    1.0000 </r>
       <r>    3.0919    1.0000 </r>
       <r>    3.0920    1.0000 </r>
       <r>    3.1034    1.0000 </r>
       <r>    3.1083    1.0000 </r>
       <r>    3.1786    1.0000 </r>
       <r>    3.2047    1.0000 </r>
       <r>    3.2466    1.0000 </r>
       <r>    3.3051    1.0000 </r>
       <r>    3.3769    1.0000 </r>
       <r>    3.4665    1.0000 </r>
       <r>    3.5120    1.0000 </r>
       <r>    3.5235    1.0000 </r>
       <r>    3.7139    1.0000 </r>
       <r>    4.1122    1.0000 </r>
       <r>    4.1224    1.0000 </r>
       <r>    4.1838    1.0000 </r>
       <r>    4.1892    1.0000 </r>
       <r>    4.9392    0.0000 </r>
       <r>    4.9498    0.0000 </r>
       <r>    5.1667    0.0000 </r>
       <r>    5.1843    0.0000 </r>
       <r>    5.6862    0.0000 </r>
       <r>    5.6905    0.0000 </r>
       <r>    5.8322    0.0000 </r>
       <r>    5.8397    0.0000 </r>
       <r>    6.0318    0.0000 </r>
       <r>    6.0632    0.0000 </r>
       <r>    6.0770    0.0000 </r>
       <r>    6.1114    0.0000 </r>
       <r>    6.1643    0.0000 </r>
       <r>    6.1850    0.0000 </r>
       <r>    6.1918    0.0000 </r>
       <r>    6.2162    0.0000 </r>
       <r>    6.9787    0.0000 </r>
       <r>    6.9945    0.0000 </r>
       <r>    7.3258    0.0000 </r>
       <r>    7.3344    0.0000 </r>
       <r>    7.6174    0.0000 </r>
       <r>    7.6496    0.0000 </r>
       <r>    7.8721    0.0000 </r>
       <r>    7.8957    0.0000 </r>
       <r>    7.9051    0.0000 </r>
       <r>    7.9381    0.0000 </r>
       <r>    7.9922    0.0000 </r>
       <r>    8.1765    0.0000 </r>
       <r>    8.2705    0.0000 </r>
       <r>    8.5741    0.0000 </r>
       <r>    8.6123    0.0000 </r>
       <r>    8.7277    0.0000 </r>
       <r>    8.7329    0.0000 </r>
       <r>    8.7671    0.0000 </r>
       <r>    8.8933    0.0000 </r>
       <r>    8.9659    0.0000 </r>
       <r>    8.9953    0.0000 </r>
       <r>    8.9976    0.0000 </r>
       <r>    9.0062    0.0000 </r>
       <r>    9.0700    0.0000 </r>
       <r>    9.0726    0.0000 </r>
       <r>    9.1016    0.0000 </r>
       <r>    9.1868    0.0000 </r>
       <r>    9.2066    0.0000 </r>
       <r>    9.3051    0.0000 </r>
       <r>    9.3789    0.0000 </r>
       <r>    9.4398    0.0000 </r>
       <r>    9.4473    0.0000 </r>
       <r>    9.6496    0.0000 </r>
       <r>    9.6565    0.0000 </r>
       <r>    9.6930    0.0000 </r>
       <r>    9.8077    0.0000 </r>
      </set>
      <set comment="kpoint 2">
       <r>  -40.3165    1.0000 </r>
       <r>  -40.3165    1.0000 </r>
       <r>  -39.4402    1.0000 </r>
       <r>  -39.4402    1.0000 </r>
       <r>  -18.8986    1.0000 </r>
       <r>  -18.8986    1.0000 </r>
       <r>  -18.8976    1.0000 </r>
       <r>  -18.8975    1.0000 </r>
       <r>  -18.8336    1.0000 </r>
       <r>  -18.8335    1.0000 </r>
       <r>  -18.8332    1.0000 </r>
       <r>  -18.8332    1.0000 </r>
       <r>  -18.8264    1.0000 </r>
       <r>  -18.8264    1.0000 </r>
       <r>  -18.8261    1.0000 </r>
       <r>  -18.8260    1.0000 </r>
       <r>  -18.7296    1.0000 </r>
       <r>  -18.7296    1.0000 </r>
       <r>  -18.7288    1.0000 </r>
       <r>  -18.7287    1.0000 </r>
       <r>  -18.7094    1.0000 </r>
       <r>  -18.7094    1.0000 </r>
       <r>  -18.7086    1.0000 </r>
       <r>  -18.7086    1.0000 </r>
       <r>  -18.7020    1.0000 </r>
       <r>  -18.7019    1.0000 </r>
       <r>  -18.6999    1.0000 </r>
       <r>  -18.6998    1.0000 </r>
       <r>  -18.6954    1.0000 </r>
       <r>  -18.6953    1.0000 </r>
       <r>  -18.6931    1.0000 </r>
       <r>  -18.6931    1.0000 </r>
       <r>  -18.6881    1.0000 </r>
       <r>  -18.6880    1.0000 </r>
       <r>  -18.6866    1.0000 </r>
       <r>  -18.6866    1.0000 </r>
       <r>  -18.6859    1.0000 </r>
       <r>  -18.6858    1.0000 </r>
       <r>  -18.6837    1.0000 </r>
       <r>  -18.6836    1.0000 </r>
       <r>  -18.6803    1.0000 </r>
       <r>  -18.6802    1.0000 </r>
       <r>  -18.6789    1.0000 </r>
       <r>  -18.6789    1.0000 </r>
       <r>  -18.6689    1.0000 </r>
       <r>  -18.6688    1.0000 </r>
       <r>  -18.6675    1.0000 </r>
       <r>  -18.6675    1.0000 </r>
       <r>  -18.5482    1.0000 </r>
       <r>  -18.5481    1.0000 </r>
       <r>  -18.5458    1.0000 </r>
       <r>  -18.5457    1.0000 </r>
       <r>  -18.5392    1.0000 </r>
       <r>  -18.5392    1.0000 </r>
       <r>  -18.5378    1.0000 </r>
       <r>  -18.5377    1.0000 </r>
       <r>  -18.5335    1.0000 </r>
       <r>  -18.5334    1.0000 </r>
       <r>  -18.5309    1.0000 </r>
       <r>  -18.5309    1.0000 </r>
       <r>  -18.5152    1.0000 </r>
       <r>  -18.5152    1.0000 </r>
       <r>  -18.5118    1.0000 </r>
       <r>  -18.5117    1.0000 </r>
       <r>  -18.5093    1.0000 </r>
       <r>  -18.5092    1.0000 </r>
       <r>  -18.5078    1.0000 </r>
       <r>  -18.5078    1.0000 </r>
       <r>  -18.5028    1.0000 </r>
       <r>  -18.5028    1.0000 </r>
       <r>  -18.4993    1.0000 </r>
       <r>  -18.4993    1.0000 </r>
       <r>  -18.4309    1.0000 </r>
       <r>  -18.4309    1.0000 </r>
       <r>  -18.4267    1.0000 </r>
       <r>  -18.4267    1.0000 </r>
       <r>  -18.3198    1.0000 </r>
       <r>  -18.3198    1.0000 </r>
       <r>  -18.3157    1.0000 </r>
       <r>  -18.3157    1.0000 </r>
       <r>  -18.2939    1.0000 </r>
       <r>  -18.2939    1.0000 </r>
       <r>  -18.2898    1.0000 </r>
       <r>  -18.2898    1.0000 </r>
       <r>  -13.5268    1.0000 </r>
       <r>  -13.5268    1.0000 </r>
       <r>  -13.4208    1.0000 </r>
       <r>  -13.4208    1.0000 </r>
       <r>  -12.8575    1.0000 </r>
       <r>  -12.8575    1.0000 </r>
       <r>  -12.7759    1.0000 </r>
       <r>  -12.7759    1.0000 </r>
       <r>  -12.7567    1.0000 </r>
       <r>  -12.7567    1.0000 </r>
       <r>  -12.6884    1.0000 </r>
       <r>  -12.6884    1.0000 </r>
       <r>  -12.1285    1.0000 </r>
       <r>  -12.1285    1.0000 </r>
       <r>  -12.0750    1.0000 </r>
       <r>  -12.0749    1.0000 </r>
       <r>   -9.1572    1.0000 </r>
       <r>   -9.1572    1.0000 </r>
       <r>   -8.8801    1.0000 </r>
       <r>   -8.8801    1.0000 </r>
       <r>   -8.3716    1.0000 </r>
       <r>   -8.3716    1.0000 </r>
       <r>   -8.3693    1.0000 </r>
       <r>   -8.3693    1.0000 </r>
       <r>   -8.1841    1.0000 </r>
       <r>   -8.1841    1.0000 </r>
       <r>   -8.1815    1.0000 </r>
       <r>   -8.1815    1.0000 </r>
       <r>   -7.7431    1.0000 </r>
       <r>   -7.7431    1.0000 </r>
       <r>   -7.6303    1.0000 </r>
       <r>   -7.6303    1.0000 </r>
       <r>   -5.9926    1.0000 </r>
       <r>   -5.9926    1.0000 </r>
       <r>   -5.9733    1.0000 </r>
       <r>   -5.9733    1.0000 </r>
       <r>   -5.8336    1.0000 </r>
       <r>   -5.8336    1.0000 </r>
       <r>   -5.8298    1.0000 </r>
       <r>   -5.8298    1.0000 </r>
       <r>   -5.6207    1.0000 </r>
       <r>   -5.6207    1.0000 </r>
       <r>   -5.5449    1.0000 </r>
       <r>   -5.5449    1.0000 </r>
       <r>   -4.4749    1.0000 </r>
       <r>   -4.4749    1.0000 </r>
       <r>   -4.3126    1.0000 </r>
       <r>   -4.3126    1.0000 </r>
       <r>   -1.2370    1.0000 </r>
       <r>   -1.2370    1.0000 </r>
       <r>   -0.8685    1.0000 </r>
       <r>   -0.8685    1.0000 </r>
       <r>   -0.4564    1.0000 </r>
       <r>   -0.4564    1.0000 </r>
       <r>   -0.1087    1.0000 </r>
       <r>   -0.1087    1.0000 </r>
       <r>   -0.0620    1.0000 </r>
       <r>   -0.0620    1.0000 </r>
       <r>    0.0650    1.0000 </r>
       <r>    0.0650    1.0000 </r>
       <r>    0.1398    1.0000 </r>
       <r>    0.1398    1.0000 </r>
       <r>    0.2719    1.0000 </r>
       <r>    0.2719    1.0000 </r>
       <r>    0.3265    1.0000 </r>
       <r>    0.3265    1.0000 </r>
       <r>    0.4847    1.0000 </r>
       <r>    0.4847    1.0000 </r>
       <r>    0.5194    1.0000 </r>
       <r>    0.5194    1.0000 </r>
       <r>    0.6243    1.0000 </r>
       <r>    0.6243    1.0000 </r>
       <r>    0.6386    1.0000 </r>
       <r>    0.6386    1.0000 </r>
       <r>    0.8457    1.0000 </r>
       <r>    0.8457    1.0000 </r>
       <r>    0.9526    1.0000 </r>
       <r>    0.9526    1.0000 </r>
       <r>    1.0242    1.0000 </r>
       <r>    1.0242    1.0000 </r>
       <r>    1.0605    1.0000 </r>
       <r>    1.0605    1.0000 </r>
       <r>    1.1668    1.0000 </r>
       <r>    1.1668    1.0000 </r>
       <r>    1.2282    1.0000 </r>
       <r>    1.2282    1.0000 </r>
       <r>    1.3858    1.0000 </r>
       <r>    1.3858    1.0000 </r>
       <r>    1.3964    1.0000 </r>
       <r>    1.3964    1.0000 </r>
       <r>    1.4714    1.0000 </r>
       <r>    1.4714    1.0000 </r>
       <r>    1.5066    1.0000 </r>
       <r>    1.5066    1.0000 </r>
       <r>    1.5698    1.0000 </r>
       <r>    1.5698    1.0000 </r>
       <r>    1.6455    1.0000 </r>
       <r>    1.6455    1.0000 </r>
       <r>    1.9299    1.0000 </r>
       <r>    1.9299    1.0000 </r>
       <r>    2.0194    1.0000 </r>
       <r>    2.0194    1.0000 </r>
       <r>    2.0632    1.0000 </r>
       <r>    2.0632    1.0000 </r>
       <r>    2.1057    1.0000 </r>
       <r>    2.1057    1.0000 </r>
       <r>    2.2064    1.0000 </r>
       <r>    2.2064    1.0000 </r>
       <r>    2.2414    1.0000 </r>
       <r>    2.2414    1.0000 </r>
       <r>    2.3324    1.0000 </r>
       <r>    2.3324    1.0000 </r>
       <r>    2.5139    1.0000 </r>
       <r>    2.5139    1.0000 </r>
       <r>    2.5511    1.0000 </r>
       <r>    2.5511    1.0000 </r>
       <r>    2.6299    1.0000 </r>
       <r>    2.6299    1.0000 </r>
       <r>    2.7258    1.0000 </r>
       <r>    2.7258    1.0000 </r>
       <r>    2.8214    1.0000 </r>
       <r>    2.8214    1.0000 </r>
       <r>    2.8282    1.0000 </r>
       <r>    2.8282    1.0000 </r>
       <r>    2.8673    1.0000 </r>
       <r>    2.8673    1.0000 </r>
       <r>    2.9542    1.0000 </r>
       <r>    2.9542    1.0000 </r>
       <r>    3.0288    1.0000 </r>
       <r>    3.0288    1.0000 </r>
       <r>    3.1379    1.0000 </r>
       <r>    3.1379    1.0000 </r>
       <r>    3.3264    1.0000 </r>
       <r>    3.3264    1.0000 </r>
       <r>    3.3942    1.0000 </r>
       <r>    3.3942    1.0000 </r>
       <r>    3.4311    1.0000 </r>
       <r>    3.4311    1.0000 </r>
       <r>    3.4579    1.0000 </r>
       <r>    3.4579    1.0000 </r>
       <r>    3.6575    1.0000 </r>
       <r>    3.6576    1.0000 </r>
       <r>    3.7300    1.0000 </r>
       <r>    3.7300    1.0000 </r>
       <r>    5.6206    0.0000 </r>
       <r>    5.6206    0.0000 </r>
       <r>    5.6296    0.0000 </r>
       <r>    5.6296    0.0000 </r>
       <r>    5.7358    0.0000 </r>
       <r>    5.7358    0.0000 </r>
       <r>    5.7475    0.0000 </r>
       <r>    5.7475    0.0000 </r>
       <r>    7.2111    0.0000 </r>
       <r>    7.2111    0.0000 </r>
       <r>    7.2210    0.0000 </r>
       <r>    7.2210    0.0000 </r>
       <r>    7.2600    0.0000 </r>
       <r>    7.2600    0.0000 </r>
       <r>    7.3814    0.0000 </r>
       <r>    7.3814    0.0000 </r>
       <r>    7.4915    0.0000 </r>
       <r>    7.4915    0.0000 </r>
       <r>    7.4924    0.0000 </r>
       <r>    7.4924    0.0000 </r>
       <r>    7.7931    0.0000 </r>
       <r>    7.7931    0.0000 </r>
       <r>    7.8056    0.0000 </r>
       <r>    7.8056    0.0000 </r>
       <r>    7.8212    0.0000 </r>
       <r>    7.8212    0.0000 </r>
       <r>    7.8497    0.0000 </r>
       <r>    7.8497    0.0000 </r>
       <r>    7.9953    0.0000 </r>
       <r>    7.9953    0.0000 </r>
       <r>    8.0015    0.0000 </r>
       <r>    8.0015    0.0000 </r>
       <r>    8.2556    0.0000 </r>
       <r>    8.2556    0.0000 </r>
       <r>    8.2931    0.0000 </r>
       <r>    8.2931    0.0000 </r>
       <r>    8.6737    0.0000 </r>
       <r>    8.6737    0.0000 </r>
       <r>    8.7275    0.0000 </r>
       <r>    8.7275    0.0000 </r>
       <r>    8.7426    0.0000 </r>
       <r>    8.7426    0.0000 </r>
       <r>    8.8677    0.0000 </r>
       <r>    8.8677    0.0000 </r>
       <r>    9.1571    0.0000 </r>
       <r>    9.1571    0.0000 </r>
       <r>    9.3384    0.0000 </r>
       <r>    9.3384    0.0000 </r>
       <r>    9.4134    0.0000 </r>
       <r>    9.4134    0.0000 </r>
       <r>   10.0930    0.0000 </r>
       <r>   10.0930    0.0000 </r>
      </set>
      <set comment="kpoint 3">
       <r>  -40.3165    1.0000 </r>
       <r>  -40.3165    1.0000 </r>
       <r>  -39.4402    1.0000 </r>
       <r>  -39.4402    1.0000 </r>
       <r>  -18.8997    1.0000 </r>
       <r>  -18.8982    1.0000 </r>
       <r>  -18.8979    1.0000 </r>
       <r>  -18.8966    1.0000 </r>
       <r>  -18.8351    1.0000 </r>
       <r>  -18.8348    1.0000 </r>
       <r>  -18.8321    1.0000 </r>
       <r>  -18.8318    1.0000 </r>
       <r>  -18.8288    1.0000 </r>
       <r>  -18.8285    1.0000 </r>
       <r>  -18.8239    1.0000 </r>
       <r>  -18.8236    1.0000 </r>
       <r>  -18.7296    1.0000 </r>
       <r>  -18.7294    1.0000 </r>
       <r>  -18.7289    1.0000 </r>
       <r>  -18.7288    1.0000 </r>
       <r>  -18.7095    1.0000 </r>
       <r>  -18.7093    1.0000 </r>
       <r>  -18.7087    1.0000 </r>
       <r>  -18.7086    1.0000 </r>
       <r>  -18.7023    1.0000 </r>
       <r>  -18.7021    1.0000 </r>
       <r>  -18.7002    1.0000 </r>
       <r>  -18.6999    1.0000 </r>
       <r>  -18.6964    1.0000 </r>
       <r>  -18.6946    1.0000 </r>
       <r>  -18.6941    1.0000 </r>
       <r>  -18.6923    1.0000 </r>
       <r>  -18.6894    1.0000 </r>
       <r>  -18.6877    1.0000 </r>
       <r>  -18.6867    1.0000 </r>
       <r>  -18.6858    1.0000 </r>
       <r>  -18.6857    1.0000 </r>
       <r>  -18.6852    1.0000 </r>
       <r>  -18.6838    1.0000 </r>
       <r>  -18.6833    1.0000 </r>
       <r>  -18.6817    1.0000 </r>
       <r>  -18.6804    1.0000 </r>
       <r>  -18.6785    1.0000 </r>
       <r>  -18.6771    1.0000 </r>
       <r>  -18.6699    1.0000 </r>
       <r>  -18.6683    1.0000 </r>
       <r>  -18.6678    1.0000 </r>
       <r>  -18.6663    1.0000 </r>
       <r>  -18.5483    1.0000 </r>
       <r>  -18.5481    1.0000 </r>
       <r>  -18.5458    1.0000 </r>
       <r>  -18.5456    1.0000 </r>
       <r>  -18.5393    1.0000 </r>
       <r>  -18.5391    1.0000 </r>
       <r>  -18.5380    1.0000 </r>
       <r>  -18.5377    1.0000 </r>
       <r>  -18.5336    1.0000 </r>
       <r>  -18.5333    1.0000 </r>
       <r>  -18.5310    1.0000 </r>
       <r>  -18.5308    1.0000 </r>
       <r>  -18.5163    1.0000 </r>
       <r>  -18.5141    1.0000 </r>
       <r>  -18.5129    1.0000 </r>
       <r>  -18.5107    1.0000 </r>
       <r>  -18.5093    1.0000 </r>
       <r>  -18.5092    1.0000 </r>
       <r>  -18.5079    1.0000 </r>
       <r>  -18.5078    1.0000 </r>
       <r>  -18.5047    1.0000 </r>
       <r>  -18.5012    1.0000 </r>
       <r>  -18.5009    1.0000 </r>
       <r>  -18.4974    1.0000 </r>
       <r>  -18.4316    1.0000 </r>
       <r>  -18.4303    1.0000 </r>
       <r>  -18.4273    1.0000 </r>
       <r>  -18.4260    1.0000 </r>
       <r>  -18.3198    1.0000 </r>
       <r>  -18.3197    1.0000 </r>
       <r>  -18.3158    1.0000 </r>
       <r>  -18.3156    1.0000 </r>
       <r>  -18.2940    1.0000 </r>
       <r>  -18.2938    1.0000 </r>
       <r>  -18.2899    1.0000 </r>
       <r>  -18.2897    1.0000 </r>
       <r>  -13.5352    1.0000 </r>
       <r>  -13.5181    1.0000 </r>
       <r>  -13.4242    1.0000 </r>
       <r>  -13.4179    1.0000 </r>
       <r>  -12.8561    1.0000 </r>
       <r>  -12.8551    1.0000 </r>
       <r>  -12.7796    1.0000 </r>
       <r>  -12.7725    1.0000 </r>
       <r>  -12.7621    1.0000 </r>
       <r>  -12.7526    1.0000 </r>
       <r>  -12.6966    1.0000 </r>
       <r>  -12.6824    1.0000 </r>
       <r>  -12.1353    1.0000 </r>
       <r>  -12.1204    1.0000 </r>
       <r>  -12.0813    1.0000 </r>
       <r>  -12.0715    1.0000 </r>
       <r>   -9.3571    1.0000 </r>
       <r>   -9.0808    1.0000 </r>
       <r>   -8.6415    1.0000 </r>
       <r>   -8.5546    1.0000 </r>
       <r>   -8.5539    1.0000 </r>
       <r>   -8.4622    1.0000 </r>
       <r>   -8.3756    1.0000 </r>
       <r>   -8.2897    1.0000 </r>
       <r>   -8.2892    1.0000 </r>
       <r>   -8.1998    1.0000 </r>
       <r>   -8.0911    1.0000 </r>
       <r>   -8.0890    1.0000 </r>
       <r>   -8.0754    1.0000 </r>
       <r>   -8.0734    1.0000 </r>
       <r>   -7.4118    1.0000 </r>
       <r>   -7.4103    1.0000 </r>
       <r>   -6.4183    1.0000 </r>
       <r>   -6.4115    1.0000 </r>
       <r>   -6.3786    1.0000 </r>
       <r>   -6.3746    1.0000 </r>
       <r>   -5.5924    1.0000 </r>
       <r>   -5.4870    1.0000 </r>
       <r>   -5.4574    1.0000 </r>
       <r>   -5.4546    1.0000 </r>
       <r>   -5.4405    1.0000 </r>
       <r>   -5.3243    1.0000 </r>
       <r>   -5.2620    1.0000 </r>
       <r>   -5.1654    1.0000 </r>
       <r>   -5.1023    1.0000 </r>
       <r>   -4.9990    1.0000 </r>
       <r>   -3.9427    1.0000 </r>
       <r>   -3.6286    1.0000 </r>
       <r>   -1.4443    1.0000 </r>
       <r>   -1.3702    1.0000 </r>
       <r>   -1.2728    1.0000 </r>
       <r>   -1.0530    1.0000 </r>
       <r>   -0.5748    1.0000 </r>
       <r>   -0.5268    1.0000 </r>
       <r>   -0.4889    1.0000 </r>
       <r>   -0.4491    1.0000 </r>
       <r>   -0.4173    1.0000 </r>
       <r>   -0.3968    1.0000 </r>
       <r>   -0.3773    1.0000 </r>
       <r>   -0.2666    1.0000 </r>
       <r>   -0.1845    1.0000 </r>
       <r>   -0.1039    1.0000 </r>
       <r>   -0.0380    1.0000 </r>
       <r>    0.0545    1.0000 </r>
       <r>    0.0904    1.0000 </r>
       <r>    0.2662    1.0000 </r>
       <r>    0.2852    1.0000 </r>
       <r>    0.4492    1.0000 </r>
       <r>    0.4526    1.0000 </r>
       <r>    0.4604    1.0000 </r>
       <r>    0.4796    1.0000 </r>
       <r>    0.6090    1.0000 </r>
       <r>    0.6358    1.0000 </r>
       <r>    0.6593    1.0000 </r>
       <r>    0.7599    1.0000 </r>
       <r>    0.7775    1.0000 </r>
       <r>    0.7972    1.0000 </r>
       <r>    1.0123    1.0000 </r>
       <r>    1.0336    1.0000 </r>
       <r>    1.1009    1.0000 </r>
       <r>    1.1339    1.0000 </r>
       <r>    1.1649    1.0000 </r>
       <r>    1.3347    1.0000 </r>
       <r>    1.3388    1.0000 </r>
       <r>    1.4013    1.0000 </r>
       <r>    1.4670    1.0000 </r>
       <r>    1.4723    1.0000 </r>
       <r>    1.4808    1.0000 </r>
       <r>    1.5154    1.0000 </r>
       <r>    1.5243    1.0000 </r>
       <r>    1.5615    1.0000 </r>
       <r>    1.6083    1.0000 </r>
       <r>    1.6193    1.0000 </r>
       <r>    1.7080    1.0000 </r>
       <r>    1.7338    1.0000 </r>
       <r>    1.9531    1.0000 </r>
       <r>    1.9550    1.0000 </r>
       <r>    2.0025    1.0000 </r>
       <r>    2.0383    1.0000 </r>
       <r>    2.0487    1.0000 </r>
       <r>    2.1498    1.0000 </r>
       <r>    2.1744    1.0000 </r>
       <r>    2.3279    1.0000 </r>
       <r>    2.3440    1.0000 </r>
       <r>    2.3651    1.0000 </r>
       <r>    2.4436    1.0000 </r>
       <r>    2.4533    1.0000 </r>
       <r>    2.5091    1.0000 </r>
       <r>    2.5108    1.0000 </r>
       <r>    2.5171    1.0000 </r>
       <r>    2.5204    1.0000 </r>
       <r>    2.5540    1.0000 </r>
       <r>    2.5557    1.0000 </r>
       <r>    2.5955    1.0000 </r>
       <r>    2.6496    1.0000 </r>
       <r>    2.6765    1.0000 </r>
       <r>    2.7273    1.0000 </r>
       <r>    2.7537    1.0000 </r>
       <r>    2.7641    1.0000 </r>
       <r>    2.8045    1.0000 </r>
       <r>    2.8415    1.0000 </r>
       <r>    2.8426    1.0000 </r>
       <r>    2.8864    1.0000 </r>
       <r>    2.9495    1.0000 </r>
       <r>    2.9956    1.0000 </r>
       <r>    3.0021    1.0000 </r>
       <r>    3.0209    1.0000 </r>
       <r>    3.0513    1.0000 </r>
       <r>    3.1090    1.0000 </r>
       <r>    3.2123    1.0000 </r>
       <r>    3.2403    1.0000 </r>
       <r>    3.2504    1.0000 </r>
       <r>    3.3323    1.0000 </r>
       <r>    3.3422    1.0000 </r>
       <r>    3.3599    1.0000 </r>
       <r>    3.4352    1.0000 </r>
       <r>    3.4601    1.0000 </r>
       <r>    3.5360    1.0000 </r>
       <r>    3.5527    1.0000 </r>
       <r>    3.6573    1.0000 </r>
       <r>    4.1640    1.0000 </r>
       <r>    4.1698    1.0000 </r>
       <r>    4.2334    1.0000 </r>
       <r>    4.2407    1.0000 </r>
       <r>    5.0246    0.0000 </r>
       <r>    5.0305    0.0000 </r>
       <r>    5.2363    0.0000 </r>
       <r>    5.2382    0.0000 </r>
       <r>    5.6923    0.0000 </r>
       <r>    5.6980    0.0000 </r>
       <r>    5.8378    0.0000 </r>
       <r>    5.8467    0.0000 </r>
       <r>    6.0876    0.0000 </r>
       <r>    6.1113    0.0000 </r>
       <r>    6.1238    0.0000 </r>
       <r>    6.1484    0.0000 </r>
       <r>    6.1794    0.0000 </r>
       <r>    6.2040    0.0000 </r>
       <r>    6.2103    0.0000 </r>
       <r>    6.2380    0.0000 </r>
       <r>    6.6895    0.0000 </r>
       <r>    6.7214    0.0000 </r>
       <r>    6.9450    0.0000 </r>
       <r>    7.0317    0.0000 </r>
       <r>    7.0922    0.0000 </r>
       <r>    7.1637    0.0000 </r>
       <r>    7.2342    0.0000 </r>
       <r>    7.4672    0.0000 </r>
       <r>    7.6077    0.0000 </r>
       <r>    7.7677    0.0000 </r>
       <r>    7.8874    0.0000 </r>
       <r>    7.9544    0.0000 </r>
       <r>    8.0759    0.0000 </r>
       <r>    8.2686    0.0000 </r>
       <r>    8.2776    0.0000 </r>
       <r>    8.3787    0.0000 </r>
       <r>    8.6091    0.0000 </r>
       <r>    8.7324    0.0000 </r>
       <r>    8.9279    0.0000 </r>
       <r>    8.9289    0.0000 </r>
       <r>    8.9494    0.0000 </r>
       <r>    9.0108    0.0000 </r>
       <r>    9.0232    0.0000 </r>
       <r>    9.0258    0.0000 </r>
       <r>    9.0283    0.0000 </r>
       <r>    9.0910    0.0000 </r>
       <r>    9.1150    0.0000 </r>
       <r>    9.1764    0.0000 </r>
       <r>    9.4117    0.0000 </r>
       <r>    9.4203    0.0000 </r>
       <r>    9.4719    0.0000 </r>
       <r>    9.6736    0.0000 </r>
       <r>    9.6832    0.0000 </r>
       <r>    9.8590    0.0000 </r>
       <r>    9.9070    0.0000 </r>
       <r>    9.9311    0.0000 </r>
      </set>
      <set comment="kpoint 4">
       <r>  -40.3165    1.0000 </r>
       <r>  -40.3165    1.0000 </r>
       <r>  -39.4402    1.0000 </r>
       <r>  -39.4402    1.0000 </r>
       <r>  -18.8989    1.0000 </r>
       <r>  -18.8989    1.0000 </r>
       <r>  -18.8972    1.0000 </r>
       <r>  -18.8972    1.0000 </r>
       <r>  -18.8336    1.0000 </r>
       <r>  -18.8335    1.0000 </r>
       <r>  -18.8332    1.0000 </r>
       <r>  -18.8332    1.0000 </r>
       <r>  -18.8264    1.0000 </r>
       <r>  -18.8264    1.0000 </r>
       <r>  -18.8261    1.0000 </r>
       <r>  -18.8261    1.0000 </r>
       <r>  -18.7295    1.0000 </r>
       <r>  -18.7295    1.0000 </r>
       <r>  -18.7288    1.0000 </r>
       <r>  -18.7288    1.0000 </r>
       <r>  -18.7094    1.0000 </r>
       <r>  -18.7094    1.0000 </r>
       <r>  -18.7087    1.0000 </r>
       <r>  -18.7086    1.0000 </r>
       <r>  -18.7020    1.0000 </r>
       <r>  -18.7019    1.0000 </r>
       <r>  -18.6998    1.0000 </r>
       <r>  -18.6998    1.0000 </r>
       <r>  -18.6954    1.0000 </r>
       <r>  -18.6953    1.0000 </r>
       <r>  -18.6931    1.0000 </r>
       <r>  -18.6931    1.0000 </r>
       <r>  -18.6881    1.0000 </r>
       <r>  -18.6880    1.0000 </r>
       <r>  -18.6867    1.0000 </r>
       <r>  -18.6866    1.0000 </r>
       <r>  -18.6858    1.0000 </r>
       <r>  -18.6857    1.0000 </r>
       <r>  -18.6837    1.0000 </r>
       <r>  -18.6837    1.0000 </r>
       <r>  -18.6803    1.0000 </r>
       <r>  -18.6802    1.0000 </r>
       <r>  -18.6789    1.0000 </r>
       <r>  -18.6789    1.0000 </r>
       <r>  -18.6689    1.0000 </r>
       <r>  -18.6689    1.0000 </r>
       <r>  -18.6674    1.0000 </r>
       <r>  -18.6674    1.0000 </r>
       <r>  -18.5482    1.0000 </r>
       <r>  -18.5481    1.0000 </r>
       <r>  -18.5457    1.0000 </r>
       <r>  -18.5457    1.0000 </r>
       <r>  -18.5392    1.0000 </r>
       <r>  -18.5392    1.0000 </r>
       <r>  -18.5379    1.0000 </r>
       <r>  -18.5378    1.0000 </r>
       <r>  -18.5335    1.0000 </r>
       <r>  -18.5334    1.0000 </r>
       <r>  -18.5309    1.0000 </r>
       <r>  -18.5309    1.0000 </r>
       <r>  -18.5152    1.0000 </r>
       <r>  -18.5152    1.0000 </r>
       <r>  -18.5118    1.0000 </r>
       <r>  -18.5117    1.0000 </r>
       <r>  -18.5093    1.0000 </r>
       <r>  -18.5092    1.0000 </r>
       <r>  -18.5078    1.0000 </r>
       <r>  -18.5078    1.0000 </r>
       <r>  -18.5028    1.0000 </r>
       <r>  -18.5028    1.0000 </r>
       <r>  -18.4993    1.0000 </r>
       <r>  -18.4993    1.0000 </r>
       <r>  -18.4309    1.0000 </r>
       <r>  -18.4309    1.0000 </r>
       <r>  -18.4267    1.0000 </r>
       <r>  -18.4266    1.0000 </r>
       <r>  -18.3198    1.0000 </r>
       <r>  -18.3198    1.0000 </r>
       <r>  -18.3157    1.0000 </r>
       <r>  -18.3157    1.0000 </r>
       <r>  -18.2939    1.0000 </r>
       <r>  -18.2939    1.0000 </r>
       <r>  -18.2898    1.0000 </r>
       <r>  -18.2898    1.0000 </r>
       <r>  -13.5266    1.0000 </r>
       <r>  -13.5266    1.0000 </r>
       <r>  -13.4210    1.0000 </r>
       <r>  -13.4210    1.0000 </r>
       <r>  -12.8565    1.0000 </r>
       <r>  -12.8565    1.0000 </r>
       <r>  -12.7760    1.0000 </r>
       <r>  -12.7760    1.0000 </r>
       <r>  -12.7566    1.0000 </r>
       <r>  -12.7566    1.0000 </r>
       <r>  -12.6896    1.0000 </r>
       <r>  -12.6896    1.0000 </r>
       <r>  -12.1277    1.0000 </r>
       <r>  -12.1277    1.0000 </r>
       <r>  -12.0763    1.0000 </r>
       <r>  -12.0763    1.0000 </r>
       <r>   -9.1574    1.0000 </r>
       <r>   -9.1574    1.0000 </r>
       <r>   -8.8768    1.0000 </r>
       <r>   -8.8768    1.0000 </r>
       <r>   -8.3924    1.0000 </r>
       <r>   -8.3923    1.0000 </r>
       <r>   -8.3901    1.0000 </r>
       <r>   -8.3901    1.0000 </r>
       <r>   -8.1624    1.0000 </r>
       <r>   -8.1624    1.0000 </r>
       <r>   -8.1598    1.0000 </r>
       <r>   -8.1598    1.0000 </r>
       <r>   -7.7577    1.0000 </r>
       <r>   -7.7577    1.0000 </r>
       <r>   -7.6189    1.0000 </r>
       <r>   -7.6189    1.0000 </r>
       <r>   -6.0267    1.0000 </r>
       <r>   -6.0267    1.0000 </r>
       <r>   -6.0065    1.0000 </r>
       <r>   -6.0065    1.0000 </r>
       <r>   -5.8042    1.0000 </r>
       <r>   -5.8041    1.0000 </r>
       <r>   -5.7861    1.0000 </r>
       <r>   -5.7861    1.0000 </r>
       <r>   -5.6167    1.0000 </r>
       <r>   -5.6167    1.0000 </r>
       <r>   -5.5184    1.0000 </r>
       <r>   -5.5184    1.0000 </r>
       <r>   -4.5433    1.0000 </r>
       <r>   -4.5433    1.0000 </r>
       <r>   -4.2328    1.0000 </r>
       <r>   -4.2328    1.0000 </r>
       <r>   -1.1228    1.0000 </r>
       <r>   -1.1228    1.0000 </r>
       <r>   -1.0327    1.0000 </r>
       <r>   -1.0327    1.0000 </r>
       <r>   -0.3379    1.0000 </r>
       <r>   -0.3379    1.0000 </r>
       <r>   -0.2704    1.0000 </r>
       <r>   -0.2704    1.0000 </r>
       <r>   -0.1738    1.0000 </r>
       <r>   -0.1738    1.0000 </r>
       <r>   -0.1216    1.0000 </r>
       <r>   -0.1216    1.0000 </r>
       <r>   -0.0595    1.0000 </r>
       <r>   -0.0595    1.0000 </r>
       <r>    0.2833    1.0000 </r>
       <r>    0.2833    1.0000 </r>
       <r>    0.3318    1.0000 </r>
       <r>    0.3318    1.0000 </r>
       <r>    0.4597    1.0000 </r>
       <r>    0.4597    1.0000 </r>
       <r>    0.4818    1.0000 </r>
       <r>    0.4818    1.0000 </r>
       <r>    0.5996    1.0000 </r>
       <r>    0.5996    1.0000 </r>
       <r>    0.6108    1.0000 </r>
       <r>    0.6108    1.0000 </r>
       <r>    0.8291    1.0000 </r>
       <r>    0.8291    1.0000 </r>
       <r>    0.8835    1.0000 </r>
       <r>    0.8835    1.0000 </r>
       <r>    0.9531    1.0000 </r>
       <r>    0.9531    1.0000 </r>
       <r>    0.9820    1.0000 </r>
       <r>    0.9820    1.0000 </r>
       <r>    1.1634    1.0000 </r>
       <r>    1.1634    1.0000 </r>
       <r>    1.3265    1.0000 </r>
       <r>    1.3265    1.0000 </r>
       <r>    1.3378    1.0000 </r>
       <r>    1.3378    1.0000 </r>
       <r>    1.4982    1.0000 </r>
       <r>    1.4982    1.0000 </r>
       <r>    1.5382    1.0000 </r>
       <r>    1.5382    1.0000 </r>
       <r>    1.6000    1.0000 </r>
       <r>    1.6000    1.0000 </r>
       <r>    1.6935    1.0000 </r>
       <r>    1.6935    1.0000 </r>
       <r>    1.7015    1.0000 </r>
       <r>    1.7015    1.0000 </r>
[...]
       <r>    8.7502    0.0000 </r>
       <r>    8.8196    0.0000 </r>
       <r>    8.8217    0.0000 </r>
       <r>    8.8521    0.0000 </r>
       <r>    8.8530    0.0000 </r>
       <r>    8.9254    0.0000 </r>
       <r>    8.9275    0.0000 </r>
       <r>    9.6148    0.0000 </r>
       <r>    9.6154    0.0000 </r>
       <r>   10.0614    0.0000 </r>
       <r>   10.0620    0.0000 </r>
      </set>
     </set>
    </set>
   </array>
  </eigenvalues>
  <separator name="orbital magnetization" >
   <v name="MAGDIPOLOUT">      0.00000000      0.00000000      0.00000000</v>
  </separator>
  <dos>
   <i name="efermi">      4.24848366 </i>
   <total>
    <array>
     <dimension dim="1">gridpoints</dimension>
     <dimension dim="2">spin</dimension>
     <field>energy</field>
     <field>total</field>
     <field>integrated</field>
     <set>
      <set comment="spin 1">
       <r>   -42.8527     0.0000     0.0000 </r>
       <r>   -42.6667     0.0000     0.0000 </r>
       <r>   -42.4808     0.0000     0.0000 </r>
       <r>   -42.2948     0.0000     0.0000 </r>
       <r>   -42.1088     0.0000     0.0000 </r>
       <r>   -41.9228     0.0000     0.0000 </r>
       <r>   -41.7368     0.0000     0.0000 </r>
       <r>   -41.5508     0.0000     0.0000 </r>
       <r>   -41.3648     0.0000     0.0000 </r>
       <r>   -41.1789     0.0000     0.0000 </r>
       <r>   -40.9929     0.0000     0.0000 </r>
       <r>   -40.8069     0.0000     0.0000 </r>
       <r>   -40.6209     0.0000     0.0000 </r>
       <r>   -40.4349     0.0000     0.0000 </r>
       <r>   -40.2489     0.0000     4.0000 </r>
       <r>   -40.0629     0.0000     4.0000 </r>
       <r>   -39.8769     0.0000     4.0000 </r>
       <r>   -39.6910     0.0000     4.0000 </r>
       <r>   -39.5050     0.0000     4.0000 </r>
       <r>   -39.3190     0.0000     8.0000 </r>
       <r>   -39.1330     0.0000     8.0000 </r>
       <r>   -38.9470     0.0000     8.0000 </r>
       <r>   -38.7610     0.0000     8.0000 </r>
       <r>   -38.5750     0.0000     8.0000 </r>
       <r>   -38.3890     0.0000     8.0000 </r>
       <r>   -38.2031     0.0000     8.0000 </r>
       <r>   -38.0171     0.0000     8.0000 </r>
       <r>   -37.8311     0.0000     8.0000 </r>
       <r>   -37.6451     0.0000     8.0000 </r>
       <r>   -37.4591     0.0000     8.0000 </r>
       <r>   -37.2731     0.0000     8.0000 </r>
       <r>   -37.0871     0.0000     8.0000 </r>
       <r>   -36.9011     0.0000     8.0000 </r>
       <r>   -36.7152     0.0000     8.0000 </r>
       <r>   -36.5292     0.0000     8.0000 </r>
       <r>   -36.3432     0.0000     8.0000 </r>
       <r>   -36.1572     0.0000     8.0000 </r>
       <r>   -35.9712     0.0000     8.0000 </r>
       <r>   -35.7852     0.0000     8.0000 </r>
       <r>   -35.5992     0.0000     8.0000 </r>
       <r>   -35.4133     0.0000     8.0000 </r>
       <r>   -35.2273     0.0000     8.0000 </r>
       <r>   -35.0413     0.0000     8.0000 </r>
       <r>   -34.8553     0.0000     8.0000 </r>
       <r>   -34.6693     0.0000     8.0000 </r>
       <r>   -34.4833     0.0000     8.0000 </r>
       <r>   -34.2973     0.0000     8.0000 </r>
       <r>   -34.1113     0.0000     8.0000 </r>
       <r>   -33.9254     0.0000     8.0000 </r>
       <r>   -33.7394     0.0000     8.0000 </r>
       <r>   -33.5534     0.0000     8.0000 </r>
       <r>   -33.3674     0.0000     8.0000 </r>
       <r>   -33.1814     0.0000     8.0000 </r>
       <r>   -32.9954     0.0000     8.0000 </r>
       <r>   -32.8094     0.0000     8.0000 </r>
       <r>   -32.6234     0.0000     8.0000 </r>
       <r>   -32.4375     0.0000     8.0000 </r>
       <r>   -32.2515     0.0000     8.0000 </r>
       <r>   -32.0655     0.0000     8.0000 </r>
       <r>   -31.8795     0.0000     8.0000 </r>
       <r>   -31.6935     0.0000     8.0000 </r>
       <r>   -31.5075     0.0000     8.0000 </r>
       <r>   -31.3215     0.0000     8.0000 </r>
       <r>   -31.1356     0.0000     8.0000 </r>
       <r>   -30.9496     0.0000     8.0000 </r>
       <r>   -30.7636     0.0000     8.0000 </r>
       <r>   -30.5776     0.0000     8.0000 </r>
       <r>   -30.3916     0.0000     8.0000 </r>
       <r>   -30.2056     0.0000     8.0000 </r>
       <r>   -30.0196     0.0000     8.0000 </r>
       <r>   -29.8336     0.0000     8.0000 </r>
       <r>   -29.6477     0.0000     8.0000 </r>
       <r>   -29.4617     0.0000     8.0000 </r>
       <r>   -29.2757     0.0000     8.0000 </r>
       <r>   -29.0897     0.0000     8.0000 </r>
       <r>   -28.9037     0.0000     8.0000 </r>
       <r>   -28.7177     0.0000     8.0000 </r>
       <r>   -28.5317     0.0000     8.0000 </r>
       <r>   -28.3457     0.0000     8.0000 </r>
       <r>   -28.1598     0.0000     8.0000 </r>
       <r>   -27.9738     0.0000     8.0000 </r>
       <r>   -27.7878     0.0000     8.0000 </r>
       <r>   -27.6018     0.0000     8.0000 </r>
       <r>   -27.4158     0.0000     8.0000 </r>
       <r>   -27.2298     0.0000     8.0000 </r>
       <r>   -27.0438     0.0000     8.0000 </r>
       <r>   -26.8578     0.0000     8.0000 </r>
       <r>   -26.6719     0.0000     8.0000 </r>
       <r>   -26.4859     0.0000     8.0000 </r>
       <r>   -26.2999     0.0000     8.0000 </r>
       <r>   -26.1139     0.0000     8.0000 </r>
       <r>   -25.9279     0.0000     8.0000 </r>
       <r>   -25.7419     0.0000     8.0000 </r>
       <r>   -25.5559     0.0000     8.0000 </r>
       <r>   -25.3700     0.0000     8.0000 </r>
       <r>   -25.1840     0.0000     8.0000 </r>
       <r>   -24.9980     0.0000     8.0000 </r>
       <r>   -24.8120     0.0000     8.0000 </r>
       <r>   -24.6260     0.0000     8.0000 </r>
       <r>   -24.4400     0.0000     8.0000 </r>
       <r>   -24.2540     0.0000     8.0000 </r>
       <r>   -24.0680     0.0000     8.0000 </r>
       <r>   -23.8821     0.0000     8.0000 </r>
       <r>   -23.6961     0.0000     8.0000 </r>
       <r>   -23.5101     0.0000     8.0000 </r>
       <r>   -23.3241     0.0000     8.0000 </r>
       <r>   -23.1381     0.0000     8.0000 </r>
       <r>   -22.9521     0.0000     8.0000 </r>
       <r>   -22.7661     0.0000     8.0000 </r>
       <r>   -22.5801     0.0000     8.0000 </r>
       <r>   -22.3942     0.0000     8.0000 </r>
       <r>   -22.2082     0.0000     8.0000 </r>
       <r>   -22.0222     0.0000     8.0000 </r>
       <r>   -21.8362     0.0000     8.0000 </r>
       <r>   -21.6502     0.0000     8.0000 </r>
       <r>   -21.4642     0.0000     8.0000 </r>
       <r>   -21.2782     0.0000     8.0000 </r>
       <r>   -21.0923     0.0000     8.0000 </r>
       <r>   -20.9063     0.0000     8.0000 </r>
       <r>   -20.7203     0.0000     8.0000 </r>
       <r>   -20.5343     0.0000     8.0000 </r>
       <r>   -20.3483     0.0000     8.0000 </r>
       <r>   -20.1623     0.0000     8.0000 </r>
       <r>   -19.9763     0.0000     8.0000 </r>
       <r>   -19.7903     0.0000     8.0000 </r>
       <r>   -19.6044     0.0000     8.0000 </r>
       <r>   -19.4184     0.0000     8.0000 </r>
       <r>   -19.2324     0.0000     8.0000 </r>
       <r>   -19.0464     0.0000     8.0000 </r>
       <r>   -18.8604     0.0000    16.0000 </r>
       <r>   -18.6744     0.0000    88.0000 </r>
       <r>   -18.4884     0.0000   144.0000 </r>
       <r>   -18.3024     0.0000   160.0000 </r>
       <r>   -18.1165     0.0000   168.0000 </r>
       <r>   -17.9305     0.0000   168.0000 </r>
       <r>   -17.7445     0.0000   168.0000 </r>
       <r>   -17.5585     0.0000   168.0000 </r>
       <r>   -17.3725     0.0000   168.0000 </r>
       <r>   -17.1865     0.0000   168.0000 </r>
       <r>   -17.0005     0.0000   168.0000 </r>
       <r>   -16.8145     0.0000   168.0000 </r>
       <r>   -16.6286     0.0000   168.0000 </r>
       <r>   -16.4426     0.0000   168.0000 </r>
       <r>   -16.2566     0.0000   168.0000 </r>
       <r>   -16.0706     0.0000   168.0000 </r>
       <r>   -15.8846     0.0000   168.0000 </r>
       <r>   -15.6986     0.0000   168.0000 </r>
       <r>   -15.5126     0.0000   168.0000 </r>
       <r>   -15.3267     0.0000   168.0000 </r>
       <r>   -15.1407     0.0000   168.0000 </r>
       <r>   -14.9547     0.0000   168.0000 </r>
       <r>   -14.7687     0.0000   168.0000 </r>
       <r>   -14.5827     0.0000   168.0000 </r>
       <r>   -14.3967     0.0000   168.0000 </r>
       <r>   -14.2107     0.0000   168.0000 </r>
       <r>   -14.0247     0.0000   168.0000 </r>
       <r>   -13.8388     0.0000   168.0000 </r>
       <r>   -13.6528     0.0000   168.0000 </r>
       <r>   -13.4668     0.0000   172.0000 </r>
       <r>   -13.2808     0.0000   176.0000 </r>
       <r>   -13.0948     0.0000   176.0000 </r>
       <r>   -12.9088     0.0000   176.0000 </r>
       <r>   -12.7228     0.0000   188.0000 </r>
       <r>   -12.5368     0.0000   192.0000 </r>
       <r>   -12.3509     0.0000   192.0000 </r>
       <r>   -12.1649     0.0000   192.0000 </r>
       <r>   -11.9789     0.0000   200.0000 </r>
       <r>   -11.7929     0.0000   200.0000 </r>
       <r>   -11.6069     0.0000   200.0000 </r>
       <r>   -11.4209     0.0000   200.0000 </r>
       <r>   -11.2349     0.0000   200.0000 </r>
       <r>   -11.0490     0.0000   200.0000 </r>
       <r>   -10.8630     0.0000   200.0000 </r>
       <r>   -10.6770     0.0000   200.0000 </r>
       <r>   -10.4910     0.0000   200.0000 </r>
       <r>   -10.3050     0.0000   200.0000 </r>
       <r>   -10.1190     0.0000   200.0000 </r>
       <r>    -9.9330     0.0000   200.0000 </r>
       <r>    -9.7470     0.0000   200.0000 </r>
       <r>    -9.5611     0.0000   200.0000 </r>
       <r>    -9.3751     0.0000   200.0000 </r>
       <r>    -9.1891     8.7857   200.7640 </r>
       <r>    -9.0031     0.7221   203.9983 </r>
       <r>    -8.8171    15.6361   206.2521 </r>
       <r>    -8.6311     9.3527   208.2534 </r>
       <r>    -8.4451    33.7165   212.1738 </r>
       <r>    -8.2591     3.8946   216.0800 </r>
       <r>    -8.0732    25.1126   220.6944 </r>
       <r>    -7.8872    17.9364   224.6926 </r>
       <r>    -7.7012     9.2538   228.1527 </r>
       <r>    -7.5152    10.6080   231.4403 </r>
       <r>    -7.3292     0.0000   232.0000 </r>
       <r>    -7.1432     0.0000   232.0000 </r>
       <r>    -6.9572     0.0000   232.0000 </r>
       <r>    -6.7712     0.0000   232.0000 </r>
       <r>    -6.5853     0.0000   232.0000 </r>
       <r>    -6.3993     1.0239   232.0110 </r>
       <r>    -6.2133    18.6333   233.7630 </r>
       <r>    -6.0273    31.8706   238.8926 </r>
       <r>    -5.8413    36.1795   241.7768 </r>
       <r>    -5.6553    15.6767   246.6556 </r>
       <r>    -5.4693    23.1020   250.5306 </r>
       <r>    -5.2834    16.7029   254.3642 </r>
       <r>    -5.0974     1.8813   255.9844 </r>
       <r>    -4.9114     7.8369   256.6361 </r>
       <r>    -4.7254     9.4756   258.2167 </r>
       <r>    -4.5394    12.0381   260.2560 </r>
       <r>    -4.3534     6.5704   261.4828 </r>
       <r>    -4.1674     6.4175   262.8284 </r>
       <r>    -3.9814     2.7953   263.6830 </r>
       <r>    -3.7955     0.6990   263.9555 </r>
       <r>    -3.6095     0.0000   264.0000 </r>
       <r>    -3.4235     0.0000   264.0000 </r>
       <r>    -3.2375     0.0000   264.0000 </r>
       <r>    -3.0515     0.0000   264.0000 </r>
       <r>    -2.8655     0.0000   264.0000 </r>
       <r>    -2.6795     0.0000   264.0000 </r>
       <r>    -2.4935     0.0000   264.0000 </r>
       <r>    -2.3076     0.0000   264.0000 </r>
       <r>    -2.1216     0.0000   264.0000 </r>
       <r>    -1.9356     0.0000   264.0000 </r>
       <r>    -1.7496     0.0000   264.0000 </r>
       <r>    -1.5636     0.0086   264.0000 </r>
       <r>    -1.3776     2.1287   264.1521 </r>
       <r>    -1.1916    11.3468   265.4753 </r>
       <r>    -1.0057    16.3947   267.6444 </r>
       <r>    -0.8197     9.4864   270.1306 </r>
       <r>    -0.6337     4.7261   271.3836 </r>
       <r>    -0.4477    19.9544   273.2915 </r>
       <r>    -0.2617    28.4683   277.8151 </r>
       <r>    -0.0757    45.6299   284.8650 </r>
       <r>     0.1103    22.9892   292.0954 </r>
       <r>     0.2963    46.1178   298.4584 </r>
       <r>     0.4822    40.3511   304.7643 </r>
       <r>     0.6682    61.8676   313.4684 </r>
       <r>     0.8542    41.8690   318.7318 </r>
       <r>     1.0402    60.1825   327.2316 </r>
       <r>     1.2262    21.9259   335.2047 </r>
       <r>     1.4122    72.8007   345.3007 </r>
       <r>     1.5982    41.8275   355.5843 </r>
       <r>     1.7842    20.3811   362.5417 </r>
       <r>     1.9701    49.6817   368.6703 </r>
       <r>     2.1561    34.4129   376.0121 </r>
       <r>     2.3421    54.8749   385.1365 </r>
       <r>     2.5281    57.5583   395.1657 </r>
       <r>     2.7141    60.4701   406.0498 </r>
       <r>     2.9001    83.2037   417.4218 </r>
       <r>     3.0861    34.2053   429.1376 </r>
       <r>     3.2721    40.6997   435.8809 </r>
       <r>     3.4580    52.6488   444.4223 </r>
       <r>     3.6440    13.0536   449.4883 </r>
       <r>     3.8300    15.2991   453.2903 </r>
       <r>     4.0160     7.1730   455.3800 </r>
       <r>     4.2020     0.2922   455.9965 </r>
       <r>     4.3880     0.0000   456.0000 </r>
       <r>     4.5740     0.0000   456.0000 </r>
       <r>     4.7599     0.0000   456.0000 </r>
       <r>     4.9459     0.0010   456.0000 </r>
       <r>     5.1319     1.1552   456.0866 </r>
       <r>     5.3179     4.2994   456.5341 </r>
       <r>     5.5039     8.5702   457.7307 </r>
       <r>     5.6899     7.8247   459.5419 </r>
       <r>     5.8759    14.6887   463.7968 </r>
       <r>     6.0619    12.2132   466.2960 </r>
       <r>     6.2478    12.2553   468.5091 </r>
       <r>     6.4338    14.1205   470.9623 </r>
       <r>     6.6198    15.9594   473.7600 </r>
       <r>     6.8058    18.3703   476.9210 </r>
       <r>     6.9918    22.4627   480.7075 </r>
       <r>     7.1778    28.4958   485.3761 </r>
       <r>     7.3638    37.3777   491.7471 </r>
       <r>     7.5498    19.3377   498.4399 </r>
       <r>     7.7357    46.4537   504.9736 </r>
       <r>     7.9217    45.7211   513.5153 </r>
       <r>     8.1077    21.9345   519.4238 </r>
       <r>     8.2937    19.5024   523.0734 </r>
       <r>     8.4797    22.3427   526.9173 </r>
       <r>     8.6657    24.5070   531.3458 </r>
       <r>     8.8517    42.5951   539.3804 </r>
       <r>     9.0377    22.6864   544.7924 </r>
       <r>     9.2236    15.0926   548.3648 </r>
       <r>     9.4096    18.3986   550.9550 </r>
       <r>     9.5956    12.9016   553.8896 </r>
       <r>     9.7816     6.4151   555.9509 </r>
       <r>     9.9676     9.6268   557.1913 </r>
       <r>    10.1536     8.6965   559.1302 </r>
       <r>    10.3396     0.6592   559.9851 </r>
       <r>    10.5255     0.0000   560.0000 </r>
       <r>    10.7115     0.0000   560.0000 </r>
       <r>    10.8975     0.0000   560.0000 </r>
       <r>    11.0835     0.0000   560.0000 </r>
       <r>    11.2695     0.0000   560.0000 </r>
       <r>    11.4555     0.0000   560.0000 </r>
       <r>    11.6415     0.0000   560.0000 </r>
       <r>    11.8275     0.0000   560.0000 </r>
       <r>    12.0134     0.0000   560.0000 </r>
       <r>    12.1994     0.0000   560.0000 </r>
       <r>    12.3854     0.0000   560.0000 </r>
       <r>    12.5714     0.0000   560.0000 </r>
       <r>    12.7574     0.0000   560.0000 </r>
       <r>    12.9434     0.0000   560.0000 </r>
      </set>
     </set>
    </array>
   </total>
  </dos>
 </calculation>
 <structure name="finalpos" >
  <crystal>
   <varray name="basis" >
    <v>      11.17850000       0.00000000       0.00000000 </v>
    <v>       0.00000000       9.57460000       0.00000000 </v>
    <v>       0.00000000       0.00000000      11.18240000 </v>
   </varray>
   <i name="volume">   1196.84853820 </i>
   <varray name="rec_basis" >
    <v>       0.08945744       0.00000000       0.00000000 </v>
    <v>       0.00000000       0.10444301       0.00000000 </v>
    <v>       0.00000000       0.00000000       0.08942624 </v>
   </varray>
  </crystal>
  <varray name="positions" >
   <v>       0.37539000       0.00017000       0.43687000 </v>
   <v>       0.62539000       0.99984000       0.43687000 </v>
   <v>       0.12539000       0.99984000       0.93687000 </v>
   <v>       0.87539000       0.00017000       0.93687000 </v>
   <v>       0.12461000       0.99984000       0.18687000 </v>
   <v>       0.87539000       0.00017000       0.43687000 </v>
   <v>       0.62461000       0.99984000       0.18687000 </v>
   <v>       0.37539000       0.00017000       0.93687000 </v>
   <v>       0.12461000       0.99984000       0.68687000 </v>
   <v>       0.62461000       0.99984000       0.68687000 </v>
   <v>       0.00013000       0.29519000       0.06281000 </v>
   <v>       0.25013000       0.70481000       0.06281000 </v>
   <v>       0.24987000       0.29519000       0.31282000 </v>
   <v>       0.49987000       0.70481000       0.31282000 </v>
   <v>       0.50013000       0.29519000       0.06281000 </v>
   <v>       0.75013000       0.70481000       0.06281000 </v>
   <v>       0.74987000       0.29519000       0.31282000 </v>
   <v>       0.99987000       0.70481000       0.31282000 </v>
   <v>       0.00013000       0.29519000       0.56281000 </v>
   <v>       0.25013000       0.70481000       0.56281000 </v>
   <v>       0.24987000       0.29519000       0.81282000 </v>
   <v>       0.49987000       0.70481000       0.81282000 </v>
   <v>       0.50013000       0.29519000       0.56281000 </v>
   <v>       0.75013000       0.70481000       0.56281000 </v>
   <v>       0.74987000       0.29519000       0.81282000 </v>
   <v>       0.99987000       0.70481000       0.81282000 </v>
   <v>       0.25005000       0.32677000       0.06286000 </v>
   <v>       0.00005000       0.67323000       0.06286000 </v>
   <v>       0.49995000       0.32677000       0.31286000 </v>
   <v>       0.24995000       0.67323000       0.31286000 </v>
   <v>       0.75005000       0.32677000       0.06286000 </v>
   <v>       0.50005000       0.67323000       0.06286000 </v>
   <v>       0.99995000       0.32677000       0.31286000 </v>
   <v>       0.74995000       0.67323000       0.31286000 </v>
   <v>       0.25005000       0.32677000       0.56286000 </v>
   <v>       0.00005000       0.67323000       0.56286000 </v>
   <v>       0.49995000       0.32677000       0.81286000 </v>
   <v>       0.24995000       0.67323000       0.81286000 </v>
   <v>       0.75005000       0.32677000       0.56286000 </v>
   <v>       0.50005000       0.67323000       0.56286000 </v>
   <v>       0.99995000       0.32677000       0.81286000 </v>
   <v>       0.74995000       0.67323000       0.81286000 </v>
   <v>       0.49987000       0.07798000       0.06246000 </v>
   <v>       0.24987000       0.92202000       0.06246000 </v>
   <v>       0.25013000       0.07798000       0.31246000 </v>
   <v>       0.00013000       0.92202000       0.31246000 </v>
   <v>       0.99987000       0.07798000       0.06246000 </v>
   <v>       0.74987000       0.92202000       0.06246000 </v>
   <v>       0.75013000       0.07798000       0.31246000 </v>
   <v>       0.50013000       0.92202000       0.31246000 </v>
   <v>       0.49987000       0.07798000       0.56246000 </v>
   <v>       0.24987000       0.92202000       0.56246000 </v>
   <v>       0.25013000       0.07798000       0.81246000 </v>
   <v>       0.00013000       0.92202000       0.81246000 </v>
   <v>       0.99987000       0.07798000       0.56246000 </v>
   <v>       0.74987000       0.92202000       0.56246000 </v>
   <v>       0.75013000       0.07798000       0.81246000 </v>
   <v>       0.50013000       0.92202000       0.81246000 </v>
  </varray>
 </structure>
</modeling>
