<?xml version="1.0" encoding="ISO-8859-1"?>
<modeling>
 <generator>
  <i name="program" type="string">vasp </i>
  <i name="version" type="string">5.4.4.18Apr17-6-g9f103f2a35  </i>
  <i name="subversion" type="string">(build Jul 31 2017 11:33:29) complex            parallel </i>
  <i name="platform" type="string">LinuxIFC </i>
  <i name="date" type="string">2021 09 22 </i>
  <i name="time" type="string">07:23:43 </i>
 </generator>
 <incar>
  <i type="string" name="SYSTEM"> La2O2S</i>
  <i type="string" name="PREC">normal</i>
  <i type="int" name="NELMIN">     4</i>
  <i type="int" name="IBRION">     2</i>
  <i type="int" name="NFREE">    10</i>
  <i name="EDIFF">      0.00000100</i>
  <i name="EDIFFG">     -0.01000000</i>
  <i type="int" name="NSW">   200</i>
  <i type="int" name="ISIF">     3</i>
  <i name="ENCUT">    600.00000000</i>
  <i name="ENAUG">    900.00000000</i>
  <i type="int" name="ISMEAR">    -5</i>
  <i type="logical" name="LWAVE"> F  </i>
  <i type="logical" name="LCHARG"> F  </i>
  <v type="int" name="KPOINT_BSE">    -1     0     0     0</v>
 </incar>
 <structure name="primitive_cell" >
  <crystal>
   <varray name="basis" >
    <v>      11.17850000       0.00000000       0.00000000 </v>
    <v>       0.00000000       9.57460000       0.00000000 </v>
    <v>       0.00000000       0.00000000      11.18240000 </v>
   </varray>
   <i name="volume">   1196.84853820 </i>
   <varray name="rec_basis" >
    <v>       0.08945744       0.00000000       0.00000000 </v>
    <v>       0.00000000       0.10444301       0.00000000 </v>
    <v>       0.00000000       0.00000000       0.08942624 </v>
   </varray>
  </crystal>
  <varray name="positions" >
   <v>       0.12461000      -0.00016000       0.18687000 </v>
   <v>      -0.00013000       0.07798000       0.06246000 </v>
   <v>       0.24987000      -0.07798000       0.06246000 </v>
   <v>       0.00013000      -0.07798000       0.31246000 </v>
   <v>       0.25013000       0.07798000       0.31246000 </v>
   <v>      -0.12539000       0.00017000       0.18687000 </v>
   <v>       0.12539000      -0.00016000      -0.06313000 </v>
   <v>       0.00013000       0.29519000       0.06281000 </v>
   <v>       0.25013000      -0.29519000       0.06281000 </v>
   <v>      -0.00013000      -0.29519000       0.31282000 </v>
   <v>       0.24987000       0.29519000       0.31282000 </v>
   <v>       0.00005000      -0.32677000       0.06286000 </v>
   <v>       0.25005000       0.32677000       0.06286000 </v>
   <v>      -0.00005000       0.32677000       0.31286000 </v>
   <v>       0.24995000      -0.32677000       0.31286000 </v>
   <v>      -0.12461000       0.00017000       0.43687000 </v>
   <v>      -0.12461000       0.00017000      -0.06313000 </v>
   <v>       0.37539000       0.00017000      -0.06313000 </v>
   <v>       0.00013000      -0.07798000      -0.18754000 </v>
   <v>      -0.25013000      -0.07798000       0.06246000 </v>
   <v>      -0.24987000       0.07798000       0.31246000 </v>
   <v>       0.25013000       0.07798000      -0.18754000 </v>
   <v>       0.49987000       0.07798000       0.06246000 </v>
   <v>      -0.00013000       0.07798000      -0.43754000 </v>
   <v>      -0.49987000      -0.07798000       0.31246000 </v>
   <v>       0.24987000      -0.07798000      -0.43754000 </v>
   <v>      -0.00013000      -0.29519000      -0.18718000 </v>
   <v>      -0.24987000      -0.29519000       0.06281000 </v>
   <v>       0.24987000       0.29519000      -0.18718000 </v>
   <v>      -0.25013000       0.29519000       0.31282000 </v>
   <v>      -0.49987000       0.29519000       0.06281000 </v>
   <v>       0.49987000      -0.29519000       0.31282000 </v>
   <v>       0.00013000       0.29519000      -0.43719000 </v>
   <v>       0.25013000      -0.29519000      -0.43719000 </v>
   <v>      -0.00005000       0.32677000      -0.18714000 </v>
   <v>       0.24995000      -0.32677000      -0.18714000 </v>
   <v>      -0.24995000       0.32677000       0.06286000 </v>
   <v>      -0.25005000      -0.32677000       0.31286000 </v>
   <v>      -0.49995000      -0.32677000       0.06286000 </v>
   <v>       0.49995000       0.32677000       0.31286000 </v>
   <v>       0.00005000      -0.32677000      -0.43714000 </v>
   <v>       0.25005000       0.32677000      -0.43714000 </v>
   <v>      -0.37539000      -0.00016000       0.18687000 </v>
   <v>      -0.24987000       0.07798000      -0.18754000 </v>
   <v>      -0.49987000      -0.07798000      -0.18754000 </v>
   <v>      -0.25013000      -0.07798000      -0.43754000 </v>
   <v>       0.49987000       0.07798000      -0.43754000 </v>
   <v>      -0.37461000      -0.00016000      -0.06313000 </v>
   <v>      -0.37461000      -0.00016000       0.43687000 </v>
   <v>       0.37461000       0.00017000      -0.31313000 </v>
   <v>      -0.12539000       0.00017000      -0.31313000 </v>
   <v>      -0.25013000       0.29519000      -0.18718000 </v>
   <v>       0.49987000      -0.29519000      -0.18718000 </v>
   <v>      -0.24987000      -0.29519000      -0.43719000 </v>
   <v>      -0.49987000       0.29519000      -0.43719000 </v>
   <v>      -0.25005000      -0.32677000      -0.18714000 </v>
   <v>       0.49995000       0.32677000      -0.18714000 </v>
   <v>      -0.24995000       0.32677000      -0.43714000 </v>
   <v>      -0.49995000      -0.32677000      -0.43714000 </v>
   <v>      -0.37539000      -0.00016000      -0.31313000 </v>
  </varray>
 </structure>
 <varray name="primitive_index" >
  <v type="int" >        1 </v>
  <v type="int" >       49 </v>
  <v type="int" >       46 </v>
  <v type="int" >       48 </v>
  <v type="int" >       47 </v>
  <v type="int" >        4 </v>
  <v type="int" >       10 </v>
  <v type="int" >       13 </v>
  <v type="int" >       14 </v>
  <v type="int" >       20 </v>
  <v type="int" >       15 </v>
  <v type="int" >       30 </v>
  <v type="int" >       29 </v>
  <v type="int" >       35 </v>
  <v type="int" >       32 </v>
  <v type="int" >        2 </v>
  <v type="int" >       11 </v>
  <v type="int" >        5 </v>
  <v type="int" >       56 </v>
  <v type="int" >       50 </v>
  <v type="int" >       51 </v>
  <v type="int" >       55 </v>
  <v type="int" >       45 </v>
  <v type="int" >       57 </v>
  <v type="int" >       52 </v>
  <v type="int" >       54 </v>
  <v type="int" >       28 </v>
  <v type="int" >       18 </v>
  <v type="int" >       23 </v>
  <v type="int" >       19 </v>
  <v type="int" >       17 </v>
  <v type="int" >       16 </v>
  <v type="int" >       21 </v>
  <v type="int" >       22 </v>
  <v type="int" >       43 </v>
  <v type="int" >       40 </v>
  <v type="int" >       33 </v>
  <v type="int" >       36 </v>
  <v type="int" >       34 </v>
  <v type="int" >       31 </v>
  <v type="int" >       38 </v>
  <v type="int" >       37 </v>
  <v type="int" >        3 </v>
  <v type="int" >       59 </v>
  <v type="int" >       60 </v>
  <v type="int" >       58 </v>
  <v type="int" >       53 </v>
  <v type="int" >        7 </v>
  <v type="int" >        9 </v>
  <v type="int" >        6 </v>
  <v type="int" >        8 </v>
  <v type="int" >       27 </v>
  <v type="int" >       24 </v>
  <v type="int" >       26 </v>
  <v type="int" >       25 </v>
  <v type="int" >       44 </v>
  <v type="int" >       39 </v>
  <v type="int" >       41 </v>
  <v type="int" >       42 </v>
  <v type="int" >       12 </v>
 </varray>
 <kpoints>
  <generation param="Gamma">
   <v type="int" name="divisions">       2        2        2 </v>
   <v name="usershift">      0.00000000       0.00000000       0.00000000 </v>
   <v name="genvec1">      0.50000000       0.00000000       0.00000000 </v>
   <v name="genvec2">      0.00000000       0.50000000       0.00000000 </v>
   <v name="genvec3">      0.00000000       0.00000000       0.50000000 </v>
   <v name="shift">      0.00000000       0.00000000       0.00000000 </v>
  </generation>
  <varray name="kpointlist" >
   <v>       0.00000000       0.00000000       0.00000000 </v>
   <v>       0.50000000       0.00000000       0.00000000 </v>
   <v>       0.00000000       0.50000000       0.00000000 </v>
   <v>       0.50000000       0.50000000       0.00000000 </v>
   <v>       0.00000000       0.00000000       0.50000000 </v>
   <v>       0.50000000       0.00000000       0.50000000 </v>
   <v>       0.00000000       0.50000000       0.50000000 </v>
   <v>       0.50000000       0.50000000       0.50000000 </v>
  </varray>
  <varray name="weights" >
   <v>       0.12500000 </v>
   <v>       0.12500000 </v>
   <v>       0.12500000 </v>
   <v>       0.12500000 </v>
   <v>       0.12500000 </v>
   <v>       0.12500000 </v>
   <v>       0.12500000 </v>
   <v>       0.12500000 </v>
  </varray>
  <varray name="tetrahedronlist"  type="int" >
   <v type="int" >        2        1        2        4        5 </v>
   <v type="int" >        2        1        3        4        5 </v>
   <v type="int" >        2        3        4        5        7 </v>
   <v type="int" >        2        2        4        5        6 </v>
   <v type="int" >        2        4        5        6        8 </v>
   <v type="int" >        2        4        5        7        8 </v>
   <v type="int" >        2        1        2        3        6 </v>
   <v type="int" >        2        2        3        4        6 </v>
   <v type="int" >        2        3        4        6        8 </v>
   <v type="int" >        2        1        3        5        6 </v>
   <v type="int" >        2        3        5        6        7 </v>
   <v type="int" >        2        3        6        7        8 </v>
   <v type="int" >        2        2        3        4        7 </v>
   <v type="int" >        2        1        2        3        7 </v>
   <v type="int" >        2        1        2        5        7 </v>
   <v type="int" >        2        2        4        7        8 </v>
   <v type="int" >        2        2        6        7        8 </v>
   <v type="int" >        2        2        5        6        7 </v>
   <v type="int" >        2        1        3        4        8 </v>
   <v type="int" >        2        1        2        4        8 </v>
   <v type="int" >        2        1        2        6        8 </v>
   <v type="int" >        2        1        3        7        8 </v>
   <v type="int" >        2        1        5        7        8 </v>
   <v type="int" >        2        1        5        6        8 </v>
  </varray>
  <i name="volumeweight">      0.02083333 </i>
 </kpoints>
 <parameters>
  <separator name="general" >
   <i type="string" name="SYSTEM">La2O2S</i>
   <i type="logical" name="LCOMPAT"> F  </i>
  </separator>
  <separator name="electronic" >
   <i type="string" name="PREC">normal</i>
   <i name="ENMAX">    600.00000000</i>
   <i name="ENAUG">    900.00000000</i>
   <i name="EDIFF">      0.00000100</i>
   <i type="int" name="IALGO">    38</i>
   <i type="int" name="IWAVPR">    11</i>
   <i type="int" name="NBANDS">   280</i>
   <i name="NELECT">    464.00000000</i>
   <i type="int" name="TURBO">     0</i>
   <i type="int" name="IRESTART">     0</i>
   <i type="int" name="NREBOOT">     0</i>
   <i type="int" name="NMIN">     0</i>
   <i name="EREF">      0.00000000</i>
   <separator name="electronic smearing" >
    <i type="int" name="ISMEAR">    -5</i>
    <i name="SIGMA">      0.20000000</i>
    <i name="KSPACING">      0.50000000</i>
    <i type="logical" name="KGAMMA"> T  </i>
   </separator>
   <separator name="electronic projectors" >
    <i type="logical" name="LREAL"> F  </i>
    <v name="ROPT">      0.00000000      0.00000000      0.00000000      0.00000000      0.00000000</v>
    <i type="int" name="LMAXPAW">  -100</i>
    <i type="int" name="LMAXMIX">     2</i>
    <i type="logical" name="NLSPLINE"> F  </i>
   </separator>
   <separator name="electronic startup" >
    <i type="int" name="ISTART">     0</i>
    <i type="int" name="ICHARG">     2</i>
    <i type="int" name="INIWAV">     1</i>
   </separator>
   <separator name="electronic spin" >
    <i type="int" name="ISPIN">     1</i>
    <i type="logical" name="LNONCOLLINEAR"> F  </i>
    <v name="MAGMOM">      1.00000000      1.00000000      1.00000000      1.00000000      1.00000000      1.00000000      1.00000000      1.00000000      1.00000000      1.00000000      1.00000000      1.00000000      1.00000000      1.00000000      1.00000000      1.00000000      1.00000000      1.00000000      1.00000000      1.00000000
      1.00000000      1.00000000      1.00000000      1.00000000      1.00000000      1.00000000      1.00000000      1.00000000      1.00000000      1.00000000      1.00000000      1.00000000      1.00000000      1.00000000      1.00000000      1.00000000      1.00000000      1.00000000      1.00000000      1.00000000
      1.00000000      1.00000000      1.00000000      1.00000000      1.00000000      1.00000000      1.00000000      1.00000000      1.00000000      1.00000000      1.00000000      1.00000000      1.00000000      1.00000000      1.00000000      1.00000000      1.00000000      1.00000000      1.00000000      1.00000000
</v>
    <i name="NUPDOWN">     -1.00000000</i>
    <i type="logical" name="LSORBIT"> F  </i>
    <v name="SAXIS">      0.00000000      0.00000000      1.00000000</v>
    <i type="logical" name="LSPIRAL"> F  </i>
    <v name="QSPIRAL">      0.00000000      0.00000000      0.00000000</v>
    <i type="logical" name="LZEROZ"> F  </i>
   </separator>
   <separator name="electronic exchange-correlation" >
    <i type="logical" name="LASPH"> F  </i>
    <i type="logical" name="LMETAGGA"> F  </i>
   </separator>
   <separator name="electronic convergence" >
    <i type="int" name="NELM">    60</i>
    <i type="int" name="NELMDL">    -5</i>
    <i type="int" name="NELMIN">     4</i>
    <i name="ENINI">    600.00000000</i>
    <separator name="electronic convergence detail" >
     <i type="logical" name="LDIAG"> T  </i>
     <i type="logical" name="LSUBROT"> F  </i>
     <i name="WEIMIN">      0.00100000</i>
     <i name="EBREAK">      0.00000000</i>
     <i name="DEPER">      0.30000000</i>
     <i type="int" name="NRMM">     4</i>
     <i name="TIME">      0.40000000</i>
    </separator>
   </separator>
   <separator name="electronic mixer" >
    <i name="AMIX">      0.40000000</i>
    <i name="BMIX">      1.00000000</i>
    <i name="AMIN">      0.10000000</i>
    <i name="AMIX_MAG">      1.60000000</i>
    <i name="BMIX_MAG">      1.00000000</i>
    <separator name="electronic mixer details" >
     <i type="int" name="IMIX">     4</i>
     <i type="logical" name="MIXFIRST"> F  </i>
     <i type="int" name="MAXMIX">   -45</i>
     <i name="WC">    100.00000000</i>
     <i type="int" name="INIMIX">     1</i>
     <i type="int" name="MIXPRE">     1</i>
     <i type="int" name="MREMOVE">     5</i>
    </separator>
   </separator>
   <separator name="electronic dipolcorrection" >
    <i type="logical" name="LDIPOL"> F  </i>
    <i type="logical" name="LMONO"> F  </i>
    <i type="int" name="IDIPOL">     0</i>
    <i name="EPSILON">      1.00000000</i>
    <v name="DIPOL">   -100.00000000   -100.00000000   -100.00000000</v>
    <i name="EFIELD">      0.00000000</i>
   </separator>
  </separator>
  <separator name="grids" >
   <i type="int" name="NGX">    70</i>
   <i type="int" name="NGY">    60</i>
   <i type="int" name="NGZ">    70</i>
   <i type="int" name="NGXF">   140</i>
   <i type="int" name="NGYF">   120</i>
   <i type="int" name="NGZF">   140</i>
   <i type="logical" name="ADDGRID"> F  </i>
  </separator>
  <separator name="ionic" >
   <i type="int" name="NSW">   200</i>
   <i type="int" name="IBRION">     2</i>
   <i type="int" name="MDALGO">     0</i>
   <i type="int" name="ISIF">     3</i>
   <i name="PSTRESS">      0.00000000</i>
   <i name="EDIFFG">     -0.01000000</i>
   <i type="int" name="NFREE">    10</i>
   <i name="POTIM">      0.50000000</i>
   <i name="SMASS">     -3.00000000</i>
   <i name="SCALEE">      1.00000000</i>
  </separator>
  <separator name="ionic md" >
   <i name="TEBEG">      0.00010000</i>
   <i name="TEEND">      0.00010000</i>
   <i type="int" name="NBLOCK">     1</i>
   <i type="int" name="KBLOCK">   200</i>
   <i type="int" name="NPACO">   256</i>
   <i name="APACO">     16.00000000</i>
  </separator>
  <separator name="symmetry" >
   <i type="int" name="ISYM">     2</i>
   <i name="SYMPREC">      0.00001000</i>
  </separator>
  <separator name="dos" >
   <i type="int" name="LORBIT">     0</i>
   <v name="RWIGS">     -1.00000000     -1.00000000     -1.00000000     -1.00000000     -1.00000000</v>
   <i type="int" name="NEDOS">   301</i>
   <i name="EMIN">     10.00000000</i>
   <i name="EMAX">    -10.00000000</i>
   <i name="EFERMI">      0.00000000</i>
  </separator>
  <separator name="writing" >
   <i type="int" name="NWRITE">     2</i>
   <i type="logical" name="LWAVE"> F  </i>
   <i type="logical" name="LDOWNSAMPLE"> F  </i>
   <i type="logical" name="LCHARG"> F  </i>
   <i type="logical" name="LPARD"> F  </i>
   <i type="logical" name="LVTOT"> F  </i>
   <i type="logical" name="LVHAR"> F  </i>
   <i type="logical" name="LELF"> F  </i>
   <i type="logical" name="LOPTICS"> F  </i>
   <v name="STM">      0.00000000      0.00000000      0.00000000      0.00000000      0.00000000      0.00000000      0.00000000</v>
  </separator>
  <separator name="performance" >
   <i type="int" name="NPAR">    28</i>
   <i type="int" name="NSIM">     4</i>
   <i type="int" name="NBLK">    -1</i>
   <i type="logical" name="LPLANE"> T  </i>
   <i type="logical" name="LSCALAPACK"> T  </i>
   <i type="logical" name="LSCAAWARE"> F  </i>
   <i type="logical" name="LSCALU"> F  </i>
   <i type="logical" name="LASYNC"> F  </i>
   <i type="logical" name="LORBITALREAL"> F  </i>
  </separator>
  <separator name="miscellaneous" >
   <i type="int" name="IDIOT">     3</i>
   <i type="int" name="ISPECIAL">     0</i>
   <i type="logical" name="LMUSIC"> F  </i>
   <v name="POMASS">      7.01000000     24.30500000    208.98000000     32.06600000     16.00000000</v>
   <v name="DARWINR">      0.00000000      0.00000000      0.00000000      0.00000000      0.00000000</v>
   <v name="DARWINV">      1.00000000      1.00000000      1.00000000      1.00000000      1.00000000</v>
   <i type="logical" name="LCORR"> T  </i>
  </separator>
  <i type="logical" name="GGA_COMPAT"> T  </i>
  <i type="logical" name="LBERRY"> F  </i>
  <i type="int" name="ICORELEVEL">     0</i>
  <i type="logical" name="LDAU"> F  </i>
  <i type="int" name="I_CONSTRAINED_M">     0</i>
  <separator name="electronic exchange-correlation" >
   <i type="string" name="GGA">--</i>
   <i type="int" name="VOSKOWN">     0</i>
   <i type="logical" name="LHFCALC"> F  </i>
   <i type="string" name="PRECFOCK"></i>
   <i type="logical" name="LSYMGRAD"> F  </i>
   <i type="logical" name="LHFONE"> F  </i>
   <i type="logical" name="LRHFCALC"> F  </i>
   <i type="logical" name="LTHOMAS"> F  </i>
   <i type="logical" name="LMODELHF"> F  </i>
   <i name="ENCUT4O">     -1.00000000</i>
   <i type="int" name="EXXOEP">     0</i>
   <i type="int" name="FOURORBIT">     0</i>
   <i name="AEXX">      0.00000000</i>
   <i name="HFALPHA">      0.00000000</i>
   <i name="MCALPHA">      0.00000000</i>
   <i name="ALDAX">      1.00000000</i>
   <i name="AGGAX">      1.00000000</i>
   <i name="ALDAC">      1.00000000</i>
   <i name="AGGAC">      1.00000000</i>
   <i type="int" name="NKREDX">     1</i>
   <i type="int" name="NKREDY">     1</i>
   <i type="int" name="NKREDZ">     1</i>
   <i type="logical" name="SHIFTRED"> F  </i>
   <i type="logical" name="ODDONLY"> F  </i>
   <i type="logical" name="EVENONLY"> F  </i>
   <i type="int" name="LMAXFOCK">     0</i>
   <i type="int" name="NMAXFOCKAE">     0</i>
   <i type="logical" name="LFOCKAEDFT"> F  </i>
   <i name="HFSCREEN">      0.00000000</i>
   <i name="HFSCREENC">      0.00000000</i>
   <i type="int" name="NBANDSGWLOW">     0</i>
  </separator>
  <separator name="vdW DFT" >
   <i type="logical" name="LUSE_VDW"> F  </i>
   <i name="Zab_VDW">     -0.84910000</i>
   <i name="PARAM1">      0.12340000</i>
   <i name="PARAM2">      1.00000000</i>
   <i name="PARAM3">      0.00000000</i>
  </separator>
  <separator name="model GW" >
   <i type="int" name="MODEL_GW">     0</i>
   <i name="MODEL_EPS0">     11.96848538</i>
   <i name="MODEL_ALPHA">      1.00000000</i>
  </separator>
  <separator name="linear response parameters" >
   <i type="logical" name="LEPSILON"> F  </i>
   <i type="logical" name="LRPA"> F  </i>
   <i type="logical" name="LNABLA"> F  </i>
   <i type="logical" name="LVEL"> F  </i>
   <i type="int" name="KINTER">     0</i>
   <i name="CSHIFT">      0.10000000</i>
   <i name="OMEGAMAX">     -1.00000000</i>
   <i name="DEG_THRESHOLD">      0.00200000</i>
   <i name="RTIME">     -0.10000000</i>
   <i name="WPLASMAI">      0.00000000</i>
   <v name="DFIELD">      0.00000000      0.00000000      0.00000000</v>
   <v name="WPLASMA">      0.00000000      0.00000000      0.00000000      0.00000000      0.00000000      0.00000000      0.00000000      0.00000000      0.00000000</v>
  </separator>
  <separator name="orbital magnetization" >
   <i type="logical" name="NUCIND"> F  </i>
   <v name="MAGPOS">      0.00000000      0.00000000      0.00000000</v>
   <i type="logical" name="LNICSALL"> T  </i>
   <i type="logical" name="ORBITALMAG"> F  </i>
   <i type="logical" name="LMAGBLOCH"> F  </i>
   <i type="logical" name="LCHIMAG"> F  </i>
   <i type="logical" name="LGAUGE"> T  </i>
   <i type="int" name="MAGATOM">     0</i>
   <v name="MAGDIPOL">      0.00000000      0.00000000      0.00000000</v>
   <v name="AVECCONST">      0.00000000      0.00000000      0.00000000</v>
  </separator>
  <separator name="response functions" >
   <i type="logical" name="LADDER"> F  </i>
   <i type="logical" name="LRPAFORCE"> F  </i>
   <i type="logical" name="LFXC"> F  </i>
   <i type="logical" name="LHARTREE"> T  </i>
   <i type="int" name="IBSE">     0</i>
   <v type="int" name="KPOINT">    -1     0     0     0</v>
   <i type="logical" name="LTCTE"> F  </i>
   <i type="logical" name="LTETE"> F  </i>
   <i type="logical" name="LTRIPLET"> F  </i>
   <i type="logical" name="LFXCEPS"> F  </i>
   <i type="logical" name="LFXHEG"> F  </i>
   <i type="int" name="NATURALO">     2</i>
   <i type="logical" name="L2ORDER"> F  </i>
   <i type="logical" name="LMP2LT"> F  </i>
   <i type="logical" name="LUSEW"> F  </i>
   <i name="ENCUTGW">     -2.00000000</i>
   <i name="ENCUTGWSOFT">     -2.00000000</i>
   <i name="ENCUTLF">     -1.00000000</i>
   <i type="int" name="LMAXMP2">    -1</i>
   <i name="SCISSOR">      0.00000000</i>
   <i type="int" name="NOMEGA">     0</i>
   <i type="int" name="NOMEGAR">     0</i>
   <i type="int" name="NBANDSGW">    -1</i>
   <i type="int" name="NBANDSO">    -1</i>
   <i type="int" name="NBANDSV">    -1</i>
   <i type="int" name="NELM">     1</i>
   <i type="int" name="NELMHF">     1</i>
   <i type="int" name="DIM">     3</i>
   <i type="int" name="ANTIRES">     0</i>
   <i name="OMEGAMAX">    -30.00000000</i>
   <i name="OMEGAMIN">    -30.00000000</i>
   <i name="OMEGATL">   -200.00000000</i>
   <i type="int" name="OMEGAGRID">   140</i>
   <i name="CSHIFT">     -0.10000000</i>
   <i type="logical" name="SELFENERGY"> F  </i>
   <i type="logical" name="LSPECTRAL"> F  </i>
   <i type="logical" name="LSPECTRALGW"> F  </i>
   <i type="logical" name="LSINGLES"> F  </i>
   <i type="logical" name="LFERMIGW"> F  </i>
   <i type="logical" name="ODDONLYGW"> F  </i>
   <i type="logical" name="EVENONLYGW"> F  </i>
   <i type="int" name="NKREDLFX">     1</i>
   <i type="int" name="NKREDLFY">     1</i>
   <i type="int" name="NKREDLFZ">     1</i>
   <i type="int" name="MAXMEM">  2800</i>
   <i type="int" name="TELESCOPE">     0</i>
   <i type="int" name="TAUPAR">     1</i>
   <i type="int" name="OMEGAPAR">    -1</i>
   <i name="LAMBDA">      1.00000000</i>
  </separator>
  <separator name="External order field" >
   <i name="OFIELD_KAPPA">      0.00000000</i>
   <v name="OFIELD_K">      0.00000000      0.00000000      0.00000000</v>
   <i name="OFIELD_Q6_NEAR">      0.00000000</i>
   <i name="OFIELD_Q6_FAR">      0.00000000</i>
   <i name="OFIELD_A">      0.00000000</i>
  </separator>
 </parameters>
 <atominfo>
  <atoms>      60 </atoms>
  <types>       5 </types>
  <array name="atoms" >
   <dimension dim="1">ion</dimension>
   <field type="string">element</field>
   <field type="int">atomtype</field>
   <set>
    <rc><c>Li</c><c>   1</c></rc>
    <rc><c>Li</c><c>   1</c></rc>
    <rc><c>Li</c><c>   1</c></rc>
    <rc><c>Li</c><c>   1</c></rc>
    <rc><c>Li</c><c>   1</c></rc>
    <rc><c>Li</c><c>   1</c></rc>
    <rc><c>Li</c><c>   1</c></rc>
    <rc><c>Li</c><c>   1</c></rc>
    <rc><c>Mg</c><c>   2</c></rc>
    <rc><c>Mg</c><c>   2</c></rc>
    <rc><c>Mg</c><c>   2</c></rc>
    <rc><c>Mg</c><c>   2</c></rc>
    <rc><c>Bi</c><c>   3</c></rc>
    <rc><c>Bi</c><c>   3</c></rc>
    <rc><c>Bi</c><c>   3</c></rc>
    <rc><c>Bi</c><c>   3</c></rc>
    <rc><c>Bi</c><c>   3</c></rc>
    <rc><c>Bi</c><c>   3</c></rc>
    <rc><c>Bi</c><c>   3</c></rc>
    <rc><c>Bi</c><c>   3</c></rc>
    <rc><c>Bi</c><c>   3</c></rc>
    <rc><c>Bi</c><c>   3</c></rc>
    <rc><c>Bi</c><c>   3</c></rc>
    <rc><c>Bi</c><c>   3</c></rc>
    <rc><c>Bi</c><c>   3</c></rc>
    <rc><c>Bi</c><c>   3</c></rc>
    <rc><c>Bi</c><c>   3</c></rc>
    <rc><c>Bi</c><c>   3</c></rc>
    <rc><c>S </c><c>   4</c></rc>
    <rc><c>S </c><c>   4</c></rc>
    <rc><c>S </c><c>   4</c></rc>
    <rc><c>S </c><c>   4</c></rc>
    <rc><c>S </c><c>   4</c></rc>
    <rc><c>S </c><c>   4</c></rc>
    <rc><c>S </c><c>   4</c></rc>
    <rc><c>S </c><c>   4</c></rc>
    <rc><c>S </c><c>   4</c></rc>
    <rc><c>S </c><c>   4</c></rc>
    <rc><c>S </c><c>   4</c></rc>
    <rc><c>S </c><c>   4</c></rc>
    <rc><c>S </c><c>   4</c></rc>
    <rc><c>S </c><c>   4</c></rc>
    <rc><c>S </c><c>   4</c></rc>
    <rc><c>S </c><c>   4</c></rc>
    <rc><c>O </c><c>   5</c></rc>
    <rc><c>O </c><c>   5</c></rc>
    <rc><c>O </c><c>   5</c></rc>
    <rc><c>O </c><c>   5</c></rc>
    <rc><c>O </c><c>   5</c></rc>
    <rc><c>O </c><c>   5</c></rc>
    <rc><c>O </c><c>   5</c></rc>
    <rc><c>O </c><c>   5</c></rc>
    <rc><c>O </c><c>   5</c></rc>
    <rc><c>O </c><c>   5</c></rc>
    <rc><c>O </c><c>   5</c></rc>
    <rc><c>O </c><c>   5</c></rc>
    <rc><c>O </c><c>   5</c></rc>
    <rc><c>O </c><c>   5</c></rc>
    <rc><c>O </c><c>   5</c></rc>
    <rc><c>O </c><c>   5</c></rc>
   </set>
  </array>
  <array name="atomtypes" >
   <dimension dim="1">type</dimension>
   <field type="int">atomspertype</field>
   <field type="string">element</field>
   <field>mass</field>
   <field>valence</field>
   <field type="string">pseudopotential</field>
   <set>
    <rc><c>   8</c><c>Li</c><c>      7.01000000</c><c>      3.00000000</c><c>  PAW_PBE Li_sv 10Sep2004               </c></rc>
    <rc><c>   4</c><c>Mg</c><c>     24.30500000</c><c>      2.00000000</c><c>  PAW_PBE Mg 13Apr2007                  </c></rc>
    <rc><c>  16</c><c>Bi</c><c>    208.98000000</c><c>     15.00000000</c><c>  PAW_PBE Bi_d 06Sep2000                </c></rc>
    <rc><c>  16</c><c>S </c><c>     32.06600000</c><c>      6.00000000</c><c>  PAW_PBE S 06Sep2000                   </c></rc>
    <rc><c>  16</c><c>O </c><c>     16.00000000</c><c>      6.00000000</c><c>  PAW_PBE O 08Apr2002                   </c></rc>
   </set>
  </array>
 </atominfo>
 <structure name="initialpos" >
  <crystal>
   <varray name="basis" >
    <v>      11.17850000       0.00000000       0.00000000 </v>
    <v>       0.00000000       9.57460000       0.00000000 </v>
    <v>       0.00000000       0.00000000      11.18240000 </v>
   </varray>
   <i name="volume">   1196.84853820 </i>
   <varray name="rec_basis" >
    <v>       0.08945744       0.00000000       0.00000000 </v>
    <v>       0.00000000       0.10444301       0.00000000 </v>
    <v>       0.00000000       0.00000000       0.08942624 </v>
   </varray>
  </crystal>
  <varray name="positions" >
   <v>       0.12461000       0.99984000       0.18687000 </v>
   <v>       0.87539000       0.00017000       0.43687000 </v>
   <v>       0.62461000       0.99984000       0.18687000 </v>
   <v>       0.87461000       0.00017000       0.18687000 </v>
   <v>       0.37539000       0.00017000       0.93687000 </v>
   <v>       0.37461000       0.00017000       0.68687000 </v>
   <v>       0.62539000       0.99984000       0.93687000 </v>
   <v>       0.87461000       0.00017000       0.68687000 </v>
   <v>       0.62539000       0.99984000       0.43687000 </v>
   <v>       0.12539000       0.99984000       0.93687000 </v>
   <v>       0.87539000       0.00017000       0.93687000 </v>
   <v>       0.62461000       0.99984000       0.68687000 </v>
   <v>       0.00013000       0.29519000       0.06281000 </v>
   <v>       0.25013000       0.70481000       0.06281000 </v>
   <v>       0.24987000       0.29519000       0.31282000 </v>
   <v>       0.49987000       0.70481000       0.31282000 </v>
   <v>       0.50013000       0.29519000       0.06281000 </v>
   <v>       0.75013000       0.70481000       0.06281000 </v>
   <v>       0.74987000       0.29519000       0.31282000 </v>
   <v>       0.99987000       0.70481000       0.31282000 </v>
   <v>       0.00013000       0.29519000       0.56281000 </v>
   <v>       0.25013000       0.70481000       0.56281000 </v>
   <v>       0.24987000       0.29519000       0.81282000 </v>
   <v>       0.49987000       0.70481000       0.81282000 </v>
   <v>       0.50013000       0.29519000       0.56281000 </v>
   <v>       0.75013000       0.70481000       0.56281000 </v>
   <v>       0.74987000       0.29519000       0.81282000 </v>
   <v>       0.99987000       0.70481000       0.81282000 </v>
   <v>       0.25005000       0.32677000       0.06286000 </v>
   <v>       0.00005000       0.67323000       0.06286000 </v>
   <v>       0.49995000       0.32677000       0.31286000 </v>
   <v>       0.24995000       0.67323000       0.31286000 </v>
   <v>       0.75005000       0.32677000       0.06286000 </v>
   <v>       0.50005000       0.67323000       0.06286000 </v>
   <v>       0.99995000       0.32677000       0.31286000 </v>
   <v>       0.74995000       0.67323000       0.31286000 </v>
   <v>       0.25005000       0.32677000       0.56286000 </v>
   <v>       0.00005000       0.67323000       0.56286000 </v>
   <v>       0.49995000       0.32677000       0.81286000 </v>
   <v>       0.24995000       0.67323000       0.81286000 </v>
   <v>       0.75005000       0.32677000       0.56286000 </v>
   <v>       0.50005000       0.67323000       0.56286000 </v>
   <v>       0.99995000       0.32677000       0.81286000 </v>
   <v>       0.74995000       0.67323000       0.81286000 </v>
   <v>       0.49987000       0.07798000       0.06246000 </v>
   <v>       0.24987000       0.92202000       0.06246000 </v>
   <v>       0.25013000       0.07798000       0.31246000 </v>
   <v>       0.00013000       0.92202000       0.31246000 </v>
   <v>       0.99987000       0.07798000       0.06246000 </v>
   <v>       0.74987000       0.92202000       0.06246000 </v>
   <v>       0.75013000       0.07798000       0.31246000 </v>
   <v>       0.50013000       0.92202000       0.31246000 </v>
   <v>       0.49987000       0.07798000       0.56246000 </v>
   <v>       0.24987000       0.92202000       0.56246000 </v>
   <v>       0.25013000       0.07798000       0.81246000 </v>
   <v>       0.00013000       0.92202000       0.81246000 </v>
   <v>       0.99987000       0.07798000       0.56246000 </v>
   <v>       0.74987000       0.92202000       0.56246000 </v>
   <v>       0.75013000       0.07798000       0.81246000 </v>
   <v>       0.50013000       0.92202000       0.81246000 </v>
  </varray>
 </structure>
 <calculation>
  <scstep>
   <time name="dav">   59.68   60.10</time>
   <time name="total">   59.76   60.20</time>
   <energy>
    <i name="alphaZ">   1067.11773629 </i>
    <i name="ewald"> -30626.85377720 </i>
    <i name="hartreedc"> -12723.99707602 </i>
    <i name="XCdc">   1321.28262520 </i>
    <i name="pawpsdc">  36729.48549953 </i>
    <i name="pawaedc"> -36149.63912807 </i>
    <i name="eentropy">      0.00000000 </i>
    <i name="bandstr">   1838.28225869 </i>
    <i name="atom">  44408.54722957 </i>
    <i name="e_fr_energy">   5864.22536799 </i>
    <i name="e_wo_entrp">   5864.22536799 </i>
    <i name="e_0_energy">   5864.22536799 </i>
   </energy>
  </scstep>
  <scstep>
   <time name="dav">   59.87   60.26</time>
   <time name="total">   59.88   60.27</time>
   <energy>
    <i name="e_fr_energy">    790.64941220 </i>
    <i name="e_wo_entrp">    790.64941220 </i>
    <i name="e_0_energy">    790.64941220 </i>
   </energy>
  </scstep>
  <scstep>
   <time name="dav">   68.51   69.01</time>
   <time name="total">   68.52   69.02</time>
   <energy>
    <i name="e_fr_energy">   -237.35957099 </i>
    <i name="e_wo_entrp">   -237.35957099 </i>
    <i name="e_0_energy">   -237.35957099 </i>
   </energy>
  </scstep>
  <scstep>
   <time name="dav">   71.40   71.75</time>
   <time name="total">   71.40   71.76</time>
   <energy>
    <i name="e_fr_energy">   -338.36679107 </i>
    <i name="e_wo_entrp">   -338.36679107 </i>
    <i name="e_0_energy">   -338.36679107 </i>
   </energy>
  </scstep>
  <scstep>
   <time name="dav">   94.62   95.15</time>
   <time name="total">   95.34   95.88</time>
   <energy>
    <i name="e_fr_energy">   -346.16503885 </i>
    <i name="e_wo_entrp">   -346.16503885 </i>
    <i name="e_0_energy">   -346.16503885 </i>
   </energy>
  </scstep>
  <scstep>
   <time name="dav">   82.78   83.16</time>
   <time name="total">   83.57   83.99</time>
   <energy>
    <i name="e_fr_energy">   -289.18465006 </i>
    <i name="e_wo_entrp">   -289.18465006 </i>
    <i name="e_0_energy">   -289.18465006 </i>
   </energy>
  </scstep>
  <scstep>
   <time name="dav">   65.25   65.76</time>
   <time name="total">   66.04   66.57</time>
   <energy>
    <i name="e_fr_energy">   -291.62070024 </i>
    <i name="e_wo_entrp">   -291.62070024 </i>
    <i name="e_0_energy">   -291.62070024 </i>
   </energy>
  </scstep>
  <scstep>
   <time name="dav">   84.76   85.18</time>
   <time name="total">   85.54   85.97</time>
   <energy>
    <i name="e_fr_energy">   -289.90321234 </i>
    <i name="e_wo_entrp">   -289.90321234 </i>
    <i name="e_0_energy">   -289.90321234 </i>
   </energy>
  </scstep>
  <scstep>
   <time name="dav">   68.03   68.25</time>
   <time name="total">   68.82   69.14</time>
   <energy>
    <i name="e_fr_energy">   -289.81548522 </i>
    <i name="e_wo_entrp">   -289.81548522 </i>
    <i name="e_0_energy">   -289.81548522 </i>
   </energy>
  </scstep>
  <scstep>
   <time name="dav">   79.41   79.92</time>
   <time name="total">   80.24   80.77</time>
   <energy>
    <i name="e_fr_energy">   -289.53623552 </i>
    <i name="e_wo_entrp">   -289.53623552 </i>
    <i name="e_0_energy">   -289.53623552 </i>
   </energy>
  </scstep>
  <scstep>
   <time name="dav">   85.90   86.04</time>
   <time name="total">   86.69   86.83</time>
   <energy>
    <i name="e_fr_energy">   -289.07592013 </i>
    <i name="e_wo_entrp">   -289.07592013 </i>
    <i name="e_0_energy">   -289.07592013 </i>
   </energy>
  </scstep>
  <scstep>
   <time name="dav">   65.89   65.95</time>
   <time name="total">   66.68   66.74</time>
   <energy>
    <i name="e_fr_energy">   -289.08066367 </i>
    <i name="e_wo_entrp">   -289.08066367 </i>
    <i name="e_0_energy">   -289.08066367 </i>
   </energy>
  </scstep>
  <scstep>
   <time name="dav">   83.40   83.40</time>
   <time name="total">   84.19   84.19</time>
   <energy>
    <i name="e_fr_energy">   -289.07685476 </i>
    <i name="e_wo_entrp">   -289.07685476 </i>
    <i name="e_0_energy">   -289.07685476 </i>
   </energy>
  </scstep>
  <scstep>
   <time name="dav">   84.11   84.13</time>
   <time name="total">   84.90   84.92</time>
   <energy>
    <i name="e_fr_energy">   -289.07136756 </i>
    <i name="e_wo_entrp">   -289.07136756 </i>
    <i name="e_0_energy">   -289.07136756 </i>
   </energy>
  </scstep>
  <scstep>
   <time name="dav">   69.04   69.12</time>
   <time name="total">   69.83   69.92</time>
   <energy>
    <i name="e_fr_energy">   -289.07063283 </i>
    <i name="e_wo_entrp">   -289.07063283 </i>
    <i name="e_0_energy">   -289.07063283 </i>
   </energy>
  </scstep>
  <scstep>
   <time name="dav">   72.53   72.56</time>
   <time name="total">   73.32   73.46</time>
   <energy>
    <i name="e_fr_energy">   -289.07056238 </i>
    <i name="e_wo_entrp">   -289.07056238 </i>
    <i name="e_0_energy">   -289.07056238 </i>
   </energy>
  </scstep>
  <scstep>
   <time name="dav">   73.41   73.65</time>
   <time name="total">   74.22   74.46</time>
   <energy>
    <i name="e_fr_energy">   -289.07063636 </i>
    <i name="e_wo_entrp">   -289.07063636 </i>
    <i name="e_0_energy">   -289.07063636 </i>
   </energy>
  </scstep>
  <scstep>
   <time name="dav">   81.95   82.25</time>
   <time name="total">   82.73   83.04</time>
   <energy>
    <i name="e_fr_energy">   -289.07064914 </i>
    <i name="e_wo_entrp">   -289.07064914 </i>
    <i name="e_0_energy">   -289.07064914 </i>
   </energy>
  </scstep>
  <scstep>
   <time name="dav">   71.17   71.83</time>
   <time name="total">   71.96   72.62</time>
   <energy>
    <i name="e_fr_energy">   -289.07066574 </i>
    <i name="e_wo_entrp">   -289.07066574 </i>
    <i name="e_0_energy">   -289.07066574 </i>
   </energy>
  </scstep>
  <scstep>
   <time name="dav">   69.56   70.48</time>
   <time name="total">   70.36   71.28</time>
   <energy>
    <i name="e_fr_energy">   -289.07066118 </i>
    <i name="e_wo_entrp">   -289.07066118 </i>
    <i name="e_0_energy">   -289.07066118 </i>
   </energy>
  </scstep>
  <scstep>
   <time name="dav">   61.29   61.80</time>
   <time name="total">   62.08   62.59</time>
   <energy>
    <i name="e_fr_energy">   -289.07066106 </i>
    <i name="e_wo_entrp">   -289.07066106 </i>
    <i name="e_0_energy">   -289.07066106 </i>
   </energy>
  </scstep>
  <scstep>
   <time name="dav">   55.67   56.42</time>
   <time name="total">   55.74   56.49</time>
   <energy>
    <i name="alphaZ">   1067.11773629 </i>
    <i name="ewald"> -30626.85377720 </i>
    <i name="hartreedc"> -12946.14122371 </i>
    <i name="XCdc">   1344.70790421 </i>
    <i name="pawpsdc">  43771.75358324 </i>
    <i name="pawaedc"> -43166.90119768 </i>
    <i name="eentropy">      0.00000000 </i>
    <i name="bandstr">  -4141.30091605 </i>
    <i name="atom">  44408.54722957 </i>
    <i name="e_fr_energy">   -289.07066132 </i>
    <i name="e_wo_entrp">   -289.07066132 </i>
    <i name="e_0_energy">   -289.07066132 </i>
   </energy>
  </scstep>
  <structure>
   <crystal>
    <varray name="basis" >
     <v>      11.17850000       0.00000000       0.00000000 </v>
     <v>       0.00000000       9.57460000       0.00000000 </v>
     <v>       0.00000000       0.00000000      11.18240000 </v>
    </varray>
    <i name="volume">   1196.84853820 </i>
    <varray name="rec_basis" >
     <v>       0.08945744       0.00000000       0.00000000 </v>
     <v>       0.00000000       0.10444301       0.00000000 </v>
     <v>       0.00000000       0.00000000       0.08942624 </v>
    </varray>
   </crystal>
   <varray name="positions" >
    <v>       0.12461000       0.99984000       0.18687000 </v>
    <v>       0.87539000       0.00017000       0.43687000 </v>
    <v>       0.62461000       0.99984000       0.18687000 </v>
    <v>       0.87461000       0.00017000       0.18687000 </v>
    <v>       0.37539000       0.00017000       0.93687000 </v>
    <v>       0.37461000       0.00017000       0.68687000 </v>
    <v>       0.62539000       0.99984000       0.93687000 </v>
    <v>       0.87461000       0.00017000       0.68687000 </v>
    <v>       0.62539000       0.99984000       0.43687000 </v>
    <v>       0.12539000       0.99984000       0.93687000 </v>
    <v>       0.87539000       0.00017000       0.93687000 </v>
    <v>       0.62461000       0.99984000       0.68687000 </v>
    <v>       0.00013000       0.29519000       0.06281000 </v>
    <v>       0.25013000       0.70481000       0.06281000 </v>
    <v>       0.24987000       0.29519000       0.31282000 </v>
    <v>       0.49987000       0.70481000       0.31282000 </v>
    <v>       0.50013000       0.29519000       0.06281000 </v>
    <v>       0.75013000       0.70481000       0.06281000 </v>
    <v>       0.74987000       0.29519000       0.31282000 </v>
    <v>       0.99987000       0.70481000       0.31282000 </v>
    <v>       0.00013000       0.29519000       0.56281000 </v>
    <v>       0.25013000       0.70481000       0.56281000 </v>
    <v>       0.24987000       0.29519000       0.81282000 </v>
    <v>       0.49987000       0.70481000       0.81282000 </v>
    <v>       0.50013000       0.29519000       0.56281000 </v>
    <v>       0.75013000       0.70481000       0.56281000 </v>
    <v>       0.74987000       0.29519000       0.81282000 </v>
    <v>       0.99987000       0.70481000       0.81282000 </v>
    <v>       0.25005000       0.32677000       0.06286000 </v>
    <v>       0.00005000       0.67323000       0.06286000 </v>
    <v>       0.49995000       0.32677000       0.31286000 </v>
    <v>       0.24995000       0.67323000       0.31286000 </v>
    <v>       0.75005000       0.32677000       0.06286000 </v>
    <v>       0.50005000       0.67323000       0.06286000 </v>
    <v>       0.99995000       0.32677000       0.31286000 </v>
    <v>       0.74995000       0.67323000       0.31286000 </v>
    <v>       0.25005000       0.32677000       0.56286000 </v>
    <v>       0.00005000       0.67323000       0.56286000 </v>
    <v>       0.49995000       0.32677000       0.81286000 </v>
    <v>       0.24995000       0.67323000       0.81286000 </v>
    <v>       0.75005000       0.32677000       0.56286000 </v>
    <v>       0.50005000       0.67323000       0.56286000 </v>
    <v>       0.99995000       0.32677000       0.81286000 </v>
    <v>       0.74995000       0.67323000       0.81286000 </v>
    <v>       0.49987000       0.07798000       0.06246000 </v>
    <v>       0.24987000       0.92202000       0.06246000 </v>
    <v>       0.25013000       0.07798000       0.31246000 </v>
    <v>       0.00013000       0.92202000       0.31246000 </v>
    <v>       0.99987000       0.07798000       0.06246000 </v>
    <v>       0.74987000       0.92202000       0.06246000 </v>
    <v>       0.75013000       0.07798000       0.31246000 </v>
    <v>       0.50013000       0.92202000       0.31246000 </v>
    <v>       0.49987000       0.07798000       0.56246000 </v>
    <v>       0.24987000       0.92202000       0.56246000 </v>
    <v>       0.25013000       0.07798000       0.81246000 </v>
    <v>       0.00013000       0.92202000       0.81246000 </v>
    <v>       0.99987000       0.07798000       0.56246000 </v>
    <v>       0.74987000       0.92202000       0.56246000 </v>
    <v>       0.75013000       0.07798000       0.81246000 </v>
    <v>       0.50013000       0.92202000       0.81246000 </v>
   </varray>
  </structure>
  <varray name="forces" >
   <v>       0.79808263      -0.05546823       1.25374726 </v>
   <v>       1.29133176       0.12379880       0.03262055 </v>
   <v>      -0.83007436       0.01871062      -0.12240580 </v>
   <v>       0.24436009      -0.17986143       0.76029992 </v>
   <v>       0.11082126       0.13824144       0.46453939 </v>
   <v>      -1.19586082      -0.13998112      -0.68034872 </v>
   <v>      -0.74927172       0.06545598       0.70295739 </v>
   <v>       1.24012085       0.18006098      -0.72597808 </v>
   <v>      -1.37607373      -0.09342935      -1.26727613 </v>
   <v>       1.41808216      -0.09103596      -0.68373144 </v>
   <v>      -0.42112633      -0.21554918       0.07257768 </v>
   <v>      -0.56723629      -0.00795827       0.42115671 </v>
   <v>       0.48379376       2.10902396       0.63579788 </v>
   <v>       0.32828415      -0.13578115       0.64591952 </v>
   <v>       0.08184950      -2.60734482       0.33718812 </v>
   <v>      -0.86634387       0.90263149      -0.05178740 </v>
   <v>      -0.53962352      -0.90740456       0.46234325 </v>
   <v>      -0.25366355      -1.17799194       0.42971063 </v>
   <v>       0.12835062       1.16755737      -0.00914684 </v>
   <v>       0.70013100       0.90473978       0.42463440 </v>
   <v>       0.80176758      -1.82174601      -0.37354751 </v>
   <v>      -0.26464836       2.58862764      -0.48882849 </v>
   <v>      -0.03117028       0.14024176      -0.49409405 </v>
   <v>      -0.58785410      -1.15144892       0.04510984 </v>
   <v>      -0.98405170       1.18145693      -0.50823761 </v>
   <v>       0.36356300      -2.17244040      -0.35431297 </v>
   <v>      -0.01643778       2.12643557      -0.08270922 </v>
   <v>       0.65651706      -1.17765229      -0.67869532 </v>
   <v>      -0.32612446       0.15246599      -0.47294581 </v>
   <v>      -0.29508566      -0.03728260      -0.38082262 </v>
   <v>       0.63312870       0.10487527       0.16114421 </v>
   <v>      -0.01873649      -0.22970500      -0.42263752 </v>
   <v>       0.26622429      -0.02995328      -0.26552296 </v>
   <v>       0.32243225      -0.12088997      -0.31850852 </v>
   <v>      -0.59263384       0.19123124      -0.46547409 </v>
   <v>      -0.03559482      -0.12459433       0.01085962 </v>
   <v>       0.34029562       0.19142941       0.46857522 </v>
   <v>      -0.68074710      -0.12248035       0.34069617 </v>
   <v>       0.41836903       0.05666709      -0.15952799 </v>
   <v>      -0.02757684      -0.14021151       0.40324714 </v>
   <v>      -0.35168598      -0.00323268       0.24472157 </v>
   <v>       0.72246176      -0.03985640       0.35044179 </v>
   <v>      -0.38251933      -0.04795963       0.47400020 </v>
   <v>      -0.00587547       0.13886788       0.02009832 </v>
   <v>       0.90035949       0.63575333      -0.86497929 </v>
   <v>      -1.29871236       0.15348699      -1.32729737 </v>
   <v>      -0.54946426       2.23215579      -0.67615277 </v>
   <v>      -1.01015018      -0.70609688      -0.89787587 </v>
   <v>      -0.33038869      -1.66065750      -1.23496553 </v>
   <v>       0.73334692       1.11716512      -0.77706421 </v>
   <v>      -0.44627031      -0.92451168       0.49729112 </v>
   <v>       1.99323383      -0.61855517       0.54543654 </v>
   <v>       2.02220629      -1.00982366       0.83350622 </v>
   <v>       0.68831730      -2.18439900       0.74485474 </v>
   <v>       0.09767718      -0.07318937       1.27764430 </v>
   <v>      -0.97001896       1.09937956       1.78824802 </v>
   <v>      -1.59350484       1.37457927       0.24705324 </v>
   <v>      -1.08545570       1.74924460       0.27477399 </v>
   <v>      -0.01250227      -1.82595904      -0.01681899 </v>
   <v>       0.91137587       0.99016784      -0.56950188 </v>
  </varray>
  <varray name="stress" >
   <v>      -2.72489638      -0.54773980      -0.83360741 </v>
   <v>      -0.54773991     -11.07667657       0.12165767 </v>
   <v>      -0.83360740       0.12165763      -0.95391263 </v>
  </varray>
  <energy>
   <i name="e_fr_energy">   -302.65149434 </i>
   <i name="e_wo_entrp">   -302.65149434 </i>
   <i name="e_0_energy">      0.00000000 </i>
  </energy>
  <time name="totalsc"> 1739.48 1748.91</time>
 </calculation>
 <calculation>
  <scstep>
   <time name="dav">   64.71   65.09</time>
   <time name="total">   65.49   65.87</time>
   <energy>
    <i name="alphaZ">   1076.64317426 </i>
    <i name="ewald"> -30721.31395198 </i>
    <i name="hartreedc"> -12965.64481110 </i>
    <i name="XCdc">   1350.04536455 </i>
    <i name="pawpsdc">  43771.63497930 </i>
    <i name="pawaedc"> -43166.78105094 </i>
    <i name="eentropy">      0.00000000 </i>
    <i name="bandstr">  -4040.05027323 </i>
    <i name="atom">  44408.54722957 </i>
    <i name="e_fr_energy">   -286.91933956 </i>
    <i name="e_wo_entrp">   -286.91933956 </i>
    <i name="e_0_energy">   -286.91933956 </i>
   </energy>
  </scstep>
  <scstep>
   <time name="dav">   74.18   74.51</time>
   <time name="total">   74.97   75.30</time>
   <energy>
    <i name="e_fr_energy">   -291.99080888 </i>
    <i name="e_wo_entrp">   -291.99080888 </i>
    <i name="e_0_energy">   -291.99080888 </i>
   </energy>
  </scstep>
  <scstep>
   <time name="dav">   84.06   84.78</time>
   <time name="total">   84.84   85.57</time>
   <energy>
    <i name="e_fr_energy">   -291.79745829 </i>
    <i name="e_wo_entrp">   -291.79745829 </i>
    <i name="e_0_energy">   -291.79745829 </i>
   </energy>
  </scstep>
  <scstep>
   <time name="dav">   79.79   80.12</time>
   <time name="total">   80.58   80.91</time>
   <energy>
    <i name="e_fr_energy">   -291.66133062 </i>
    <i name="e_wo_entrp">   -291.66133062 </i>
    <i name="e_0_energy">   -291.66133062 </i>
   </energy>
  </scstep>
  <scstep>
   <time name="dav">   73.80   74.13</time>
   <time name="total">   74.59   74.93</time>
   <energy>
    <i name="e_fr_energy">   -291.62444154 </i>
    <i name="e_wo_entrp">   -291.62444154 </i>
    <i name="e_0_energy">   -291.62444154 </i>
   </energy>
  </scstep>
  <scstep>
   <time name="dav">   76.12   76.41</time>
   <time name="total">   76.90   77.20</time>
   <energy>
    <i name="e_fr_energy">   -291.62007856 </i>
    <i name="e_wo_entrp">   -291.62007856 </i>
    <i name="e_0_energy">   -291.62007856 </i>
   </energy>
  </scstep>
  <scstep>
   <time name="dav">   82.20   82.49</time>
   <time name="total">   82.99   83.28</time>
   <energy>
    <i name="e_fr_energy">   -291.61940145 </i>
    <i name="e_wo_entrp">   -291.61940145 </i>
    <i name="e_0_energy">   -291.61940145 </i>
   </energy>
  </scstep>
  <scstep>
   <time name="dav">   68.43   68.69</time>
   <time name="total">   69.21   69.48</time>
   <energy>
    <i name="e_fr_energy">   -291.61875838 </i>
    <i name="e_wo_entrp">   -291.61875838 </i>
    <i name="e_0_energy">   -291.61875838 </i>
   </energy>
  </scstep>
  <scstep>
   <time name="dav">   83.41   83.72</time>
   <time name="total">   84.21   84.52</time>
   <energy>
    <i name="e_fr_energy">   -291.61879843 </i>
    <i name="e_wo_entrp">   -291.61879843 </i>
    <i name="e_0_energy">   -291.61879843 </i>
   </energy>
  </scstep>
  <scstep>
   <time name="dav">   67.53   67.77</time>
   <time name="total">   68.31   68.57</time>
   <energy>
    <i name="e_fr_energy">   -291.61881853 </i>
    <i name="e_wo_entrp">   -291.61881853 </i>
    <i name="e_0_energy">   -291.61881853 </i>
   </energy>
  </scstep>
  <scstep>
   <time name="dav">   72.33   72.80</time>
   <time name="total">   73.12   73.59</time>
   <energy>
    <i name="e_fr_energy">   -291.61883216 </i>
    <i name="e_wo_entrp">   -291.61883216 </i>
    <i name="e_0_energy">   -291.61883216 </i>
   </energy>
  </scstep>
  <scstep>
   <time name="dav">   76.61   77.66</time>
   <time name="total">   77.39   78.45</time>
   <energy>
    <i name="e_fr_energy">   -291.61883382 </i>
    <i name="e_wo_entrp">   -291.61883382 </i>
    <i name="e_0_energy">   -291.61883382 </i>
   </energy>
  </scstep>
  <scstep>
   <time name="dav">   60.12   60.47</time>
   <time name="total">   60.19   60.54</time>
   <energy>
    <i name="alphaZ">   1076.64317426 </i>
    <i name="ewald"> -30721.31395198 </i>
    <i name="hartreedc"> -12895.88572513 </i>
    <i name="XCdc">   1347.21457082 </i>
    <i name="pawpsdc">  44052.38554053 </i>
    <i name="pawaedc"> -43450.37959932 </i>
    <i name="eentropy">      0.00000000 </i>
    <i name="bandstr">  -4108.83007284 </i>
    <i name="atom">  44408.54722957 </i>
    <i name="e_fr_energy">   -291.61883409 </i>
    <i name="e_wo_entrp">   -291.61883409 </i>
    <i name="e_0_energy">   -291.61883409 </i>
   </energy>
  </scstep>
  <structure>
   <crystal>
    <varray name="basis" >
     <v>      11.16020459      -0.00367762      -0.00559698 </v>
     <v>      -0.00314995       9.51090011       0.00069963 </v>
     <v>      -0.00559893       0.00081711      11.17599304 </v>
    </varray>
    <i name="volume">   1186.25960141 </i>
    <varray name="rec_basis" >
     <v>       0.08960412       0.00002967       0.00004489 </v>
     <v>       0.00003464       0.10514253      -0.00000767 </v>
     <v>       0.00004487      -0.00000657       0.08947753 </v>
    </varray>
   </crystal>
   <varray name="positions" >
    <v>       0.12805426       0.99956052       0.19227887 </v>
    <v>       0.88096295       0.00079377       0.43701073 </v>
    <v>       0.62102768       0.99993428       0.18634192 </v>
    <v>       0.87566458      -0.00073625       0.19015005 </v>
    <v>       0.37586827       0.00086654       0.93887410 </v>
    <v>       0.36944907      -0.00053531       0.68393487 </v>
    <v>       0.62215639       0.00016981       0.93990267 </v>
    <v>       0.87996195       0.00107726       0.68373801 </v>
    <v>       0.61945133       0.99936925       0.43140277 </v>
    <v>       0.13150997       0.99938131       0.93392027 </v>
    <v>       0.87357256      -0.00091607       0.93718311 </v>
    <v>       0.62216200       0.99979990       0.68868694 </v>
    <v>       0.00221789       0.30581654       0.06555293 </v>
    <v>       0.25154676       0.70412585       0.06559660 </v>
    <v>       0.25022323       0.28205261       0.31427468 </v>
    <v>       0.49613115       0.70935801       0.31259658 </v>
    <v>       0.49780117       0.29061794       0.06480462 </v>
    <v>       0.74903527       0.69887456       0.06466384 </v>
    <v>       0.75042392       0.30107286       0.31278054 </v>
    <v>       0.00289153       0.70936863       0.31465194 </v>
    <v>       0.00359016       0.28601094       0.56119846 </v>
    <v>       0.24898787       0.71785308       0.56070112 </v>
    <v>       0.24973548       0.29589662       0.81068840 </v>
    <v>       0.49733302       0.69900830       0.81301461 </v>
    <v>       0.49588316       0.30114290       0.56061738 </v>
    <v>       0.75169902       0.69386392       0.56128144 </v>
    <v>       0.74979906       0.30590427       0.81246318 </v>
    <v>       0.00270331       0.69887627       0.80989200 </v>
    <v>       0.24864256       0.32753822       0.06081964 </v>
    <v>      -0.00122349       0.67304215       0.06121707 </v>
    <v>       0.50268237       0.32729843       0.31355520 </v>
    <v>       0.24986914       0.67207261       0.31103667 </v>
    <v>       0.75119893       0.32661908       0.06171449 </v>
    <v>       0.50144151       0.67262088       0.06148590 </v>
    <v>       0.99739239       0.32773354       0.31085187 </v>
    <v>       0.74979638       0.67260222       0.31290685 </v>
    <v>       0.25151860       0.32773454       0.56488151 </v>
    <v>      -0.00288788       0.67261287       0.56432982 </v>
    <v>       0.50175554       0.32705552       0.81217177 </v>
    <v>       0.24983099       0.67252353       0.81459967 </v>
    <v>       0.74853224       0.32675371       0.56391577 </v>
    <v>       0.50316790       0.67302918       0.56437186 </v>
    <v>       0.99829917       0.32652835       0.81490491 </v>
    <v>       0.74992464       0.67392970       0.81294671 </v>
    <v>       0.50375565       0.08118331       0.05872834 </v>
    <v>       0.24426519       0.92279336       0.05673383 </v>
    <v>       0.24775870       0.08922696       0.30954297 </v>
    <v>      -0.00422947       0.91846225       0.30858642 </v>
    <v>       0.99844415       0.06961260       0.05713216 </v>
    <v>       0.75303488       0.92764896       0.05910762 </v>
    <v>       0.74820405       0.07332175       0.31460539 </v>
    <v>       0.50873213       0.91890334       0.31481310 </v>
    <v>       0.50859716       0.07289189       0.56605588 </v>
    <v>       0.25284055       0.91101367       0.56567342 </v>
    <v>       0.25055154       0.07761123       0.81797196 </v>
    <v>      -0.00405628       0.92755934       0.82017479 </v>
    <v>       0.99299297       0.08490597       0.56352583 </v>
    <v>       0.74518554       0.93083376       0.56364542 </v>
    <v>       0.75007604       0.06877971       0.81238744 </v>
    <v>       0.50406319       0.92700907       0.81000308 </v>
   </varray>
  </structure>
  <varray name="forces" >
   <v>       0.50661490      -0.02954785       0.67632526 </v>
   <v>       0.59098815       0.06672319       0.08327294 </v>
   <v>      -0.39734155       0.01639489      -0.15701434 </v>
   <v>       0.12451563      -0.08736882       0.33417277 </v>
   <v>       0.17724677       0.07568808       0.27279501 </v>
   <v>      -0.73896541      -0.05218154      -0.48317433 </v>
   <v>      -0.32781577       0.02953572       0.31372407 </v>
   <v>       0.63185345       0.06559178      -0.33905438 </v>
   <v>      -0.21857913       0.17816974       0.10310847 </v>
   <v>      -0.07269710      -0.02102786      -0.35201607 </v>
   <v>      -0.30399156      -0.01304564       0.03123879 </v>
   <v>       0.29574838      -0.03104519       0.29263735 </v>
   <v>       0.19551352      -0.12611910       0.19361068 </v>
   <v>       0.04039854      -0.06821776       0.28455609 </v>
   <v>       0.15144173       3.74790385       0.26433092 </v>
   <v>      -0.47137962      -0.65395127       0.01815926 </v>
   <v>      -0.27128146       0.68034487       0.21042560 </v>
   <v>       0.03245127       0.22493590       0.13262427 </v>
   <v>       0.06880429      -0.10221710       0.04572074 </v>
   <v>       0.28348072      -0.73864225       0.11235629 </v>
   <v>       0.43192165       1.71958587      -0.13486886 </v>
   <v>      -0.19822065      -3.61104774      -0.34868104 </v>
   <v>      -0.03997818       0.21910606      -0.19054887 </v>
   <v>      -0.15967995       0.12832174      -0.08920034 </v>
   <v>      -0.30880589      -0.17430748      -0.18634802 </v>
   <v>       0.03314033       0.16940559      -0.10691207 </v>
   <v>       0.01711392      -0.13115410      -0.09102948 </v>
   <v>       0.21322318       0.28411550      -0.18176639 </v>
   <v>      -0.15546923       0.19398231      -0.26458269 </v>
   <v>      -0.13333135      -0.29003859      -0.15822547 </v>
   <v>       0.36816957       0.07278872       0.09196124 </v>
   <v>      -0.00531808      -0.07391487      -0.30969360 </v>
   <v>       0.08145556       0.14775662      -0.11653231 </v>
   <v>       0.15269460      -0.06475171      -0.12952302 </v>
   <v>      -0.32740329       0.16068890      -0.23723858 </v>
   <v>      -0.03136063      -0.23880443      -0.01524448 </v>
   <v>       0.23245181       0.05985926       0.31610261 </v>
   <v>      -0.37516999      -0.06429359       0.18149369 </v>
   <v>       0.17602860       0.18316461      -0.07572502 </v>
   <v>      -0.01327657      -0.16083331       0.21745848 </v>
   <v>      -0.13844904       0.28873000       0.11865214 </v>
   <v>       0.35033323      -0.20476770       0.15783917 </v>
   <v>      -0.16120901       0.13616434       0.18342413 </v>
   <v>      -0.00606032      -0.17392979       0.02565477 </v>
   <v>       0.54934884      -0.84248463      -0.54793803 </v>
   <v>      -0.54003626      -0.13986363      -0.63075843 </v>
   <v>      -0.56847699      -4.19215678      -0.68213719 </v>
   <v>      -0.59407927       0.85067447      -0.55615694 </v>
   <v>       0.10164836       0.65775271      -0.48188729 </v>
   <v>       0.12627467      -0.50922666      -0.17226988 </v>
   <v>      -0.27102864       0.39935213       0.19250546 </v>
   <v>       1.00744471       0.51949557      -0.10347226 </v>
   <v>       0.73619628       0.63792631       0.27024330 </v>
   <v>       0.63859485       4.04913923       0.71370161 </v>
   <v>       0.41055802       0.04854853       0.60774021 </v>
   <v>      -0.28524691      -0.64287907       0.78390407 </v>
   <v>      -1.16101046      -2.03373270       0.05728021 </v>
   <v>      -0.50610184      -0.67624621      -0.07203253 </v>
   <v>      -0.06817295       0.61679832      -0.00139730 </v>
   <v>       0.12428153      -0.48084742      -0.07159037 </v>
  </varray>
  <varray name="stress" >
   <v>       7.42221931       1.54986255       0.08430904 </v>
   <v>       1.54986242      11.79961626       0.51149442 </v>
   <v>       0.08430920       0.51149436       6.38868114 </v>
  </varray>
  <energy>
   <i name="e_fr_energy">   -305.32171988 </i>
   <i name="e_wo_entrp">   -305.32171988 </i>
   <i name="e_0_energy">      0.00000000 </i>
  </energy>
  <time name="totalsc"> 1078.79 1084.59</time>
 </calculation>
 <calculation>
  <scstep>
   <time name="dav">   64.29   65.18</time>
   <time name="total">   65.07   65.96</time>
   <energy>
    <i name="alphaZ">   1075.11466549 </i>
    <i name="ewald"> -30713.11294497 </i>
    <i name="hartreedc"> -12887.02356981 </i>
    <i name="XCdc">   1346.26494207 </i>
    <i name="pawpsdc">  44052.41105235 </i>
    <i name="pawaedc"> -43450.40512454 </i>
    <i name="eentropy">      0.00000000 </i>
    <i name="bandstr">  -4123.42566868 </i>
    <i name="atom">  44408.54722957 </i>
    <i name="e_fr_energy">   -291.62941851 </i>
    <i name="e_wo_entrp">   -291.62941851 </i>
    <i name="e_0_energy">   -291.62941851 </i>
   </energy>
  </scstep>
  <scstep>
   <time name="dav">   69.57   70.51</time>
   <time name="total">   70.40   71.40</time>
   <energy>
    <i name="e_fr_energy">   -291.76402295 </i>
    <i name="e_wo_entrp">   -291.76402295 </i>
    <i name="e_0_energy">   -291.76402295 </i>
   </energy>
  </scstep>
  <scstep>
   <time name="dav">   83.22   84.30</time>
   <time name="total">   84.00   85.09</time>
   <energy>
    <i name="e_fr_energy">   -291.75971356 </i>
    <i name="e_wo_entrp">   -291.75971356 </i>
    <i name="e_0_energy">   -291.75971356 </i>
   </energy>
  </scstep>
  <scstep>
   <time name="dav">   68.24   69.16</time>
   <time name="total">   69.02   69.95</time>
   <energy>
    <i name="e_fr_energy">   -291.75428444 </i>
    <i name="e_wo_entrp">   -291.75428444 </i>
    <i name="e_0_energy">   -291.75428444 </i>
   </energy>
  </scstep>
  <scstep>
   <time name="dav">   76.93   78.10</time>
   <time name="total">   77.72   78.89</time>
   <energy>
    <i name="e_fr_energy">   -291.75342690 </i>
    <i name="e_wo_entrp">   -291.75342690 </i>
    <i name="e_0_energy">   -291.75342690 </i>
   </energy>
  </scstep>
  <scstep>
   <time name="dav">   75.16   75.14</time>
   <time name="total">   75.94   75.93</time>
   <energy>
    <i name="e_fr_energy">   -291.75335943 </i>
    <i name="e_wo_entrp">   -291.75335943 </i>
    <i name="e_0_energy">   -291.75335943 </i>
   </energy>
  </scstep>
  <scstep>
   <time name="dav">   83.19   83.19</time>
   <time name="total">   83.99   84.00</time>
   <energy>
    <i name="e_fr_energy">   -291.75332189 </i>
    <i name="e_wo_entrp">   -291.75332189 </i>
    <i name="e_0_energy">   -291.75332189 </i>
   </energy>
  </scstep>
  <scstep>
   <time name="dav">   71.40   71.44</time>
   <time name="total">   72.19   72.23</time>
   <energy>
    <i name="e_fr_energy">   -291.75330555 </i>
    <i name="e_wo_entrp">   -291.75330555 </i>
    <i name="e_0_energy">   -291.75330555 </i>
   </energy>
  </scstep>
  <scstep>
   <time name="dav">   71.70   71.71</time>
   <time name="total">   72.49   72.50</time>
   <energy>
    <i name="e_fr_energy">   -291.75330452 </i>
    <i name="e_wo_entrp">   -291.75330452 </i>
    <i name="e_0_energy">   -291.75330452 </i>
   </energy>
  </scstep>
  <scstep>
   <time name="dav">   58.79   58.79</time>
   <time name="total">   59.58   59.58</time>
   <energy>
    <i name="e_fr_energy">   -291.75330601 </i>
    <i name="e_wo_entrp">   -291.75330601 </i>
    <i name="e_0_energy">   -291.75330601 </i>
   </energy>
  </scstep>
  <scstep>
   <time name="dav">   51.63   51.92</time>
   <time name="total">   51.70   51.99</time>
   <energy>
    <i name="alphaZ">   1075.11466549 </i>
    <i name="ewald"> -30713.11294497 </i>
    <i name="hartreedc"> -12898.45219449 </i>
    <i name="XCdc">   1346.74085411 </i>
    <i name="pawpsdc">  43979.28928553 </i>
    <i name="pawaedc"> -43376.37015665 </i>
    <i name="eentropy">      0.00000000 </i>
    <i name="bandstr">  -4113.51004484 </i>
    <i name="atom">  44408.54722957 </i>
    <i name="e_fr_energy">   -291.75330624 </i>
    <i name="e_wo_entrp">   -291.75330624 </i>
    <i name="e_0_energy">   -291.75330624 </i>
   </energy>
  </scstep>
  <structure>
   <crystal>
    <varray name="basis" >
     <v>      11.16312278      -0.00309102      -0.00470424 </v>
     <v>      -0.00264752       9.52106048       0.00058804 </v>
     <v>      -0.00470588       0.00068678      11.17701497 </v>
    </varray>
    <i name="volume">   1187.94612682 </i>
    <varray name="rec_basis" >
     <v>       0.08958069       0.00002491       0.00003771 </v>
     <v>       0.00002908       0.10503033      -0.00000644 </v>
     <v>       0.00003770      -0.00000552       0.08946934 </v>
    </varray>
   </crystal>
   <varray name="positions" >
    <v>       0.12750356       0.99960526       0.19141536 </v>
    <v>       0.88007255       0.00069327       0.43698783 </v>
    <v>       0.62160005       0.99991935       0.18642649 </v>
    <v>       0.87549587      -0.00059075       0.18962648 </v>
    <v>       0.37579166       0.00075470       0.93855422 </v>
    <v>       0.37027387      -0.00042178       0.68440371 </v>
    <v>       0.62267275       0.00011709       0.93941893 </v>
    <v>       0.87910710       0.00093120       0.68423745 </v>
    <v>       0.62040058       0.99944513       0.43227578 </v>
    <v>       0.13053247       0.99945454       0.93439054 </v>
    <v>       0.87386295      -0.00074156       0.93713328 </v>
    <v>       0.62255296       0.99980652       0.68839716 </v>
    <v>       0.00188362       0.30411013       0.06511511 </v>
    <v>       0.25132022       0.70423566       0.06515175 </v>
    <v>       0.25016728       0.28416211       0.31404236 </v>
    <v>       0.49672830       0.70862795       0.31263258 </v>
    <v>       0.49817328       0.29135226       0.06448643 </v>
    <v>       0.74921029       0.69982772       0.06436800 </v>
    <v>       0.75033516       0.30012821       0.31278685 </v>
    <v>       0.00240844       0.70863648       0.31435938 </v>
    <v>       0.00303789       0.28748460       0.56145528 </v>
    <v>       0.24916992       0.71575877       0.56103791 </v>
    <v>       0.24975711       0.29578314       0.81102861 </v>
    <v>       0.49773859       0.69994005       0.81298370 </v>
    <v>       0.49656157       0.30018726       0.56096771 </v>
    <v>       0.75144896       0.69562144       0.56152515 </v>
    <v>       0.74980994       0.30418386       0.81252024 </v>
    <v>       0.00225115       0.69982885       0.81035901 </v>
    <v>       0.24886755       0.32741492       0.06114539 </v>
    <v>      -0.00101989       0.67307237       0.06147937 </v>
    <v>       0.50224575       0.32721342       0.31344404 </v>
    <v>       0.24988226       0.67225843       0.31132766 </v>
    <v>       0.75101547       0.32664322       0.06189722 </v>
    <v>       0.50121933       0.67271859       0.06170509 </v>
    <v>       0.99780113       0.32757895       0.31117257 </v>
    <v>       0.74982095       0.67270303       0.31289938 </v>
    <v>       0.25128376       0.32757960       0.56455878 </v>
    <v>      -0.00241860       0.67271217       0.56409547 </v>
    <v>       0.50146712       0.32700956       0.81228147 </v>
    <v>       0.24984989       0.67263700       0.81432203 </v>
    <v>       0.74877464       0.32675644       0.56374739 </v>
    <v>       0.50266966       0.67306125       0.56413032 </v>
    <v>       0.99856277       0.32656728       0.81457868 </v>
    <v>       0.74992866       0.67381735       0.81293288 </v>
    <v>       0.50313501       0.08066866       0.05932362 </v>
    <v>       0.24516107       0.92266945       0.05764815 </v>
    <v>       0.24813727       0.08742112       0.31000882 </v>
    <v>      -0.00353251       0.91903375       0.30920494 </v>
    <v>       0.99867276       0.07095618       0.05798249 </v>
    <v>       0.75252925       0.92674486       0.05964245 </v>
    <v>       0.74851179       0.07406988       0.31426311 </v>
    <v>       0.50735776       0.91940329       0.31443684 </v>
    <v>       0.50720281       0.07370841       0.56548124 </v>
    <v>       0.25236620       0.91278084       0.56516023 </v>
    <v>       0.25048377       0.07767049       0.81709224 </v>
    <v>      -0.00338832       0.92667024       0.81894393 </v>
    <v>       0.99409128       0.08379429       0.56335635 </v>
    <v>       0.74593346       0.92941882       0.56345669 </v>
    <v>       0.75008509       0.07025702       0.81239893 </v>
    <v>       0.50343478       0.92620769       0.81039493 </v>
   </varray>
  </structure>
  <varray name="forces" >
   <v>       0.55685128      -0.02490131       0.77161237 </v>
   <v>       0.70392612       0.07741697       0.07943987 </v>
   <v>      -0.46866128       0.01606172      -0.15065682 </v>
   <v>       0.14890146      -0.10391899       0.40491281 </v>
   <v>       0.16654353       0.08581433       0.30325308 </v>
   <v>      -0.81688468      -0.07337757      -0.52272164 </v>
   <v>      -0.39895212       0.03851481       0.37915492 </v>
   <v>       0.73377036       0.08950216      -0.40746489 </v>
   <v>      -0.43652776       0.10499600      -0.14929166 </v>
   <v>       0.19095639      -0.02992794      -0.39887220 </v>
   <v>      -0.31118817      -0.05181075       0.04043804 </v>
   <v>       0.13346035      -0.02508888       0.30133635 </v>
   <v>       0.24755567       0.12574121       0.27085213 </v>
   <v>       0.08558025      -0.08026573       0.34880472 </v>
   <v>       0.11707890       2.12691070       0.23796848 </v>
   <v>      -0.52845257      -0.36837426       0.01135774 </v>
   <v>      -0.31010253       0.37990520       0.24644717 </v>
   <v>      -0.01506169       0.04380617       0.18203813 </v>
   <v>       0.08037983       0.06591200       0.03808908 </v>
   <v>       0.34773724      -0.42495177       0.15487010 </v>
   <v>       0.46040046       0.94727420      -0.16726211 </v>
   <v>      -0.17572834      -2.04710971      -0.33078761 </v>
   <v>      -0.03839197       0.20530962      -0.24403278 </v>
   <v>      -0.23238781      -0.03792946      -0.06708418 </v>
   <v>      -0.42939409      -0.00049874      -0.24297483 </v>
   <v>       0.09021475      -0.09343985      -0.14825592 </v>
   <v>       0.01118569       0.11810076      -0.09193870 </v>
   <v>       0.29049056       0.09578143      -0.26841104 </v>
   <v>      -0.18541851       0.19132997      -0.30194687 </v>
   <v>      -0.16114514      -0.25227608      -0.19435611 </v>
   <v>       0.41789992       0.08196834       0.10350754 </v>
   <v>      -0.00639313      -0.10315879      -0.33422367 </v>
   <v>       0.11009285       0.12226917      -0.14147390 </v>
   <v>       0.18243698      -0.07445320      -0.16105667 </v>
   <v>      -0.37808293       0.17027110      -0.27898110 </v>
   <v>      -0.03253575      -0.22137269      -0.01050664 </v>
   <v>       0.25423094       0.08495790       0.34767826 </v>
   <v>      -0.43302218      -0.07697903       0.21017014 </v>
   <v>       0.21800909       0.16436004      -0.08816634 </v>
   <v>      -0.01643100      -0.16053048       0.24982075 </v>
   <v>      -0.17153063       0.24629225       0.14014308 </v>
   <v>       0.41749992      -0.18305460       0.18966499 </v>
   <v>      -0.19941571       0.11047482       0.22999741 </v>
   <v>      -0.00628683      -0.12851230       0.02492207 </v>
   <v>       0.60263719      -0.56496464      -0.59637628 </v>
   <v>      -0.67816030      -0.08165615      -0.76597541 </v>
   <v>      -0.54503930      -2.57494347      -0.64839687 </v>
   <v>      -0.65914056       0.55486227      -0.60820161 </v>
   <v>       0.02400259       0.38022026      -0.61656927 </v>
   <v>       0.23567231      -0.28599267      -0.28253204 </v>
   <v>      -0.30405345       0.22087428       0.24453455 </v>
   <v>       1.18982752       0.33163327       0.03378628 </v>
   <v>       0.97476845       0.40137695       0.38604679 </v>
   <v>       0.61791534       2.49234491       0.68299620 </v>
   <v>       0.34531174       0.02184429       0.73307792 </v>
   <v>      -0.41537500      -0.39909143       0.96817367 </v>
   <v>      -1.20086868      -1.29545759       0.08262944 </v>
   <v>      -0.61005134      -0.39235008      -0.01230643 </v>
   <v>      -0.05839064       0.33380576      -0.00110178 </v>
   <v>       0.26773641      -0.27354471      -0.16579871 </v>
  </varray>
  <varray name="stress" >
   <v>       5.45439340       0.92644463      -0.13396055 </v>
   <v>       0.92644460       3.84950763       0.26958155 </v>
   <v>      -0.13396051       0.26958137       4.87355681 </v>
  </varray>
  <energy>
   <i name="e_fr_energy">   -305.43583186 </i>
   <i name="e_wo_entrp">   -305.43583186 </i>
   <i name="e_0_energy">      0.00000000 </i>
  </energy>
  <time name="totalsc">  888.07  893.89</time>
 </calculation>
 <calculation>
  <scstep>
   <time name="dav">   67.21   67.32</time>
   <time name="total">   67.99   68.10</time>
   <energy>
    <i name="alphaZ">   1069.54238239 </i>
    <i name="ewald"> -30779.38270529 </i>
    <i name="hartreedc"> -12764.55314827 </i>
    <i name="XCdc">   1343.03955003 </i>
    <i name="pawpsdc">  43979.65843514 </i>
    <i name="pawaedc"> -43376.73865592 </i>
    <i name="eentropy">      0.00000000 </i>
    <i name="bandstr">  -4170.94511091 </i>
    <i name="atom">  44408.54722957 </i>
    <i name="e_fr_energy">   -290.83202326 </i>
    <i name="e_wo_entrp">   -290.83202326 </i>
    <i name="e_0_energy">   -290.83202326 </i>
   </energy>
  </scstep>
  <scstep>
   <time name="dav">   67.93   68.10</time>
   <time name="total">   68.72   68.89</time>
   <energy>
    <i name="e_fr_energy">   -292.79748039 </i>
    <i name="e_wo_entrp">   -292.79748039 </i>
    <i name="e_0_energy">   -292.79748039 </i>
   </energy>
  </scstep>
  <scstep>
   <time name="dav">   82.86   83.59</time>
   <time name="total">   83.65   84.38</time>
   <energy>
    <i name="e_fr_energy">   -292.77161242 </i>
    <i name="e_wo_entrp">   -292.77161242 </i>
    <i name="e_0_energy">   -292.77161242 </i>
   </energy>
  </scstep>
  <scstep>
   <time name="dav">   76.11   76.76</time>
   <time name="total">   76.90   77.55</time>
   <energy>
    <i name="e_fr_energy">   -292.73638714 </i>
    <i name="e_wo_entrp">   -292.73638714 </i>
    <i name="e_0_energy">   -292.73638714 </i>
   </energy>
  </scstep>
  <scstep>
   <time name="dav">   74.40   75.11</time>
   <time name="total">   75.18   75.90</time>
   <energy>
    <i name="e_fr_energy">   -292.71020737 </i>
    <i name="e_wo_entrp">   -292.71020737 </i>
    <i name="e_0_energy">   -292.71020737 </i>
   </energy>
  </scstep>
  <scstep>
   <time name="dav">   76.28   76.79</time>
   <time name="total">   77.06   77.58</time>
   <energy>
    <i name="e_fr_energy">   -292.70560883 </i>
    <i name="e_wo_entrp">   -292.70560883 </i>
    <i name="e_0_energy">   -292.70560883 </i>
   </energy>
  </scstep>
  <scstep>
   <time name="dav">   71.12   71.42</time>
   <time name="total">   71.90   72.21</time>
   <energy>
    <i name="e_fr_energy">   -292.70602074 </i>
    <i name="e_wo_entrp">   -292.70602074 </i>
    <i name="e_0_energy">   -292.70602074 </i>
   </energy>
  </scstep>
  <scstep>
   <time name="dav">   96.03   96.37</time>
   <time name="total">   96.82   97.16</time>
   <energy>
    <i name="e_fr_energy">   -292.70591580 </i>
    <i name="e_wo_entrp">   -292.70591580 </i>
    <i name="e_0_energy">   -292.70591580 </i>
   </energy>
  </scstep>
  <scstep>
   <time name="dav">   77.84   81.39</time>
   <time name="total">   78.64   82.93</time>
   <energy>
    <i name="e_fr_energy">   -292.70581296 </i>
    <i name="e_wo_entrp">   -292.70581296 </i>
    <i name="e_0_energy">   -292.70581296 </i>
   </energy>
  </scstep>
  <scstep>
   <time name="dav">   74.05   74.44</time>
   <time name="total">   74.85   75.25</time>
   <energy>
    <i name="e_fr_energy">   -292.70581732 </i>
    <i name="e_wo_entrp">   -292.70581732 </i>
    <i name="e_0_energy">   -292.70581732 </i>
   </energy>
  </scstep>
  <scstep>
   <time name="dav">   69.30   69.93</time>
   <time name="total">   70.09   70.73</time>
   <energy>
    <i name="e_fr_energy">   -292.70581305 </i>
    <i name="e_wo_entrp">   -292.70581305 </i>
    <i name="e_0_energy">   -292.70581305 </i>
   </energy>
  </scstep>
  <scstep>
   <time name="dav">   67.39   67.71</time>
   <time name="total">   68.18   68.50</time>
   <energy>
    <i name="e_fr_energy">   -292.70581463 </i>
    <i name="e_wo_entrp">   -292.70581463 </i>
    <i name="e_0_energy">   -292.70581463 </i>
   </energy>
  </scstep>
  <scstep>
   <time name="dav">   61.90   62.97</time>
   <time name="total">   62.68   63.76</time>
   <energy>
    <i name="e_fr_energy">   -292.70581614 </i>
    <i name="e_wo_entrp">   -292.70581614 </i>
    <i name="e_0_energy">   -292.70581614 </i>
   </energy>
  </scstep>
  <scstep>
   <time name="dav">   58.71   59.34</time>
   <time name="total">   59.50   60.13</time>
   <energy>
    <i name="e_fr_energy">   -292.70581722 </i>
    <i name="e_wo_entrp">   -292.70581722 </i>
    <i name="e_0_energy">   -292.70581722 </i>
   </energy>
  </scstep>
  <scstep>
   <time name="dav">   43.13   43.37</time>
   <time name="total">   43.20   43.44</time>
   <energy>
    <i name="alphaZ">   1069.54238239 </i>
    <i name="ewald"> -30779.38270529 </i>
    <i name="hartreedc"> -12809.20038257 </i>
    <i name="XCdc">   1345.18706980 </i>
    <i name="pawpsdc">  43685.42249746 </i>
    <i name="pawaedc"> -43077.84960524 </i>
    <i name="eentropy">      0.00000000 </i>
    <i name="bandstr">  -4134.97230361 </i>
    <i name="atom">  44408.54722957 </i>
    <i name="e_fr_energy">   -292.70581750 </i>
    <i name="e_wo_entrp">   -292.70581750 </i>
    <i name="e_0_energy">   -292.70581750 </i>
   </energy>
  </scstep>
  <structure>
   <crystal>
    <varray name="basis" >
     <v>      11.19212285       0.00164259      -0.00745890 </v>
     <v>       0.00138345       9.52092122       0.00230544 </v>
     <v>      -0.00746300       0.00269831      11.20630195 </v>
    </varray>
    <i name="volume">   1194.13528981 </i>
    <varray name="rec_basis" >
     <v>       0.08934860      -0.00001300       0.00005951 </v>
     <v>      -0.00001543       0.10503186      -0.00002530 </v>
     <v>       0.00005947      -0.00002162       0.08923555 </v>
    </varray>
   </crystal>
   <varray name="positions" >
    <v>       0.13099466       0.99938941       0.19645999 </v>
    <v>       0.88489370       0.00128541       0.43736910 </v>
    <v>       0.61843320       0.00002904       0.18561804 </v>
    <v>       0.87647478      -0.00140672       0.19242193 </v>
    <v>       0.37665039       0.00141122       0.94049566 </v>
    <v>       0.36511764      -0.00102157       0.68123030 </v>
    <v>       0.61991641       0.00041641       0.94202192 </v>
    <v>       0.88397743       0.00167869       0.68148360 </v>
    <v>       0.61657441       0.99979998       0.42981177 </v>
    <v>       0.13339010       0.99915381       0.93173310 </v>
    <v>       0.87194925      -0.00136346       0.93740677 </v>
    <v>       0.62228811       0.99966967       0.69026722 </v>
    <v>       0.00362395       0.30831929       0.06716981 </v>
    <v>       0.25215600       0.70361078       0.06754673 </v>
    <v>       0.25077805       0.29015469       0.31552586 </v>
    <v>       0.49325886       0.70835714       0.31260346 </v>
[...]
       <r>    8.6102    0.0000 </r>
       <r>    8.6672    0.0000 </r>
       <r>    8.7007    0.0000 </r>
       <r>    8.7507    0.0000 </r>
       <r>    8.7980    0.0000 </r>
       <r>    8.8192    0.0000 </r>
       <r>    8.8909    0.0000 </r>
      </set>
     </set>
    </set>
   </array>
  </eigenvalues>
  <separator name="orbital magnetization" >
   <v name="MAGDIPOLOUT">      0.00000000      0.00000000      0.00000000</v>
  </separator>
  <dos>
   <i name="efermi">      4.12238204 </i>
   <total>
    <array>
     <dimension dim="1">gridpoints</dimension>
     <dimension dim="2">spin</dimension>
     <field>energy</field>
     <field>total</field>
     <field>integrated</field>
     <set>
      <set comment="spin 1">
       <r>   -42.4781     0.0000     0.0000 </r>
       <r>   -42.2962     0.0000     0.0000 </r>
       <r>   -42.1144     0.0000     0.0000 </r>
       <r>   -41.9325     0.0000     0.0000 </r>
       <r>   -41.7506     0.0000     0.0000 </r>
       <r>   -41.5688     0.0000     0.0000 </r>
       <r>   -41.3869     0.0000     0.0000 </r>
       <r>   -41.2051     0.0000     0.0000 </r>
       <r>   -41.0232     0.0000     0.0000 </r>
       <r>   -40.8414     0.0000     0.0000 </r>
       <r>   -40.6595     0.0000     0.0000 </r>
       <r>   -40.4777     0.0000     0.0000 </r>
       <r>   -40.2958     0.0000     0.0000 </r>
       <r>   -40.1139     0.0000     0.0000 </r>
       <r>   -39.9321     0.0000     4.0000 </r>
       <r>   -39.7502     0.0000     4.0000 </r>
       <r>   -39.5684     0.0000    14.0000 </r>
       <r>   -39.3865     0.0000    16.0000 </r>
       <r>   -39.2047     0.0000    16.0000 </r>
       <r>   -39.0228     0.0000    16.0000 </r>
       <r>   -38.8410     0.0000    16.0000 </r>
       <r>   -38.6591     0.0000    16.0000 </r>
       <r>   -38.4772     0.0000    16.0000 </r>
       <r>   -38.2954     0.0000    16.0000 </r>
       <r>   -38.1135     0.0000    16.0000 </r>
       <r>   -37.9317     0.0000    16.0000 </r>
       <r>   -37.7498     0.0000    16.0000 </r>
       <r>   -37.5680     0.0000    16.0000 </r>
       <r>   -37.3861     0.0000    16.0000 </r>
       <r>   -37.2043     0.0000    16.0000 </r>
       <r>   -37.0224     0.0000    16.0000 </r>
       <r>   -36.8405     0.0000    16.0000 </r>
       <r>   -36.6587     0.0000    16.0000 </r>
       <r>   -36.4768     0.0000    16.0000 </r>
       <r>   -36.2950     0.0000    16.0000 </r>
       <r>   -36.1131     0.0000    16.0000 </r>
       <r>   -35.9313     0.0000    16.0000 </r>
       <r>   -35.7494     0.0000    16.0000 </r>
       <r>   -35.5676     0.0000    16.0000 </r>
       <r>   -35.3857     0.0000    16.0000 </r>
       <r>   -35.2038     0.0000    16.0000 </r>
       <r>   -35.0220     0.0000    16.0000 </r>
       <r>   -34.8401     0.0000    16.0000 </r>
       <r>   -34.6583     0.0000    16.0000 </r>
       <r>   -34.4764     0.0000    16.0000 </r>
       <r>   -34.2946     0.0000    16.0000 </r>
       <r>   -34.1127     0.0000    16.0000 </r>
       <r>   -33.9309     0.0000    16.0000 </r>
       <r>   -33.7490     0.0000    16.0000 </r>
       <r>   -33.5671     0.0000    16.0000 </r>
       <r>   -33.3853     0.0000    16.0000 </r>
       <r>   -33.2034     0.0000    16.0000 </r>
       <r>   -33.0216     0.0000    16.0000 </r>
       <r>   -32.8397     0.0000    16.0000 </r>
       <r>   -32.6579     0.0000    16.0000 </r>
       <r>   -32.4760     0.0000    16.0000 </r>
       <r>   -32.2942     0.0000    16.0000 </r>
       <r>   -32.1123     0.0000    16.0000 </r>
       <r>   -31.9305     0.0000    16.0000 </r>
       <r>   -31.7486     0.0000    16.0000 </r>
       <r>   -31.5667     0.0000    16.0000 </r>
       <r>   -31.3849     0.0000    16.0000 </r>
       <r>   -31.2030     0.0000    16.0000 </r>
       <r>   -31.0212     0.0000    16.0000 </r>
       <r>   -30.8393     0.0000    16.0000 </r>
       <r>   -30.6575     0.0000    16.0000 </r>
       <r>   -30.4756     0.0000    16.0000 </r>
       <r>   -30.2938     0.0000    16.0000 </r>
       <r>   -30.1119     0.0000    16.0000 </r>
       <r>   -29.9300     0.0000    16.0000 </r>
       <r>   -29.7482     0.0000    16.0000 </r>
       <r>   -29.5663     0.0000    16.0000 </r>
       <r>   -29.3845     0.0000    16.0000 </r>
       <r>   -29.2026     0.0000    16.0000 </r>
       <r>   -29.0208     0.0000    16.0000 </r>
       <r>   -28.8389     0.0000    16.0000 </r>
       <r>   -28.6571     0.0000    16.0000 </r>
       <r>   -28.4752     0.0000    16.0000 </r>
       <r>   -28.2933     0.0000    16.0000 </r>
       <r>   -28.1115     0.0000    16.0000 </r>
       <r>   -27.9296     0.0000    16.0000 </r>
       <r>   -27.7478     0.0000    16.0000 </r>
       <r>   -27.5659     0.0000    16.0000 </r>
       <r>   -27.3841     0.0000    16.0000 </r>
       <r>   -27.2022     0.0000    16.0000 </r>
       <r>   -27.0204     0.0000    16.0000 </r>
       <r>   -26.8385     0.0000    16.0000 </r>
       <r>   -26.6566     0.0000    16.0000 </r>
       <r>   -26.4748     0.0000    16.0000 </r>
       <r>   -26.2929     0.0000    16.0000 </r>
       <r>   -26.1111     0.0000    16.0000 </r>
       <r>   -25.9292     0.0000    16.0000 </r>
       <r>   -25.7474     0.0000    16.0000 </r>
       <r>   -25.5655     0.0000    16.0000 </r>
       <r>   -25.3837     0.0000    16.0000 </r>
       <r>   -25.2018     0.0000    16.0000 </r>
       <r>   -25.0199     0.0000    16.0000 </r>
       <r>   -24.8381     0.0000    16.0000 </r>
       <r>   -24.6562     0.0000    16.0000 </r>
       <r>   -24.4744     0.0000    16.0000 </r>
       <r>   -24.2925     0.0000    16.0000 </r>
       <r>   -24.1107     0.0000    16.0000 </r>
       <r>   -23.9288     0.0000    16.0000 </r>
       <r>   -23.7470     0.0000    16.0000 </r>
       <r>   -23.5651     0.0000    16.0000 </r>
       <r>   -23.3832     0.0000    16.0000 </r>
       <r>   -23.2014     0.0000    16.0000 </r>
       <r>   -23.0195     0.0000    16.0000 </r>
       <r>   -22.8377     0.0000    16.0000 </r>
       <r>   -22.6558     0.0000    16.0000 </r>
       <r>   -22.4740     0.0000    16.0000 </r>
       <r>   -22.2921     0.0000    16.0000 </r>
       <r>   -22.1103     0.0000    16.0000 </r>
       <r>   -21.9284     0.0000    16.0000 </r>
       <r>   -21.7465     0.0000    16.0000 </r>
       <r>   -21.5647     0.0000    16.0000 </r>
       <r>   -21.3828     0.0000    16.0000 </r>
       <r>   -21.2010     0.0000    16.0000 </r>
       <r>   -21.0191     0.0000    16.0000 </r>
       <r>   -20.8373     0.0000    16.0000 </r>
       <r>   -20.6554     0.0000    16.0000 </r>
       <r>   -20.4736     0.0000    16.0000 </r>
       <r>   -20.2917     0.0000    16.0000 </r>
       <r>   -20.1098     0.0000    16.0000 </r>
       <r>   -19.9280     0.0000    16.0000 </r>
       <r>   -19.7461     0.0000    16.0000 </r>
       <r>   -19.5643     0.0000    16.0000 </r>
       <r>   -19.3824     0.0000    16.0000 </r>
       <r>   -19.2006     0.0000    16.0000 </r>
       <r>   -19.0187     0.0000    16.0000 </r>
       <r>   -18.8369     0.0000    38.0000 </r>
       <r>   -18.6550     0.0000   116.0000 </r>
       <r>   -18.4732     0.0000   164.0000 </r>
       <r>   -18.2913     0.0000   176.0000 </r>
       <r>   -18.1094     0.0000   176.0000 </r>
       <r>   -17.9276     0.0000   176.0000 </r>
       <r>   -17.7457     0.0000   176.0000 </r>
       <r>   -17.5639     0.0000   176.0000 </r>
       <r>   -17.3820     0.0000   176.0000 </r>
       <r>   -17.2002     0.0000   176.0000 </r>
       <r>   -17.0183     0.0000   176.0000 </r>
       <r>   -16.8365     0.0000   176.0000 </r>
       <r>   -16.6546     0.0000   176.0000 </r>
       <r>   -16.4727     0.0000   176.0000 </r>
       <r>   -16.2909     0.0000   176.0000 </r>
       <r>   -16.1090     0.0000   176.0000 </r>
       <r>   -15.9272     0.0000   176.0000 </r>
       <r>   -15.7453     0.0000   176.0000 </r>
       <r>   -15.5635     0.0000   176.0000 </r>
       <r>   -15.3816     0.0000   176.0000 </r>
       <r>   -15.1998     0.0000   176.0000 </r>
       <r>   -15.0179     0.0000   176.0000 </r>
       <r>   -14.8360     0.0000   176.0000 </r>
       <r>   -14.6542     0.0000   176.0000 </r>
       <r>   -14.4723     0.0000   176.0000 </r>
       <r>   -14.2905     0.0000   176.0000 </r>
       <r>   -14.1086     0.0000   176.0000 </r>
       <r>   -13.9268     0.0000   176.0000 </r>
       <r>   -13.7449     0.0000   176.0000 </r>
       <r>   -13.5631     0.0000   176.0000 </r>
       <r>   -13.3812     0.0000   178.0000 </r>
       <r>   -13.1993     0.0000   180.0000 </r>
       <r>   -13.0175     0.0000   184.0000 </r>
       <r>   -12.8356     0.0000   194.0000 </r>
       <r>   -12.6538     0.0000   202.0000 </r>
       <r>   -12.4719     0.0000   204.0000 </r>
       <r>   -12.2901     0.0000   208.0000 </r>
       <r>   -12.1082     0.0000   208.0000 </r>
       <r>   -11.9264     0.0000   208.0000 </r>
       <r>   -11.7445     0.0000   208.0000 </r>
       <r>   -11.5626     0.0000   208.0000 </r>
       <r>   -11.3808     0.0000   208.0000 </r>
       <r>   -11.1989     0.0000   208.0000 </r>
       <r>   -11.0171     0.0000   208.0000 </r>
       <r>   -10.8352     0.0000   208.0000 </r>
       <r>   -10.6534     0.0000   208.0000 </r>
       <r>   -10.4715     0.0000   208.0000 </r>
       <r>   -10.2897     0.0000   208.0000 </r>
       <r>   -10.1078     0.0000   208.0000 </r>
       <r>    -9.9259     0.0000   208.0000 </r>
       <r>    -9.7441     0.0000   208.0000 </r>
       <r>    -9.5622     0.0000   208.0000 </r>
       <r>    -9.3804    13.6599   208.9560 </r>
       <r>    -9.1985    12.2961   210.1411 </r>
       <r>    -9.0167     4.5149   212.0016 </r>
       <r>    -8.8348    20.7128   213.3685 </r>
       <r>    -8.6530    22.3340   216.4935 </r>
       <r>    -8.4711    16.8704   220.7319 </r>
       <r>    -8.2892     4.5121   223.8680 </r>
       <r>    -8.1074    43.1562   227.4202 </r>
       <r>    -7.9255    25.4147   233.3492 </r>
       <r>    -7.7437     6.4329   236.1305 </r>
       <r>    -7.5618    10.5773   239.6970 </r>
       <r>    -7.3800     0.0000   240.0000 </r>
       <r>    -7.1981     0.0000   240.0000 </r>
       <r>    -7.0163     0.0000   240.0000 </r>
       <r>    -6.8344     0.0000   240.0000 </r>
       <r>    -6.6526     0.0000   240.0000 </r>
       <r>    -6.4707     0.0000   240.0000 </r>
       <r>    -6.2888    22.6697   241.5839 </r>
       <r>    -6.1070    15.9923   246.1099 </r>
       <r>    -5.9251    15.6850   249.3017 </r>
       <r>    -5.7433    26.6668   254.2368 </r>
       <r>    -5.5614    23.1847   257.9900 </r>
       <r>    -5.3796    12.3546   261.8659 </r>
       <r>    -5.1977     5.4742   263.6029 </r>
       <r>    -5.0159     9.0631   264.6959 </r>
       <r>    -4.8340     9.1569   266.9006 </r>
       <r>    -4.6521     7.6237   268.2610 </r>
       <r>    -4.4703     6.5863   269.2585 </r>
       <r>    -4.2884     8.0252   270.7810 </r>
       <r>    -4.1066     2.4898   271.6022 </r>
       <r>    -3.9247     1.0565   271.9245 </r>
       <r>    -3.7429     0.0035   272.0000 </r>
       <r>    -3.5610     0.0000   272.0000 </r>
       <r>    -3.3792     0.0000   272.0000 </r>
       <r>    -3.1973     0.0000   272.0000 </r>
       <r>    -3.0154     0.0000   272.0000 </r>
       <r>    -2.8336     0.0000   272.0000 </r>
       <r>    -2.6517     0.0000   272.0000 </r>
       <r>    -2.4699     0.0000   272.0000 </r>
       <r>    -2.2880     0.0000   272.0000 </r>
       <r>    -2.1062     0.0000   272.0000 </r>
       <r>    -1.9243     0.0000   272.0000 </r>
       <r>    -1.7425     0.0000   272.0000 </r>
       <r>    -1.5606     0.0000   272.0000 </r>
       <r>    -1.3787     2.1441   272.0390 </r>
       <r>    -1.1969     7.2748   273.2483 </r>
       <r>    -1.0150     5.6780   274.5274 </r>
       <r>    -0.8332    14.7360   276.3068 </r>
       <r>    -0.6513    10.2556   278.7875 </r>
       <r>    -0.4695    24.6290   281.3157 </r>
       <r>    -0.2876    29.1510   286.8189 </r>
       <r>    -0.1058    36.0378   292.8231 </r>
       <r>     0.0761    43.1416   300.2741 </r>
       <r>     0.2580    44.5713   307.2453 </r>
       <r>     0.4398    28.8663   312.6872 </r>
       <r>     0.6217    37.9843   320.2174 </r>
       <r>     0.8035    29.2895   326.1697 </r>
       <r>     0.9854    50.1290   334.0635 </r>
       <r>     1.1672    37.1261   342.4438 </r>
       <r>     1.3491    46.7731   351.1234 </r>
       <r>     1.5309    39.3159   359.9786 </r>
       <r>     1.7128    48.7471   367.4620 </r>
       <r>     1.8947    39.3469   375.6391 </r>
       <r>     2.0765    48.0001   383.7326 </r>
       <r>     2.2584    58.9818   394.0521 </r>
       <r>     2.4402    68.2696   406.3991 </r>
       <r>     2.6221    61.9572   418.0378 </r>
       <r>     2.8039    77.0623   428.7924 </r>
       <r>     2.9858    55.4430   438.9577 </r>
       <r>     3.1676    37.9002   446.8131 </r>
       <r>     3.3495    42.6020   452.8343 </r>
       <r>     3.5314    22.6431   459.0995 </r>
       <r>     3.7132    12.1701   462.1401 </r>
       <r>     3.8951     4.7011   463.6740 </r>
       <r>     4.0769     0.0033   464.0000 </r>
       <r>     4.2588     0.0000   464.0000 </r>
       <r>     4.4406     0.0000   464.0000 </r>
       <r>     4.6225     0.0000   464.0000 </r>
       <r>     4.8043     0.0000   464.0000 </r>
       <r>     4.9862     0.0000   464.0000 </r>
       <r>     5.1681     2.1338   464.0859 </r>
       <r>     5.3499     8.2458   465.0281 </r>
       <r>     5.5318    10.2894   466.8900 </r>
       <r>     5.7136    31.5073   469.6380 </r>
       <r>     5.8955    14.7551   473.3779 </r>
       <r>     6.0773    13.2520   475.9010 </r>
       <r>     6.2592    13.6687   478.3112 </r>
       <r>     6.4410    15.1902   480.9306 </r>
       <r>     6.6229    17.0489   483.8640 </r>
       <r>     6.8047    19.6709   487.1817 </r>
       <r>     6.9866    22.4630   491.0421 </r>
       <r>     7.1685    21.3734   495.0455 </r>
       <r>     7.3503    34.4684   500.0903 </r>
       <r>     7.5322    29.4107   506.5286 </r>
       <r>     7.7140    30.5773   511.9880 </r>
       <r>     7.8959    33.0009   517.7970 </r>
       <r>     8.0777    31.1363   523.8707 </r>
       <r>     8.2596    27.9694   529.1422 </r>
       <r>     8.4414    33.2511   534.4382 </r>
       <r>     8.6233    36.2862   540.9976 </r>
       <r>     8.8052    34.4768   547.5967 </r>
       <r>     8.9870    23.8764   552.6502 </r>
       <r>     9.1689    14.7594   556.2725 </r>
       <r>     9.3507     9.1593   558.4200 </r>
       <r>     9.5326    14.0270   559.5960 </r>
       <r>     9.7144     0.0000   560.0000 </r>
       <r>     9.8963     0.0000   560.0000 </r>
       <r>    10.0781     0.0000   560.0000 </r>
       <r>    10.2600     0.0000   560.0000 </r>
       <r>    10.4419     0.0000   560.0000 </r>
       <r>    10.6237     0.0000   560.0000 </r>
       <r>    10.8056     0.0000   560.0000 </r>
       <r>    10.9874     0.0000   560.0000 </r>
       <r>    11.1693     0.0000   560.0000 </r>
       <r>    11.3511     0.0000   560.0000 </r>
       <r>    11.5330     0.0000   560.0000 </r>
       <r>    11.7148     0.0000   560.0000 </r>
       <r>    11.8967     0.0000   560.0000 </r>
       <r>    12.0786     0.0000   560.0000 </r>
      </set>
     </set>
    </array>
   </total>
  </dos>
 </calculation>
 <structure name="finalpos" >
  <crystal>
   <varray name="basis" >
    <v>      11.20534085       0.03697988       0.01006488 </v>
    <v>       0.02452587       9.60254206      -0.10223086 </v>
    <v>       0.01345638      -0.12040704      11.23547228 </v>
   </varray>
   <i name="volume">   1208.78458338 </i>
   <varray name="rec_basis" >
    <v>       0.08924401      -0.00022910      -0.00010934 </v>
    <v>      -0.00034473       0.10415186       0.00111658 </v>
    <v>      -0.00008308       0.00094788       0.08901408 </v>
   </varray>
  </crystal>
  <varray name="positions" >
   <v>       0.14559051       0.95921058       0.23040439 </v>
   <v>       0.89415507       0.01418295       0.41051065 </v>
   <v>       0.61789794      -0.00132206       0.17095848 </v>
   <v>       0.87373883      -0.00244902       0.17476175 </v>
   <v>       0.35003779       0.02132258       0.12888488 </v>
   <v>       0.33478596      -0.02745240       0.74052784 </v>
   <v>       0.59028742       0.01002481       0.93187724 </v>
   <v>       0.09773482      -0.02372513       0.59056163 </v>
   <v>       0.62601021       0.00645024       0.42552406 </v>
   <v>       0.11789135      -0.00549469       0.94633474 </v>
   <v>       0.85572325      -0.00221791       0.92334657 </v>
   <v>       0.63279940       0.00190712       0.68495043 </v>
   <v>      -0.00563815       0.31254812       0.05820577 </v>
   <v>       0.24279731       0.68719566       0.06347863 </v>
   <v>       0.25132790       0.29134763       0.30953101 </v>
   <v>       0.49835464       0.70253212       0.30701627 </v>
   <v>       0.49632724       0.30527678       0.06363907 </v>
   <v>       0.74585527       0.69615936       0.05986055 </v>
   <v>       0.75010864       0.31130396       0.31421389 </v>
   <v>      -0.00430979       0.69789123       0.30836613 </v>
   <v>      -0.00049018       0.30166549       0.55394239 </v>
   <v>       0.24900237       0.69436635       0.56370061 </v>
   <v>       0.24266153       0.29616295       0.81496473 </v>
   <v>       0.49854189       0.69810719       0.80597718 </v>
   <v>       0.49725466       0.31696055       0.56102586 </v>
   <v>       0.74841923       0.68871929       0.55581334 </v>
   <v>       0.74280967       0.31157612       0.81161129 </v>
   <v>      -0.00024307       0.68168094       0.81132916 </v>
   <v>       0.24885053       0.35320452       0.05989449 </v>
   <v>      -0.00547902       0.63432736       0.06193766 </v>
   <v>       0.50151220       0.35044895       0.30955027 </v>
   <v>       0.24438855       0.70489390       0.31529109 </v>
   <v>       0.74850626       0.35411890       0.05679242 </v>
   <v>       0.49739531       0.66996543       0.06247982 </v>
   <v>      -0.00101161       0.34353612       0.30615645 </v>
   <v>       0.74698523       0.64439438       0.31348219 </v>
   <v>       0.25300011       0.29280016       0.56173668 </v>
   <v>      -0.00446193       0.71406745       0.56421849 </v>
   <v>       0.50100470       0.34726568       0.81020318 </v>
   <v>       0.24576020       0.64946147       0.81849380 </v>
   <v>       0.75328636       0.36178869       0.55906354 </v>
   <v>       0.49788948       0.64858343       0.56420879 </v>
   <v>      -0.00227912       0.34222848       0.80896664 </v>
   <v>       0.74511455       0.65527054       0.81576087 </v>
   <v>       0.50474481       0.09058907       0.06508319 </v>
   <v>       0.21606209       0.90322246       0.06752143 </v>
   <v>       0.26114816       0.09018701       0.26391805 </v>
   <v>      -0.01874624       0.90975229       0.28379402 </v>
   <v>       0.97629583       0.09145749       0.03368416 </v>
   <v>       0.75196060       0.91786166       0.05328110 </v>
   <v>       0.75016724       0.08986406       0.31561730 </v>
   <v>       0.53795350       0.90994336       0.30028073 </v>
   <v>       0.54838174       0.10782054       0.56053550 </v>
   <v>       0.25059772       0.89860867       0.60617973 </v>
   <v>       0.23096852       0.08532459       0.83883613 </v>
   <v>      -0.00779797       0.89417610       0.85286662 </v>
   <v>       0.98123017       0.09442254       0.53746214 </v>
   <v>       0.71734644       0.90412019       0.55031579 </v>
   <v>       0.72932895       0.08683080       0.82173399 </v>
   <v>       0.51046495       0.91559289       0.79193522 </v>
  </varray>
 </structure>
</modeling>
