<?xml version="1.0" encoding="ISO-8859-1"?>
<modeling>
 <generator>
  <i name="program" type="string">vasp </i>
  <i name="version" type="string">5.4.4.18Apr17-6-g9f103f2a35  </i>
  <i name="subversion" type="string">(build Jul 31 2017 11:33:29) complex            parallel </i>
  <i name="platform" type="string">LinuxIFC </i>
  <i name="date" type="string">2021 09 29 </i>
  <i name="time" type="string">16:51:32 </i>
 </generator>
 <incar>
  <i type="string" name="SYSTEM"> La2O2S</i>
  <i type="string" name="PREC">normal</i>
  <i type="int" name="NELMIN">     4</i>
  <i type="int" name="IBRION">     2</i>
  <i type="int" name="NFREE">    10</i>
  <i name="EDIFF">      0.00000100</i>
  <i name="EDIFFG">     -0.01000000</i>
  <i type="int" name="NSW">     1</i>
  <i type="int" name="ISIF">     2</i>
  <i name="ENCUT">    600.00000000</i>
  <i name="ENAUG">    900.00000000</i>
  <i type="int" name="ISMEAR">    -5</i>
  <i type="logical" name="LWAVE"> F  </i>
  <i type="logical" name="LCHARG"> F  </i>
  <v type="int" name="KPOINT_BSE">    -1     0     0     0</v>
 </incar>
 <structure name="primitive_cell" >
  <crystal>
   <varray name="basis" >
    <v>      11.17850000       0.00000000       0.00000000 </v>
    <v>       0.00000000       9.57460000       0.00000000 </v>
    <v>       0.00000000       0.00000000      11.18240000 </v>
   </varray>
   <i name="volume">   1196.84853820 </i>
   <varray name="rec_basis" >
    <v>       0.08945744       0.00000000       0.00000000 </v>
    <v>       0.00000000       0.10444301       0.00000000 </v>
    <v>       0.00000000       0.00000000       0.08942624 </v>
   </varray>
  </crystal>
  <varray name="positions" >
   <v>       0.37461000       0.00017000       0.18687000 </v>
   <v>       0.24987000      -0.07798000       0.06246000 </v>
   <v>       0.49987000       0.07798000       0.06246000 </v>
   <v>       0.25013000       0.07798000       0.31246000 </v>
   <v>      -0.49987000      -0.07798000       0.31246000 </v>
   <v>      -0.37539000      -0.00016000       0.18687000 </v>
   <v>       0.37539000       0.00017000      -0.06313000 </v>
   <v>       0.37539000       0.00017000       0.43687000 </v>
   <v>       0.25013000      -0.29519000       0.06281000 </v>
   <v>      -0.49987000       0.29519000       0.06281000 </v>
   <v>       0.24987000       0.29519000       0.31282000 </v>
   <v>       0.49987000      -0.29519000       0.31282000 </v>
   <v>       0.25005000       0.32677000       0.06286000 </v>
   <v>      -0.49995000      -0.32677000       0.06286000 </v>
   <v>       0.24995000      -0.32677000       0.31286000 </v>
   <v>       0.49995000       0.32677000       0.31286000 </v>
   <v>       0.12539000      -0.00016000      -0.06313000 </v>
   <v>      -0.37461000      -0.00016000      -0.06313000 </v>
   <v>       0.25013000       0.07798000      -0.18754000 </v>
   <v>      -0.00013000       0.07798000       0.06246000 </v>
   <v>       0.00013000      -0.07798000       0.31246000 </v>
   <v>      -0.49987000      -0.07798000      -0.18754000 </v>
   <v>      -0.25013000      -0.07798000       0.06246000 </v>
   <v>       0.24987000      -0.07798000      -0.43754000 </v>
   <v>      -0.24987000       0.07798000       0.31246000 </v>
   <v>       0.49987000       0.07798000      -0.43754000 </v>
   <v>       0.24987000       0.29519000      -0.18718000 </v>
   <v>       0.00013000       0.29519000       0.06281000 </v>
   <v>       0.49987000      -0.29519000      -0.18718000 </v>
   <v>      -0.00013000      -0.29519000       0.31282000 </v>
   <v>      -0.24987000      -0.29519000       0.06281000 </v>
   <v>      -0.25013000       0.29519000       0.31282000 </v>
   <v>       0.25013000      -0.29519000      -0.43719000 </v>
   <v>      -0.49987000       0.29519000      -0.43719000 </v>
   <v>       0.24995000      -0.32677000      -0.18714000 </v>
   <v>       0.49995000       0.32677000      -0.18714000 </v>
   <v>       0.00005000      -0.32677000       0.06286000 </v>
   <v>      -0.00005000       0.32677000       0.31286000 </v>
   <v>      -0.24995000       0.32677000       0.06286000 </v>
   <v>      -0.25005000      -0.32677000       0.31286000 </v>
   <v>       0.25005000       0.32677000      -0.43714000 </v>
   <v>      -0.49995000      -0.32677000      -0.43714000 </v>
   <v>      -0.12539000       0.00017000       0.18687000 </v>
   <v>       0.00013000      -0.07798000      -0.18754000 </v>
   <v>      -0.24987000       0.07798000      -0.18754000 </v>
   <v>      -0.00013000       0.07798000      -0.43754000 </v>
   <v>      -0.25013000      -0.07798000      -0.43754000 </v>
   <v>      -0.12461000       0.00017000      -0.06313000 </v>
   <v>      -0.12461000       0.00017000       0.43687000 </v>
   <v>       0.12461000      -0.00016000      -0.31313000 </v>
   <v>      -0.37539000      -0.00016000      -0.31313000 </v>
   <v>      -0.00013000      -0.29519000      -0.18718000 </v>
   <v>      -0.25013000       0.29519000      -0.18718000 </v>
   <v>       0.00013000       0.29519000      -0.43719000 </v>
   <v>      -0.24987000      -0.29519000      -0.43719000 </v>
   <v>      -0.00005000       0.32677000      -0.18714000 </v>
   <v>      -0.25005000      -0.32677000      -0.18714000 </v>
   <v>       0.00005000      -0.32677000      -0.43714000 </v>
   <v>      -0.24995000       0.32677000      -0.43714000 </v>
  </varray>
 </structure>
 <varray name="primitive_index" >
  <v type="int" >        1 </v>
  <v type="int" >       45 </v>
  <v type="int" >       44 </v>
  <v type="int" >       46 </v>
  <v type="int" >       51 </v>
  <v type="int" >        2 </v>
  <v type="int" >        4 </v>
  <v type="int" >        7 </v>
  <v type="int" >       13 </v>
  <v type="int" >       16 </v>
  <v type="int" >       14 </v>
  <v type="int" >       15 </v>
  <v type="int" >       28 </v>
  <v type="int" >       33 </v>
  <v type="int" >       31 </v>
  <v type="int" >       30 </v>
  <v type="int" >        3 </v>
  <v type="int" >        5 </v>
  <v type="int" >       54 </v>
  <v type="int" >       48 </v>
  <v type="int" >       47 </v>
  <v type="int" >       59 </v>
  <v type="int" >       49 </v>
  <v type="int" >       53 </v>
  <v type="int" >       50 </v>
  <v type="int" >       52 </v>
  <v type="int" >       22 </v>
  <v type="int" >       12 </v>
  <v type="int" >       23 </v>
  <v type="int" >       19 </v>
  <v type="int" >       17 </v>
  <v type="int" >       18 </v>
  <v type="int" >       21 </v>
  <v type="int" >       24 </v>
  <v type="int" >       39 </v>
  <v type="int" >       38 </v>
  <v type="int" >       29 </v>
  <v type="int" >       34 </v>
  <v type="int" >       32 </v>
  <v type="int" >       35 </v>
  <v type="int" >       36 </v>
  <v type="int" >       41 </v>
  <v type="int" >        9 </v>
  <v type="int" >       55 </v>
  <v type="int" >       58 </v>
  <v type="int" >       56 </v>
  <v type="int" >       57 </v>
  <v type="int" >        6 </v>
  <v type="int" >        8 </v>
  <v type="int" >       10 </v>
  <v type="int" >       11 </v>
  <v type="int" >       27 </v>
  <v type="int" >       26 </v>
  <v type="int" >       20 </v>
  <v type="int" >       25 </v>
  <v type="int" >       42 </v>
  <v type="int" >       43 </v>
  <v type="int" >       37 </v>
  <v type="int" >       40 </v>
 </varray>
 <kpoints>
  <generation param="Gamma">
   <v type="int" name="divisions">       2        2        2 </v>
   <v name="usershift">      0.00000000       0.00000000       0.00000000 </v>
   <v name="genvec1">      0.50000000       0.00000000       0.00000000 </v>
   <v name="genvec2">      0.00000000       0.50000000       0.00000000 </v>
   <v name="genvec3">      0.00000000       0.00000000       0.50000000 </v>
   <v name="shift">      0.00000000       0.00000000       0.00000000 </v>
  </generation>
  <varray name="kpointlist" >
   <v>       0.00000000       0.00000000       0.00000000 </v>
   <v>       0.50000000       0.00000000       0.00000000 </v>
   <v>       0.00000000       0.50000000       0.00000000 </v>
   <v>       0.50000000       0.50000000       0.00000000 </v>
   <v>       0.00000000       0.00000000       0.50000000 </v>
   <v>       0.50000000       0.00000000       0.50000000 </v>
   <v>       0.00000000       0.50000000       0.50000000 </v>
   <v>       0.50000000       0.50000000       0.50000000 </v>
  </varray>
  <varray name="weights" >
   <v>       0.12500000 </v>
   <v>       0.12500000 </v>
   <v>       0.12500000 </v>
   <v>       0.12500000 </v>
   <v>       0.12500000 </v>
   <v>       0.12500000 </v>
   <v>       0.12500000 </v>
   <v>       0.12500000 </v>
  </varray>
  <varray name="tetrahedronlist"  type="int" >
   <v type="int" >        2        1        2        4        5 </v>
   <v type="int" >        2        1        3        4        5 </v>
   <v type="int" >        2        3        4        5        7 </v>
   <v type="int" >        2        2        4        5        6 </v>
   <v type="int" >        2        4        5        6        8 </v>
   <v type="int" >        2        4        5        7        8 </v>
   <v type="int" >        2        1        2        3        6 </v>
   <v type="int" >        2        2        3        4        6 </v>
   <v type="int" >        2        3        4        6        8 </v>
   <v type="int" >        2        1        3        5        6 </v>
   <v type="int" >        2        3        5        6        7 </v>
   <v type="int" >        2        3        6        7        8 </v>
   <v type="int" >        2        2        3        4        7 </v>
   <v type="int" >        2        1        2        3        7 </v>
   <v type="int" >        2        1        2        5        7 </v>
   <v type="int" >        2        2        4        7        8 </v>
   <v type="int" >        2        2        6        7        8 </v>
   <v type="int" >        2        2        5        6        7 </v>
   <v type="int" >        2        1        3        4        8 </v>
   <v type="int" >        2        1        2        4        8 </v>
   <v type="int" >        2        1        2        6        8 </v>
   <v type="int" >        2        1        3        7        8 </v>
   <v type="int" >        2        1        5        7        8 </v>
   <v type="int" >        2        1        5        6        8 </v>
  </varray>
  <i name="volumeweight">      0.02083333 </i>
 </kpoints>
 <parameters>
  <separator name="general" >
   <i type="string" name="SYSTEM">La2O2S</i>
   <i type="logical" name="LCOMPAT"> F  </i>
  </separator>
  <separator name="electronic" >
   <i type="string" name="PREC">normal</i>
   <i name="ENMAX">    600.00000000</i>
   <i name="ENAUG">    900.00000000</i>
   <i name="EDIFF">      0.00000100</i>
   <i type="int" name="IALGO">    38</i>
   <i type="int" name="IWAVPR">    11</i>
   <i type="int" name="NBANDS">   280</i>
   <i name="NELECT">    460.00000000</i>
   <i type="int" name="TURBO">     0</i>
   <i type="int" name="IRESTART">     0</i>
   <i type="int" name="NREBOOT">     0</i>
   <i type="int" name="NMIN">     0</i>
   <i name="EREF">      0.00000000</i>
   <separator name="electronic smearing" >
    <i type="int" name="ISMEAR">    -5</i>
    <i name="SIGMA">      0.20000000</i>
    <i name="KSPACING">      0.50000000</i>
    <i type="logical" name="KGAMMA"> T  </i>
   </separator>
   <separator name="electronic projectors" >
    <i type="logical" name="LREAL"> F  </i>
    <v name="ROPT">      0.00000000      0.00000000      0.00000000      0.00000000      0.00000000</v>
    <i type="int" name="LMAXPAW">  -100</i>
    <i type="int" name="LMAXMIX">     2</i>
    <i type="logical" name="NLSPLINE"> F  </i>
   </separator>
   <separator name="electronic startup" >
    <i type="int" name="ISTART">     0</i>
    <i type="int" name="ICHARG">     2</i>
    <i type="int" name="INIWAV">     1</i>
   </separator>
   <separator name="electronic spin" >
    <i type="int" name="ISPIN">     1</i>
    <i type="logical" name="LNONCOLLINEAR"> F  </i>
    <v name="MAGMOM">      1.00000000      1.00000000      1.00000000      1.00000000      1.00000000      1.00000000      1.00000000      1.00000000      1.00000000      1.00000000      1.00000000      1.00000000      1.00000000      1.00000000      1.00000000      1.00000000      1.00000000      1.00000000      1.00000000      1.00000000
      1.00000000      1.00000000      1.00000000      1.00000000      1.00000000      1.00000000      1.00000000      1.00000000      1.00000000      1.00000000      1.00000000      1.00000000      1.00000000      1.00000000      1.00000000      1.00000000      1.00000000      1.00000000      1.00000000      1.00000000
      1.00000000      1.00000000      1.00000000      1.00000000      1.00000000      1.00000000      1.00000000      1.00000000      1.00000000      1.00000000      1.00000000      1.00000000      1.00000000      1.00000000      1.00000000      1.00000000      1.00000000      1.00000000      1.00000000</v>
    <i name="NUPDOWN">     -1.00000000</i>
    <i type="logical" name="LSORBIT"> F  </i>
    <v name="SAXIS">      0.00000000      0.00000000      1.00000000</v>
    <i type="logical" name="LSPIRAL"> F  </i>
    <v name="QSPIRAL">      0.00000000      0.00000000      0.00000000</v>
    <i type="logical" name="LZEROZ"> F  </i>
   </separator>
   <separator name="electronic exchange-correlation" >
    <i type="logical" name="LASPH"> F  </i>
    <i type="logical" name="LMETAGGA"> F  </i>
   </separator>
   <separator name="electronic convergence" >
    <i type="int" name="NELM">    60</i>
    <i type="int" name="NELMDL">    -5</i>
    <i type="int" name="NELMIN">     4</i>
    <i name="ENINI">    600.00000000</i>
    <separator name="electronic convergence detail" >
     <i type="logical" name="LDIAG"> T  </i>
     <i type="logical" name="LSUBROT"> F  </i>
     <i name="WEIMIN">      0.00100000</i>
     <i name="EBREAK">      0.00000000</i>
     <i name="DEPER">      0.30000000</i>
     <i type="int" name="NRMM">     4</i>
     <i name="TIME">      0.40000000</i>
    </separator>
   </separator>
   <separator name="electronic mixer" >
    <i name="AMIX">      0.40000000</i>
    <i name="BMIX">      1.00000000</i>
    <i name="AMIN">      0.10000000</i>
    <i name="AMIX_MAG">      1.60000000</i>
    <i name="BMIX_MAG">      1.00000000</i>
    <separator name="electronic mixer details" >
     <i type="int" name="IMIX">     4</i>
     <i type="logical" name="MIXFIRST"> F  </i>
     <i type="int" name="MAXMIX">   -45</i>
     <i name="WC">    100.00000000</i>
     <i type="int" name="INIMIX">     1</i>
     <i type="int" name="MIXPRE">     1</i>
     <i type="int" name="MREMOVE">     5</i>
    </separator>
   </separator>
   <separator name="electronic dipolcorrection" >
    <i type="logical" name="LDIPOL"> F  </i>
    <i type="logical" name="LMONO"> F  </i>
    <i type="int" name="IDIPOL">     0</i>
    <i name="EPSILON">      1.00000000</i>
    <v name="DIPOL">   -100.00000000   -100.00000000   -100.00000000</v>
    <i name="EFIELD">      0.00000000</i>
   </separator>
  </separator>
  <separator name="grids" >
   <i type="int" name="NGX">    70</i>
   <i type="int" name="NGY">    60</i>
   <i type="int" name="NGZ">    70</i>
   <i type="int" name="NGXF">   140</i>
   <i type="int" name="NGYF">   120</i>
   <i type="int" name="NGZF">   140</i>
   <i type="logical" name="ADDGRID"> F  </i>
  </separator>
  <separator name="ionic" >
   <i type="int" name="NSW">     1</i>
   <i type="int" name="IBRION">     2</i>
   <i type="int" name="MDALGO">     0</i>
   <i type="int" name="ISIF">     2</i>
   <i name="PSTRESS">      0.00000000</i>
   <i name="EDIFFG">     -0.01000000</i>
   <i type="int" name="NFREE">    10</i>
   <i name="POTIM">      0.50000000</i>
   <i name="SMASS">     -3.00000000</i>
   <i name="SCALEE">      1.00000000</i>
  </separator>
  <separator name="ionic md" >
   <i name="TEBEG">      0.00010000</i>
   <i name="TEEND">      0.00010000</i>
   <i type="int" name="NBLOCK">     1</i>
   <i type="int" name="KBLOCK">     1</i>
   <i type="int" name="NPACO">   256</i>
   <i name="APACO">     16.00000000</i>
  </separator>
  <separator name="symmetry" >
   <i type="int" name="ISYM">     2</i>
   <i name="SYMPREC">      0.00001000</i>
  </separator>
  <separator name="dos" >
   <i type="int" name="LORBIT">     0</i>
   <v name="RWIGS">     -1.00000000     -1.00000000     -1.00000000     -1.00000000     -1.00000000</v>
   <i type="int" name="NEDOS">   301</i>
   <i name="EMIN">     10.00000000</i>
   <i name="EMAX">    -10.00000000</i>
   <i name="EFERMI">      0.00000000</i>
  </separator>
  <separator name="writing" >
   <i type="int" name="NWRITE">     2</i>
   <i type="logical" name="LWAVE"> F  </i>
   <i type="logical" name="LDOWNSAMPLE"> F  </i>
   <i type="logical" name="LCHARG"> F  </i>
   <i type="logical" name="LPARD"> F  </i>
   <i type="logical" name="LVTOT"> F  </i>
   <i type="logical" name="LVHAR"> F  </i>
   <i type="logical" name="LELF"> F  </i>
   <i type="logical" name="LOPTICS"> F  </i>
   <v name="STM">      0.00000000      0.00000000      0.00000000      0.00000000      0.00000000      0.00000000      0.00000000</v>
  </separator>
  <separator name="performance" >
   <i type="int" name="NPAR">    28</i>
   <i type="int" name="NSIM">     4</i>
   <i type="int" name="NBLK">    -1</i>
   <i type="logical" name="LPLANE"> T  </i>
   <i type="logical" name="LSCALAPACK"> T  </i>
   <i type="logical" name="LSCAAWARE"> F  </i>
   <i type="logical" name="LSCALU"> F  </i>
   <i type="logical" name="LASYNC"> F  </i>
   <i type="logical" name="LORBITALREAL"> F  </i>
  </separator>
  <separator name="miscellaneous" >
   <i type="int" name="IDIOT">     3</i>
   <i type="int" name="ISPECIAL">     0</i>
   <i type="logical" name="LMUSIC"> F  </i>
   <v name="POMASS">      7.01000000     24.30500000    208.98000000     32.06600000     16.00000000</v>
   <v name="DARWINR">      0.00000000      0.00000000      0.00000000      0.00000000      0.00000000</v>
   <v name="DARWINV">      1.00000000      1.00000000      1.00000000      1.00000000      1.00000000</v>
   <i type="logical" name="LCORR"> T  </i>
  </separator>
  <i type="logical" name="GGA_COMPAT"> T  </i>
  <i type="logical" name="LBERRY"> F  </i>
  <i type="int" name="ICORELEVEL">     0</i>
  <i type="logical" name="LDAU"> F  </i>
  <i type="int" name="I_CONSTRAINED_M">     0</i>
  <separator name="electronic exchange-correlation" >
   <i type="string" name="GGA">--</i>
   <i type="int" name="VOSKOWN">     0</i>
   <i type="logical" name="LHFCALC"> F  </i>
   <i type="string" name="PRECFOCK"></i>
   <i type="logical" name="LSYMGRAD"> F  </i>
   <i type="logical" name="LHFONE"> F  </i>
   <i type="logical" name="LRHFCALC"> F  </i>
   <i type="logical" name="LTHOMAS"> F  </i>
   <i type="logical" name="LMODELHF"> F  </i>
   <i name="ENCUT4O">     -1.00000000</i>
   <i type="int" name="EXXOEP">     0</i>
   <i type="int" name="FOURORBIT">     0</i>
   <i name="AEXX">      0.00000000</i>
   <i name="HFALPHA">      0.00000000</i>
   <i name="MCALPHA">      0.00000000</i>
   <i name="ALDAX">      1.00000000</i>
   <i name="AGGAX">      1.00000000</i>
   <i name="ALDAC">      1.00000000</i>
   <i name="AGGAC">      1.00000000</i>
   <i type="int" name="NKREDX">     1</i>
   <i type="int" name="NKREDY">     1</i>
   <i type="int" name="NKREDZ">     1</i>
   <i type="logical" name="SHIFTRED"> F  </i>
   <i type="logical" name="ODDONLY"> F  </i>
   <i type="logical" name="EVENONLY"> F  </i>
   <i type="int" name="LMAXFOCK">     0</i>
   <i type="int" name="NMAXFOCKAE">     0</i>
   <i type="logical" name="LFOCKAEDFT"> F  </i>
   <i name="HFSCREEN">      0.00000000</i>
   <i name="HFSCREENC">      0.00000000</i>
   <i type="int" name="NBANDSGWLOW">     0</i>
  </separator>
  <separator name="vdW DFT" >
   <i type="logical" name="LUSE_VDW"> F  </i>
   <i name="Zab_VDW">     -0.84910000</i>
   <i name="PARAM1">      0.12340000</i>
   <i name="PARAM2">      1.00000000</i>
   <i name="PARAM3">      0.00000000</i>
  </separator>
  <separator name="model GW" >
   <i type="int" name="MODEL_GW">     0</i>
   <i name="MODEL_EPS0">     12.17134107</i>
   <i name="MODEL_ALPHA">      1.00000000</i>
  </separator>
  <separator name="linear response parameters" >
   <i type="logical" name="LEPSILON"> F  </i>
   <i type="logical" name="LRPA"> F  </i>
   <i type="logical" name="LNABLA"> F  </i>
   <i type="logical" name="LVEL"> F  </i>
   <i type="int" name="KINTER">     0</i>
   <i name="CSHIFT">      0.10000000</i>
   <i name="OMEGAMAX">     -1.00000000</i>
   <i name="DEG_THRESHOLD">      0.00200000</i>
   <i name="RTIME">     -0.10000000</i>
   <i name="WPLASMAI">      0.00000000</i>
   <v name="DFIELD">      0.00000000      0.00000000      0.00000000</v>
   <v name="WPLASMA">      0.00000000      0.00000000      0.00000000      0.00000000      0.00000000      0.00000000      0.00000000      0.00000000      0.00000000</v>
  </separator>
  <separator name="orbital magnetization" >
   <i type="logical" name="NUCIND"> F  </i>
   <v name="MAGPOS">      0.00000000      0.00000000      0.00000000</v>
   <i type="logical" name="LNICSALL"> T  </i>
   <i type="logical" name="ORBITALMAG"> F  </i>
   <i type="logical" name="LMAGBLOCH"> F  </i>
   <i type="logical" name="LCHIMAG"> F  </i>
   <i type="logical" name="LGAUGE"> T  </i>
   <i type="int" name="MAGATOM">     0</i>
   <v name="MAGDIPOL">      0.00000000      0.00000000      0.00000000</v>
   <v name="AVECCONST">      0.00000000      0.00000000      0.00000000</v>
  </separator>
  <separator name="response functions" >
   <i type="logical" name="LADDER"> F  </i>
   <i type="logical" name="LRPAFORCE"> F  </i>
   <i type="logical" name="LFXC"> F  </i>
   <i type="logical" name="LHARTREE"> T  </i>
   <i type="int" name="IBSE">     0</i>
   <v type="int" name="KPOINT">    -1     0     0     0</v>
   <i type="logical" name="LTCTE"> F  </i>
   <i type="logical" name="LTETE"> F  </i>
   <i type="logical" name="LTRIPLET"> F  </i>
   <i type="logical" name="LFXCEPS"> F  </i>
   <i type="logical" name="LFXHEG"> F  </i>
   <i type="int" name="NATURALO">     2</i>
   <i type="logical" name="L2ORDER"> F  </i>
   <i type="logical" name="LMP2LT"> F  </i>
   <i type="logical" name="LUSEW"> F  </i>
   <i name="ENCUTGW">     -2.00000000</i>
   <i name="ENCUTGWSOFT">     -2.00000000</i>
   <i name="ENCUTLF">     -1.00000000</i>
   <i type="int" name="LMAXMP2">    -1</i>
   <i name="SCISSOR">      0.00000000</i>
   <i type="int" name="NOMEGA">     0</i>
   <i type="int" name="NOMEGAR">     0</i>
   <i type="int" name="NBANDSGW">    -1</i>
   <i type="int" name="NBANDSO">    -1</i>
   <i type="int" name="NBANDSV">    -1</i>
   <i type="int" name="NELM">     1</i>
   <i type="int" name="NELMHF">     1</i>
   <i type="int" name="DIM">     3</i>
   <i type="int" name="ANTIRES">     0</i>
   <i name="OMEGAMAX">    -30.00000000</i>
   <i name="OMEGAMIN">    -30.00000000</i>
   <i name="OMEGATL">   -200.00000000</i>
   <i type="int" name="OMEGAGRID">   140</i>
   <i name="CSHIFT">     -0.10000000</i>
   <i type="logical" name="SELFENERGY"> F  </i>
   <i type="logical" name="LSPECTRAL"> F  </i>
   <i type="logical" name="LSPECTRALGW"> F  </i>
   <i type="logical" name="LSINGLES"> F  </i>
   <i type="logical" name="LFERMIGW"> F  </i>
   <i type="logical" name="ODDONLYGW"> F  </i>
   <i type="logical" name="EVENONLYGW"> F  </i>
   <i type="int" name="NKREDLFX">     1</i>
   <i type="int" name="NKREDLFY">     1</i>
   <i type="int" name="NKREDLFZ">     1</i>
   <i type="int" name="MAXMEM">  2800</i>
   <i type="int" name="TELESCOPE">     0</i>
   <i type="int" name="TAUPAR">     1</i>
   <i type="int" name="OMEGAPAR">    -1</i>
   <i name="LAMBDA">      1.00000000</i>
  </separator>
  <separator name="External order field" >
   <i name="OFIELD_KAPPA">      0.00000000</i>
   <v name="OFIELD_K">      0.00000000      0.00000000      0.00000000</v>
   <i name="OFIELD_Q6_NEAR">      0.00000000</i>
   <i name="OFIELD_Q6_FAR">      0.00000000</i>
   <i name="OFIELD_A">      0.00000000</i>
  </separator>
 </parameters>
 <atominfo>
  <atoms>      59 </atoms>
  <types>       5 </types>
  <array name="atoms" >
   <dimension dim="1">ion</dimension>
   <field type="string">element</field>
   <field type="int">atomtype</field>
   <set>
    <rc><c>Li</c><c>   1</c></rc>
    <rc><c>Li</c><c>   1</c></rc>
    <rc><c>Li</c><c>   1</c></rc>
    <rc><c>Li</c><c>   1</c></rc>
    <rc><c>Li</c><c>   1</c></rc>
    <rc><c>Li</c><c>   1</c></rc>
    <rc><c>Mg</c><c>   2</c></rc>
    <rc><c>Mg</c><c>   2</c></rc>
    <rc><c>Mg</c><c>   2</c></rc>
    <rc><c>Mg</c><c>   2</c></rc>
    <rc><c>Mg</c><c>   2</c></rc>
    <rc><c>Bi</c><c>   3</c></rc>
    <rc><c>Bi</c><c>   3</c></rc>
    <rc><c>Bi</c><c>   3</c></rc>
    <rc><c>Bi</c><c>   3</c></rc>
    <rc><c>Bi</c><c>   3</c></rc>
    <rc><c>Bi</c><c>   3</c></rc>
    <rc><c>Bi</c><c>   3</c></rc>
    <rc><c>Bi</c><c>   3</c></rc>
    <rc><c>Bi</c><c>   3</c></rc>
    <rc><c>Bi</c><c>   3</c></rc>
    <rc><c>Bi</c><c>   3</c></rc>
    <rc><c>Bi</c><c>   3</c></rc>
    <rc><c>Bi</c><c>   3</c></rc>
    <rc><c>Bi</c><c>   3</c></rc>
    <rc><c>Bi</c><c>   3</c></rc>
    <rc><c>Bi</c><c>   3</c></rc>
    <rc><c>S </c><c>   4</c></rc>
    <rc><c>S </c><c>   4</c></rc>
    <rc><c>S </c><c>   4</c></rc>
    <rc><c>S </c><c>   4</c></rc>
    <rc><c>S </c><c>   4</c></rc>
    <rc><c>S </c><c>   4</c></rc>
    <rc><c>S </c><c>   4</c></rc>
    <rc><c>S </c><c>   4</c></rc>
    <rc><c>S </c><c>   4</c></rc>
    <rc><c>S </c><c>   4</c></rc>
    <rc><c>S </c><c>   4</c></rc>
    <rc><c>S </c><c>   4</c></rc>
    <rc><c>S </c><c>   4</c></rc>
    <rc><c>S </c><c>   4</c></rc>
    <rc><c>S </c><c>   4</c></rc>
    <rc><c>S </c><c>   4</c></rc>
    <rc><c>O </c><c>   5</c></rc>
    <rc><c>O </c><c>   5</c></rc>
    <rc><c>O </c><c>   5</c></rc>
    <rc><c>O </c><c>   5</c></rc>
    <rc><c>O </c><c>   5</c></rc>
    <rc><c>O </c><c>   5</c></rc>
    <rc><c>O </c><c>   5</c></rc>
    <rc><c>O </c><c>   5</c></rc>
    <rc><c>O </c><c>   5</c></rc>
    <rc><c>O </c><c>   5</c></rc>
    <rc><c>O </c><c>   5</c></rc>
    <rc><c>O </c><c>   5</c></rc>
    <rc><c>O </c><c>   5</c></rc>
    <rc><c>O </c><c>   5</c></rc>
    <rc><c>O </c><c>   5</c></rc>
    <rc><c>O </c><c>   5</c></rc>
   </set>
  </array>
  <array name="atomtypes" >
   <dimension dim="1">type</dimension>
   <field type="int">atomspertype</field>
   <field type="string">element</field>
   <field>mass</field>
   <field>valence</field>
   <field type="string">pseudopotential</field>
   <set>
    <rc><c>   6</c><c>Li</c><c>      7.01000000</c><c>      3.00000000</c><c>  PAW_PBE Li_sv 10Sep2004               </c></rc>
    <rc><c>   5</c><c>Mg</c><c>     24.30500000</c><c>      2.00000000</c><c>  PAW_PBE Mg 13Apr2007                  </c></rc>
    <rc><c>  16</c><c>Bi</c><c>    208.98000000</c><c>     15.00000000</c><c>  PAW_PBE Bi_d 06Sep2000                </c></rc>
    <rc><c>  16</c><c>S </c><c>     32.06600000</c><c>      6.00000000</c><c>  PAW_PBE S 06Sep2000                   </c></rc>
    <rc><c>  16</c><c>O </c><c>     16.00000000</c><c>      6.00000000</c><c>  PAW_PBE O 08Apr2002                   </c></rc>
   </set>
  </array>
 </atominfo>
 <structure name="initialpos" >
  <crystal>
   <varray name="basis" >
    <v>      11.17850000       0.00000000       0.00000000 </v>
    <v>       0.00000000       9.57460000       0.00000000 </v>
    <v>       0.00000000       0.00000000      11.18240000 </v>
   </varray>
   <i name="volume">   1196.84853820 </i>
   <varray name="rec_basis" >
    <v>       0.08945744       0.00000000       0.00000000 </v>
    <v>       0.00000000       0.10444301       0.00000000 </v>
    <v>       0.00000000       0.00000000       0.08942624 </v>
   </varray>
  </crystal>
  <varray name="positions" >
   <v>       0.37461000       0.00017000       0.18687000 </v>
   <v>       0.62461000       0.99984000       0.18687000 </v>
   <v>       0.12539000       0.99984000       0.93687000 </v>
   <v>       0.37539000       0.00017000       0.93687000 </v>
   <v>       0.62539000       0.99984000       0.93687000 </v>
   <v>       0.87539000       0.00017000       0.93687000 </v>
   <v>       0.37539000       0.00017000       0.43687000 </v>
   <v>       0.87539000       0.00017000       0.43687000 </v>
   <v>       0.87461000       0.00017000       0.18687000 </v>
   <v>       0.12461000       0.99984000       0.68687000 </v>
   <v>       0.62461000       0.99984000       0.68687000 </v>
   <v>       0.00013000       0.29519000       0.06281000 </v>
   <v>       0.25013000       0.70481000       0.06281000 </v>
   <v>       0.24987000       0.29519000       0.31282000 </v>
   <v>       0.49987000       0.70481000       0.31282000 </v>
   <v>       0.50013000       0.29519000       0.06281000 </v>
   <v>       0.75013000       0.70481000       0.06281000 </v>
   <v>       0.74987000       0.29519000       0.31282000 </v>
   <v>       0.99987000       0.70481000       0.31282000 </v>
   <v>       0.00013000       0.29519000       0.56281000 </v>
   <v>       0.25013000       0.70481000       0.56281000 </v>
   <v>       0.24987000       0.29519000       0.81282000 </v>
   <v>       0.49987000       0.70481000       0.81282000 </v>
   <v>       0.50013000       0.29519000       0.56281000 </v>
   <v>       0.75013000       0.70481000       0.56281000 </v>
   <v>       0.74987000       0.29519000       0.81282000 </v>
   <v>       0.99987000       0.70481000       0.81282000 </v>
   <v>       0.25005000       0.32677000       0.06286000 </v>
   <v>       0.00005000       0.67323000       0.06286000 </v>
   <v>       0.49995000       0.32677000       0.31286000 </v>
   <v>       0.24995000       0.67323000       0.31286000 </v>
   <v>       0.75005000       0.32677000       0.06286000 </v>
   <v>       0.50005000       0.67323000       0.06286000 </v>
   <v>       0.99995000       0.32677000       0.31286000 </v>
   <v>       0.74995000       0.67323000       0.31286000 </v>
   <v>       0.25005000       0.32677000       0.56286000 </v>
   <v>       0.00005000       0.67323000       0.56286000 </v>
   <v>       0.49995000       0.32677000       0.81286000 </v>
   <v>       0.24995000       0.67323000       0.81286000 </v>
   <v>       0.75005000       0.32677000       0.56286000 </v>
   <v>       0.50005000       0.67323000       0.56286000 </v>
   <v>       0.99995000       0.32677000       0.81286000 </v>
   <v>       0.74995000       0.67323000       0.81286000 </v>
   <v>       0.49987000       0.07798000       0.06246000 </v>
   <v>       0.24987000       0.92202000       0.06246000 </v>
   <v>       0.25013000       0.07798000       0.31246000 </v>
   <v>       0.00013000       0.92202000       0.31246000 </v>
   <v>       0.99987000       0.07798000       0.06246000 </v>
   <v>       0.74987000       0.92202000       0.06246000 </v>
   <v>       0.75013000       0.07798000       0.31246000 </v>
   <v>       0.50013000       0.92202000       0.31246000 </v>
   <v>       0.49987000       0.07798000       0.56246000 </v>
   <v>       0.24987000       0.92202000       0.56246000 </v>
   <v>       0.25013000       0.07798000       0.81246000 </v>
   <v>       0.00013000       0.92202000       0.81246000 </v>
   <v>       0.99987000       0.07798000       0.56246000 </v>
   <v>       0.74987000       0.92202000       0.56246000 </v>
   <v>       0.75013000       0.07798000       0.81246000 </v>
   <v>       0.50013000       0.92202000       0.81246000 </v>
  </varray>
 </structure>
 <calculation>
  <scstep>
   <time name="dav">   60.51   60.59</time>
   <time name="total">   60.60   60.68</time>
   <energy>
    <i name="alphaZ">   1060.66890660 </i>
    <i name="ewald"> -30391.56203085 </i>
    <i name="hartreedc"> -12726.22041871 </i>
    <i name="XCdc">   1247.19515000 </i>
    <i name="pawpsdc">  36635.26894311 </i>
    <i name="pawaedc"> -35972.74895369 </i>
    <i name="eentropy">      0.00000000 </i>
    <i name="bandstr">   1867.55772895 </i>
    <i name="atom">  44026.03258983 </i>
    <i name="e_fr_energy">   5746.19191522 </i>
    <i name="e_wo_entrp">   5746.19191522 </i>
    <i name="e_0_energy">   5746.19191522 </i>
   </energy>
  </scstep>
  <scstep>
   <time name="dav">   61.62   61.83</time>
   <time name="total">   61.63   61.84</time>
   <energy>
    <i name="e_fr_energy">    750.96276528 </i>
    <i name="e_wo_entrp">    750.96276528 </i>
    <i name="e_0_energy">    750.96276528 </i>
   </energy>
  </scstep>
  <scstep>
   <time name="dav">   70.44   70.94</time>
   <time name="total">   70.44   70.95</time>
   <energy>
    <i name="e_fr_energy">   -245.88274872 </i>
    <i name="e_wo_entrp">   -245.88274872 </i>
    <i name="e_0_energy">   -245.88274872 </i>
   </energy>
  </scstep>
  <scstep>
   <time name="dav">   73.99   74.28</time>
   <time name="total">   73.99   74.29</time>
   <energy>
    <i name="e_fr_energy">   -336.99132024 </i>
    <i name="e_wo_entrp">   -336.99132024 </i>
    <i name="e_0_energy">   -336.99132024 </i>
   </energy>
  </scstep>
  <scstep>
   <time name="dav">   94.94   95.03</time>
   <time name="total">   95.66   95.75</time>
   <energy>
    <i name="e_fr_energy">   -343.93366180 </i>
    <i name="e_wo_entrp">   -343.93366180 </i>
    <i name="e_0_energy">   -343.93366180 </i>
   </energy>
  </scstep>
  <scstep>
   <time name="dav">   86.93   86.97</time>
   <time name="total">   87.72   87.76</time>
   <energy>
    <i name="e_fr_energy">   -288.50902721 </i>
    <i name="e_wo_entrp">   -288.50902721 </i>
    <i name="e_0_energy">   -288.50902721 </i>
   </energy>
  </scstep>
  <scstep>
   <time name="dav">   65.84   65.95</time>
   <time name="total">   66.63   66.74</time>
   <energy>
    <i name="e_fr_energy">   -290.89813402 </i>
    <i name="e_wo_entrp">   -290.89813402 </i>
    <i name="e_0_energy">   -290.89813402 </i>
   </energy>
  </scstep>
  <scstep>
   <time name="dav">   75.93   76.07</time>
   <time name="total">   76.72   76.86</time>
   <energy>
    <i name="e_fr_energy">   -289.91068915 </i>
    <i name="e_wo_entrp">   -289.91068915 </i>
    <i name="e_0_energy">   -289.91068915 </i>
   </energy>
  </scstep>
  <scstep>
   <time name="dav">   75.54   75.71</time>
   <time name="total">   76.33   76.50</time>
   <energy>
    <i name="e_fr_energy">   -289.39767524 </i>
    <i name="e_wo_entrp">   -289.39767524 </i>
    <i name="e_0_energy">   -289.39767524 </i>
   </energy>
  </scstep>
  <scstep>
   <time name="dav">   73.09   73.46</time>
   <time name="total">   73.88   74.25</time>
   <energy>
    <i name="e_fr_energy">   -289.41126145 </i>
    <i name="e_wo_entrp">   -289.41126145 </i>
    <i name="e_0_energy">   -289.41126145 </i>
   </energy>
  </scstep>
  <scstep>
   <time name="dav">   80.43   80.56</time>
   <time name="total">   81.26   81.40</time>
   <energy>
    <i name="e_fr_energy">   -289.41913597 </i>
    <i name="e_wo_entrp">   -289.41913597 </i>
    <i name="e_0_energy">   -289.41913597 </i>
   </energy>
  </scstep>
  <scstep>
   <time name="dav">   77.72   78.04</time>
   <time name="total">   78.51   78.83</time>
   <energy>
    <i name="e_fr_energy">   -289.42178978 </i>
    <i name="e_wo_entrp">   -289.42178978 </i>
    <i name="e_0_energy">   -289.42178978 </i>
   </energy>
  </scstep>
  <scstep>
   <time name="dav">   74.15   74.51</time>
   <time name="total">   74.94   75.31</time>
   <energy>
    <i name="e_fr_energy">   -289.42322610 </i>
    <i name="e_wo_entrp">   -289.42322610 </i>
    <i name="e_0_energy">   -289.42322610 </i>
   </energy>
  </scstep>
  <scstep>
   <time name="dav">   81.92   82.11</time>
   <time name="total">   82.71   82.91</time>
   <energy>
    <i name="e_fr_energy">   -289.42338215 </i>
    <i name="e_wo_entrp">   -289.42338215 </i>
    <i name="e_0_energy">   -289.42338215 </i>
   </energy>
  </scstep>
  <scstep>
   <time name="dav">   74.42   74.78</time>
   <time name="total">   75.22   75.58</time>
   <energy>
    <i name="e_fr_energy">   -289.42342386 </i>
    <i name="e_wo_entrp">   -289.42342386 </i>
    <i name="e_0_energy">   -289.42342386 </i>
   </energy>
  </scstep>
  <scstep>
   <time name="dav">   66.46   66.74</time>
   <time name="total">   67.27   67.56</time>
   <energy>
    <i name="e_fr_energy">   -289.42343706 </i>
    <i name="e_wo_entrp">   -289.42343706 </i>
    <i name="e_0_energy">   -289.42343706 </i>
   </energy>
  </scstep>
  <scstep>
   <time name="dav">   65.29   65.62</time>
   <time name="total">   66.07   66.41</time>
   <energy>
    <i name="e_fr_energy">   -289.42344120 </i>
    <i name="e_wo_entrp">   -289.42344120 </i>
    <i name="e_0_energy">   -289.42344120 </i>
   </energy>
  </scstep>
  <scstep>
   <time name="dav">   62.01   62.47</time>
   <time name="total">   62.09   62.54</time>
   <energy>
    <i name="alphaZ">   1060.66890660 </i>
    <i name="ewald"> -30391.56203085 </i>
    <i name="hartreedc"> -12966.35270803 </i>
    <i name="XCdc">   1271.97357037 </i>
    <i name="pawpsdc">  43657.00919337 </i>
    <i name="pawaedc"> -42967.61361303 </i>
    <i name="eentropy">      0.00000000 </i>
    <i name="bandstr">  -3979.57935022 </i>
    <i name="atom">  44026.03258983 </i>
    <i name="e_fr_energy">   -289.42344195 </i>
    <i name="e_wo_entrp">   -289.42344195 </i>
    <i name="e_0_energy">   -289.42344195 </i>
   </energy>
  </scstep>
  <structure>
   <crystal>
    <varray name="basis" >
     <v>      11.17850000       0.00000000       0.00000000 </v>
     <v>       0.00000000       9.57460000       0.00000000 </v>
     <v>       0.00000000       0.00000000      11.18240000 </v>
    </varray>
    <i name="volume">   1196.84853820 </i>
    <varray name="rec_basis" >
     <v>       0.08945744       0.00000000       0.00000000 </v>
     <v>       0.00000000       0.10444301       0.00000000 </v>
     <v>       0.00000000       0.00000000       0.08942624 </v>
    </varray>
   </crystal>
   <varray name="positions" >
    <v>       0.37461000       0.00017000       0.18687000 </v>
    <v>       0.62461000       0.99984000       0.18687000 </v>
    <v>       0.12539000       0.99984000       0.93687000 </v>
    <v>       0.37539000       0.00017000       0.93687000 </v>
    <v>       0.62539000       0.99984000       0.93687000 </v>
    <v>       0.87539000       0.00017000       0.93687000 </v>
    <v>       0.37539000       0.00017000       0.43687000 </v>
    <v>       0.87539000       0.00017000       0.43687000 </v>
    <v>       0.87461000       0.00017000       0.18687000 </v>
    <v>       0.12461000       0.99984000       0.68687000 </v>
    <v>       0.62461000       0.99984000       0.68687000 </v>
    <v>       0.00013000       0.29519000       0.06281000 </v>
    <v>       0.25013000       0.70481000       0.06281000 </v>
    <v>       0.24987000       0.29519000       0.31282000 </v>
    <v>       0.49987000       0.70481000       0.31282000 </v>
    <v>       0.50013000       0.29519000       0.06281000 </v>
    <v>       0.75013000       0.70481000       0.06281000 </v>
    <v>       0.74987000       0.29519000       0.31282000 </v>
    <v>       0.99987000       0.70481000       0.31282000 </v>
    <v>       0.00013000       0.29519000       0.56281000 </v>
    <v>       0.25013000       0.70481000       0.56281000 </v>
    <v>       0.24987000       0.29519000       0.81282000 </v>
    <v>       0.49987000       0.70481000       0.81282000 </v>
    <v>       0.50013000       0.29519000       0.56281000 </v>
    <v>       0.75013000       0.70481000       0.56281000 </v>
    <v>       0.74987000       0.29519000       0.81282000 </v>
    <v>       0.99987000       0.70481000       0.81282000 </v>
    <v>       0.25005000       0.32677000       0.06286000 </v>
    <v>       0.00005000       0.67323000       0.06286000 </v>
    <v>       0.49995000       0.32677000       0.31286000 </v>
    <v>       0.24995000       0.67323000       0.31286000 </v>
    <v>       0.75005000       0.32677000       0.06286000 </v>
    <v>       0.50005000       0.67323000       0.06286000 </v>
    <v>       0.99995000       0.32677000       0.31286000 </v>
    <v>       0.74995000       0.67323000       0.31286000 </v>
    <v>       0.25005000       0.32677000       0.56286000 </v>
    <v>       0.00005000       0.67323000       0.56286000 </v>
    <v>       0.49995000       0.32677000       0.81286000 </v>
    <v>       0.24995000       0.67323000       0.81286000 </v>
    <v>       0.75005000       0.32677000       0.56286000 </v>
    <v>       0.50005000       0.67323000       0.56286000 </v>
    <v>       0.99995000       0.32677000       0.81286000 </v>
    <v>       0.74995000       0.67323000       0.81286000 </v>
    <v>       0.49987000       0.07798000       0.06246000 </v>
    <v>       0.24987000       0.92202000       0.06246000 </v>
    <v>       0.25013000       0.07798000       0.31246000 </v>
    <v>       0.00013000       0.92202000       0.31246000 </v>
    <v>       0.99987000       0.07798000       0.06246000 </v>
    <v>       0.74987000       0.92202000       0.06246000 </v>
    <v>       0.75013000       0.07798000       0.31246000 </v>
    <v>       0.50013000       0.92202000       0.31246000 </v>
    <v>       0.49987000       0.07798000       0.56246000 </v>
    <v>       0.24987000       0.92202000       0.56246000 </v>
    <v>       0.25013000       0.07798000       0.81246000 </v>
    <v>       0.00013000       0.92202000       0.81246000 </v>
    <v>       0.99987000       0.07798000       0.56246000 </v>
    <v>       0.74987000       0.92202000       0.56246000 </v>
    <v>       0.75013000       0.07798000       0.81246000 </v>
    <v>       0.50013000       0.92202000       0.81246000 </v>
   </varray>
  </structure>
  <varray name="forces" >
   <v>      -0.52069965      -0.00501709      -0.14069982 </v>
   <v>      -0.52720951      -0.00090350       0.34466181 </v>
   <v>       0.11519502      -0.06473367       0.56852722 </v>
   <v>      -0.20410881      -0.06240662      -0.17464914 </v>
   <v>      -0.12571673       0.06799971       0.06311380 </v>
   <v>       0.19550037       0.06457925      -0.65003262 </v>
   <v>      -0.29357158       0.10369306       0.45096850 </v>
   <v>       0.25934493      -0.12142964       1.43252783 </v>
   <v>       1.08108243       0.00008006      -0.50380898 </v>
   <v>       0.10336589       0.00320996      -0.59895239 </v>
   <v>      -0.05030657       0.00635608      -0.60301311 </v>
   <v>       0.43632521       0.00535985       0.01795623 </v>
   <v>      -0.08782428       1.01063252       0.14440920 </v>
   <v>      -0.24480724      -0.98960902      -0.15324019 </v>
   <v>      -0.05315057       0.00285383      -0.00548816 </v>
   <v>      -0.26066356       0.03957724       0.00069315 </v>
   <v>      -0.11426100      -1.07551310      -0.14952649 </v>
   <v>      -0.32248170       1.05660740       0.14518040 </v>
   <v>       0.64461107      -0.05768992      -0.03435333 </v>
   <v>       0.13185639      -0.06854927       0.02236992 </v>
   <v>       0.01046504       0.10755029      -0.04375620 </v>
   <v>       0.20506457      -0.01533488       0.03398419 </v>
   <v>      -0.33693777      -0.00641302      -0.00082030 </v>
   <v>      -0.16224054      -0.09387304      -0.01244832 </v>
   <v>      -0.00685396       0.07511435       0.05715118 </v>
   <v>       0.19289918       0.01915027      -0.06980974 </v>
   <v>      -0.03947958      -0.00744346      -0.02594871 </v>
   <v>       0.01767328       0.20721000      -0.11212554 </v>
   <v>      -0.31991531      -0.12560034       0.03568261 </v>
   <v>       0.20555253       0.17444668      -0.00216766 </v>
   <v>       0.07731727      -0.16301991       0.11927283 </v>
   <v>       0.03782352       0.11238633       0.12882566 </v>
   <v>       0.26581324      -0.19769936      -0.00012813 </v>
   <v>      -0.37236002       0.06207141      -0.01823151 </v>
   <v>       0.09885356      -0.07446651      -0.12257193 </v>
   <v>      -0.01237918       0.13606287       0.09808116 </v>
   <v>      -0.07684078      -0.09806357      -0.00631989 </v>
   <v>       0.13791948       0.14344590      -0.00708556 </v>
   <v>      -0.06770045      -0.18738273      -0.11185780 </v>
   <v>       0.00586059       0.06023748      -0.08026872 </v>
   <v>       0.08014495      -0.09282523       0.00839425 </v>
   <v>      -0.01716794       0.15179310      -0.01025748 </v>
   <v>      -0.05356432      -0.11200416       0.07578379 </v>
   <v>       0.24339227      -0.02803052      -0.00506111 </v>
   <v>       0.61656027      -0.83861519      -0.66344704 </v>
   <v>       1.63359458       0.79204177       0.49068451 </v>
   <v>      -2.27229270       0.15588451      -0.03150929 </v>
   <v>      -1.30916202       0.00238943      -0.11871639 </v>
   <v>       0.45916446       0.84696468       0.54438746 </v>
   <v>       1.47159466      -0.82602094      -0.69286279 </v>
   <v>      -0.86960826      -0.09298847      -0.17331137 </v>
   <v>       0.09041024       0.29270973       0.02773359 </v>
   <v>      -0.00256925      -0.34218996       0.06466457 </v>
   <v>      -1.12504793       0.09782473       0.05898200 </v>
   <v>       1.00586414      -0.05296578       0.14467875 </v>
   <v>      -0.08166264       0.28441033      -0.02573054 </v>
   <v>       0.02777958      -0.23220680      -0.07936597 </v>
   <v>      -1.09718872      -0.01320400       0.21172139 </v>
   <v>       1.17674388      -0.03644308       0.13713022 </v>
  </varray>
  <varray name="stress" >
   <v>     -13.94918766      -0.47503102       0.09958981 </v>
   <v>      -0.47503096     -13.61382336       0.19745228 </v>
   <v>       0.09959000       0.19745200      -3.61259983 </v>
  </varray>
  <energy>
   <i name="e_fr_energy">   -302.00730595 </i>
   <i name="e_wo_entrp">   -302.00730595 </i>
   <i name="e_0_energy">      0.00000000 </i>
  </energy>
  <time name="totalsc"> 1440.91 1446.05</time>
  <eigenvalues>
   <array>
    <dimension dim="1">band</dimension>
    <dimension dim="2">kpoint</dimension>
    <dimension dim="3">spin</dimension>
    <field>eigene</field>
    <field>occ</field>
    <set>
     <set comment="spin 1">
      <set comment="kpoint 1">
       <r>  -40.2242    1.0000 </r>
       <r>  -40.0929    1.0000 </r>
       <r>  -40.0622    1.0000 </r>
       <r>  -39.6465    1.0000 </r>
       <r>  -39.6013    1.0000 </r>
       <r>  -39.4843    1.0000 </r>
       <r>  -18.9796    1.0000 </r>
       <r>  -18.9664    1.0000 </r>
       <r>  -18.9028    1.0000 </r>
       <r>  -18.8956    1.0000 </r>
       <r>  -18.8952    1.0000 </r>
       <r>  -18.8883    1.0000 </r>
       <r>  -18.8027    1.0000 </r>
       <r>  -18.7916    1.0000 </r>
       <r>  -18.7880    1.0000 </r>
       <r>  -18.7797    1.0000 </r>
       <r>  -18.7526    1.0000 </r>
       <r>  -18.7427    1.0000 </r>
       <r>  -18.7365    1.0000 </r>
       <r>  -18.7348    1.0000 </r>
       <r>  -18.7298    1.0000 </r>
       <r>  -18.7149    1.0000 </r>
       <r>  -18.7091    1.0000 </r>
       <r>  -18.7077    1.0000 </r>
       <r>  -18.6973    1.0000 </r>
       <r>  -18.6890    1.0000 </r>
       <r>  -18.6855    1.0000 </r>
       <r>  -18.6804    1.0000 </r>
       <r>  -18.6799    1.0000 </r>
       <r>  -18.6772    1.0000 </r>
       <r>  -18.6764    1.0000 </r>
       <r>  -18.6739    1.0000 </r>
       <r>  -18.6729    1.0000 </r>
       <r>  -18.6715    1.0000 </r>
       <r>  -18.6699    1.0000 </r>
       <r>  -18.6676    1.0000 </r>
       <r>  -18.6669    1.0000 </r>
       <r>  -18.6652    1.0000 </r>
       <r>  -18.6649    1.0000 </r>
       <r>  -18.6645    1.0000 </r>
       <r>  -18.6619    1.0000 </r>
       <r>  -18.6564    1.0000 </r>
       <r>  -18.6541    1.0000 </r>
       <r>  -18.6535    1.0000 </r>
       <r>  -18.6501    1.0000 </r>
       <r>  -18.6422    1.0000 </r>
       <r>  -18.6054    1.0000 </r>
       <r>  -18.5961    1.0000 </r>
       <r>  -18.5923    1.0000 </r>
       <r>  -18.5862    1.0000 </r>
       <r>  -18.5818    1.0000 </r>
       <r>  -18.5817    1.0000 </r>
       <r>  -18.5782    1.0000 </r>
       <r>  -18.5746    1.0000 </r>
       <r>  -18.5584    1.0000 </r>
       <r>  -18.5564    1.0000 </r>
       <r>  -18.5538    1.0000 </r>
       <r>  -18.5518    1.0000 </r>
       <r>  -18.5334    1.0000 </r>
       <r>  -18.5302    1.0000 </r>
       <r>  -18.5246    1.0000 </r>
       <r>  -18.5214    1.0000 </r>
       <r>  -18.5204    1.0000 </r>
       <r>  -18.5165    1.0000 </r>
       <r>  -18.5148    1.0000 </r>
       <r>  -18.5120    1.0000 </r>
       <r>  -18.5110    1.0000 </r>
       <r>  -18.5107    1.0000 </r>
       <r>  -18.5099    1.0000 </r>
       <r>  -18.5012    1.0000 </r>
       <r>  -18.4925    1.0000 </r>
       <r>  -18.4834    1.0000 </r>
       <r>  -18.4485    1.0000 </r>
       <r>  -18.4484    1.0000 </r>
       <r>  -18.4354    1.0000 </r>
       <r>  -18.4326    1.0000 </r>
       <r>  -18.4307    1.0000 </r>
       <r>  -18.4302    1.0000 </r>
       <r>  -18.4173    1.0000 </r>
       <r>  -18.4024    1.0000 </r>
       <r>  -18.3647    1.0000 </r>
       <r>  -18.3384    1.0000 </r>
       <r>  -18.2448    1.0000 </r>
       <r>  -18.2333    1.0000 </r>
       <r>  -18.2228    1.0000 </r>
       <r>  -18.2100    1.0000 </r>
       <r>  -13.6580    1.0000 </r>
       <r>  -13.5231    1.0000 </r>
       <r>  -12.9671    1.0000 </r>
       <r>  -12.9123    1.0000 </r>
       <r>  -12.8062    1.0000 </r>
       <r>  -12.7962    1.0000 </r>
       <r>  -12.7786    1.0000 </r>
       <r>  -12.7438    1.0000 </r>
       <r>  -12.7285    1.0000 </r>
       <r>  -12.6985    1.0000 </r>
       <r>  -12.6859    1.0000 </r>
       <r>  -12.6513    1.0000 </r>
       <r>  -12.6198    1.0000 </r>
       <r>  -12.5674    1.0000 </r>
       <r>  -12.0733    1.0000 </r>
       <r>  -11.9645    1.0000 </r>
       <r>   -9.3651    1.0000 </r>
       <r>   -9.0694    1.0000 </r>
       <r>   -8.5694    1.0000 </r>
       <r>   -8.5365    1.0000 </r>
       <r>   -8.5209    1.0000 </r>
       <r>   -8.4781    1.0000 </r>
       <r>   -8.3465    1.0000 </r>
       <r>   -8.3156    1.0000 </r>
       <r>   -8.2942    1.0000 </r>
       <r>   -8.2536    1.0000 </r>
       <r>   -8.0638    1.0000 </r>
       <r>   -8.0633    1.0000 </r>
       <r>   -8.0282    1.0000 </r>
       <r>   -8.0257    1.0000 </r>
       <r>   -7.3918    1.0000 </r>
       <r>   -7.3905    1.0000 </r>
       <r>   -6.4137    1.0000 </r>
       <r>   -6.3995    1.0000 </r>
       <r>   -6.3835    1.0000 </r>
       <r>   -6.3706    1.0000 </r>
       <r>   -5.5623    1.0000 </r>
       <r>   -5.5267    1.0000 </r>
       <r>   -5.3979    1.0000 </r>
       <r>   -5.3755    1.0000 </r>
       <r>   -5.3667    1.0000 </r>
       <r>   -5.2856    1.0000 </r>
       <r>   -5.2465    1.0000 </r>
       <r>   -5.2073    1.0000 </r>
       <r>   -5.1619    1.0000 </r>
       <r>   -5.0953    1.0000 </r>
       <r>   -3.8447    1.0000 </r>
       <r>   -3.6962    1.0000 </r>
       <r>   -1.4843    1.0000 </r>
       <r>   -1.3738    1.0000 </r>
       <r>   -1.1344    1.0000 </r>
       <r>   -1.0418    1.0000 </r>
       <r>   -0.5731    1.0000 </r>
       <r>   -0.5543    1.0000 </r>
       <r>   -0.5346    1.0000 </r>
       <r>   -0.5123    1.0000 </r>
       <r>   -0.2148    1.0000 </r>
       <r>   -0.1999    1.0000 </r>
       <r>   -0.1968    1.0000 </r>
       <r>   -0.1728    1.0000 </r>
       <r>   -0.0819    1.0000 </r>
       <r>    0.1246    1.0000 </r>
       <r>    0.2943    1.0000 </r>
       <r>    0.3668    1.0000 </r>
       <r>    0.4432    1.0000 </r>
       <r>    0.5093    1.0000 </r>
       <r>    0.5623    1.0000 </r>
       <r>    0.5875    1.0000 </r>
       <r>    0.6521    1.0000 </r>
       <r>    0.6774    1.0000 </r>
       <r>    0.7000    1.0000 </r>
       <r>    0.7428    1.0000 </r>
       <r>    0.7916    1.0000 </r>
       <r>    0.8205    1.0000 </r>
       <r>    0.8556    1.0000 </r>
       <r>    0.8743    1.0000 </r>
       <r>    0.9371    1.0000 </r>
       <r>    0.9494    1.0000 </r>
       <r>    0.9810    1.0000 </r>
       <r>    1.0309    1.0000 </r>
       <r>    1.0441    1.0000 </r>
       <r>    1.0909    1.0000 </r>
       <r>    1.1135    1.0000 </r>
       <r>    1.1809    1.0000 </r>
       <r>    1.2042    1.0000 </r>
       <r>    1.2910    1.0000 </r>
       <r>    1.4112    1.0000 </r>
       <r>    1.4411    1.0000 </r>
       <r>    1.4485    1.0000 </r>
       <r>    1.4938    1.0000 </r>
       <r>    1.5585    1.0000 </r>
       <r>    1.6036    1.0000 </r>
       <r>    1.6524    1.0000 </r>
       <r>    1.7066    1.0000 </r>
       <r>    1.7450    1.0000 </r>
       <r>    1.7612    1.0000 </r>
       <r>    1.8303    1.0000 </r>
       <r>    1.8528    1.0000 </r>
       <r>    1.8760    1.0000 </r>
       <r>    1.9014    1.0000 </r>
       <r>    1.9892    1.0000 </r>
       <r>    2.1287    1.0000 </r>
       <r>    2.1693    1.0000 </r>
       <r>    2.2472    1.0000 </r>
       <r>    2.3560    1.0000 </r>
       <r>    2.3805    1.0000 </r>
       <r>    2.5029    1.0000 </r>
       <r>    2.5312    1.0000 </r>
       <r>    2.5347    1.0000 </r>
       <r>    2.5546    1.0000 </r>
       <r>    2.5622    1.0000 </r>
       <r>    2.5852    1.0000 </r>
       <r>    2.6142    1.0000 </r>
       <r>    2.6229    1.0000 </r>
       <r>    2.6547    1.0000 </r>
       <r>    2.6654    1.0000 </r>
       <r>    2.7058    1.0000 </r>
       <r>    2.7314    1.0000 </r>
       <r>    2.8167    1.0000 </r>
       <r>    2.8282    1.0000 </r>
       <r>    2.8545    1.0000 </r>
       <r>    2.8762    1.0000 </r>
       <r>    2.9219    1.0000 </r>
       <r>    2.9470    1.0000 </r>
       <r>    2.9635    1.0000 </r>
       <r>    3.0456    1.0000 </r>
       <r>    3.0608    1.0000 </r>
       <r>    3.0890    1.0000 </r>
       <r>    3.1174    1.0000 </r>
       <r>    3.1243    1.0000 </r>
       <r>    3.1283    1.0000 </r>
       <r>    3.1404    1.0000 </r>
       <r>    3.1641    1.0000 </r>
       <r>    3.1872    1.0000 </r>
       <r>    3.2383    1.0000 </r>
       <r>    3.3365    1.0000 </r>
       <r>    3.4028    1.0000 </r>
       <r>    3.4099    1.0000 </r>
       <r>    3.4779    1.0000 </r>
       <r>    3.4973    1.0000 </r>
       <r>    4.1499    1.0000 </r>
       <r>    4.1548    1.0000 </r>
       <r>    4.1912    1.0000 </r>
       <r>    4.1966    1.0000 </r>
       <r>    5.0100    0.0000 </r>
       <r>    5.0160    0.0000 </r>
       <r>    5.1247    0.0000 </r>
       <r>    5.1262    0.0000 </r>
       <r>    5.7125    0.0000 </r>
       <r>    5.7170    0.0000 </r>
       <r>    5.7870    0.0000 </r>
       <r>    5.7895    0.0000 </r>
       <r>    6.0708    0.0000 </r>
       <r>    6.0912    0.0000 </r>
       <r>    6.1075    0.0000 </r>
       <r>    6.1153    0.0000 </r>
       <r>    6.2000    0.0000 </r>
       <r>    6.2089    0.0000 </r>
       <r>    6.2257    0.0000 </r>
       <r>    6.2380    0.0000 </r>
       <r>    7.0751    0.0000 </r>
       <r>    7.0979    0.0000 </r>
       <r>    7.1981    0.0000 </r>
       <r>    7.2723    0.0000 </r>
       <r>    7.7795    0.0000 </r>
       <r>    7.8351    0.0000 </r>
       <r>    7.8887    0.0000 </r>
       <r>    7.8985    0.0000 </r>
       <r>    7.9130    0.0000 </r>
       <r>    7.9874    0.0000 </r>
       <r>    8.0229    0.0000 </r>
       <r>    8.0993    0.0000 </r>
       <r>    8.3399    0.0000 </r>
       <r>    8.4992    0.0000 </r>
       <r>    8.6222    0.0000 </r>
       <r>    8.7493    0.0000 </r>
       <r>    8.7609    0.0000 </r>
       <r>    8.8019    0.0000 </r>
       <r>    8.8731    0.0000 </r>
       <r>    8.9572    0.0000 </r>
       <r>    9.0023    0.0000 </r>
       <r>    9.0119    0.0000 </r>
       <r>    9.0338    0.0000 </r>
       <r>    9.0806    0.0000 </r>
       <r>    9.1029    0.0000 </r>
       <r>    9.1275    0.0000 </r>
       <r>    9.1587    0.0000 </r>
       <r>    9.2452    0.0000 </r>
       <r>    9.3777    0.0000 </r>
       <r>    9.4697    0.0000 </r>
       <r>    9.4792    0.0000 </r>
       <r>    9.5071    0.0000 </r>
       <r>    9.6889    0.0000 </r>
       <r>    9.7680    0.0000 </r>
      </set>
      <set comment="kpoint 2">
       <r>  -40.2242    1.0000 </r>
       <r>  -40.0929    1.0000 </r>
       <r>  -40.0622    1.0000 </r>
       <r>  -39.6465    1.0000 </r>
       <r>  -39.6013    1.0000 </r>
       <r>  -39.4843    1.0000 </r>
       <r>  -18.9796    1.0000 </r>
       <r>  -18.9664    1.0000 </r>
       <r>  -18.9027    1.0000 </r>
       <r>  -18.8956    1.0000 </r>
       <r>  -18.8952    1.0000 </r>
       <r>  -18.8883    1.0000 </r>
       <r>  -18.8027    1.0000 </r>
       <r>  -18.7916    1.0000 </r>
       <r>  -18.7880    1.0000 </r>
       <r>  -18.7797    1.0000 </r>
       <r>  -18.7524    1.0000 </r>
       <r>  -18.7426    1.0000 </r>
       <r>  -18.7360    1.0000 </r>
       <r>  -18.7347    1.0000 </r>
       <r>  -18.7296    1.0000 </r>
       <r>  -18.7147    1.0000 </r>
       <r>  -18.7091    1.0000 </r>
       <r>  -18.7081    1.0000 </r>
       <r>  -18.6977    1.0000 </r>
       <r>  -18.6893    1.0000 </r>
       <r>  -18.6861    1.0000 </r>
       <r>  -18.6806    1.0000 </r>
       <r>  -18.6791    1.0000 </r>
       <r>  -18.6780    1.0000 </r>
       <r>  -18.6767    1.0000 </r>
       <r>  -18.6743    1.0000 </r>
       <r>  -18.6729    1.0000 </r>
       <r>  -18.6708    1.0000 </r>
       <r>  -18.6696    1.0000 </r>
       <r>  -18.6687    1.0000 </r>
       <r>  -18.6678    1.0000 </r>
       <r>  -18.6650    1.0000 </r>
       <r>  -18.6637    1.0000 </r>
       <r>  -18.6632    1.0000 </r>
       <r>  -18.6621    1.0000 </r>
       <r>  -18.6567    1.0000 </r>
       <r>  -18.6539    1.0000 </r>
       <r>  -18.6533    1.0000 </r>
       <r>  -18.6497    1.0000 </r>
       <r>  -18.6422    1.0000 </r>
       <r>  -18.6054    1.0000 </r>
       <r>  -18.5961    1.0000 </r>
       <r>  -18.5924    1.0000 </r>
       <r>  -18.5862    1.0000 </r>
       <r>  -18.5818    1.0000 </r>
       <r>  -18.5818    1.0000 </r>
       <r>  -18.5782    1.0000 </r>
       <r>  -18.5746    1.0000 </r>
       <r>  -18.5584    1.0000 </r>
       <r>  -18.5564    1.0000 </r>
       <r>  -18.5538    1.0000 </r>
       <r>  -18.5518    1.0000 </r>
       <r>  -18.5334    1.0000 </r>
       <r>  -18.5302    1.0000 </r>
       <r>  -18.5246    1.0000 </r>
       <r>  -18.5214    1.0000 </r>
       <r>  -18.5204    1.0000 </r>
       <r>  -18.5165    1.0000 </r>
       <r>  -18.5148    1.0000 </r>
       <r>  -18.5120    1.0000 </r>
       <r>  -18.5110    1.0000 </r>
       <r>  -18.5107    1.0000 </r>
       <r>  -18.5099    1.0000 </r>
       <r>  -18.5012    1.0000 </r>
       <r>  -18.4925    1.0000 </r>
       <r>  -18.4833    1.0000 </r>
       <r>  -18.4485    1.0000 </r>
       <r>  -18.4484    1.0000 </r>
       <r>  -18.4354    1.0000 </r>
       <r>  -18.4326    1.0000 </r>
       <r>  -18.4307    1.0000 </r>
       <r>  -18.4302    1.0000 </r>
       <r>  -18.4173    1.0000 </r>
       <r>  -18.4024    1.0000 </r>
       <r>  -18.3647    1.0000 </r>
       <r>  -18.3384    1.0000 </r>
       <r>  -18.2448    1.0000 </r>
       <r>  -18.2333    1.0000 </r>
       <r>  -18.2228    1.0000 </r>
       <r>  -18.2100    1.0000 </r>
       <r>  -13.6579    1.0000 </r>
       <r>  -13.5231    1.0000 </r>
       <r>  -12.9552    1.0000 </r>
       <r>  -12.9172    1.0000 </r>
       <r>  -12.8423    1.0000 </r>
       <r>  -12.7867    1.0000 </r>
       <r>  -12.7696    1.0000 </r>
       <r>  -12.7366    1.0000 </r>
       <r>  -12.7270    1.0000 </r>
       <r>  -12.6961    1.0000 </r>
       <r>  -12.6791    1.0000 </r>
       <r>  -12.6523    1.0000 </r>
       <r>  -12.6256    1.0000 </r>
       <r>  -12.5681    1.0000 </r>
       <r>  -12.0733    1.0000 </r>
       <r>  -11.9645    1.0000 </r>
       <r>   -9.2204    1.0000 </r>
       <r>   -9.0621    1.0000 </r>
       <r>   -8.9446    1.0000 </r>
       <r>   -8.7832    1.0000 </r>
       <r>   -8.4330    1.0000 </r>
       <r>   -8.4309    1.0000 </r>
       <r>   -8.2973    1.0000 </r>
       <r>   -8.2938    1.0000 </r>
       <r>   -8.2313    1.0000 </r>
       <r>   -8.2291    1.0000 </r>
       <r>   -8.0941    1.0000 </r>
       <r>   -8.0915    1.0000 </r>
       <r>   -7.7862    1.0000 </r>
       <r>   -7.6737    1.0000 </r>
       <r>   -7.6695    1.0000 </r>
       <r>   -7.5562    1.0000 </r>
       <r>   -6.0621    1.0000 </r>
       <r>   -6.0491    1.0000 </r>
       <r>   -5.8854    1.0000 </r>
       <r>   -5.8663    1.0000 </r>
       <r>   -5.8425    1.0000 </r>
       <r>   -5.8325    1.0000 </r>
       <r>   -5.7632    1.0000 </r>
       <r>   -5.6987    1.0000 </r>
       <r>   -5.6852    1.0000 </r>
       <r>   -5.6761    1.0000 </r>
       <r>   -5.5751    1.0000 </r>
       <r>   -5.4956    1.0000 </r>
       <r>   -4.5437    1.0000 </r>
       <r>   -4.3859    1.0000 </r>
       <r>   -4.3816    1.0000 </r>
       <r>   -4.2120    1.0000 </r>
       <r>   -1.2834    1.0000 </r>
       <r>   -1.0897    1.0000 </r>
       <r>   -0.9309    1.0000 </r>
       <r>   -0.7564    1.0000 </r>
       <r>   -0.5390    1.0000 </r>
       <r>   -0.3029    1.0000 </r>
       <r>   -0.0905    1.0000 </r>
       <r>   -0.0717    1.0000 </r>
       <r>    0.0091    1.0000 </r>
       <r>    0.0584    1.0000 </r>
       <r>    0.1157    1.0000 </r>
       <r>    0.1555    1.0000 </r>
       <r>    0.1779    1.0000 </r>
       <r>    0.2266    1.0000 </r>
       <r>    0.3273    1.0000 </r>
       <r>    0.3609    1.0000 </r>
       <r>    0.3699    1.0000 </r>
       <r>    0.4327    1.0000 </r>
       <r>    0.4762    1.0000 </r>
       <r>    0.5258    1.0000 </r>
       <r>    0.5499    1.0000 </r>
       <r>    0.5843    1.0000 </r>
       <r>    0.5975    1.0000 </r>
       <r>    0.6762    1.0000 </r>
       <r>    0.6832    1.0000 </r>
       <r>    0.7627    1.0000 </r>
       <r>    0.8582    1.0000 </r>
       <r>    0.9216    1.0000 </r>
       <r>    0.9286    1.0000 </r>
       <r>    1.0291    1.0000 </r>
       <r>    1.0561    1.0000 </r>
       <r>    1.1061    1.0000 </r>
       <r>    1.1326    1.0000 </r>
       <r>    1.1451    1.0000 </r>
       <r>    1.1739    1.0000 </r>
       <r>    1.2303    1.0000 </r>
       <r>    1.2741    1.0000 </r>
       <r>    1.2780    1.0000 </r>
       <r>    1.3020    1.0000 </r>
       <r>    1.3688    1.0000 </r>
       <r>    1.3870    1.0000 </r>
       <r>    1.4422    1.0000 </r>
       <r>    1.4590    1.0000 </r>
       <r>    1.5446    1.0000 </r>
       <r>    1.5571    1.0000 </r>
       <r>    1.5798    1.0000 </r>
       <r>    1.6514    1.0000 </r>
       <r>    1.6883    1.0000 </r>
       <r>    1.7866    1.0000 </r>
       <r>    1.8126    1.0000 </r>
       <r>    1.8353    1.0000 </r>
       <r>    1.9100    1.0000 </r>
       <r>    1.9219    1.0000 </r>
       <r>    1.9754    1.0000 </r>
       <r>    2.0028    1.0000 </r>
       <r>    2.0371    1.0000 </r>
       <r>    2.0539    1.0000 </r>
       <r>    2.1158    1.0000 </r>
       <r>    2.1460    1.0000 </r>
       <r>    2.2731    1.0000 </r>
       <r>    2.2944    1.0000 </r>
       <r>    2.3660    1.0000 </r>
       <r>    2.3996    1.0000 </r>
       <r>    2.4428    1.0000 </r>
       <r>    2.4744    1.0000 </r>
       <r>    2.4973    1.0000 </r>
       <r>    2.5253    1.0000 </r>
       <r>    2.5745    1.0000 </r>
       <r>    2.5907    1.0000 </r>
       <r>    2.6287    1.0000 </r>
       <r>    2.6874    1.0000 </r>
       <r>    2.7171    1.0000 </r>
       <r>    2.7451    1.0000 </r>
       <r>    2.7932    1.0000 </r>
       <r>    2.8144    1.0000 </r>
       <r>    2.8486    1.0000 </r>
       <r>    2.8914    1.0000 </r>
       <r>    2.8958    1.0000 </r>
       <r>    2.9264    1.0000 </r>
       <r>    3.0175    1.0000 </r>
       <r>    3.0350    1.0000 </r>
       <r>    3.0804    1.0000 </r>
       <r>    3.1028    1.0000 </r>
       <r>    3.1260    1.0000 </r>
       <r>    3.1747    1.0000 </r>
       <r>    3.2409    1.0000 </r>
       <r>    3.3126    1.0000 </r>
       <r>    3.3366    1.0000 </r>
       <r>    3.4134    1.0000 </r>
       <r>    3.4255    1.0000 </r>
       <r>    3.5020    1.0000 </r>
       <r>    3.5354    1.0000 </r>
       <r>    3.5479    1.0000 </r>
       <r>    3.5769    1.0000 </r>
       <r>    3.6511    1.0000 </r>
       <r>    3.6753    1.0000 </r>
       <r>    5.5255    0.0000 </r>
       <r>    5.5355    0.0000 </r>
       <r>    5.6709    0.0000 </r>
       <r>    5.6880    0.0000 </r>
       <r>    5.6997    0.0000 </r>
       <r>    5.7189    0.0000 </r>
       <r>    5.8599    0.0000 </r>
       <r>    5.8765    0.0000 </r>
       <r>    7.1555    0.0000 </r>
       <r>    7.1959    0.0000 </r>
       <r>    7.2296    0.0000 </r>
       <r>    7.3129    0.0000 </r>
       <r>    7.3453    0.0000 </r>
       <r>    7.3554    0.0000 </r>
       <r>    7.3955    0.0000 </r>
       <r>    7.4176    0.0000 </r>
       <r>    7.4344    0.0000 </r>
       <r>    7.4843    0.0000 </r>
       <r>    7.5504    0.0000 </r>
       <r>    7.5850    0.0000 </r>
       <r>    7.7517    0.0000 </r>
       <r>    7.7810    0.0000 </r>
       <r>    7.8067    0.0000 </r>
       <r>    7.8321    0.0000 </r>
       <r>    7.8602    0.0000 </r>
       <r>    7.8669    0.0000 </r>
       <r>    7.9203    0.0000 </r>
       <r>    7.9478    0.0000 </r>
       <r>    7.9535    0.0000 </r>
       <r>    7.9652    0.0000 </r>
       <r>    8.0048    0.0000 </r>
       <r>    8.0596    0.0000 </r>
       <r>    8.1974    0.0000 </r>
       <r>    8.2205    0.0000 </r>
       <r>    8.3937    0.0000 </r>
       <r>    8.4992    0.0000 </r>
       <r>    8.5857    0.0000 </r>
       <r>    8.6774    0.0000 </r>
       <r>    8.7096    0.0000 </r>
       <r>    8.7278    0.0000 </r>
       <r>    8.7284    0.0000 </r>
       <r>    8.8271    0.0000 </r>
       <r>    8.8891    0.0000 </r>
       <r>    8.8992    0.0000 </r>
       <r>    9.0463    0.0000 </r>
       <r>    9.2571    0.0000 </r>
       <r>    9.2753    0.0000 </r>
       <r>    9.3263    0.0000 </r>
       <r>    9.5499    0.0000 </r>
       <r>    9.5629    0.0000 </r>
      </set>
      <set comment="kpoint 3">
       <r>  -40.2242    1.0000 </r>
       <r>  -40.0929    1.0000 </r>
       <r>  -40.0622    1.0000 </r>
       <r>  -39.6465    1.0000 </r>
       <r>  -39.6013    1.0000 </r>
       <r>  -39.4843    1.0000 </r>
       <r>  -18.9797    1.0000 </r>
       <r>  -18.9664    1.0000 </r>
       <r>  -18.9028    1.0000 </r>
       <r>  -18.8956    1.0000 </r>
       <r>  -18.8952    1.0000 </r>
       <r>  -18.8883    1.0000 </r>
       <r>  -18.8027    1.0000 </r>
       <r>  -18.7916    1.0000 </r>
       <r>  -18.7880    1.0000 </r>
       <r>  -18.7797    1.0000 </r>
       <r>  -18.7526    1.0000 </r>
       <r>  -18.7427    1.0000 </r>
       <r>  -18.7366    1.0000 </r>
       <r>  -18.7347    1.0000 </r>
       <r>  -18.7298    1.0000 </r>
       <r>  -18.7149    1.0000 </r>
       <r>  -18.7091    1.0000 </r>
       <r>  -18.7077    1.0000 </r>
       <r>  -18.6973    1.0000 </r>
       <r>  -18.6890    1.0000 </r>
       <r>  -18.6854    1.0000 </r>
       <r>  -18.6804    1.0000 </r>
       <r>  -18.6799    1.0000 </r>
       <r>  -18.6772    1.0000 </r>
       <r>  -18.6764    1.0000 </r>
       <r>  -18.6739    1.0000 </r>
       <r>  -18.6729    1.0000 </r>
       <r>  -18.6715    1.0000 </r>
       <r>  -18.6700    1.0000 </r>
       <r>  -18.6677    1.0000 </r>
       <r>  -18.6669    1.0000 </r>
       <r>  -18.6652    1.0000 </r>
       <r>  -18.6649    1.0000 </r>
       <r>  -18.6645    1.0000 </r>
       <r>  -18.6619    1.0000 </r>
       <r>  -18.6564    1.0000 </r>
       <r>  -18.6541    1.0000 </r>
       <r>  -18.6534    1.0000 </r>
       <r>  -18.6501    1.0000 </r>
       <r>  -18.6422    1.0000 </r>
       <r>  -18.6054    1.0000 </r>
       <r>  -18.5961    1.0000 </r>
       <r>  -18.5923    1.0000 </r>
       <r>  -18.5862    1.0000 </r>
       <r>  -18.5819    1.0000 </r>
       <r>  -18.5817    1.0000 </r>
       <r>  -18.5782    1.0000 </r>
       <r>  -18.5746    1.0000 </r>
       <r>  -18.5584    1.0000 </r>
       <r>  -18.5564    1.0000 </r>
       <r>  -18.5538    1.0000 </r>
       <r>  -18.5518    1.0000 </r>
       <r>  -18.5334    1.0000 </r>
       <r>  -18.5302    1.0000 </r>
       <r>  -18.5245    1.0000 </r>
       <r>  -18.5214    1.0000 </r>
       <r>  -18.5204    1.0000 </r>
       <r>  -18.5165    1.0000 </r>
       <r>  -18.5148    1.0000 </r>
       <r>  -18.5120    1.0000 </r>
       <r>  -18.5110    1.0000 </r>
       <r>  -18.5107    1.0000 </r>
       <r>  -18.5099    1.0000 </r>
       <r>  -18.5012    1.0000 </r>
       <r>  -18.4925    1.0000 </r>
       <r>  -18.4833    1.0000 </r>
       <r>  -18.4485    1.0000 </r>
       <r>  -18.4484    1.0000 </r>
       <r>  -18.4354    1.0000 </r>
       <r>  -18.4326    1.0000 </r>
       <r>  -18.4307    1.0000 </r>
       <r>  -18.4302    1.0000 </r>
       <r>  -18.4173    1.0000 </r>
       <r>  -18.4024    1.0000 </r>
       <r>  -18.3647    1.0000 </r>
       <r>  -18.3383    1.0000 </r>
       <r>  -18.2448    1.0000 </r>
       <r>  -18.2333    1.0000 </r>
       <r>  -18.2228    1.0000 </r>
       <r>  -18.2100    1.0000 </r>
       <r>  -13.6578    1.0000 </r>
       <r>  -13.5232    1.0000 </r>
       <r>  -12.9657    1.0000 </r>
       <r>  -12.9119    1.0000 </r>
       <r>  -12.8060    1.0000 </r>
       <r>  -12.7959    1.0000 </r>
       <r>  -12.7783    1.0000 </r>
       <r>  -12.7438    1.0000 </r>
       <r>  -12.7288    1.0000 </r>
       <r>  -12.6985    1.0000 </r>
       <r>  -12.6872    1.0000 </r>
       <r>  -12.6524    1.0000 </r>
       <r>  -12.6201    1.0000 </r>
       <r>  -12.5682    1.0000 </r>
       <r>  -12.0731    1.0000 </r>
       <r>  -11.9654    1.0000 </r>
       <r>   -9.3543    1.0000 </r>
       <r>   -9.0773    1.0000 </r>
       <r>   -8.5871    1.0000 </r>
       <r>   -8.5539    1.0000 </r>
       <r>   -8.5387    1.0000 </r>
       <r>   -8.4949    1.0000 </r>
       <r>   -8.3266    1.0000 </r>
       <r>   -8.2965    1.0000 </r>
       <r>   -8.2738    1.0000 </r>
       <r>   -8.2349    1.0000 </r>
       <r>   -8.0679    1.0000 </r>
       <r>   -8.0671    1.0000 </r>
       <r>   -8.0311    1.0000 </r>
       <r>   -8.0289    1.0000 </r>
       <r>   -7.3947    1.0000 </r>
       <r>   -7.3931    1.0000 </r>
       <r>   -6.4040    1.0000 </r>
       <r>   -6.3895    1.0000 </r>
       <r>   -6.3740    1.0000 </r>
       <r>   -6.3607    1.0000 </r>
       <r>   -5.5784    1.0000 </r>
       <r>   -5.5138    1.0000 </r>
       <r>   -5.4399    1.0000 </r>
       <r>   -5.4200    1.0000 </r>
       <r>   -5.4090    1.0000 </r>
       <r>   -5.3063    1.0000 </r>
       <r>   -5.1888    1.0000 </r>
       <r>   -5.1508    1.0000 </r>
       <r>   -5.1161    1.0000 </r>
       <r>   -5.0466    1.0000 </r>
       <r>   -3.9212    1.0000 </r>
       <r>   -3.6074    1.0000 </r>
       <r>   -1.3913    1.0000 </r>
       <r>   -1.3094    1.0000 </r>
       <r>   -1.2582    1.0000 </r>
       <r>   -1.1330    1.0000 </r>
       <r>   -0.4601    1.0000 </r>
       <r>   -0.4460    1.0000 </r>
       <r>   -0.4407    1.0000 </r>
       <r>   -0.4242    1.0000 </r>
       <r>   -0.3923    1.0000 </r>
       <r>   -0.3687    1.0000 </r>
       <r>   -0.3339    1.0000 </r>
       <r>   -0.3025    1.0000 </r>
       <r>   -0.1844    1.0000 </r>
       <r>   -0.1149    1.0000 </r>
       <r>    0.1045    1.0000 </r>
       <r>    0.1827    1.0000 </r>
       <r>    0.2185    1.0000 </r>
       <r>    0.2997    1.0000 </r>
       <r>    0.3610    1.0000 </r>
       <r>    0.3762    1.0000 </r>
       <r>    0.4862    1.0000 </r>
       <r>    0.6417    1.0000 </r>
       <r>    0.6695    1.0000 </r>
       <r>    0.7046    1.0000 </r>
       <r>    0.7186    1.0000 </r>
       <r>    0.7626    1.0000 </r>
       <r>    0.7797    1.0000 </r>
       <r>    0.7985    1.0000 </r>
       <r>    0.8519    1.0000 </r>
       <r>    0.9997    1.0000 </r>
       <r>    1.0869    1.0000 </r>
       <r>    1.1324    1.0000 </r>
       <r>    1.1924    1.0000 </r>
       <r>    1.2379    1.0000 </r>
       <r>    1.2985    1.0000 </r>
       <r>    1.3107    1.0000 </r>
       <r>    1.3594    1.0000 </r>
       <r>    1.3891    1.0000 </r>
       <r>    1.4817    1.0000 </r>
       <r>    1.5478    1.0000 </r>
       <r>    1.6086    1.0000 </r>
       <r>    1.6638    1.0000 </r>
       <r>    1.6847    1.0000 </r>
       <r>    1.7124    1.0000 </r>
       <r>    1.7225    1.0000 </r>
       <r>    1.8351    1.0000 </r>
       <r>    1.8710    1.0000 </r>
       <r>    1.8817    1.0000 </r>
       <r>    1.9079    1.0000 </r>
       <r>    1.9470    1.0000 </r>
       <r>    2.0095    1.0000 </r>
       <r>    2.0699    1.0000 </r>
       <r>    2.1709    1.0000 </r>
       <r>    2.2196    1.0000 </r>
       <r>    2.2616    1.0000 </r>
       <r>    2.3602    1.0000 </r>
       <r>    2.3713    1.0000 </r>
       <r>    2.4158    1.0000 </r>
       <r>    2.4761    1.0000 </r>
       <r>    2.5215    1.0000 </r>
       <r>    2.5310    1.0000 </r>
       <r>    2.5336    1.0000 </r>
       <r>    2.5500    1.0000 </r>
       <r>    2.5557    1.0000 </r>
       <r>    2.5599    1.0000 </r>
       <r>    2.5692    1.0000 </r>
       <r>    2.6437    1.0000 </r>
       <r>    2.6740    1.0000 </r>
       <r>    2.7130    1.0000 </r>
       <r>    2.7623    1.0000 </r>
       <r>    2.7956    1.0000 </r>
       <r>    2.8199    1.0000 </r>
       <r>    2.8511    1.0000 </r>
       <r>    2.8770    1.0000 </r>
       <r>    2.8944    1.0000 </r>
       <r>    2.9140    1.0000 </r>
       <r>    2.9659    1.0000 </r>
       <r>    2.9746    1.0000 </r>
       <r>    3.0054    1.0000 </r>
       <r>    3.0221    1.0000 </r>
       <r>    3.0583    1.0000 </r>
       <r>    3.1071    1.0000 </r>
       <r>    3.1457    1.0000 </r>
       <r>    3.2777    1.0000 </r>
       <r>    3.2985    1.0000 </r>
       <r>    3.3493    1.0000 </r>
       <r>    3.3724    1.0000 </r>
       <r>    3.3761    1.0000 </r>
       <r>    3.4261    1.0000 </r>
       <r>    3.4464    1.0000 </r>
       <r>    3.4632    1.0000 </r>
       <r>    3.5360    1.0000 </r>
       <r>    4.1986    1.0000 </r>
       <r>    4.2023    1.0000 </r>
       <r>    4.2406    1.0000 </r>
       <r>    4.2478    1.0000 </r>
       <r>    5.0868    0.0000 </r>
       <r>    5.0900    0.0000 </r>
       <r>    5.1883    0.0000 </r>
       <r>    5.1918    0.0000 </r>
       <r>    5.7208    0.0000 </r>
       <r>    5.7250    0.0000 </r>
       <r>    5.7944    0.0000 </r>
       <r>    5.7978    0.0000 </r>
       <r>    6.1230    0.0000 </r>
       <r>    6.1387    0.0000 </r>
       <r>    6.1494    0.0000 </r>
       <r>    6.1594    0.0000 </r>
       <r>    6.2139    0.0000 </r>
       <r>    6.2281    0.0000 </r>
       <r>    6.2441    0.0000 </r>
       <r>    6.2572    0.0000 </r>
       <r>    6.7092    0.0000 </r>
       <r>    6.8252    0.0000 </r>
       <r>    6.8862    0.0000 </r>
       <r>    7.0261    0.0000 </r>
       <r>    7.2265    0.0000 </r>
       <r>    7.2796    0.0000 </r>
       <r>    7.3445    0.0000 </r>
       <r>    7.4091    0.0000 </r>
       <r>    7.6687    0.0000 </r>
       <r>    7.8027    0.0000 </r>
       <r>    7.8943    0.0000 </r>
       <r>    7.9555    0.0000 </r>
       <r>    7.9717    0.0000 </r>
       <r>    8.2889    0.0000 </r>
       <r>    8.3153    0.0000 </r>
       <r>    8.4306    0.0000 </r>
       <r>    8.6567    0.0000 </r>
       <r>    8.6859    0.0000 </r>
       <r>    8.8759    0.0000 </r>
       <r>    8.8861    0.0000 </r>
       <r>    8.9846    0.0000 </r>
       <r>    9.0297    0.0000 </r>
       <r>    9.0409    0.0000 </r>
       <r>    9.0525    0.0000 </r>
       <r>    9.0723    0.0000 </r>
       <r>    9.0953    0.0000 </r>
       <r>    9.0990    0.0000 </r>
       <r>    9.2116    0.0000 </r>
       <r>    9.4444    0.0000 </r>
       <r>    9.4528    0.0000 </r>
       <r>    9.6376    0.0000 </r>
       <r>    9.6864    0.0000 </r>
       <r>    9.7513    0.0000 </r>
       <r>    9.7724    0.0000 </r>
      </set>
      <set comment="kpoint 4">
       <r>  -40.2242    1.0000 </r>
       <r>  -40.0929    1.0000 </r>
       <r>  -40.0622    1.0000 </r>
       <r>  -39.6465    1.0000 </r>
       <r>  -39.6013    1.0000 </r>
       <r>  -39.4843    1.0000 </r>
       <r>  -18.9797    1.0000 </r>
       <r>  -18.9664    1.0000 </r>
       <r>  -18.9027    1.0000 </r>
       <r>  -18.8956    1.0000 </r>
       <r>  -18.8952    1.0000 </r>
       <r>  -18.8883    1.0000 </r>
       <r>  -18.8026    1.0000 </r>
       <r>  -18.7916    1.0000 </r>
       <r>  -18.7880    1.0000 </r>
       <r>  -18.7797    1.0000 </r>
       <r>  -18.7524    1.0000 </r>
       <r>  -18.7426    1.0000 </r>
       <r>  -18.7361    1.0000 </r>
       <r>  -18.7346    1.0000 </r>
       <r>  -18.7296    1.0000 </r>
       <r>  -18.7147    1.0000 </r>
       <r>  -18.7091    1.0000 </r>
       <r>  -18.7081    1.0000 </r>
       <r>  -18.6977    1.0000 </r>
       <r>  -18.6893    1.0000 </r>
       <r>  -18.6861    1.0000 </r>
       <r>  -18.6806    1.0000 </r>
       <r>  -18.6791    1.0000 </r>
       <r>  -18.6780    1.0000 </r>
       <r>  -18.6767    1.0000 </r>
       <r>  -18.6743    1.0000 </r>
       <r>  -18.6729    1.0000 </r>
       <r>  -18.6708    1.0000 </r>
       <r>  -18.6697    1.0000 </r>
       <r>  -18.6687    1.0000 </r>
       <r>  -18.6678    1.0000 </r>
       <r>  -18.6651    1.0000 </r>
       <r>  -18.6638    1.0000 </r>
       <r>  -18.6632    1.0000 </r>
       <r>  -18.6621    1.0000 </r>
       <r>  -18.6568    1.0000 </r>
       <r>  -18.6539    1.0000 </r>
       <r>  -18.6533    1.0000 </r>
       <r>  -18.6497    1.0000 </r>
       <r>  -18.6422    1.0000 </r>
       <r>  -18.6054    1.0000 </r>
       <r>  -18.5961    1.0000 </r>
       <r>  -18.5924    1.0000 </r>
       <r>  -18.5862    1.0000 </r>
       <r>  -18.5819    1.0000 </r>
       <r>  -18.5818    1.0000 </r>
       <r>  -18.5782    1.0000 </r>
       <r>  -18.5746    1.0000 </r>
       <r>  -18.5584    1.0000 </r>
       <r>  -18.5564    1.0000 </r>
       <r>  -18.5538    1.0000 </r>
       <r>  -18.5518    1.0000 </r>
       <r>  -18.5334    1.0000 </r>
       <r>  -18.5302    1.0000 </r>
       <r>  -18.5245    1.0000 </r>
       <r>  -18.5214    1.0000 </r>
       <r>  -18.5204    1.0000 </r>
       <r>  -18.5165    1.0000 </r>
       <r>  -18.5148    1.0000 </r>
       <r>  -18.5120    1.0000 </r>
       <r>  -18.5110    1.0000 </r>
       <r>  -18.5107    1.0000 </r>
       <r>  -18.5099    1.0000 </r>
       <r>  -18.5012    1.0000 </r>
       <r>  -18.4925    1.0000 </r>
       <r>  -18.4833    1.0000 </r>
       <r>  -18.4485    1.0000 </r>
       <r>  -18.4484    1.0000 </r>
       <r>  -18.4354    1.0000 </r>
       <r>  -18.4326    1.0000 </r>
       <r>  -18.4307    1.0000 </r>
       <r>  -18.4302    1.0000 </r>
       <r>  -18.4173    1.0000 </r>
       <r>  -18.4024    1.0000 </r>
       <r>  -18.3647    1.0000 </r>
       <r>  -18.3384    1.0000 </r>
       <r>  -18.2448    1.0000 </r>
       <r>  -18.2333    1.0000 </r>
       <r>  -18.2228    1.0000 </r>
       <r>  -18.2100    1.0000 </r>
       <r>  -13.6577    1.0000 </r>
       <r>  -13.5232    1.0000 </r>
       <r>  -12.9544    1.0000 </r>
[...]
       <r>    8.8067    0.0000 </r>
       <r>    8.8357    0.0000 </r>
       <r>    8.8567    0.0000 </r>
       <r>    8.8632    0.0000 </r>
       <r>    8.8844    0.0000 </r>
       <r>    8.9016    0.0000 </r>
       <r>    8.9118    0.0000 </r>
       <r>    9.5293    0.0000 </r>
       <r>    9.8901    0.0000 </r>
      </set>
     </set>
    </set>
   </array>
  </eigenvalues>
  <separator name="orbital magnetization" >
   <v name="MAGDIPOLOUT">      0.00000000      0.00000000      0.00000000</v>
  </separator>
  <dos>
   <i name="efermi">      4.32084386 </i>
   <total>
    <array>
     <dimension dim="1">gridpoints</dimension>
     <dimension dim="2">spin</dimension>
     <field>energy</field>
     <field>total</field>
     <field>integrated</field>
     <set>
      <set comment="spin 1">
       <r>   -42.7383     0.0000     0.0000 </r>
       <r>   -42.5539     0.0000     0.0000 </r>
       <r>   -42.3696     0.0000     0.0000 </r>
       <r>   -42.1852     0.0000     0.0000 </r>
       <r>   -42.0009     0.0000     0.0000 </r>
       <r>   -41.8165     0.0000     0.0000 </r>
       <r>   -41.6321     0.0000     0.0000 </r>
       <r>   -41.4478     0.0000     0.0000 </r>
       <r>   -41.2634     0.0000     0.0000 </r>
       <r>   -41.0790     0.0000     0.0000 </r>
       <r>   -40.8947     0.0000     0.0000 </r>
       <r>   -40.7103     0.0000     0.0000 </r>
       <r>   -40.5259     0.0000     0.0000 </r>
       <r>   -40.3416     0.0000     0.0000 </r>
       <r>   -40.1572     0.0000     2.0000 </r>
       <r>   -39.9728     0.0000     6.0000 </r>
       <r>   -39.7885     0.0000     6.0000 </r>
       <r>   -39.6041     0.0000     8.0000 </r>
       <r>   -39.4197     0.0000    12.0000 </r>
       <r>   -39.2354     0.0000    12.0000 </r>
       <r>   -39.0510     0.0000    12.0000 </r>
       <r>   -38.8666     0.0000    12.0000 </r>
       <r>   -38.6823     0.0000    12.0000 </r>
       <r>   -38.4979     0.0000    12.0000 </r>
       <r>   -38.3136     0.0000    12.0000 </r>
       <r>   -38.1292     0.0000    12.0000 </r>
       <r>   -37.9448     0.0000    12.0000 </r>
       <r>   -37.7605     0.0000    12.0000 </r>
       <r>   -37.5761     0.0000    12.0000 </r>
       <r>   -37.3917     0.0000    12.0000 </r>
       <r>   -37.2074     0.0000    12.0000 </r>
       <r>   -37.0230     0.0000    12.0000 </r>
       <r>   -36.8386     0.0000    12.0000 </r>
       <r>   -36.6543     0.0000    12.0000 </r>
       <r>   -36.4699     0.0000    12.0000 </r>
       <r>   -36.2855     0.0000    12.0000 </r>
       <r>   -36.1012     0.0000    12.0000 </r>
       <r>   -35.9168     0.0000    12.0000 </r>
       <r>   -35.7324     0.0000    12.0000 </r>
       <r>   -35.5481     0.0000    12.0000 </r>
       <r>   -35.3637     0.0000    12.0000 </r>
       <r>   -35.1793     0.0000    12.0000 </r>
       <r>   -34.9950     0.0000    12.0000 </r>
       <r>   -34.8106     0.0000    12.0000 </r>
       <r>   -34.6263     0.0000    12.0000 </r>
       <r>   -34.4419     0.0000    12.0000 </r>
       <r>   -34.2575     0.0000    12.0000 </r>
       <r>   -34.0732     0.0000    12.0000 </r>
       <r>   -33.8888     0.0000    12.0000 </r>
       <r>   -33.7044     0.0000    12.0000 </r>
       <r>   -33.5201     0.0000    12.0000 </r>
       <r>   -33.3357     0.0000    12.0000 </r>
       <r>   -33.1513     0.0000    12.0000 </r>
       <r>   -32.9670     0.0000    12.0000 </r>
       <r>   -32.7826     0.0000    12.0000 </r>
       <r>   -32.5982     0.0000    12.0000 </r>
       <r>   -32.4139     0.0000    12.0000 </r>
       <r>   -32.2295     0.0000    12.0000 </r>
       <r>   -32.0451     0.0000    12.0000 </r>
       <r>   -31.8608     0.0000    12.0000 </r>
       <r>   -31.6764     0.0000    12.0000 </r>
       <r>   -31.4921     0.0000    12.0000 </r>
       <r>   -31.3077     0.0000    12.0000 </r>
       <r>   -31.1233     0.0000    12.0000 </r>
       <r>   -30.9390     0.0000    12.0000 </r>
       <r>   -30.7546     0.0000    12.0000 </r>
       <r>   -30.5702     0.0000    12.0000 </r>
       <r>   -30.3859     0.0000    12.0000 </r>
       <r>   -30.2015     0.0000    12.0000 </r>
       <r>   -30.0171     0.0000    12.0000 </r>
       <r>   -29.8328     0.0000    12.0000 </r>
       <r>   -29.6484     0.0000    12.0000 </r>
       <r>   -29.4640     0.0000    12.0000 </r>
       <r>   -29.2797     0.0000    12.0000 </r>
       <r>   -29.0953     0.0000    12.0000 </r>
       <r>   -28.9109     0.0000    12.0000 </r>
       <r>   -28.7266     0.0000    12.0000 </r>
       <r>   -28.5422     0.0000    12.0000 </r>
       <r>   -28.3578     0.0000    12.0000 </r>
       <r>   -28.1735     0.0000    12.0000 </r>
       <r>   -27.9891     0.0000    12.0000 </r>
       <r>   -27.8048     0.0000    12.0000 </r>
       <r>   -27.6204     0.0000    12.0000 </r>
       <r>   -27.4360     0.0000    12.0000 </r>
       <r>   -27.2517     0.0000    12.0000 </r>
       <r>   -27.0673     0.0000    12.0000 </r>
       <r>   -26.8829     0.0000    12.0000 </r>
       <r>   -26.6986     0.0000    12.0000 </r>
       <r>   -26.5142     0.0000    12.0000 </r>
       <r>   -26.3298     0.0000    12.0000 </r>
       <r>   -26.1455     0.0000    12.0000 </r>
       <r>   -25.9611     0.0000    12.0000 </r>
       <r>   -25.7767     0.0000    12.0000 </r>
       <r>   -25.5924     0.0000    12.0000 </r>
       <r>   -25.4080     0.0000    12.0000 </r>
       <r>   -25.2236     0.0000    12.0000 </r>
       <r>   -25.0393     0.0000    12.0000 </r>
       <r>   -24.8549     0.0000    12.0000 </r>
       <r>   -24.6705     0.0000    12.0000 </r>
       <r>   -24.4862     0.0000    12.0000 </r>
       <r>   -24.3018     0.0000    12.0000 </r>
       <r>   -24.1175     0.0000    12.0000 </r>
       <r>   -23.9331     0.0000    12.0000 </r>
       <r>   -23.7487     0.0000    12.0000 </r>
       <r>   -23.5644     0.0000    12.0000 </r>
       <r>   -23.3800     0.0000    12.0000 </r>
       <r>   -23.1956     0.0000    12.0000 </r>
       <r>   -23.0113     0.0000    12.0000 </r>
       <r>   -22.8269     0.0000    12.0000 </r>
       <r>   -22.6425     0.0000    12.0000 </r>
       <r>   -22.4582     0.0000    12.0000 </r>
       <r>   -22.2738     0.0000    12.0000 </r>
       <r>   -22.0894     0.0000    12.0000 </r>
       <r>   -21.9051     0.0000    12.0000 </r>
       <r>   -21.7207     0.0000    12.0000 </r>
       <r>   -21.5363     0.0000    12.0000 </r>
       <r>   -21.3520     0.0000    12.0000 </r>
       <r>   -21.1676     0.0000    12.0000 </r>
       <r>   -20.9832     0.0000    12.0000 </r>
       <r>   -20.7989     0.0000    12.0000 </r>
       <r>   -20.6145     0.0000    12.0000 </r>
       <r>   -20.4302     0.0000    12.0000 </r>
       <r>   -20.2458     0.0000    12.0000 </r>
       <r>   -20.0614     0.0000    12.0000 </r>
       <r>   -19.8771     0.0000    12.0000 </r>
       <r>   -19.6927     0.0000    12.0000 </r>
       <r>   -19.5083     0.0000    12.0000 </r>
       <r>   -19.3240     0.0000    12.0000 </r>
       <r>   -19.1396     0.0000    12.0000 </r>
       <r>   -18.9552     0.0000    16.0000 </r>
       <r>   -18.7709     0.0000    32.0000 </r>
       <r>   -18.5865     0.0000    98.0000 </r>
       <r>   -18.4021     0.0000   160.0000 </r>
       <r>   -18.2178     0.0000   170.0000 </r>
       <r>   -18.0334     0.0000   172.0000 </r>
       <r>   -17.8490     0.0000   172.0000 </r>
       <r>   -17.6647     0.0000   172.0000 </r>
       <r>   -17.4803     0.0000   172.0000 </r>
       <r>   -17.2959     0.0000   172.0000 </r>
       <r>   -17.1116     0.0000   172.0000 </r>
       <r>   -16.9272     0.0000   172.0000 </r>
       <r>   -16.7429     0.0000   172.0000 </r>
       <r>   -16.5585     0.0000   172.0000 </r>
       <r>   -16.3741     0.0000   172.0000 </r>
       <r>   -16.1898     0.0000   172.0000 </r>
       <r>   -16.0054     0.0000   172.0000 </r>
       <r>   -15.8210     0.0000   172.0000 </r>
       <r>   -15.6367     0.0000   172.0000 </r>
       <r>   -15.4523     0.0000   172.0000 </r>
       <r>   -15.2679     0.0000   172.0000 </r>
       <r>   -15.0836     0.0000   172.0000 </r>
       <r>   -14.8992     0.0000   172.0000 </r>
       <r>   -14.7148     0.0000   172.0000 </r>
       <r>   -14.5305     0.0000   172.0000 </r>
       <r>   -14.3461     0.0000   172.0000 </r>
       <r>   -14.1617     0.0000   172.0000 </r>
       <r>   -13.9774     0.0000   172.0000 </r>
       <r>   -13.7930     0.0000   172.0000 </r>
       <r>   -13.6086     0.0000   174.0000 </r>
       <r>   -13.4243     0.0000   176.0000 </r>
       <r>   -13.2399     0.0000   176.0000 </r>
       <r>   -13.0556     0.0000   176.0000 </r>
       <r>   -12.8712     0.0000   180.0000 </r>
       <r>   -12.6868    83.0053   191.9266 </r>
       <r>   -12.5025     0.0000   200.0000 </r>
       <r>   -12.3181     0.0000   200.0000 </r>
       <r>   -12.1337     0.0000   200.0000 </r>
       <r>   -11.9494     0.0000   204.0000 </r>
       <r>   -11.7650     0.0000   204.0000 </r>
       <r>   -11.5806     0.0000   204.0000 </r>
       <r>   -11.3963     0.0000   204.0000 </r>
       <r>   -11.2119     0.0000   204.0000 </r>
       <r>   -11.0275     0.0000   204.0000 </r>
       <r>   -10.8432     0.0000   204.0000 </r>
       <r>   -10.6588     0.0000   204.0000 </r>
       <r>   -10.4744     0.0000   204.0000 </r>
       <r>   -10.2901     0.0000   204.0000 </r>
       <r>   -10.1057     0.0000   204.0000 </r>
       <r>    -9.9213     0.0000   204.0000 </r>
       <r>    -9.7370     0.0000   204.0000 </r>
       <r>    -9.5526     0.0000   204.0000 </r>
       <r>    -9.3683     0.0000   204.0000 </r>
       <r>    -9.1839    10.7707   205.1196 </r>
       <r>    -8.9995     4.2817   207.9685 </r>
       <r>    -8.8152    20.0723   209.7498 </r>
       <r>    -8.6308    12.4151   212.2795 </r>
       <r>    -8.4464    34.5165   215.9857 </r>
       <r>    -8.2621     4.0224   220.0473 </r>
       <r>    -8.0777    39.8392   224.0282 </r>
       <r>    -7.8933    18.1882   228.2484 </r>
       <r>    -7.7090    19.5129   231.7046 </r>
       <r>    -7.5246    14.9556   235.0115 </r>
       <r>    -7.3402     0.0000   236.0000 </r>
       <r>    -7.1559     0.0000   236.0000 </r>
       <r>    -6.9715     0.0000   236.0000 </r>
       <r>    -6.7871     0.0000   236.0000 </r>
       <r>    -6.6028     0.0000   236.0000 </r>
       <r>    -6.4184     0.0000   236.0000 </r>
       <r>    -6.2341    15.6954   237.2450 </r>
       <r>    -6.0497    22.3207   241.6027 </r>
       <r>    -5.8653    18.4649   244.9897 </r>
       <r>    -5.6810    20.4591   249.7586 </r>
       <r>    -5.4966    22.3656   253.7566 </r>
       <r>    -5.3122    17.5070   257.5331 </r>
       <r>    -5.1279     5.7601   259.7193 </r>
       <r>    -4.9435     6.7756   260.5764 </r>
       <r>    -4.7591     8.0581   261.9732 </r>
       <r>    -4.5748    10.3534   263.7054 </r>
       <r>    -4.3904     5.9247   265.1519 </r>
       <r>    -4.2060     7.0361   266.4249 </r>
       <r>    -4.0217     3.9242   267.4461 </r>
       <r>    -3.8373     1.2035   267.8863 </r>
       <r>    -3.6529     0.0757   267.9989 </r>
       <r>    -3.4686     0.0000   268.0000 </r>
       <r>    -3.2842     0.0000   268.0000 </r>
       <r>    -3.0998     0.0000   268.0000 </r>
       <r>    -2.9155     0.0000   268.0000 </r>
       <r>    -2.7311     0.0000   268.0000 </r>
       <r>    -2.5468     0.0000   268.0000 </r>
       <r>    -2.3624     0.0000   268.0000 </r>
       <r>    -2.1780     0.0000   268.0000 </r>
       <r>    -1.9937     0.0000   268.0000 </r>
       <r>    -1.8093     0.0000   268.0000 </r>
       <r>    -1.6249     0.0000   268.0000 </r>
       <r>    -1.4406     0.2818   268.0041 </r>
       <r>    -1.2562     7.1727   268.5671 </r>
       <r>    -1.0718    10.8459   270.3362 </r>
       <r>    -0.8875    13.4072   272.7656 </r>
       <r>    -0.7031     7.8795   274.7174 </r>
       <r>    -0.5187    12.4901   275.9104 </r>
       <r>    -0.3344    20.3939   279.1102 </r>
       <r>    -0.1500    37.5860   283.9292 </r>
       <r>     0.0344    33.8895   291.4001 </r>
       <r>     0.2187    30.5246   296.8622 </r>
       <r>     0.4031    42.9038   303.9816 </r>
       <r>     0.5875    38.8052   311.3765 </r>
       <r>     0.7718    42.7956   317.7022 </r>
       <r>     0.9562    40.4675   325.4309 </r>
       <r>     1.1405    55.6609   334.3317 </r>
       <r>     1.3249    51.0875   343.1418 </r>
       <r>     1.5093    49.5269   352.3693 </r>
       <r>     1.6936    38.0301   361.3293 </r>
       <r>     1.8780    35.2949   368.8141 </r>
       <r>     2.0624    47.4903   375.7479 </r>
       <r>     2.2467    40.5015   383.9475 </r>
       <r>     2.4311    59.3582   393.1587 </r>
       <r>     2.6155    60.7520   403.5673 </r>
       <r>     2.7998    59.1209   415.1712 </r>
       <r>     2.9842    64.4703   427.6250 </r>
       <r>     3.1686    52.9600   438.4594 </r>
       <r>     3.3529    36.0788   445.4435 </r>
       <r>     3.5373    33.2322   453.0555 </r>
       <r>     3.7217    14.6735   456.4759 </r>
       <r>     3.9060     9.0287   458.6609 </r>
       <r>     4.0904     3.3742   459.8044 </r>
       <r>     4.2748     0.0000   460.0000 </r>
       <r>     4.4591     0.0000   460.0000 </r>
       <r>     4.6435     0.0000   460.0000 </r>
       <r>     4.8278     0.0000   460.0000 </r>
       <r>     5.0122     0.0002   460.0000 </r>
       <r>     5.1966     1.9521   460.1240 </r>
       <r>     5.3809     5.9055   460.8482 </r>
       <r>     5.5653     9.5417   462.2982 </r>
       <r>     5.7497    21.8366   464.9214 </r>
       <r>     5.9340    13.9387   468.4345 </r>
       <r>     6.1184    11.6478   470.7834 </r>
       <r>     6.3028    12.3385   472.9457 </r>
       <r>     6.4871    14.2091   475.3935 </r>
       <r>     6.6715    16.0417   478.1829 </r>
       <r>     6.8559    18.0219   481.3093 </r>
       <r>     7.0402    22.7307   484.9757 </r>
       <r>     7.2246    33.4917   490.1159 </r>
       <r>     7.4090    42.3395   497.2376 </r>
       <r>     7.5933    23.9153   502.8754 </r>
       <r>     7.7777    47.3464   509.5989 </r>
       <r>     7.9621    42.6624   518.8888 </r>
       <r>     8.1464    21.3808   524.0625 </r>
       <r>     8.3308    18.9117   527.5960 </r>
       <r>     8.5151    23.4588   531.4269 </r>
       <r>     8.6995    24.4448   536.0333 </r>
       <r>     8.8839    43.2238   543.5865 </r>
       <r>     9.0682    20.8844   549.3727 </r>
       <r>     9.2526    14.1799   552.4203 </r>
       <r>     9.4370    14.4847   554.9096 </r>
       <r>     9.6213    13.8848   557.4820 </r>
       <r>     9.8057     5.9610   559.2373 </r>
       <r>     9.9901     1.1398   559.9720 </r>
       <r>    10.1744     0.0000   560.0000 </r>
       <r>    10.3588     0.0000   560.0000 </r>
       <r>    10.5432     0.0000   560.0000 </r>
       <r>    10.7275     0.0000   560.0000 </r>
       <r>    10.9119     0.0000   560.0000 </r>
       <r>    11.0963     0.0000   560.0000 </r>
       <r>    11.2806     0.0000   560.0000 </r>
       <r>    11.4650     0.0000   560.0000 </r>
       <r>    11.6494     0.0000   560.0000 </r>
       <r>    11.8337     0.0000   560.0000 </r>
       <r>    12.0181     0.0000   560.0000 </r>
       <r>    12.2024     0.0000   560.0000 </r>
       <r>    12.3868     0.0000   560.0000 </r>
       <r>    12.5712     0.0000   560.0000 </r>
      </set>
     </set>
    </array>
   </total>
  </dos>
 </calculation>
 <structure name="finalpos" >
  <crystal>
   <varray name="basis" >
    <v>      11.17850000       0.00000000       0.00000000 </v>
    <v>       0.00000000       9.57460000       0.00000000 </v>
    <v>       0.00000000       0.00000000      11.18240000 </v>
   </varray>
   <i name="volume">   1196.84853820 </i>
   <varray name="rec_basis" >
    <v>       0.08945744       0.00000000       0.00000000 </v>
    <v>       0.00000000       0.10444301       0.00000000 </v>
    <v>       0.00000000       0.00000000       0.08942624 </v>
   </varray>
  </crystal>
  <varray name="positions" >
   <v>       0.37461000       0.00017000       0.18687000 </v>
   <v>       0.62461000       0.99984000       0.18687000 </v>
   <v>       0.12539000       0.99984000       0.93687000 </v>
   <v>       0.37539000       0.00017000       0.93687000 </v>
   <v>       0.62539000       0.99984000       0.93687000 </v>
   <v>       0.87539000       0.00017000       0.93687000 </v>
   <v>       0.37539000       0.00017000       0.43687000 </v>
   <v>       0.87539000       0.00017000       0.43687000 </v>
   <v>       0.87461000       0.00017000       0.18687000 </v>
   <v>       0.12461000       0.99984000       0.68687000 </v>
   <v>       0.62461000       0.99984000       0.68687000 </v>
   <v>       0.00013000       0.29519000       0.06281000 </v>
   <v>       0.25013000       0.70481000       0.06281000 </v>
   <v>       0.24987000       0.29519000       0.31282000 </v>
   <v>       0.49987000       0.70481000       0.31282000 </v>
   <v>       0.50013000       0.29519000       0.06281000 </v>
   <v>       0.75013000       0.70481000       0.06281000 </v>
   <v>       0.74987000       0.29519000       0.31282000 </v>
   <v>       0.99987000       0.70481000       0.31282000 </v>
   <v>       0.00013000       0.29519000       0.56281000 </v>
   <v>       0.25013000       0.70481000       0.56281000 </v>
   <v>       0.24987000       0.29519000       0.81282000 </v>
   <v>       0.49987000       0.70481000       0.81282000 </v>
   <v>       0.50013000       0.29519000       0.56281000 </v>
   <v>       0.75013000       0.70481000       0.56281000 </v>
   <v>       0.74987000       0.29519000       0.81282000 </v>
   <v>       0.99987000       0.70481000       0.81282000 </v>
   <v>       0.25005000       0.32677000       0.06286000 </v>
   <v>       0.00005000       0.67323000       0.06286000 </v>
   <v>       0.49995000       0.32677000       0.31286000 </v>
   <v>       0.24995000       0.67323000       0.31286000 </v>
   <v>       0.75005000       0.32677000       0.06286000 </v>
   <v>       0.50005000       0.67323000       0.06286000 </v>
   <v>       0.99995000       0.32677000       0.31286000 </v>
   <v>       0.74995000       0.67323000       0.31286000 </v>
   <v>       0.25005000       0.32677000       0.56286000 </v>
   <v>       0.00005000       0.67323000       0.56286000 </v>
   <v>       0.49995000       0.32677000       0.81286000 </v>
   <v>       0.24995000       0.67323000       0.81286000 </v>
   <v>       0.75005000       0.32677000       0.56286000 </v>
   <v>       0.50005000       0.67323000       0.56286000 </v>
   <v>       0.99995000       0.32677000       0.81286000 </v>
   <v>       0.74995000       0.67323000       0.81286000 </v>
   <v>       0.49987000       0.07798000       0.06246000 </v>
   <v>       0.24987000       0.92202000       0.06246000 </v>
   <v>       0.25013000       0.07798000       0.31246000 </v>
   <v>       0.00013000       0.92202000       0.31246000 </v>
   <v>       0.99987000       0.07798000       0.06246000 </v>
   <v>       0.74987000       0.92202000       0.06246000 </v>
   <v>       0.75013000       0.07798000       0.31246000 </v>
   <v>       0.50013000       0.92202000       0.31246000 </v>
   <v>       0.49987000       0.07798000       0.56246000 </v>
   <v>       0.24987000       0.92202000       0.56246000 </v>
   <v>       0.25013000       0.07798000       0.81246000 </v>
   <v>       0.00013000       0.92202000       0.81246000 </v>
   <v>       0.99987000       0.07798000       0.56246000 </v>
   <v>       0.74987000       0.92202000       0.56246000 </v>
   <v>       0.75013000       0.07798000       0.81246000 </v>
   <v>       0.50013000       0.92202000       0.81246000 </v>
  </varray>
 </structure>
</modeling>
