<?xml version="1.0" encoding="ISO-8859-1"?>
<modeling>
 <generator>
  <i name="program" type="string">vasp </i>
  <i name="version" type="string">5.4.4.18Apr17-6-g9f103f2a35  </i>
  <i name="subversion" type="string">(build Jul 31 2017 11:33:29) complex            parallel </i>
  <i name="platform" type="string">LinuxIFC </i>
  <i name="date" type="string">2021 09 29 </i>
  <i name="time" type="string">15:34:25 </i>
 </generator>
 <incar>
  <i type="string" name="SYSTEM"> La2O2S</i>
  <i type="string" name="PREC">normal</i>
  <i type="int" name="NELMIN">     4</i>
  <i type="int" name="IBRION">     2</i>
  <i type="int" name="NFREE">    10</i>
  <i name="EDIFF">      0.00000100</i>
  <i name="EDIFFG">     -0.01000000</i>
  <i type="int" name="NSW">     1</i>
  <i type="int" name="ISIF">     2</i>
  <i name="ENCUT">    600.00000000</i>
  <i name="ENAUG">    900.00000000</i>
  <i type="int" name="ISMEAR">    -5</i>
  <i type="logical" name="LWAVE"> F  </i>
  <i type="logical" name="LCHARG"> F  </i>
  <v type="int" name="KPOINT_BSE">    -1     0     0     0</v>
 </incar>
 <structure name="primitive_cell" >
  <crystal>
   <varray name="basis" >
    <v>      11.17850000       0.00000000       0.00000000 </v>
    <v>       0.00000000       9.57460000       0.00000000 </v>
    <v>       0.00000000       0.00000000      11.18240000 </v>
   </varray>
   <i name="volume">   1196.84853820 </i>
   <varray name="rec_basis" >
    <v>       0.08945744       0.00000000       0.00000000 </v>
    <v>       0.00000000       0.10444301       0.00000000 </v>
    <v>       0.00000000       0.00000000       0.08942624 </v>
   </varray>
  </crystal>
  <varray name="positions" >
   <v>       0.37539000       0.00017000       0.43687000 </v>
   <v>      -0.49987000      -0.07798000       0.31246000 </v>
   <v>       0.25013000       0.07798000       0.31246000 </v>
   <v>       0.49987000       0.07798000      -0.43754000 </v>
   <v>       0.24987000      -0.07798000      -0.43754000 </v>
   <v>      -0.37461000      -0.00016000       0.43687000 </v>
   <v>       0.49987000      -0.29519000       0.31282000 </v>
   <v>       0.24987000       0.29519000       0.31282000 </v>
   <v>      -0.49987000       0.29519000      -0.43719000 </v>
   <v>       0.25013000      -0.29519000      -0.43719000 </v>
   <v>       0.49995000       0.32677000       0.31286000 </v>
   <v>       0.24995000      -0.32677000       0.31286000 </v>
   <v>      -0.49995000      -0.32677000      -0.43714000 </v>
   <v>       0.25005000       0.32677000      -0.43714000 </v>
   <v>      -0.37539000      -0.00016000       0.18687000 </v>
   <v>      -0.37539000      -0.00016000      -0.31313000 </v>
   <v>       0.12461000      -0.00016000       0.18687000 </v>
   <v>       0.12461000      -0.00016000      -0.31313000 </v>
   <v>       0.49987000       0.07798000       0.06246000 </v>
   <v>      -0.24987000       0.07798000       0.31246000 </v>
   <v>      -0.25013000      -0.07798000      -0.43754000 </v>
   <v>       0.24987000      -0.07798000       0.06246000 </v>
   <v>       0.00013000      -0.07798000       0.31246000 </v>
   <v>      -0.49987000      -0.07798000      -0.18754000 </v>
   <v>      -0.00013000       0.07798000      -0.43754000 </v>
   <v>       0.25013000       0.07798000      -0.18754000 </v>
   <v>      -0.49987000       0.29519000       0.06281000 </v>
   <v>      -0.25013000       0.29519000       0.31282000 </v>
   <v>       0.25013000      -0.29519000       0.06281000 </v>
   <v>      -0.24987000      -0.29519000      -0.43719000 </v>
   <v>      -0.00013000      -0.29519000       0.31282000 </v>
   <v>       0.00013000       0.29519000      -0.43719000 </v>
   <v>       0.49987000      -0.29519000      -0.18718000 </v>
   <v>       0.24987000       0.29519000      -0.18718000 </v>
   <v>      -0.49995000      -0.32677000       0.06286000 </v>
   <v>       0.25005000       0.32677000       0.06286000 </v>
   <v>      -0.25005000      -0.32677000       0.31286000 </v>
   <v>      -0.24995000       0.32677000      -0.43714000 </v>
   <v>      -0.00005000       0.32677000       0.31286000 </v>
   <v>       0.00005000      -0.32677000      -0.43714000 </v>
   <v>       0.49995000       0.32677000      -0.18714000 </v>
   <v>       0.24995000      -0.32677000      -0.18714000 </v>
   <v>      -0.12461000       0.00017000       0.43687000 </v>
   <v>       0.37539000       0.00017000      -0.06313000 </v>
   <v>      -0.25013000      -0.07798000       0.06246000 </v>
   <v>      -0.00013000       0.07798000       0.06246000 </v>
   <v>      -0.24987000       0.07798000      -0.18754000 </v>
   <v>       0.00013000      -0.07798000      -0.18754000 </v>
   <v>      -0.12539000       0.00017000       0.18687000 </v>
   <v>      -0.37461000      -0.00016000      -0.06313000 </v>
   <v>      -0.24987000      -0.29519000       0.06281000 </v>
   <v>       0.00013000       0.29519000       0.06281000 </v>
   <v>      -0.25013000       0.29519000      -0.18718000 </v>
   <v>      -0.00013000      -0.29519000      -0.18718000 </v>
   <v>      -0.24995000       0.32677000       0.06286000 </v>
   <v>       0.00005000      -0.32677000       0.06286000 </v>
   <v>      -0.25005000      -0.32677000      -0.18714000 </v>
   <v>      -0.00005000       0.32677000      -0.18714000 </v>
   <v>      -0.12461000       0.00017000      -0.06313000 </v>
  </varray>
 </structure>
 <varray name="primitive_index" >
  <v type="int" >        1 </v>
  <v type="int" >       51 </v>
  <v type="int" >       46 </v>
  <v type="int" >       52 </v>
  <v type="int" >       53 </v>
  <v type="int" >        2 </v>
  <v type="int" >       15 </v>
  <v type="int" >       14 </v>
  <v type="int" >       24 </v>
  <v type="int" >       21 </v>
  <v type="int" >       30 </v>
  <v type="int" >       31 </v>
  <v type="int" >       41 </v>
  <v type="int" >       36 </v>
  <v type="int" >        4 </v>
  <v type="int" >       11 </v>
  <v type="int" >        7 </v>
  <v type="int" >        9 </v>
  <v type="int" >       44 </v>
  <v type="int" >       50 </v>
  <v type="int" >       57 </v>
  <v type="int" >       45 </v>
  <v type="int" >       47 </v>
  <v type="int" >       59 </v>
  <v type="int" >       56 </v>
  <v type="int" >       54 </v>
  <v type="int" >       16 </v>
  <v type="int" >       18 </v>
  <v type="int" >       13 </v>
  <v type="int" >       25 </v>
  <v type="int" >       19 </v>
  <v type="int" >       20 </v>
  <v type="int" >       23 </v>
  <v type="int" >       22 </v>
  <v type="int" >       33 </v>
  <v type="int" >       28 </v>
  <v type="int" >       35 </v>
  <v type="int" >       40 </v>
  <v type="int" >       34 </v>
  <v type="int" >       37 </v>
  <v type="int" >       38 </v>
  <v type="int" >       39 </v>
  <v type="int" >        3 </v>
  <v type="int" >        8 </v>
  <v type="int" >       49 </v>
  <v type="int" >       48 </v>
  <v type="int" >       58 </v>
  <v type="int" >       55 </v>
  <v type="int" >        5 </v>
  <v type="int" >        6 </v>
  <v type="int" >       17 </v>
  <v type="int" >       12 </v>
  <v type="int" >       26 </v>
  <v type="int" >       27 </v>
  <v type="int" >       32 </v>
  <v type="int" >       29 </v>
  <v type="int" >       43 </v>
  <v type="int" >       42 </v>
  <v type="int" >       10 </v>
 </varray>
 <kpoints>
  <generation param="Gamma">
   <v type="int" name="divisions">       2        2        2 </v>
   <v name="usershift">      0.00000000       0.00000000       0.00000000 </v>
   <v name="genvec1">      0.50000000       0.00000000       0.00000000 </v>
   <v name="genvec2">      0.00000000       0.50000000       0.00000000 </v>
   <v name="genvec3">      0.00000000       0.00000000       0.50000000 </v>
   <v name="shift">      0.00000000       0.00000000       0.00000000 </v>
  </generation>
  <varray name="kpointlist" >
   <v>       0.00000000       0.00000000       0.00000000 </v>
   <v>       0.50000000       0.00000000       0.00000000 </v>
   <v>       0.00000000       0.50000000       0.00000000 </v>
   <v>       0.50000000       0.50000000       0.00000000 </v>
   <v>       0.00000000       0.00000000       0.50000000 </v>
   <v>       0.50000000       0.00000000       0.50000000 </v>
   <v>       0.00000000       0.50000000       0.50000000 </v>
   <v>       0.50000000       0.50000000       0.50000000 </v>
  </varray>
  <varray name="weights" >
   <v>       0.12500000 </v>
   <v>       0.12500000 </v>
   <v>       0.12500000 </v>
   <v>       0.12500000 </v>
   <v>       0.12500000 </v>
   <v>       0.12500000 </v>
   <v>       0.12500000 </v>
   <v>       0.12500000 </v>
  </varray>
  <varray name="tetrahedronlist"  type="int" >
   <v type="int" >        2        1        2        4        5 </v>
   <v type="int" >        2        1        3        4        5 </v>
   <v type="int" >        2        3        4        5        7 </v>
   <v type="int" >        2        2        4        5        6 </v>
   <v type="int" >        2        4        5        6        8 </v>
   <v type="int" >        2        4        5        7        8 </v>
   <v type="int" >        2        1        2        3        6 </v>
   <v type="int" >        2        2        3        4        6 </v>
   <v type="int" >        2        3        4        6        8 </v>
   <v type="int" >        2        1        3        5        6 </v>
   <v type="int" >        2        3        5        6        7 </v>
   <v type="int" >        2        3        6        7        8 </v>
   <v type="int" >        2        2        3        4        7 </v>
   <v type="int" >        2        1        2        3        7 </v>
   <v type="int" >        2        1        2        5        7 </v>
   <v type="int" >        2        2        4        7        8 </v>
   <v type="int" >        2        2        6        7        8 </v>
   <v type="int" >        2        2        5        6        7 </v>
   <v type="int" >        2        1        3        4        8 </v>
   <v type="int" >        2        1        2        4        8 </v>
   <v type="int" >        2        1        2        6        8 </v>
   <v type="int" >        2        1        3        7        8 </v>
   <v type="int" >        2        1        5        7        8 </v>
   <v type="int" >        2        1        5        6        8 </v>
  </varray>
  <i name="volumeweight">      0.02083333 </i>
 </kpoints>
 <parameters>
  <separator name="general" >
   <i type="string" name="SYSTEM">La2O2S</i>
   <i type="logical" name="LCOMPAT"> F  </i>
  </separator>
  <separator name="electronic" >
   <i type="string" name="PREC">normal</i>
   <i name="ENMAX">    600.00000000</i>
   <i name="ENAUG">    900.00000000</i>
   <i name="EDIFF">      0.00000100</i>
   <i type="int" name="IALGO">    38</i>
   <i type="int" name="IWAVPR">    11</i>
   <i type="int" name="NBANDS">   280</i>
   <i name="NELECT">    460.00000000</i>
   <i type="int" name="TURBO">     0</i>
   <i type="int" name="IRESTART">     0</i>
   <i type="int" name="NREBOOT">     0</i>
   <i type="int" name="NMIN">     0</i>
   <i name="EREF">      0.00000000</i>
   <separator name="electronic smearing" >
    <i type="int" name="ISMEAR">    -5</i>
    <i name="SIGMA">      0.20000000</i>
    <i name="KSPACING">      0.50000000</i>
    <i type="logical" name="KGAMMA"> T  </i>
   </separator>
   <separator name="electronic projectors" >
    <i type="logical" name="LREAL"> F  </i>
    <v name="ROPT">      0.00000000      0.00000000      0.00000000      0.00000000      0.00000000</v>
    <i type="int" name="LMAXPAW">  -100</i>
    <i type="int" name="LMAXMIX">     2</i>
    <i type="logical" name="NLSPLINE"> F  </i>
   </separator>
   <separator name="electronic startup" >
    <i type="int" name="ISTART">     0</i>
    <i type="int" name="ICHARG">     2</i>
    <i type="int" name="INIWAV">     1</i>
   </separator>
   <separator name="electronic spin" >
    <i type="int" name="ISPIN">     1</i>
    <i type="logical" name="LNONCOLLINEAR"> F  </i>
    <v name="MAGMOM">      1.00000000      1.00000000      1.00000000      1.00000000      1.00000000      1.00000000      1.00000000      1.00000000      1.00000000      1.00000000      1.00000000      1.00000000      1.00000000      1.00000000      1.00000000      1.00000000      1.00000000      1.00000000      1.00000000      1.00000000
      1.00000000      1.00000000      1.00000000      1.00000000      1.00000000      1.00000000      1.00000000      1.00000000      1.00000000      1.00000000      1.00000000      1.00000000      1.00000000      1.00000000      1.00000000      1.00000000      1.00000000      1.00000000      1.00000000      1.00000000
      1.00000000      1.00000000      1.00000000      1.00000000      1.00000000      1.00000000      1.00000000      1.00000000      1.00000000      1.00000000      1.00000000      1.00000000      1.00000000      1.00000000      1.00000000      1.00000000      1.00000000      1.00000000      1.00000000</v>
    <i name="NUPDOWN">     -1.00000000</i>
    <i type="logical" name="LSORBIT"> F  </i>
    <v name="SAXIS">      0.00000000      0.00000000      1.00000000</v>
    <i type="logical" name="LSPIRAL"> F  </i>
    <v name="QSPIRAL">      0.00000000      0.00000000      0.00000000</v>
    <i type="logical" name="LZEROZ"> F  </i>
   </separator>
   <separator name="electronic exchange-correlation" >
    <i type="logical" name="LASPH"> F  </i>
    <i type="logical" name="LMETAGGA"> F  </i>
   </separator>
   <separator name="electronic convergence" >
    <i type="int" name="NELM">    60</i>
    <i type="int" name="NELMDL">    -5</i>
    <i type="int" name="NELMIN">     4</i>
    <i name="ENINI">    600.00000000</i>
    <separator name="electronic convergence detail" >
     <i type="logical" name="LDIAG"> T  </i>
     <i type="logical" name="LSUBROT"> F  </i>
     <i name="WEIMIN">      0.00100000</i>
     <i name="EBREAK">      0.00000000</i>
     <i name="DEPER">      0.30000000</i>
     <i type="int" name="NRMM">     4</i>
     <i name="TIME">      0.40000000</i>
    </separator>
   </separator>
   <separator name="electronic mixer" >
    <i name="AMIX">      0.40000000</i>
    <i name="BMIX">      1.00000000</i>
    <i name="AMIN">      0.10000000</i>
    <i name="AMIX_MAG">      1.60000000</i>
    <i name="BMIX_MAG">      1.00000000</i>
    <separator name="electronic mixer details" >
     <i type="int" name="IMIX">     4</i>
     <i type="logical" name="MIXFIRST"> F  </i>
     <i type="int" name="MAXMIX">   -45</i>
     <i name="WC">    100.00000000</i>
     <i type="int" name="INIMIX">     1</i>
     <i type="int" name="MIXPRE">     1</i>
     <i type="int" name="MREMOVE">     5</i>
    </separator>
   </separator>
   <separator name="electronic dipolcorrection" >
    <i type="logical" name="LDIPOL"> F  </i>
    <i type="logical" name="LMONO"> F  </i>
    <i type="int" name="IDIPOL">     0</i>
    <i name="EPSILON">      1.00000000</i>
    <v name="DIPOL">   -100.00000000   -100.00000000   -100.00000000</v>
    <i name="EFIELD">      0.00000000</i>
   </separator>
  </separator>
  <separator name="grids" >
   <i type="int" name="NGX">    70</i>
   <i type="int" name="NGY">    60</i>
   <i type="int" name="NGZ">    70</i>
   <i type="int" name="NGXF">   140</i>
   <i type="int" name="NGYF">   120</i>
   <i type="int" name="NGZF">   140</i>
   <i type="logical" name="ADDGRID"> F  </i>
  </separator>
  <separator name="ionic" >
   <i type="int" name="NSW">     1</i>
   <i type="int" name="IBRION">     2</i>
   <i type="int" name="MDALGO">     0</i>
   <i type="int" name="ISIF">     2</i>
   <i name="PSTRESS">      0.00000000</i>
   <i name="EDIFFG">     -0.01000000</i>
   <i type="int" name="NFREE">    10</i>
   <i name="POTIM">      0.50000000</i>
   <i name="SMASS">     -3.00000000</i>
   <i name="SCALEE">      1.00000000</i>
  </separator>
  <separator name="ionic md" >
   <i name="TEBEG">      0.00010000</i>
   <i name="TEEND">      0.00010000</i>
   <i type="int" name="NBLOCK">     1</i>
   <i type="int" name="KBLOCK">     1</i>
   <i type="int" name="NPACO">   256</i>
   <i name="APACO">     16.00000000</i>
  </separator>
  <separator name="symmetry" >
   <i type="int" name="ISYM">     2</i>
   <i name="SYMPREC">      0.00001000</i>
  </separator>
  <separator name="dos" >
   <i type="int" name="LORBIT">     0</i>
   <v name="RWIGS">     -1.00000000     -1.00000000     -1.00000000     -1.00000000     -1.00000000</v>
   <i type="int" name="NEDOS">   301</i>
   <i name="EMIN">     10.00000000</i>
   <i name="EMAX">    -10.00000000</i>
   <i name="EFERMI">      0.00000000</i>
  </separator>
  <separator name="writing" >
   <i type="int" name="NWRITE">     2</i>
   <i type="logical" name="LWAVE"> F  </i>
   <i type="logical" name="LDOWNSAMPLE"> F  </i>
   <i type="logical" name="LCHARG"> F  </i>
   <i type="logical" name="LPARD"> F  </i>
   <i type="logical" name="LVTOT"> F  </i>
   <i type="logical" name="LVHAR"> F  </i>
   <i type="logical" name="LELF"> F  </i>
   <i type="logical" name="LOPTICS"> F  </i>
   <v name="STM">      0.00000000      0.00000000      0.00000000      0.00000000      0.00000000      0.00000000      0.00000000</v>
  </separator>
  <separator name="performance" >
   <i type="int" name="NPAR">    28</i>
   <i type="int" name="NSIM">     4</i>
   <i type="int" name="NBLK">    -1</i>
   <i type="logical" name="LPLANE"> T  </i>
   <i type="logical" name="LSCALAPACK"> T  </i>
   <i type="logical" name="LSCAAWARE"> F  </i>
   <i type="logical" name="LSCALU"> F  </i>
   <i type="logical" name="LASYNC"> F  </i>
   <i type="logical" name="LORBITALREAL"> F  </i>
  </separator>
  <separator name="miscellaneous" >
   <i type="int" name="IDIOT">     3</i>
   <i type="int" name="ISPECIAL">     0</i>
   <i type="logical" name="LMUSIC"> F  </i>
   <v name="POMASS">      7.01000000     24.30500000    208.98000000     32.06600000     16.00000000</v>
   <v name="DARWINR">      0.00000000      0.00000000      0.00000000      0.00000000      0.00000000</v>
   <v name="DARWINV">      1.00000000      1.00000000      1.00000000      1.00000000      1.00000000</v>
   <i type="logical" name="LCORR"> T  </i>
  </separator>
  <i type="logical" name="GGA_COMPAT"> T  </i>
  <i type="logical" name="LBERRY"> F  </i>
  <i type="int" name="ICORELEVEL">     0</i>
  <i type="logical" name="LDAU"> F  </i>
  <i type="int" name="I_CONSTRAINED_M">     0</i>
  <separator name="electronic exchange-correlation" >
   <i type="string" name="GGA">--</i>
   <i type="int" name="VOSKOWN">     0</i>
   <i type="logical" name="LHFCALC"> F  </i>
   <i type="string" name="PRECFOCK"></i>
   <i type="logical" name="LSYMGRAD"> F  </i>
   <i type="logical" name="LHFONE"> F  </i>
   <i type="logical" name="LRHFCALC"> F  </i>
   <i type="logical" name="LTHOMAS"> F  </i>
   <i type="logical" name="LMODELHF"> F  </i>
   <i name="ENCUT4O">     -1.00000000</i>
   <i type="int" name="EXXOEP">     0</i>
   <i type="int" name="FOURORBIT">     0</i>
   <i name="AEXX">      0.00000000</i>
   <i name="HFALPHA">      0.00000000</i>
   <i name="MCALPHA">      0.00000000</i>
   <i name="ALDAX">      1.00000000</i>
   <i name="AGGAX">      1.00000000</i>
   <i name="ALDAC">      1.00000000</i>
   <i name="AGGAC">      1.00000000</i>
   <i type="int" name="NKREDX">     1</i>
   <i type="int" name="NKREDY">     1</i>
   <i type="int" name="NKREDZ">     1</i>
   <i type="logical" name="SHIFTRED"> F  </i>
   <i type="logical" name="ODDONLY"> F  </i>
   <i type="logical" name="EVENONLY"> F  </i>
   <i type="int" name="LMAXFOCK">     0</i>
   <i type="int" name="NMAXFOCKAE">     0</i>
   <i type="logical" name="LFOCKAEDFT"> F  </i>
   <i name="HFSCREEN">      0.00000000</i>
   <i name="HFSCREENC">      0.00000000</i>
   <i type="int" name="NBANDSGWLOW">     0</i>
  </separator>
  <separator name="vdW DFT" >
   <i type="logical" name="LUSE_VDW"> F  </i>
   <i name="Zab_VDW">     -0.84910000</i>
   <i name="PARAM1">      0.12340000</i>
   <i name="PARAM2">      1.00000000</i>
   <i name="PARAM3">      0.00000000</i>
  </separator>
  <separator name="model GW" >
   <i type="int" name="MODEL_GW">     0</i>
   <i name="MODEL_EPS0">     12.17134107</i>
   <i name="MODEL_ALPHA">      1.00000000</i>
  </separator>
  <separator name="linear response parameters" >
   <i type="logical" name="LEPSILON"> F  </i>
   <i type="logical" name="LRPA"> F  </i>
   <i type="logical" name="LNABLA"> F  </i>
   <i type="logical" name="LVEL"> F  </i>
   <i type="int" name="KINTER">     0</i>
   <i name="CSHIFT">      0.10000000</i>
   <i name="OMEGAMAX">     -1.00000000</i>
   <i name="DEG_THRESHOLD">      0.00200000</i>
   <i name="RTIME">     -0.10000000</i>
   <i name="WPLASMAI">      0.00000000</i>
   <v name="DFIELD">      0.00000000      0.00000000      0.00000000</v>
   <v name="WPLASMA">      0.00000000      0.00000000      0.00000000      0.00000000      0.00000000      0.00000000      0.00000000      0.00000000      0.00000000</v>
  </separator>
  <separator name="orbital magnetization" >
   <i type="logical" name="NUCIND"> F  </i>
   <v name="MAGPOS">      0.00000000      0.00000000      0.00000000</v>
   <i type="logical" name="LNICSALL"> T  </i>
   <i type="logical" name="ORBITALMAG"> F  </i>
   <i type="logical" name="LMAGBLOCH"> F  </i>
   <i type="logical" name="LCHIMAG"> F  </i>
   <i type="logical" name="LGAUGE"> T  </i>
   <i type="int" name="MAGATOM">     0</i>
   <v name="MAGDIPOL">      0.00000000      0.00000000      0.00000000</v>
   <v name="AVECCONST">      0.00000000      0.00000000      0.00000000</v>
  </separator>
  <separator name="response functions" >
   <i type="logical" name="LADDER"> F  </i>
   <i type="logical" name="LRPAFORCE"> F  </i>
   <i type="logical" name="LFXC"> F  </i>
   <i type="logical" name="LHARTREE"> T  </i>
   <i type="int" name="IBSE">     0</i>
   <v type="int" name="KPOINT">    -1     0     0     0</v>
   <i type="logical" name="LTCTE"> F  </i>
   <i type="logical" name="LTETE"> F  </i>
   <i type="logical" name="LTRIPLET"> F  </i>
   <i type="logical" name="LFXCEPS"> F  </i>
   <i type="logical" name="LFXHEG"> F  </i>
   <i type="int" name="NATURALO">     2</i>
   <i type="logical" name="L2ORDER"> F  </i>
   <i type="logical" name="LMP2LT"> F  </i>
   <i type="logical" name="LUSEW"> F  </i>
   <i name="ENCUTGW">     -2.00000000</i>
   <i name="ENCUTGWSOFT">     -2.00000000</i>
   <i name="ENCUTLF">     -1.00000000</i>
   <i type="int" name="LMAXMP2">    -1</i>
   <i name="SCISSOR">      0.00000000</i>
   <i type="int" name="NOMEGA">     0</i>
   <i type="int" name="NOMEGAR">     0</i>
   <i type="int" name="NBANDSGW">    -1</i>
   <i type="int" name="NBANDSO">    -1</i>
   <i type="int" name="NBANDSV">    -1</i>
   <i type="int" name="NELM">     1</i>
   <i type="int" name="NELMHF">     1</i>
   <i type="int" name="DIM">     3</i>
   <i type="int" name="ANTIRES">     0</i>
   <i name="OMEGAMAX">    -30.00000000</i>
   <i name="OMEGAMIN">    -30.00000000</i>
   <i name="OMEGATL">   -200.00000000</i>
   <i type="int" name="OMEGAGRID">   140</i>
   <i name="CSHIFT">     -0.10000000</i>
   <i type="logical" name="SELFENERGY"> F  </i>
   <i type="logical" name="LSPECTRAL"> F  </i>
   <i type="logical" name="LSPECTRALGW"> F  </i>
   <i type="logical" name="LSINGLES"> F  </i>
   <i type="logical" name="LFERMIGW"> F  </i>
   <i type="logical" name="ODDONLYGW"> F  </i>
   <i type="logical" name="EVENONLYGW"> F  </i>
   <i type="int" name="NKREDLFX">     1</i>
   <i type="int" name="NKREDLFY">     1</i>
   <i type="int" name="NKREDLFZ">     1</i>
   <i type="int" name="MAXMEM">  2800</i>
   <i type="int" name="TELESCOPE">     0</i>
   <i type="int" name="TAUPAR">     1</i>
   <i type="int" name="OMEGAPAR">    -1</i>
   <i name="LAMBDA">      1.00000000</i>
  </separator>
  <separator name="External order field" >
   <i name="OFIELD_KAPPA">      0.00000000</i>
   <v name="OFIELD_K">      0.00000000      0.00000000      0.00000000</v>
   <i name="OFIELD_Q6_NEAR">      0.00000000</i>
   <i name="OFIELD_Q6_FAR">      0.00000000</i>
   <i name="OFIELD_A">      0.00000000</i>
  </separator>
 </parameters>
 <atominfo>
  <atoms>      59 </atoms>
  <types>       5 </types>
  <array name="atoms" >
   <dimension dim="1">ion</dimension>
   <field type="string">element</field>
   <field type="int">atomtype</field>
   <set>
    <rc><c>Li</c><c>   1</c></rc>
    <rc><c>Li</c><c>   1</c></rc>
    <rc><c>Li</c><c>   1</c></rc>
    <rc><c>Li</c><c>   1</c></rc>
    <rc><c>Li</c><c>   1</c></rc>
    <rc><c>Li</c><c>   1</c></rc>
    <rc><c>Mg</c><c>   2</c></rc>
    <rc><c>Mg</c><c>   2</c></rc>
    <rc><c>Mg</c><c>   2</c></rc>
    <rc><c>Mg</c><c>   2</c></rc>
    <rc><c>Mg</c><c>   2</c></rc>
    <rc><c>Bi</c><c>   3</c></rc>
    <rc><c>Bi</c><c>   3</c></rc>
    <rc><c>Bi</c><c>   3</c></rc>
    <rc><c>Bi</c><c>   3</c></rc>
    <rc><c>Bi</c><c>   3</c></rc>
    <rc><c>Bi</c><c>   3</c></rc>
    <rc><c>Bi</c><c>   3</c></rc>
    <rc><c>Bi</c><c>   3</c></rc>
    <rc><c>Bi</c><c>   3</c></rc>
    <rc><c>Bi</c><c>   3</c></rc>
    <rc><c>Bi</c><c>   3</c></rc>
    <rc><c>Bi</c><c>   3</c></rc>
    <rc><c>Bi</c><c>   3</c></rc>
    <rc><c>Bi</c><c>   3</c></rc>
    <rc><c>Bi</c><c>   3</c></rc>
    <rc><c>Bi</c><c>   3</c></rc>
    <rc><c>S </c><c>   4</c></rc>
    <rc><c>S </c><c>   4</c></rc>
    <rc><c>S </c><c>   4</c></rc>
    <rc><c>S </c><c>   4</c></rc>
    <rc><c>S </c><c>   4</c></rc>
    <rc><c>S </c><c>   4</c></rc>
    <rc><c>S </c><c>   4</c></rc>
    <rc><c>S </c><c>   4</c></rc>
    <rc><c>S </c><c>   4</c></rc>
    <rc><c>S </c><c>   4</c></rc>
    <rc><c>S </c><c>   4</c></rc>
    <rc><c>S </c><c>   4</c></rc>
    <rc><c>S </c><c>   4</c></rc>
    <rc><c>S </c><c>   4</c></rc>
    <rc><c>S </c><c>   4</c></rc>
    <rc><c>S </c><c>   4</c></rc>
    <rc><c>O </c><c>   5</c></rc>
    <rc><c>O </c><c>   5</c></rc>
    <rc><c>O </c><c>   5</c></rc>
    <rc><c>O </c><c>   5</c></rc>
    <rc><c>O </c><c>   5</c></rc>
    <rc><c>O </c><c>   5</c></rc>
    <rc><c>O </c><c>   5</c></rc>
    <rc><c>O </c><c>   5</c></rc>
    <rc><c>O </c><c>   5</c></rc>
    <rc><c>O </c><c>   5</c></rc>
    <rc><c>O </c><c>   5</c></rc>
    <rc><c>O </c><c>   5</c></rc>
    <rc><c>O </c><c>   5</c></rc>
    <rc><c>O </c><c>   5</c></rc>
    <rc><c>O </c><c>   5</c></rc>
    <rc><c>O </c><c>   5</c></rc>
   </set>
  </array>
  <array name="atomtypes" >
   <dimension dim="1">type</dimension>
   <field type="int">atomspertype</field>
   <field type="string">element</field>
   <field>mass</field>
   <field>valence</field>
   <field type="string">pseudopotential</field>
   <set>
    <rc><c>   6</c><c>Li</c><c>      7.01000000</c><c>      3.00000000</c><c>  PAW_PBE Li_sv 10Sep2004               </c></rc>
    <rc><c>   5</c><c>Mg</c><c>     24.30500000</c><c>      2.00000000</c><c>  PAW_PBE Mg 13Apr2007                  </c></rc>
    <rc><c>  16</c><c>Bi</c><c>    208.98000000</c><c>     15.00000000</c><c>  PAW_PBE Bi_d 06Sep2000                </c></rc>
    <rc><c>  16</c><c>S </c><c>     32.06600000</c><c>      6.00000000</c><c>  PAW_PBE S 06Sep2000                   </c></rc>
    <rc><c>  16</c><c>O </c><c>     16.00000000</c><c>      6.00000000</c><c>  PAW_PBE O 08Apr2002                   </c></rc>
   </set>
  </array>
 </atominfo>
 <structure name="initialpos" >
  <crystal>
   <varray name="basis" >
    <v>      11.17850000       0.00000000       0.00000000 </v>
    <v>       0.00000000       9.57460000       0.00000000 </v>
    <v>       0.00000000       0.00000000      11.18240000 </v>
   </varray>
   <i name="volume">   1196.84853820 </i>
   <varray name="rec_basis" >
    <v>       0.08945744       0.00000000       0.00000000 </v>
    <v>       0.00000000       0.10444301       0.00000000 </v>
    <v>       0.00000000       0.00000000       0.08942624 </v>
   </varray>
  </crystal>
  <varray name="positions" >
   <v>       0.37539000       0.00017000       0.43687000 </v>
   <v>       0.62539000       0.99984000       0.43687000 </v>
   <v>       0.87539000       0.00017000       0.43687000 </v>
   <v>       0.62461000       0.99984000       0.18687000 </v>
   <v>       0.87461000       0.00017000       0.18687000 </v>
   <v>       0.62539000       0.99984000       0.93687000 </v>
   <v>       0.12461000       0.99984000       0.18687000 </v>
   <v>       0.37539000       0.00017000       0.93687000 </v>
   <v>       0.12461000       0.99984000       0.68687000 </v>
   <v>       0.87539000       0.00017000       0.93687000 </v>
   <v>       0.62461000       0.99984000       0.68687000 </v>
   <v>       0.00013000       0.29519000       0.06281000 </v>
   <v>       0.25013000       0.70481000       0.06281000 </v>
   <v>       0.24987000       0.29519000       0.31282000 </v>
   <v>       0.49987000       0.70481000       0.31282000 </v>
   <v>       0.50013000       0.29519000       0.06281000 </v>
   <v>       0.75013000       0.70481000       0.06281000 </v>
   <v>       0.74987000       0.29519000       0.31282000 </v>
   <v>       0.99987000       0.70481000       0.31282000 </v>
   <v>       0.00013000       0.29519000       0.56281000 </v>
   <v>       0.25013000       0.70481000       0.56281000 </v>
   <v>       0.24987000       0.29519000       0.81282000 </v>
   <v>       0.49987000       0.70481000       0.81282000 </v>
   <v>       0.50013000       0.29519000       0.56281000 </v>
   <v>       0.75013000       0.70481000       0.56281000 </v>
   <v>       0.74987000       0.29519000       0.81282000 </v>
   <v>       0.99987000       0.70481000       0.81282000 </v>
   <v>       0.25005000       0.32677000       0.06286000 </v>
   <v>       0.00005000       0.67323000       0.06286000 </v>
   <v>       0.49995000       0.32677000       0.31286000 </v>
   <v>       0.24995000       0.67323000       0.31286000 </v>
   <v>       0.75005000       0.32677000       0.06286000 </v>
   <v>       0.50005000       0.67323000       0.06286000 </v>
   <v>       0.99995000       0.32677000       0.31286000 </v>
   <v>       0.74995000       0.67323000       0.31286000 </v>
   <v>       0.25005000       0.32677000       0.56286000 </v>
   <v>       0.00005000       0.67323000       0.56286000 </v>
   <v>       0.49995000       0.32677000       0.81286000 </v>
   <v>       0.24995000       0.67323000       0.81286000 </v>
   <v>       0.75005000       0.32677000       0.56286000 </v>
   <v>       0.50005000       0.67323000       0.56286000 </v>
   <v>       0.99995000       0.32677000       0.81286000 </v>
   <v>       0.74995000       0.67323000       0.81286000 </v>
   <v>       0.49987000       0.07798000       0.06246000 </v>
   <v>       0.24987000       0.92202000       0.06246000 </v>
   <v>       0.25013000       0.07798000       0.31246000 </v>
   <v>       0.00013000       0.92202000       0.31246000 </v>
   <v>       0.99987000       0.07798000       0.06246000 </v>
   <v>       0.74987000       0.92202000       0.06246000 </v>
   <v>       0.75013000       0.07798000       0.31246000 </v>
   <v>       0.50013000       0.92202000       0.31246000 </v>
   <v>       0.49987000       0.07798000       0.56246000 </v>
   <v>       0.24987000       0.92202000       0.56246000 </v>
   <v>       0.25013000       0.07798000       0.81246000 </v>
   <v>       0.00013000       0.92202000       0.81246000 </v>
   <v>       0.99987000       0.07798000       0.56246000 </v>
   <v>       0.74987000       0.92202000       0.56246000 </v>
   <v>       0.75013000       0.07798000       0.81246000 </v>
   <v>       0.50013000       0.92202000       0.81246000 </v>
  </varray>
 </structure>
 <calculation>
  <scstep>
   <time name="dav">   59.92   60.05</time>
   <time name="total">   60.01   60.14</time>
   <energy>
    <i name="alphaZ">   1060.66890660 </i>
    <i name="ewald"> -30400.28306176 </i>
    <i name="hartreedc"> -12718.64948927 </i>
    <i name="XCdc">   1247.15159634 </i>
    <i name="pawpsdc">  36635.26894311 </i>
    <i name="pawaedc"> -35972.74895369 </i>
    <i name="eentropy">      0.00000000 </i>
    <i name="bandstr">   1866.64940288 </i>
    <i name="atom">  44026.03258983 </i>
    <i name="e_fr_energy">   5744.08993403 </i>
    <i name="e_wo_entrp">   5744.08993403 </i>
    <i name="e_0_energy">   5744.08993403 </i>
   </energy>
  </scstep>
  <scstep>
   <time name="dav">   60.56   60.73</time>
   <time name="total">   60.57   60.74</time>
   <energy>
    <i name="e_fr_energy">    760.96770192 </i>
    <i name="e_wo_entrp">    760.96770192 </i>
    <i name="e_0_energy">    760.96770192 </i>
   </energy>
  </scstep>
  <scstep>
   <time name="dav">   69.55   69.71</time>
   <time name="total">   69.56   69.71</time>
   <energy>
    <i name="e_fr_energy">   -244.49733377 </i>
    <i name="e_wo_entrp">   -244.49733377 </i>
    <i name="e_0_energy">   -244.49733377 </i>
   </energy>
  </scstep>
  <scstep>
   <time name="dav">   72.44   72.61</time>
   <time name="total">   72.44   72.61</time>
   <energy>
    <i name="e_fr_energy">   -337.17052120 </i>
    <i name="e_wo_entrp">   -337.17052120 </i>
    <i name="e_0_energy">   -337.17052120 </i>
   </energy>
  </scstep>
  <scstep>
   <time name="dav">   93.96   94.19</time>
   <time name="total">   94.67   94.91</time>
   <energy>
    <i name="e_fr_energy">   -344.18552204 </i>
    <i name="e_wo_entrp">   -344.18552204 </i>
    <i name="e_0_energy">   -344.18552204 </i>
   </energy>
  </scstep>
  <scstep>
   <time name="dav">   85.73   85.84</time>
   <time name="total">   86.51   86.63</time>
   <energy>
    <i name="e_fr_energy">   -288.44612861 </i>
    <i name="e_wo_entrp">   -288.44612861 </i>
    <i name="e_0_energy">   -288.44612861 </i>
   </energy>
  </scstep>
  <scstep>
   <time name="dav">   65.69   65.80</time>
   <time name="total">   66.47   66.59</time>
   <energy>
    <i name="e_fr_energy">   -290.83730211 </i>
    <i name="e_wo_entrp">   -290.83730211 </i>
    <i name="e_0_energy">   -290.83730211 </i>
   </energy>
  </scstep>
  <scstep>
   <time name="dav">   74.96   75.03</time>
   <time name="total">   75.75   75.82</time>
   <energy>
    <i name="e_fr_energy">   -289.82911577 </i>
    <i name="e_wo_entrp">   -289.82911577 </i>
    <i name="e_0_energy">   -289.82911577 </i>
   </energy>
  </scstep>
  <scstep>
   <time name="dav">   72.35   72.41</time>
   <time name="total">   73.14   73.20</time>
   <energy>
    <i name="e_fr_energy">   -289.31244690 </i>
    <i name="e_wo_entrp">   -289.31244690 </i>
    <i name="e_0_energy">   -289.31244690 </i>
   </energy>
  </scstep>
  <scstep>
   <time name="dav">   74.15   74.57</time>
   <time name="total">   74.94   75.35</time>
   <energy>
    <i name="e_fr_energy">   -289.34222517 </i>
    <i name="e_wo_entrp">   -289.34222517 </i>
    <i name="e_0_energy">   -289.34222517 </i>
   </energy>
  </scstep>
  <scstep>
   <time name="dav">   80.17   80.55</time>
   <time name="total">   80.96   81.34</time>
   <energy>
    <i name="e_fr_energy">   -289.34695401 </i>
    <i name="e_wo_entrp">   -289.34695401 </i>
    <i name="e_0_energy">   -289.34695401 </i>
   </energy>
  </scstep>
  <scstep>
   <time name="dav">   78.72   78.92</time>
   <time name="total">   79.51   79.72</time>
   <energy>
    <i name="e_fr_energy">   -289.34969257 </i>
    <i name="e_wo_entrp">   -289.34969257 </i>
    <i name="e_0_energy">   -289.34969257 </i>
   </energy>
  </scstep>
  <scstep>
   <time name="dav">   70.27   70.75</time>
   <time name="total">   71.06   71.54</time>
   <energy>
    <i name="e_fr_energy">   -289.35098036 </i>
    <i name="e_wo_entrp">   -289.35098036 </i>
    <i name="e_0_energy">   -289.35098036 </i>
   </energy>
  </scstep>
  <scstep>
   <time name="dav">   78.22   78.84</time>
   <time name="total">   78.98   79.65</time>
   <energy>
    <i name="e_fr_energy">   -289.35119308 </i>
    <i name="e_wo_entrp">   -289.35119308 </i>
    <i name="e_0_energy">   -289.35119308 </i>
   </energy>
  </scstep>
  <scstep>
   <time name="dav">   79.04   79.58</time>
   <time name="total">   79.83   80.37</time>
   <energy>
    <i name="e_fr_energy">   -289.35121507 </i>
    <i name="e_wo_entrp">   -289.35121507 </i>
    <i name="e_0_energy">   -289.35121507 </i>
   </energy>
  </scstep>
  <scstep>
   <time name="dav">   66.72   67.35</time>
   <time name="total">   67.50   68.14</time>
   <energy>
    <i name="e_fr_energy">   -289.35123779 </i>
    <i name="e_wo_entrp">   -289.35123779 </i>
    <i name="e_0_energy">   -289.35123779 </i>
   </energy>
  </scstep>
  <scstep>
   <time name="dav">   71.79   72.21</time>
   <time name="total">   72.58   73.01</time>
   <energy>
    <i name="e_fr_energy">   -289.35124016 </i>
    <i name="e_wo_entrp">   -289.35124016 </i>
    <i name="e_0_energy">   -289.35124016 </i>
   </energy>
  </scstep>
  <scstep>
   <time name="dav">   62.51   62.55</time>
   <time name="total">   62.58   62.63</time>
   <energy>
    <i name="alphaZ">   1060.66890660 </i>
    <i name="ewald"> -30400.28306176 </i>
    <i name="hartreedc"> -12959.73047427 </i>
    <i name="XCdc">   1271.99122666 </i>
    <i name="pawpsdc">  43670.14258854 </i>
    <i name="pawaedc"> -42981.09910692 </i>
    <i name="eentropy">      0.00000000 </i>
    <i name="bandstr">  -3977.07390952 </i>
    <i name="atom">  44026.03258983 </i>
    <i name="e_fr_energy">   -289.35124086 </i>
    <i name="e_wo_entrp">   -289.35124086 </i>
    <i name="e_0_energy">   -289.35124086 </i>
   </energy>
  </scstep>
  <structure>
   <crystal>
    <varray name="basis" >
     <v>      11.17850000       0.00000000       0.00000000 </v>
     <v>       0.00000000       9.57460000       0.00000000 </v>
     <v>       0.00000000       0.00000000      11.18240000 </v>
    </varray>
    <i name="volume">   1196.84853820 </i>
    <varray name="rec_basis" >
     <v>       0.08945744       0.00000000       0.00000000 </v>
     <v>       0.00000000       0.10444301       0.00000000 </v>
     <v>       0.00000000       0.00000000       0.08942624 </v>
    </varray>
   </crystal>
   <varray name="positions" >
    <v>       0.37539000       0.00017000       0.43687000 </v>
    <v>       0.62539000       0.99984000       0.43687000 </v>
    <v>       0.87539000       0.00017000       0.43687000 </v>
    <v>       0.62461000       0.99984000       0.18687000 </v>
    <v>       0.87461000       0.00017000       0.18687000 </v>
    <v>       0.62539000       0.99984000       0.93687000 </v>
    <v>       0.12461000       0.99984000       0.18687000 </v>
    <v>       0.37539000       0.00017000       0.93687000 </v>
    <v>       0.12461000       0.99984000       0.68687000 </v>
    <v>       0.87539000       0.00017000       0.93687000 </v>
    <v>       0.62461000       0.99984000       0.68687000 </v>
    <v>       0.00013000       0.29519000       0.06281000 </v>
    <v>       0.25013000       0.70481000       0.06281000 </v>
    <v>       0.24987000       0.29519000       0.31282000 </v>
    <v>       0.49987000       0.70481000       0.31282000 </v>
    <v>       0.50013000       0.29519000       0.06281000 </v>
    <v>       0.75013000       0.70481000       0.06281000 </v>
    <v>       0.74987000       0.29519000       0.31282000 </v>
    <v>       0.99987000       0.70481000       0.31282000 </v>
    <v>       0.00013000       0.29519000       0.56281000 </v>
    <v>       0.25013000       0.70481000       0.56281000 </v>
    <v>       0.24987000       0.29519000       0.81282000 </v>
    <v>       0.49987000       0.70481000       0.81282000 </v>
    <v>       0.50013000       0.29519000       0.56281000 </v>
    <v>       0.75013000       0.70481000       0.56281000 </v>
    <v>       0.74987000       0.29519000       0.81282000 </v>
    <v>       0.99987000       0.70481000       0.81282000 </v>
    <v>       0.25005000       0.32677000       0.06286000 </v>
    <v>       0.00005000       0.67323000       0.06286000 </v>
    <v>       0.49995000       0.32677000       0.31286000 </v>
    <v>       0.24995000       0.67323000       0.31286000 </v>
    <v>       0.75005000       0.32677000       0.06286000 </v>
    <v>       0.50005000       0.67323000       0.06286000 </v>
    <v>       0.99995000       0.32677000       0.31286000 </v>
    <v>       0.74995000       0.67323000       0.31286000 </v>
    <v>       0.25005000       0.32677000       0.56286000 </v>
    <v>       0.00005000       0.67323000       0.56286000 </v>
    <v>       0.49995000       0.32677000       0.81286000 </v>
    <v>       0.24995000       0.67323000       0.81286000 </v>
    <v>       0.75005000       0.32677000       0.56286000 </v>
    <v>       0.50005000       0.67323000       0.56286000 </v>
    <v>       0.99995000       0.32677000       0.81286000 </v>
    <v>       0.74995000       0.67323000       0.81286000 </v>
    <v>       0.49987000       0.07798000       0.06246000 </v>
    <v>       0.24987000       0.92202000       0.06246000 </v>
    <v>       0.25013000       0.07798000       0.31246000 </v>
    <v>       0.00013000       0.92202000       0.31246000 </v>
    <v>       0.99987000       0.07798000       0.06246000 </v>
    <v>       0.74987000       0.92202000       0.06246000 </v>
    <v>       0.75013000       0.07798000       0.31246000 </v>
    <v>       0.50013000       0.92202000       0.31246000 </v>
    <v>       0.49987000       0.07798000       0.56246000 </v>
    <v>       0.24987000       0.92202000       0.56246000 </v>
    <v>       0.25013000       0.07798000       0.81246000 </v>
    <v>       0.00013000       0.92202000       0.81246000 </v>
    <v>       0.99987000       0.07798000       0.56246000 </v>
    <v>       0.74987000       0.92202000       0.56246000 </v>
    <v>       0.75013000       0.07798000       0.81246000 </v>
    <v>       0.50013000       0.92202000       0.81246000 </v>
   </varray>
  </structure>
  <varray name="forces" >
   <v>      -0.45338784      -0.06842644      -0.07897265 </v>
   <v>      -0.19592396      -0.06086664      -0.29583841 </v>
   <v>       0.43841501       0.06501602       0.42252222 </v>
   <v>      -0.53358249       0.00544863       0.24772242 </v>
   <v>      -0.10855486       0.00446180       0.57020669 </v>
   <v>      -0.20831580       0.06382676       0.31811534 </v>
   <v>       1.09117861      -0.00629250       0.51635337 </v>
   <v>      -0.93057181       0.11686231       0.21543610 </v>
   <v>       0.09445989       0.01025106      -0.44498027 </v>
   <v>       0.88049382      -0.12235884      -0.80132979 </v>
   <v>      -0.04408563       0.00207125      -0.49277182 </v>
   <v>       0.29802229       1.03282289       0.04693221 </v>
   <v>       0.06076255       0.07449865       0.21580237 </v>
   <v>       0.11576663      -1.05680217       0.25010384 </v>
   <v>      -0.25632555       0.98988437       0.01514097 </v>
   <v>      -0.22607583       0.05219088       0.47239763 </v>
   <v>      -0.15084994      -1.10591903       0.32028115 </v>
   <v>      -0.06367781       0.05610984       0.17895151 </v>
   <v>       0.23471536      -0.01935784       0.43421901 </v>
   <v>       0.11029617      -1.02536029      -0.23028390 </v>
   <v>       0.01601036       1.04106547      -0.26868237 </v>
   <v>      -0.04113845      -0.06517812      -0.21787746 </v>
   <v>      -0.31119208      -1.03909906      -0.29399823 </v>
   <v>      -0.38045871       0.02173486      -0.22080579 </v>
   <v>       0.22109407      -0.02048251      -0.17919441 </v>
   <v>       0.17690520       1.03393226      -0.33674114 </v>
   <v>       0.19513174       0.03682911      -0.25930586 </v>
   <v>      -0.06785619       0.09651388      -0.15496803 </v>
   <v>      -0.20542396      -0.06006448      -0.04803077 </v>
   <v>       0.20719720       0.20296654      -0.06931276 </v>
   <v>      -0.14586037      -0.18047568      -0.22596348 </v>
   <v>       0.11750556       0.06374278      -0.18409866 </v>
   <v>       0.15196884      -0.08929066      -0.29152265 </v>
   <v>      -0.15950079       0.16417804      -0.33276421 </v>
   <v>       0.09588865      -0.19833254      -0.17788454 </v>
   <v>       0.06455111       0.19340600       0.21526517 </v>
   <v>      -0.14089432      -0.16234145       0.11311789 </v>
   <v>       0.18829788       0.05971093       0.07680291 </v>
   <v>       0.10285828      -0.09843970       0.16118818 </v>
   <v>      -0.16363352       0.13594256       0.18897042 </v>
   <v>       0.24171278      -0.17112311       0.29579355 </v>
   <v>      -0.18958639       0.05517310       0.25922087 </v>
   <v>      -0.09904624      -0.00978170       0.17176994 </v>
   <v>       0.28939625      -0.07795970      -1.30304036 </v>
   <v>      -0.01802656      -0.27226191      -0.14621780 </v>
   <v>      -0.58635744       1.01408055      -0.63531129 </v>
   <v>      -0.27435266      -0.03282585      -1.31885708 </v>
   <v>      -0.83223611      -0.71812894       0.49771858 </v>
   <v>       0.57822875       0.94107699      -0.66343167 </v>
   <v>       0.06505966      -0.03769260      -0.17001684 </v>
   <v>       0.75054023      -0.82867445       0.51927693 </v>
   <v>       1.26062071       0.06273881       0.10112117 </v>
   <v>      -0.43411003      -1.03703895       0.59761815 </v>
   <v>       0.10075813       0.27147732       0.15335765 </v>
   <v>      -0.21868559      -0.21069652       0.26131697 </v>
   <v>       0.35104018       0.99517514       0.52683352 </v>
   <v>      -1.15634906      -0.02153953       0.02873579 </v>
   <v>      -0.69498480      -0.79479348       0.77619516 </v>
   <v>       0.79216889       0.72841591       0.67371454 </v>
  </varray>
  <varray name="stress" >
   <v>      -8.79168501      -0.14571907       0.04518039 </v>
   <v>      -0.14571917     -13.08953508      -0.19679995 </v>
   <v>       0.04518042      -0.19679997     -10.04158483 </v>
  </varray>
  <energy>
   <i name="e_fr_energy">   -301.98586603 </i>
   <i name="e_wo_entrp">   -301.98586603 </i>
   <i name="e_0_energy">      0.00000000 </i>
  </energy>
  <time name="totalsc"> 1436.50 1441.63</time>
  <eigenvalues>
   <array>
    <dimension dim="1">band</dimension>
    <dimension dim="2">kpoint</dimension>
    <dimension dim="3">spin</dimension>
    <field>eigene</field>
    <field>occ</field>
    <set>
     <set comment="spin 1">
      <set comment="kpoint 1">
       <r>  -40.6133    1.0000 </r>
       <r>  -40.3112    1.0000 </r>
       <r>  -39.8637    1.0000 </r>
       <r>  -39.6864    1.0000 </r>
       <r>  -39.5691    1.0000 </r>
       <r>  -39.1329    1.0000 </r>
       <r>  -19.0429    1.0000 </r>
       <r>  -19.0348    1.0000 </r>
       <r>  -18.9665    1.0000 </r>
       <r>  -18.9648    1.0000 </r>
       <r>  -18.9604    1.0000 </r>
       <r>  -18.9585    1.0000 </r>
       <r>  -18.9556    1.0000 </r>
       <r>  -18.9483    1.0000 </r>
       <r>  -18.8880    1.0000 </r>
       <r>  -18.8845    1.0000 </r>
       <r>  -18.8801    1.0000 </r>
       <r>  -18.8766    1.0000 </r>
       <r>  -18.8636    1.0000 </r>
       <r>  -18.8617    1.0000 </r>
       <r>  -18.8569    1.0000 </r>
       <r>  -18.8419    1.0000 </r>
       <r>  -18.7914    1.0000 </r>
       <r>  -18.7877    1.0000 </r>
       <r>  -18.7692    1.0000 </r>
       <r>  -18.7652    1.0000 </r>
       <r>  -18.7544    1.0000 </r>
       <r>  -18.7452    1.0000 </r>
       <r>  -18.7372    1.0000 </r>
       <r>  -18.7349    1.0000 </r>
       <r>  -18.7249    1.0000 </r>
       <r>  -18.7165    1.0000 </r>
       <r>  -18.6766    1.0000 </r>
       <r>  -18.6733    1.0000 </r>
       <r>  -18.6604    1.0000 </r>
       <r>  -18.6575    1.0000 </r>
       <r>  -18.6567    1.0000 </r>
       <r>  -18.6543    1.0000 </r>
       <r>  -18.6475    1.0000 </r>
       <r>  -18.6440    1.0000 </r>
       <r>  -18.6419    1.0000 </r>
       <r>  -18.6389    1.0000 </r>
       <r>  -18.6237    1.0000 </r>
       <r>  -18.6234    1.0000 </r>
       <r>  -18.6074    1.0000 </r>
       <r>  -18.6066    1.0000 </r>
       <r>  -18.6016    1.0000 </r>
       <r>  -18.5960    1.0000 </r>
       <r>  -18.5937    1.0000 </r>
       <r>  -18.5871    1.0000 </r>
       <r>  -18.5855    1.0000 </r>
       <r>  -18.5837    1.0000 </r>
       <r>  -18.5834    1.0000 </r>
       <r>  -18.5558    1.0000 </r>
       <r>  -18.5208    1.0000 </r>
       <r>  -18.5139    1.0000 </r>
       <r>  -18.5030    1.0000 </r>
       <r>  -18.5004    1.0000 </r>
       <r>  -18.4935    1.0000 </r>
       <r>  -18.4923    1.0000 </r>
       <r>  -18.4665    1.0000 </r>
       <r>  -18.4648    1.0000 </r>
       <r>  -18.4523    1.0000 </r>
       <r>  -18.4516    1.0000 </r>
       <r>  -18.4346    1.0000 </r>
       <r>  -18.4332    1.0000 </r>
       <r>  -18.4322    1.0000 </r>
       <r>  -18.4242    1.0000 </r>
       <r>  -18.4223    1.0000 </r>
       <r>  -18.4120    1.0000 </r>
       <r>  -18.3515    1.0000 </r>
       <r>  -18.3511    1.0000 </r>
       <r>  -18.3466    1.0000 </r>
       <r>  -18.3425    1.0000 </r>
       <r>  -18.3361    1.0000 </r>
       <r>  -18.3315    1.0000 </r>
       <r>  -18.2591    1.0000 </r>
       <r>  -18.2590    1.0000 </r>
       <r>  -18.2282    1.0000 </r>
       <r>  -18.2251    1.0000 </r>
       <r>  -18.2138    1.0000 </r>
       <r>  -18.1976    1.0000 </r>
       <r>  -18.1505    1.0000 </r>
       <r>  -18.1496    1.0000 </r>
       <r>  -18.1243    1.0000 </r>
       <r>  -18.1234    1.0000 </r>
       <r>  -13.7347    1.0000 </r>
       <r>  -13.6210    1.0000 </r>
       <r>  -13.5493    1.0000 </r>
       <r>  -13.5374    1.0000 </r>
       <r>  -12.8856    1.0000 </r>
       <r>  -12.8403    1.0000 </r>
       <r>  -12.7898    1.0000 </r>
       <r>  -12.7224    1.0000 </r>
       <r>  -12.7031    1.0000 </r>
       <r>  -12.6733    1.0000 </r>
       <r>  -12.6431    1.0000 </r>
       <r>  -12.6345    1.0000 </r>
       <r>  -12.0257    1.0000 </r>
       <r>  -11.9922    1.0000 </r>
       <r>  -11.9039    1.0000 </r>
       <r>  -11.8787    1.0000 </r>
       <r>   -9.3842    1.0000 </r>
       <r>   -9.0922    1.0000 </r>
       <r>   -8.5893    1.0000 </r>
       <r>   -8.5361    1.0000 </r>
       <r>   -8.5052    1.0000 </r>
       <r>   -8.5003    1.0000 </r>
       <r>   -8.3704    1.0000 </r>
       <r>   -8.3195    1.0000 </r>
       <r>   -8.2839    1.0000 </r>
       <r>   -8.2791    1.0000 </r>
       <r>   -8.0348    1.0000 </r>
       <r>   -8.0214    1.0000 </r>
       <r>   -7.9995    1.0000 </r>
       <r>   -7.9868    1.0000 </r>
       <r>   -7.3782    1.0000 </r>
       <r>   -7.3771    1.0000 </r>
       <r>   -6.4211    1.0000 </r>
       <r>   -6.4139    1.0000 </r>
       <r>   -6.3951    1.0000 </r>
       <r>   -6.3897    1.0000 </r>
       <r>   -5.6059    1.0000 </r>
       <r>   -5.5920    1.0000 </r>
       <r>   -5.3983    1.0000 </r>
       <r>   -5.3884    1.0000 </r>
       <r>   -5.3177    1.0000 </r>
       <r>   -5.2536    1.0000 </r>
       <r>   -5.1918    1.0000 </r>
       <r>   -5.1798    1.0000 </r>
       <r>   -5.0996    1.0000 </r>
       <r>   -5.0466    1.0000 </r>
       <r>   -3.8202    1.0000 </r>
       <r>   -3.6694    1.0000 </r>
       <r>   -1.5721    1.0000 </r>
       <r>   -1.3376    1.0000 </r>
       <r>   -1.1848    1.0000 </r>
       <r>   -1.0220    1.0000 </r>
       <r>   -0.6578    1.0000 </r>
       <r>   -0.6177    1.0000 </r>
       <r>   -0.5301    1.0000 </r>
       <r>   -0.5142    1.0000 </r>
       <r>   -0.2552    1.0000 </r>
       <r>   -0.2333    1.0000 </r>
       <r>   -0.1910    1.0000 </r>
       <r>   -0.1683    1.0000 </r>
       <r>   -0.1168    1.0000 </r>
       <r>   -0.0419    1.0000 </r>
       <r>    0.1062    1.0000 </r>
       <r>    0.1507    1.0000 </r>
       <r>    0.2681    1.0000 </r>
       <r>    0.3112    1.0000 </r>
       <r>    0.3897    1.0000 </r>
       <r>    0.4883    1.0000 </r>
       <r>    0.5708    1.0000 </r>
       <r>    0.6263    1.0000 </r>
       <r>    0.6625    1.0000 </r>
       <r>    0.6799    1.0000 </r>
       <r>    0.7641    1.0000 </r>
       <r>    0.8038    1.0000 </r>
       <r>    0.8149    1.0000 </r>
       <r>    0.8663    1.0000 </r>
       <r>    0.8976    1.0000 </r>
       <r>    0.9720    1.0000 </r>
       <r>    0.9862    1.0000 </r>
       <r>    1.0056    1.0000 </r>
       <r>    1.0430    1.0000 </r>
       <r>    1.1023    1.0000 </r>
       <r>    1.1182    1.0000 </r>
       <r>    1.1935    1.0000 </r>
       <r>    1.2886    1.0000 </r>
       <r>    1.3166    1.0000 </r>
       <r>    1.3550    1.0000 </r>
       <r>    1.4057    1.0000 </r>
       <r>    1.4277    1.0000 </r>
       <r>    1.4910    1.0000 </r>
       <r>    1.5680    1.0000 </r>
       <r>    1.5970    1.0000 </r>
       <r>    1.6232    1.0000 </r>
       <r>    1.6768    1.0000 </r>
       <r>    1.7282    1.0000 </r>
       <r>    1.7371    1.0000 </r>
       <r>    1.8311    1.0000 </r>
       <r>    1.8502    1.0000 </r>
       <r>    1.9862    1.0000 </r>
       <r>    2.0769    1.0000 </r>
       <r>    2.1050    1.0000 </r>
       <r>    2.1738    1.0000 </r>
       <r>    2.2014    1.0000 </r>
       <r>    2.2378    1.0000 </r>
       <r>    2.3165    1.0000 </r>
       <r>    2.3576    1.0000 </r>
       <r>    2.3752    1.0000 </r>
       <r>    2.4671    1.0000 </r>
       <r>    2.5240    1.0000 </r>
       <r>    2.5308    1.0000 </r>
       <r>    2.5388    1.0000 </r>
       <r>    2.5599    1.0000 </r>
       <r>    2.5721    1.0000 </r>
       <r>    2.6241    1.0000 </r>
       <r>    2.6502    1.0000 </r>
       <r>    2.6843    1.0000 </r>
       <r>    2.7511    1.0000 </r>
       <r>    2.8121    1.0000 </r>
       <r>    2.8165    1.0000 </r>
       <r>    2.8331    1.0000 </r>
       <r>    2.8887    1.0000 </r>
       <r>    2.9386    1.0000 </r>
       <r>    2.9707    1.0000 </r>
       <r>    3.0064    1.0000 </r>
       <r>    3.0402    1.0000 </r>
       <r>    3.0942    1.0000 </r>
       <r>    3.1088    1.0000 </r>
       <r>    3.1338    1.0000 </r>
       <r>    3.1604    1.0000 </r>
       <r>    3.1798    1.0000 </r>
       <r>    3.1850    1.0000 </r>
       <r>    3.2045    1.0000 </r>
       <r>    3.2282    1.0000 </r>
       <r>    3.2960    1.0000 </r>
       <r>    3.3662    1.0000 </r>
       <r>    3.3781    1.0000 </r>
       <r>    3.4408    1.0000 </r>
       <r>    3.5316    1.0000 </r>
       <r>    3.7200    1.0000 </r>
       <r>    3.8263    1.0000 </r>
       <r>    4.1620    1.0000 </r>
       <r>    4.1748    1.0000 </r>
       <r>    4.2270    1.0000 </r>
       <r>    4.2281    1.0000 </r>
       <r>    4.9685    0.0000 </r>
       <r>    4.9768    0.0000 </r>
       <r>    5.1586    0.0000 </r>
       <r>    5.1662    0.0000 </r>
       <r>    5.6755    0.0000 </r>
       <r>    5.6793    0.0000 </r>
       <r>    5.7814    0.0000 </r>
       <r>    5.7882    0.0000 </r>
       <r>    6.1040    0.0000 </r>
       <r>    6.1099    0.0000 </r>
       <r>    6.1367    0.0000 </r>
       <r>    6.1481    0.0000 </r>
       <r>    6.2285    0.0000 </r>
       <r>    6.2341    0.0000 </r>
       <r>    6.2547    0.0000 </r>
       <r>    6.2681    0.0000 </r>
       <r>    6.9588    0.0000 </r>
       <r>    6.9729    0.0000 </r>
       <r>    7.2269    0.0000 </r>
       <r>    7.2434    0.0000 </r>
       <r>    7.7176    0.0000 </r>
       <r>    7.7964    0.0000 </r>
       <r>    7.8302    0.0000 </r>
       <r>    7.9051    0.0000 </r>
       <r>    7.9365    0.0000 </r>
       <r>    8.0086    0.0000 </r>
       <r>    8.0424    0.0000 </r>
       <r>    8.1317    0.0000 </r>
       <r>    8.3066    0.0000 </r>
       <r>    8.6204    0.0000 </r>
       <r>    8.6792    0.0000 </r>
       <r>    8.7402    0.0000 </r>
       <r>    8.7977    0.0000 </r>
       <r>    8.8052    0.0000 </r>
       <r>    8.8480    0.0000 </r>
       <r>    8.9126    0.0000 </r>
       <r>    8.9696    0.0000 </r>
       <r>    8.9948    0.0000 </r>
       <r>    9.0253    0.0000 </r>
       <r>    9.0984    0.0000 </r>
       <r>    9.1144    0.0000 </r>
       <r>    9.1261    0.0000 </r>
       <r>    9.1781    0.0000 </r>
       <r>    9.2607    0.0000 </r>
       <r>    9.3517    0.0000 </r>
       <r>    9.4522    0.0000 </r>
       <r>    9.4982    0.0000 </r>
       <r>    9.5218    0.0000 </r>
       <r>    9.6786    0.0000 </r>
       <r>    9.7808    0.0000 </r>
      </set>
      <set comment="kpoint 2">
       <r>  -40.6133    1.0000 </r>
       <r>  -40.3112    1.0000 </r>
       <r>  -39.8637    1.0000 </r>
       <r>  -39.6864    1.0000 </r>
       <r>  -39.5691    1.0000 </r>
       <r>  -39.1329    1.0000 </r>
       <r>  -19.0429    1.0000 </r>
       <r>  -19.0348    1.0000 </r>
       <r>  -18.9665    1.0000 </r>
       <r>  -18.9648    1.0000 </r>
       <r>  -18.9603    1.0000 </r>
       <r>  -18.9585    1.0000 </r>
       <r>  -18.9556    1.0000 </r>
       <r>  -18.9483    1.0000 </r>
       <r>  -18.8880    1.0000 </r>
       <r>  -18.8844    1.0000 </r>
       <r>  -18.8801    1.0000 </r>
       <r>  -18.8767    1.0000 </r>
       <r>  -18.8636    1.0000 </r>
       <r>  -18.8617    1.0000 </r>
       <r>  -18.8569    1.0000 </r>
       <r>  -18.8419    1.0000 </r>
       <r>  -18.7914    1.0000 </r>
       <r>  -18.7877    1.0000 </r>
       <r>  -18.7692    1.0000 </r>
       <r>  -18.7652    1.0000 </r>
       <r>  -18.7544    1.0000 </r>
       <r>  -18.7452    1.0000 </r>
       <r>  -18.7372    1.0000 </r>
       <r>  -18.7350    1.0000 </r>
       <r>  -18.7249    1.0000 </r>
       <r>  -18.7165    1.0000 </r>
       <r>  -18.6766    1.0000 </r>
       <r>  -18.6733    1.0000 </r>
       <r>  -18.6607    1.0000 </r>
       <r>  -18.6578    1.0000 </r>
       <r>  -18.6564    1.0000 </r>
       <r>  -18.6541    1.0000 </r>
       <r>  -18.6477    1.0000 </r>
       <r>  -18.6444    1.0000 </r>
       <r>  -18.6416    1.0000 </r>
       <r>  -18.6384    1.0000 </r>
       <r>  -18.6236    1.0000 </r>
       <r>  -18.6233    1.0000 </r>
       <r>  -18.6074    1.0000 </r>
       <r>  -18.6066    1.0000 </r>
       <r>  -18.6016    1.0000 </r>
       <r>  -18.5961    1.0000 </r>
       <r>  -18.5937    1.0000 </r>
       <r>  -18.5871    1.0000 </r>
       <r>  -18.5855    1.0000 </r>
       <r>  -18.5837    1.0000 </r>
       <r>  -18.5834    1.0000 </r>
       <r>  -18.5558    1.0000 </r>
       <r>  -18.5208    1.0000 </r>
       <r>  -18.5139    1.0000 </r>
       <r>  -18.5030    1.0000 </r>
       <r>  -18.5004    1.0000 </r>
       <r>  -18.4935    1.0000 </r>
       <r>  -18.4923    1.0000 </r>
       <r>  -18.4665    1.0000 </r>
       <r>  -18.4648    1.0000 </r>
       <r>  -18.4523    1.0000 </r>
       <r>  -18.4516    1.0000 </r>
       <r>  -18.4347    1.0000 </r>
       <r>  -18.4332    1.0000 </r>
       <r>  -18.4322    1.0000 </r>
       <r>  -18.4242    1.0000 </r>
       <r>  -18.4223    1.0000 </r>
       <r>  -18.4120    1.0000 </r>
       <r>  -18.3515    1.0000 </r>
       <r>  -18.3511    1.0000 </r>
       <r>  -18.3466    1.0000 </r>
       <r>  -18.3425    1.0000 </r>
       <r>  -18.3362    1.0000 </r>
       <r>  -18.3315    1.0000 </r>
       <r>  -18.2591    1.0000 </r>
       <r>  -18.2590    1.0000 </r>
       <r>  -18.2282    1.0000 </r>
       <r>  -18.2251    1.0000 </r>
       <r>  -18.2138    1.0000 </r>
       <r>  -18.1976    1.0000 </r>
       <r>  -18.1505    1.0000 </r>
       <r>  -18.1496    1.0000 </r>
       <r>  -18.1243    1.0000 </r>
       <r>  -18.1234    1.0000 </r>
       <r>  -13.7334    1.0000 </r>
       <r>  -13.6220    1.0000 </r>
       <r>  -13.5532    1.0000 </r>
       <r>  -13.5339    1.0000 </r>
       <r>  -12.8874    1.0000 </r>
       <r>  -12.8376    1.0000 </r>
       <r>  -12.7906    1.0000 </r>
       <r>  -12.7282    1.0000 </r>
       <r>  -12.6921    1.0000 </r>
       <r>  -12.6721    1.0000 </r>
       <r>  -12.6538    1.0000 </r>
       <r>  -12.6302    1.0000 </r>
       <r>  -12.0283    1.0000 </r>
       <r>  -11.9895    1.0000 </r>
       <r>  -11.9042    1.0000 </r>
       <r>  -11.8785    1.0000 </r>
       <r>   -9.2393    1.0000 </r>
       <r>   -9.0812    1.0000 </r>
       <r>   -8.9678    1.0000 </r>
       <r>   -8.8059    1.0000 </r>
       <r>   -8.4382    1.0000 </r>
       <r>   -8.4056    1.0000 </r>
       <r>   -8.3021    1.0000 </r>
       <r>   -8.2658    1.0000 </r>
       <r>   -8.2431    1.0000 </r>
       <r>   -8.2026    1.0000 </r>
       <r>   -8.1063    1.0000 </r>
       <r>   -8.0603    1.0000 </r>
       <r>   -7.7698    1.0000 </r>
       <r>   -7.6663    1.0000 </r>
       <r>   -7.6469    1.0000 </r>
       <r>   -7.5431    1.0000 </r>
       <r>   -6.0988    1.0000 </r>
       <r>   -6.0696    1.0000 </r>
       <r>   -5.9955    1.0000 </r>
       <r>   -5.9256    1.0000 </r>
       <r>   -5.8728    1.0000 </r>
       <r>   -5.8459    1.0000 </r>
       <r>   -5.7408    1.0000 </r>
       <r>   -5.6924    1.0000 </r>
       <r>   -5.6383    1.0000 </r>
       <r>   -5.6314    1.0000 </r>
       <r>   -5.4518    1.0000 </r>
       <r>   -5.4216    1.0000 </r>
       <r>   -4.5177    1.0000 </r>
       <r>   -4.3655    1.0000 </r>
       <r>   -4.3464    1.0000 </r>
       <r>   -4.1874    1.0000 </r>
       <r>   -1.3130    1.0000 </r>
       <r>   -1.1370    1.0000 </r>
       <r>   -0.9409    1.0000 </r>
       <r>   -0.7688    1.0000 </r>
       <r>   -0.6276    1.0000 </r>
       <r>   -0.4747    1.0000 </r>
       <r>   -0.1851    1.0000 </r>
       <r>   -0.1258    1.0000 </r>
       <r>   -0.1010    1.0000 </r>
       <r>   -0.0356    1.0000 </r>
       <r>   -0.0159    1.0000 </r>
       <r>    0.0329    1.0000 </r>
       <r>    0.1119    1.0000 </r>
       <r>    0.1934    1.0000 </r>
       <r>    0.2551    1.0000 </r>
       <r>    0.3202    1.0000 </r>
       <r>    0.3981    1.0000 </r>
       <r>    0.4370    1.0000 </r>
       <r>    0.4541    1.0000 </r>
       <r>    0.5250    1.0000 </r>
       <r>    0.5727    1.0000 </r>
       <r>    0.5797    1.0000 </r>
       <r>    0.6355    1.0000 </r>
       <r>    0.6632    1.0000 </r>
       <r>    0.6730    1.0000 </r>
       <r>    0.7090    1.0000 </r>
       <r>    0.7502    1.0000 </r>
       <r>    0.7883    1.0000 </r>
       <r>    0.8332    1.0000 </r>
       <r>    0.8935    1.0000 </r>
       <r>    0.9095    1.0000 </r>
       <r>    0.9628    1.0000 </r>
       <r>    1.1000    1.0000 </r>
       <r>    1.1217    1.0000 </r>
       <r>    1.1709    1.0000 </r>
       <r>    1.2244    1.0000 </r>
       <r>    1.2719    1.0000 </r>
       <r>    1.2982    1.0000 </r>
       <r>    1.3074    1.0000 </r>
       <r>    1.3555    1.0000 </r>
       <r>    1.3716    1.0000 </r>
       <r>    1.4646    1.0000 </r>
       <r>    1.4981    1.0000 </r>
       <r>    1.5110    1.0000 </r>
       <r>    1.5598    1.0000 </r>
       <r>    1.5774    1.0000 </r>
       <r>    1.6486    1.0000 </r>
       <r>    1.7111    1.0000 </r>
       <r>    1.7555    1.0000 </r>
       <r>    1.7755    1.0000 </r>
       <r>    1.8627    1.0000 </r>
       <r>    1.9146    1.0000 </r>
       <r>    1.9171    1.0000 </r>
       <r>    1.9979    1.0000 </r>
       <r>    2.0394    1.0000 </r>
       <r>    2.0917    1.0000 </r>
       <r>    2.1648    1.0000 </r>
       <r>    2.2043    1.0000 </r>
       <r>    2.2161    1.0000 </r>
       <r>    2.2567    1.0000 </r>
       <r>    2.2974    1.0000 </r>
       <r>    2.3726    1.0000 </r>
       <r>    2.3931    1.0000 </r>
       <r>    2.4428    1.0000 </r>
       <r>    2.5017    1.0000 </r>
       <r>    2.5215    1.0000 </r>
       <r>    2.5407    1.0000 </r>
       <r>    2.5870    1.0000 </r>
       <r>    2.6314    1.0000 </r>
       <r>    2.6424    1.0000 </r>
       <r>    2.6605    1.0000 </r>
       <r>    2.7280    1.0000 </r>
       <r>    2.7395    1.0000 </r>
       <r>    2.7957    1.0000 </r>
       <r>    2.8310    1.0000 </r>
       <r>    2.8430    1.0000 </r>
       <r>    2.9009    1.0000 </r>
       <r>    2.9811    1.0000 </r>
       <r>    3.0094    1.0000 </r>
       <r>    3.0259    1.0000 </r>
       <r>    3.0542    1.0000 </r>
       <r>    3.1084    1.0000 </r>
       <r>    3.1638    1.0000 </r>
       <r>    3.1885    1.0000 </r>
       <r>    3.2553    1.0000 </r>
       <r>    3.2848    1.0000 </r>
       <r>    3.3983    1.0000 </r>
       <r>    3.4185    1.0000 </r>
       <r>    3.4594    1.0000 </r>
       <r>    3.5292    1.0000 </r>
       <r>    3.5461    1.0000 </r>
       <r>    3.5796    1.0000 </r>
       <r>    3.6541    1.0000 </r>
       <r>    3.7050    1.0000 </r>
       <r>    3.8782    1.0000 </r>
       <r>    3.9402    1.0000 </r>
       <r>    5.5246    0.0000 </r>
       <r>    5.5271    0.0000 </r>
       <r>    5.6875    0.0000 </r>
       <r>    5.6932    0.0000 </r>
       <r>    5.7140    0.0000 </r>
       <r>    5.7176    0.0000 </r>
       <r>    5.8798    0.0000 </r>
       <r>    5.8878    0.0000 </r>
       <r>    7.0723    0.0000 </r>
       <r>    7.1087    0.0000 </r>
       <r>    7.1587    0.0000 </r>
       <r>    7.2285    0.0000 </r>
       <r>    7.2784    0.0000 </r>
       <r>    7.3004    0.0000 </r>
       <r>    7.3566    0.0000 </r>
       <r>    7.3730    0.0000 </r>
       <r>    7.4284    0.0000 </r>
       <r>    7.4704    0.0000 </r>
       <r>    7.5558    0.0000 </r>
       <r>    7.6030    0.0000 </r>
       <r>    7.7560    0.0000 </r>
       <r>    7.7915    0.0000 </r>
       <r>    7.8220    0.0000 </r>
       <r>    7.8313    0.0000 </r>
       <r>    7.8643    0.0000 </r>
       <r>    7.8860    0.0000 </r>
       <r>    7.9077    0.0000 </r>
       <r>    7.9360    0.0000 </r>
       <r>    7.9651    0.0000 </r>
       <r>    8.0058    0.0000 </r>
       <r>    8.0469    0.0000 </r>
       <r>    8.1535    0.0000 </r>
       <r>    8.2551    0.0000 </r>
       <r>    8.3048    0.0000 </r>
       <r>    8.4008    0.0000 </r>
       <r>    8.4634    0.0000 </r>
       <r>    8.6377    0.0000 </r>
       <r>    8.7184    0.0000 </r>
       <r>    8.7266    0.0000 </r>
       <r>    8.7392    0.0000 </r>
       <r>    8.7502    0.0000 </r>
       <r>    8.8333    0.0000 </r>
       <r>    8.9134    0.0000 </r>
       <r>    8.9325    0.0000 </r>
       <r>    9.0623    0.0000 </r>
       <r>    9.2127    0.0000 </r>
       <r>    9.2885    0.0000 </r>
       <r>    9.3293    0.0000 </r>
       <r>    9.4143    0.0000 </r>
       <r>    9.5531    0.0000 </r>
      </set>
      <set comment="kpoint 3">
       <r>  -40.6133    1.0000 </r>
       <r>  -40.3112    1.0000 </r>
       <r>  -39.8637    1.0000 </r>
       <r>  -39.6864    1.0000 </r>
       <r>  -39.5691    1.0000 </r>
       <r>  -39.1329    1.0000 </r>
       <r>  -19.0430    1.0000 </r>
       <r>  -19.0347    1.0000 </r>
       <r>  -18.9665    1.0000 </r>
       <r>  -18.9648    1.0000 </r>
       <r>  -18.9604    1.0000 </r>
       <r>  -18.9585    1.0000 </r>
       <r>  -18.9556    1.0000 </r>
       <r>  -18.9483    1.0000 </r>
       <r>  -18.8880    1.0000 </r>
       <r>  -18.8845    1.0000 </r>
       <r>  -18.8801    1.0000 </r>
       <r>  -18.8767    1.0000 </r>
       <r>  -18.8635    1.0000 </r>
       <r>  -18.8617    1.0000 </r>
       <r>  -18.8569    1.0000 </r>
       <r>  -18.8419    1.0000 </r>
       <r>  -18.7914    1.0000 </r>
       <r>  -18.7877    1.0000 </r>
       <r>  -18.7692    1.0000 </r>
       <r>  -18.7652    1.0000 </r>
       <r>  -18.7544    1.0000 </r>
       <r>  -18.7452    1.0000 </r>
       <r>  -18.7372    1.0000 </r>
       <r>  -18.7349    1.0000 </r>
       <r>  -18.7249    1.0000 </r>
       <r>  -18.7165    1.0000 </r>
       <r>  -18.6766    1.0000 </r>
       <r>  -18.6733    1.0000 </r>
       <r>  -18.6604    1.0000 </r>
       <r>  -18.6575    1.0000 </r>
       <r>  -18.6566    1.0000 </r>
       <r>  -18.6543    1.0000 </r>
       <r>  -18.6474    1.0000 </r>
       <r>  -18.6441    1.0000 </r>
       <r>  -18.6419    1.0000 </r>
       <r>  -18.6389    1.0000 </r>
       <r>  -18.6242    1.0000 </r>
       <r>  -18.6229    1.0000 </r>
       <r>  -18.6074    1.0000 </r>
       <r>  -18.6066    1.0000 </r>
       <r>  -18.6016    1.0000 </r>
       <r>  -18.5960    1.0000 </r>
       <r>  -18.5937    1.0000 </r>
       <r>  -18.5871    1.0000 </r>
       <r>  -18.5855    1.0000 </r>
       <r>  -18.5837    1.0000 </r>
       <r>  -18.5834    1.0000 </r>
       <r>  -18.5558    1.0000 </r>
       <r>  -18.5208    1.0000 </r>
       <r>  -18.5139    1.0000 </r>
       <r>  -18.5030    1.0000 </r>
       <r>  -18.5004    1.0000 </r>
       <r>  -18.4935    1.0000 </r>
       <r>  -18.4923    1.0000 </r>
       <r>  -18.4665    1.0000 </r>
       <r>  -18.4649    1.0000 </r>
       <r>  -18.4523    1.0000 </r>
       <r>  -18.4516    1.0000 </r>
       <r>  -18.4346    1.0000 </r>
       <r>  -18.4332    1.0000 </r>
       <r>  -18.4322    1.0000 </r>
       <r>  -18.4242    1.0000 </r>
       <r>  -18.4223    1.0000 </r>
       <r>  -18.4120    1.0000 </r>
       <r>  -18.3515    1.0000 </r>
       <r>  -18.3511    1.0000 </r>
       <r>  -18.3466    1.0000 </r>
       <r>  -18.3426    1.0000 </r>
       <r>  -18.3361    1.0000 </r>
       <r>  -18.3315    1.0000 </r>
       <r>  -18.2594    1.0000 </r>
       <r>  -18.2587    1.0000 </r>
       <r>  -18.2282    1.0000 </r>
       <r>  -18.2251    1.0000 </r>
       <r>  -18.2138    1.0000 </r>
       <r>  -18.1976    1.0000 </r>
       <r>  -18.1505    1.0000 </r>
       <r>  -18.1496    1.0000 </r>
       <r>  -18.1243    1.0000 </r>
       <r>  -18.1234    1.0000 </r>
       <r>  -13.7344    1.0000 </r>
       <r>  -13.6210    1.0000 </r>
       <r>  -13.5496    1.0000 </r>
       <r>  -13.5374    1.0000 </r>
       <r>  -12.8851    1.0000 </r>
       <r>  -12.8402    1.0000 </r>
       <r>  -12.7891    1.0000 </r>
       <r>  -12.7223    1.0000 </r>
       <r>  -12.7030    1.0000 </r>
       <r>  -12.6746    1.0000 </r>
       <r>  -12.6433    1.0000 </r>
       <r>  -12.6349    1.0000 </r>
       <r>  -12.0247    1.0000 </r>
       <r>  -11.9925    1.0000 </r>
       <r>  -11.9041    1.0000 </r>
       <r>  -11.8806    1.0000 </r>
       <r>   -9.3746    1.0000 </r>
       <r>   -9.0985    1.0000 </r>
       <r>   -8.6077    1.0000 </r>
       <r>   -8.5527    1.0000 </r>
       <r>   -8.5220    1.0000 </r>
       <r>   -8.5175    1.0000 </r>
       <r>   -8.3503    1.0000 </r>
       <r>   -8.3026    1.0000 </r>
       <r>   -8.2656    1.0000 </r>
       <r>   -8.2598    1.0000 </r>
       <r>   -8.0384    1.0000 </r>
       <r>   -8.0242    1.0000 </r>
       <r>   -8.0023    1.0000 </r>
       <r>   -7.9890    1.0000 </r>
       <r>   -7.3809    1.0000 </r>
       <r>   -7.3799    1.0000 </r>
       <r>   -6.4112    1.0000 </r>
       <r>   -6.4039    1.0000 </r>
       <r>   -6.3869    1.0000 </r>
       <r>   -6.3794    1.0000 </r>
       <r>   -5.6144    1.0000 </r>
       <r>   -5.5891    1.0000 </r>
       <r>   -5.4334    1.0000 </r>
       <r>   -5.4275    1.0000 </r>
       <r>   -5.3426    1.0000 </r>
       <r>   -5.2686    1.0000 </r>
       <r>   -5.1469    1.0000 </r>
       <r>   -5.1296    1.0000 </r>
       <r>   -5.0636    1.0000 </r>
       <r>   -5.0010    1.0000 </r>
       <r>   -3.8948    1.0000 </r>
       <r>   -3.5830    1.0000 </r>
       <r>   -1.4343    1.0000 </r>
       <r>   -1.3722    1.0000 </r>
       <r>   -1.2915    1.0000 </r>
       <r>   -1.0840    1.0000 </r>
       <r>   -0.5559    1.0000 </r>
       <r>   -0.5102    1.0000 </r>
       <r>   -0.4815    1.0000 </r>
       <r>   -0.4461    1.0000 </r>
       <r>   -0.4324    1.0000 </r>
       <r>   -0.4109    1.0000 </r>
       <r>   -0.3279    1.0000 </r>
       <r>   -0.3196    1.0000 </r>
       <r>   -0.2655    1.0000 </r>
       <r>   -0.1386    1.0000 </r>
       <r>   -0.1002    1.0000 </r>
       <r>   -0.0408    1.0000 </r>
       <r>    0.1627    1.0000 </r>
       <r>    0.2318    1.0000 </r>
       <r>    0.3027    1.0000 </r>
       <r>    0.3580    1.0000 </r>
       <r>    0.4748    1.0000 </r>
       <r>    0.5689    1.0000 </r>
       <r>    0.6384    1.0000 </r>
       <r>    0.6848    1.0000 </r>
       <r>    0.7287    1.0000 </r>
       <r>    0.7646    1.0000 </r>
       <r>    0.7869    1.0000 </r>
       <r>    0.7988    1.0000 </r>
       <r>    0.8166    1.0000 </r>
       <r>    0.9347    1.0000 </r>
       <r>    1.0280    1.0000 </r>
       <r>    1.0429    1.0000 </r>
       <r>    1.0785    1.0000 </r>
       <r>    1.1766    1.0000 </r>
       <r>    1.1913    1.0000 </r>
       <r>    1.3010    1.0000 </r>
       <r>    1.3199    1.0000 </r>
       <r>    1.3764    1.0000 </r>
       <r>    1.4822    1.0000 </r>
       <r>    1.4875    1.0000 </r>
       <r>    1.5526    1.0000 </r>
       <r>    1.5807    1.0000 </r>
       <r>    1.6027    1.0000 </r>
       <r>    1.7014    1.0000 </r>
       <r>    1.7386    1.0000 </r>
       <r>    1.8042    1.0000 </r>
       <r>    1.8693    1.0000 </r>
       <r>    1.9522    1.0000 </r>
       <r>    1.9739    1.0000 </r>
       <r>    2.0268    1.0000 </r>
       <r>    2.0799    1.0000 </r>
       <r>    2.1616    1.0000 </r>
       <r>    2.2008    1.0000 </r>
       <r>    2.2116    1.0000 </r>
       <r>    2.2847    1.0000 </r>
       <r>    2.3636    1.0000 </r>
       <r>    2.3815    1.0000 </r>
       <r>    2.4296    1.0000 </r>
       <r>    2.4564    1.0000 </r>
       <r>    2.4775    1.0000 </r>
       <r>    2.5010    1.0000 </r>
       <r>    2.5255    1.0000 </r>
       <r>    2.5331    1.0000 </r>
       <r>    2.5544    1.0000 </r>
       <r>    2.5720    1.0000 </r>
       <r>    2.6028    1.0000 </r>
       <r>    2.6328    1.0000 </r>
       <r>    2.6541    1.0000 </r>
       <r>    2.7655    1.0000 </r>
       <r>    2.7837    1.0000 </r>
       <r>    2.7916    1.0000 </r>
       <r>    2.8568    1.0000 </r>
       <r>    2.8707    1.0000 </r>
       <r>    2.9072    1.0000 </r>
       <r>    2.9360    1.0000 </r>
       <r>    2.9591    1.0000 </r>
       <r>    3.0004    1.0000 </r>
       <r>    3.0206    1.0000 </r>
       <r>    3.0525    1.0000 </r>
       <r>    3.0714    1.0000 </r>
       <r>    3.1466    1.0000 </r>
       <r>    3.2167    1.0000 </r>
       <r>    3.3211    1.0000 </r>
       <r>    3.3411    1.0000 </r>
       <r>    3.3602    1.0000 </r>
       <r>    3.3911    1.0000 </r>
       <r>    3.4572    1.0000 </r>
       <r>    3.4807    1.0000 </r>
       <r>    3.4969    1.0000 </r>
       <r>    3.5379    1.0000 </r>
       <r>    3.6914    1.0000 </r>
       <r>    3.7677    1.0000 </r>
       <r>    4.2195    1.0000 </r>
       <r>    4.2209    1.0000 </r>
       <r>    4.2728    1.0000 </r>
       <r>    4.2838    1.0000 </r>
       <r>    5.0514    0.0000 </r>
       <r>    5.0535    0.0000 </r>
       <r>    5.2226    0.0000 </r>
       <r>    5.2248    0.0000 </r>
       <r>    5.6829    0.0000 </r>
       <r>    5.6894    0.0000 </r>
       <r>    5.7926    0.0000 </r>
       <r>    5.7972    0.0000 </r>
       <r>    6.1532    0.0000 </r>
       <r>    6.1546    0.0000 </r>
       <r>    6.1822    0.0000 </r>
       <r>    6.1919    0.0000 </r>
       <r>    6.2440    0.0000 </r>
       <r>    6.2558    0.0000 </r>
       <r>    6.2730    0.0000 </r>
       <r>    6.2833    0.0000 </r>
       <r>    6.5895    0.0000 </r>
       <r>    6.6923    0.0000 </r>
       <r>    6.8708    0.0000 </r>
       <r>    6.9508    0.0000 </r>
       <r>    7.1424    0.0000 </r>
       <r>    7.2314    0.0000 </r>
       <r>    7.4063    0.0000 </r>
       <r>    7.5256    0.0000 </r>
       <r>    7.7485    0.0000 </r>
       <r>    7.8354    0.0000 </r>
       <r>    7.8644    0.0000 </r>
       <r>    7.9229    0.0000 </r>
       <r>    8.0036    0.0000 </r>
       <r>    8.3667    0.0000 </r>
       <r>    8.3943    0.0000 </r>
       <r>    8.4089    0.0000 </r>
       <r>    8.5732    0.0000 </r>
       <r>    8.7474    0.0000 </r>
       <r>    8.8488    0.0000 </r>
       <r>    8.8836    0.0000 </r>
       <r>    8.9489    0.0000 </r>
       <r>    9.0308    0.0000 </r>
       <r>    9.0386    0.0000 </r>
       <r>    9.0458    0.0000 </r>
       <r>    9.0766    0.0000 </r>
       <r>    9.1117    0.0000 </r>
       <r>    9.1282    0.0000 </r>
       <r>    9.2110    0.0000 </r>
       <r>    9.4569    0.0000 </r>
       <r>    9.4849    0.0000 </r>
       <r>    9.5995    0.0000 </r>
       <r>    9.6693    0.0000 </r>
       <r>    9.7172    0.0000 </r>
       <r>    9.7330    0.0000 </r>
      </set>
      <set comment="kpoint 4">
       <r>  -40.6133    1.0000 </r>
       <r>  -40.3112    1.0000 </r>
       <r>  -39.8637    1.0000 </r>
       <r>  -39.6864    1.0000 </r>
       <r>  -39.5691    1.0000 </r>
       <r>  -39.1329    1.0000 </r>
       <r>  -19.0430    1.0000 </r>
       <r>  -19.0347    1.0000 </r>
       <r>  -18.9664    1.0000 </r>
       <r>  -18.9648    1.0000 </r>
       <r>  -18.9604    1.0000 </r>
       <r>  -18.9585    1.0000 </r>
       <r>  -18.9556    1.0000 </r>
       <r>  -18.9483    1.0000 </r>
       <r>  -18.8880    1.0000 </r>
       <r>  -18.8844    1.0000 </r>
       <r>  -18.8801    1.0000 </r>
       <r>  -18.8767    1.0000 </r>
       <r>  -18.8635    1.0000 </r>
       <r>  -18.8617    1.0000 </r>
       <r>  -18.8569    1.0000 </r>
       <r>  -18.8419    1.0000 </r>
       <r>  -18.7914    1.0000 </r>
       <r>  -18.7877    1.0000 </r>
       <r>  -18.7692    1.0000 </r>
       <r>  -18.7652    1.0000 </r>
       <r>  -18.7544    1.0000 </r>
       <r>  -18.7452    1.0000 </r>
       <r>  -18.7372    1.0000 </r>
       <r>  -18.7350    1.0000 </r>
       <r>  -18.7249    1.0000 </r>
       <r>  -18.7165    1.0000 </r>
       <r>  -18.6766    1.0000 </r>
       <r>  -18.6733    1.0000 </r>
       <r>  -18.6607    1.0000 </r>
       <r>  -18.6577    1.0000 </r>
       <r>  -18.6564    1.0000 </r>
       <r>  -18.6541    1.0000 </r>
       <r>  -18.6477    1.0000 </r>
       <r>  -18.6444    1.0000 </r>
       <r>  -18.6416    1.0000 </r>
       <r>  -18.6384    1.0000 </r>
       <r>  -18.6241    1.0000 </r>
       <r>  -18.6228    1.0000 </r>
       <r>  -18.6074    1.0000 </r>
       <r>  -18.6066    1.0000 </r>
       <r>  -18.6016    1.0000 </r>
       <r>  -18.5960    1.0000 </r>
       <r>  -18.5937    1.0000 </r>
       <r>  -18.5871    1.0000 </r>
       <r>  -18.5855    1.0000 </r>
       <r>  -18.5837    1.0000 </r>
       <r>  -18.5834    1.0000 </r>
       <r>  -18.5558    1.0000 </r>
       <r>  -18.5208    1.0000 </r>
       <r>  -18.5139    1.0000 </r>
       <r>  -18.5030    1.0000 </r>
       <r>  -18.5004    1.0000 </r>
       <r>  -18.4935    1.0000 </r>
       <r>  -18.4923    1.0000 </r>
       <r>  -18.4665    1.0000 </r>
       <r>  -18.4649    1.0000 </r>
       <r>  -18.4523    1.0000 </r>
       <r>  -18.4516    1.0000 </r>
       <r>  -18.4346    1.0000 </r>
       <r>  -18.4332    1.0000 </r>
       <r>  -18.4322    1.0000 </r>
       <r>  -18.4242    1.0000 </r>
       <r>  -18.4223    1.0000 </r>
       <r>  -18.4120    1.0000 </r>
       <r>  -18.3515    1.0000 </r>
       <r>  -18.3511    1.0000 </r>
       <r>  -18.3466    1.0000 </r>
       <r>  -18.3425    1.0000 </r>
       <r>  -18.3361    1.0000 </r>
       <r>  -18.3315    1.0000 </r>
       <r>  -18.2594    1.0000 </r>
       <r>  -18.2587    1.0000 </r>
       <r>  -18.2282    1.0000 </r>
       <r>  -18.2251    1.0000 </r>
       <r>  -18.2138    1.0000 </r>
       <r>  -18.1976    1.0000 </r>
       <r>  -18.1505    1.0000 </r>
       <r>  -18.1496    1.0000 </r>
       <r>  -18.1243    1.0000 </r>
       <r>  -18.1234    1.0000 </r>
       <r>  -13.7331    1.0000 </r>
       <r>  -13.6220    1.0000 </r>
       <r>  -13.5533    1.0000 </r>
[...]
       <r>    8.8130    0.0000 </r>
       <r>    8.8247    0.0000 </r>
       <r>    8.8680    0.0000 </r>
       <r>    8.8975    0.0000 </r>
       <r>    8.9184    0.0000 </r>
       <r>    8.9425    0.0000 </r>
       <r>    8.9703    0.0000 </r>
       <r>    9.4395    0.0000 </r>
       <r>    9.7234    0.0000 </r>
      </set>
     </set>
    </set>
   </array>
  </eigenvalues>
  <separator name="orbital magnetization" >
   <v name="MAGDIPOLOUT">      0.00000000      0.00000000      0.00000000</v>
  </separator>
  <dos>
   <i name="efermi">      4.29647250 </i>
   <total>
    <array>
     <dimension dim="1">gridpoints</dimension>
     <dimension dim="2">spin</dimension>
     <field>energy</field>
     <field>total</field>
     <field>integrated</field>
     <set>
      <set comment="spin 1">
       <r>   -43.1453     0.0000     0.0000 </r>
       <r>   -42.9597     0.0000     0.0000 </r>
       <r>   -42.7740     0.0000     0.0000 </r>
       <r>   -42.5883     0.0000     0.0000 </r>
       <r>   -42.4026     0.0000     0.0000 </r>
       <r>   -42.2169     0.0000     0.0000 </r>
       <r>   -42.0312     0.0000     0.0000 </r>
       <r>   -41.8456     0.0000     0.0000 </r>
       <r>   -41.6599     0.0000     0.0000 </r>
       <r>   -41.4742     0.0000     0.0000 </r>
       <r>   -41.2885     0.0000     0.0000 </r>
       <r>   -41.1028     0.0000     0.0000 </r>
       <r>   -40.9172     0.0000     0.0000 </r>
       <r>   -40.7315     0.0000     0.0000 </r>
       <r>   -40.5458     0.0000     2.0000 </r>
       <r>   -40.3601     0.0000     2.0000 </r>
       <r>   -40.1744     0.0000     4.0000 </r>
       <r>   -39.9887     0.0000     4.0000 </r>
       <r>   -39.8031     0.0000     6.0000 </r>
       <r>   -39.6174     0.0000     8.0000 </r>
       <r>   -39.4317     0.0000    10.0000 </r>
       <r>   -39.2460     0.0000    10.0000 </r>
       <r>   -39.0603     0.0000    12.0000 </r>
       <r>   -38.8746     0.0000    12.0000 </r>
       <r>   -38.6890     0.0000    12.0000 </r>
       <r>   -38.5033     0.0000    12.0000 </r>
       <r>   -38.3176     0.0000    12.0000 </r>
       <r>   -38.1319     0.0000    12.0000 </r>
       <r>   -37.9462     0.0000    12.0000 </r>
       <r>   -37.7606     0.0000    12.0000 </r>
       <r>   -37.5749     0.0000    12.0000 </r>
       <r>   -37.3892     0.0000    12.0000 </r>
       <r>   -37.2035     0.0000    12.0000 </r>
       <r>   -37.0178     0.0000    12.0000 </r>
       <r>   -36.8321     0.0000    12.0000 </r>
       <r>   -36.6465     0.0000    12.0000 </r>
       <r>   -36.4608     0.0000    12.0000 </r>
       <r>   -36.2751     0.0000    12.0000 </r>
       <r>   -36.0894     0.0000    12.0000 </r>
       <r>   -35.9037     0.0000    12.0000 </r>
       <r>   -35.7180     0.0000    12.0000 </r>
       <r>   -35.5324     0.0000    12.0000 </r>
       <r>   -35.3467     0.0000    12.0000 </r>
       <r>   -35.1610     0.0000    12.0000 </r>
       <r>   -34.9753     0.0000    12.0000 </r>
       <r>   -34.7896     0.0000    12.0000 </r>
       <r>   -34.6040     0.0000    12.0000 </r>
       <r>   -34.4183     0.0000    12.0000 </r>
       <r>   -34.2326     0.0000    12.0000 </r>
       <r>   -34.0469     0.0000    12.0000 </r>
       <r>   -33.8612     0.0000    12.0000 </r>
       <r>   -33.6755     0.0000    12.0000 </r>
       <r>   -33.4899     0.0000    12.0000 </r>
       <r>   -33.3042     0.0000    12.0000 </r>
       <r>   -33.1185     0.0000    12.0000 </r>
       <r>   -32.9328     0.0000    12.0000 </r>
       <r>   -32.7471     0.0000    12.0000 </r>
       <r>   -32.5614     0.0000    12.0000 </r>
       <r>   -32.3758     0.0000    12.0000 </r>
       <r>   -32.1901     0.0000    12.0000 </r>
       <r>   -32.0044     0.0000    12.0000 </r>
       <r>   -31.8187     0.0000    12.0000 </r>
       <r>   -31.6330     0.0000    12.0000 </r>
       <r>   -31.4474     0.0000    12.0000 </r>
       <r>   -31.2617     0.0000    12.0000 </r>
       <r>   -31.0760     0.0000    12.0000 </r>
       <r>   -30.8903     0.0000    12.0000 </r>
       <r>   -30.7046     0.0000    12.0000 </r>
       <r>   -30.5189     0.0000    12.0000 </r>
       <r>   -30.3333     0.0000    12.0000 </r>
       <r>   -30.1476     0.0000    12.0000 </r>
       <r>   -29.9619     0.0000    12.0000 </r>
       <r>   -29.7762     0.0000    12.0000 </r>
       <r>   -29.5905     0.0000    12.0000 </r>
       <r>   -29.4049     0.0000    12.0000 </r>
       <r>   -29.2192     0.0000    12.0000 </r>
       <r>   -29.0335     0.0000    12.0000 </r>
       <r>   -28.8478     0.0000    12.0000 </r>
       <r>   -28.6621     0.0000    12.0000 </r>
       <r>   -28.4764     0.0000    12.0000 </r>
       <r>   -28.2908     0.0000    12.0000 </r>
       <r>   -28.1051     0.0000    12.0000 </r>
       <r>   -27.9194     0.0000    12.0000 </r>
       <r>   -27.7337     0.0000    12.0000 </r>
       <r>   -27.5480     0.0000    12.0000 </r>
       <r>   -27.3623     0.0000    12.0000 </r>
       <r>   -27.1767     0.0000    12.0000 </r>
       <r>   -26.9910     0.0000    12.0000 </r>
       <r>   -26.8053     0.0000    12.0000 </r>
       <r>   -26.6196     0.0000    12.0000 </r>
       <r>   -26.4339     0.0000    12.0000 </r>
       <r>   -26.2483     0.0000    12.0000 </r>
       <r>   -26.0626     0.0000    12.0000 </r>
       <r>   -25.8769     0.0000    12.0000 </r>
       <r>   -25.6912     0.0000    12.0000 </r>
       <r>   -25.5055     0.0000    12.0000 </r>
       <r>   -25.3198     0.0000    12.0000 </r>
       <r>   -25.1342     0.0000    12.0000 </r>
       <r>   -24.9485     0.0000    12.0000 </r>
       <r>   -24.7628     0.0000    12.0000 </r>
       <r>   -24.5771     0.0000    12.0000 </r>
       <r>   -24.3914     0.0000    12.0000 </r>
       <r>   -24.2057     0.0000    12.0000 </r>
       <r>   -24.0201     0.0000    12.0000 </r>
       <r>   -23.8344     0.0000    12.0000 </r>
       <r>   -23.6487     0.0000    12.0000 </r>
       <r>   -23.4630     0.0000    12.0000 </r>
       <r>   -23.2773     0.0000    12.0000 </r>
       <r>   -23.0917     0.0000    12.0000 </r>
       <r>   -22.9060     0.0000    12.0000 </r>
       <r>   -22.7203     0.0000    12.0000 </r>
       <r>   -22.5346     0.0000    12.0000 </r>
       <r>   -22.3489     0.0000    12.0000 </r>
       <r>   -22.1632     0.0000    12.0000 </r>
       <r>   -21.9776     0.0000    12.0000 </r>
       <r>   -21.7919     0.0000    12.0000 </r>
       <r>   -21.6062     0.0000    12.0000 </r>
       <r>   -21.4205     0.0000    12.0000 </r>
       <r>   -21.2348     0.0000    12.0000 </r>
       <r>   -21.0492     0.0000    12.0000 </r>
       <r>   -20.8635     0.0000    12.0000 </r>
       <r>   -20.6778     0.0000    12.0000 </r>
       <r>   -20.4921     0.0000    12.0000 </r>
       <r>   -20.3064     0.0000    12.0000 </r>
       <r>   -20.1207     0.0000    12.0000 </r>
       <r>   -19.9351     0.0000    12.0000 </r>
       <r>   -19.7494     0.0000    12.0000 </r>
       <r>   -19.5637     0.0000    12.0000 </r>
       <r>   -19.3780     0.0000    12.0000 </r>
       <r>   -19.1923     0.0000    12.0000 </r>
       <r>   -19.0066     0.0000    16.0000 </r>
       <r>   -18.8210     0.0000    44.0000 </r>
       <r>   -18.6353     0.0000    84.0000 </r>
       <r>   -18.4496     0.0000   128.0000 </r>
       <r>   -18.2639     0.0000   152.0000 </r>
       <r>   -18.0782     0.0000   172.0000 </r>
       <r>   -17.8926     0.0000   172.0000 </r>
       <r>   -17.7069     0.0000   172.0000 </r>
       <r>   -17.5212     0.0000   172.0000 </r>
       <r>   -17.3355     0.0000   172.0000 </r>
       <r>   -17.1498     0.0000   172.0000 </r>
       <r>   -16.9641     0.0000   172.0000 </r>
       <r>   -16.7785     0.0000   172.0000 </r>
       <r>   -16.5928     0.0000   172.0000 </r>
       <r>   -16.4071     0.0000   172.0000 </r>
       <r>   -16.2214     0.0000   172.0000 </r>
       <r>   -16.0357     0.0000   172.0000 </r>
       <r>   -15.8500     0.0000   172.0000 </r>
       <r>   -15.6644     0.0000   172.0000 </r>
       <r>   -15.4787     0.0000   172.0000 </r>
       <r>   -15.2930     0.0000   172.0000 </r>
       <r>   -15.1073     0.0000   172.0000 </r>
       <r>   -14.9216     0.0000   172.0000 </r>
       <r>   -14.7360     0.0000   172.0000 </r>
       <r>   -14.5503     0.0000   172.0000 </r>
       <r>   -14.3646     0.0000   172.0000 </r>
       <r>   -14.1789     0.0000   172.0000 </r>
       <r>   -13.9932     0.0000   172.0000 </r>
       <r>   -13.8075     0.0000   172.0000 </r>
       <r>   -13.6219  1982.5468   174.8379 </r>
       <r>   -13.4362     0.0000   180.0000 </r>
       <r>   -13.2505     0.0000   180.0000 </r>
       <r>   -13.0648     0.0000   180.0000 </r>
       <r>   -12.8791     0.0000   182.0000 </r>
       <r>   -12.6935    37.2031   189.9753 </r>
       <r>   -12.5078     0.0000   196.0000 </r>
       <r>   -12.3221     0.0000   196.0000 </r>
       <r>   -12.1364     0.0000   196.0000 </r>
       <r>   -11.9507     0.0000   200.0000 </r>
       <r>   -11.7650     0.0000   204.0000 </r>
       <r>   -11.5794     0.0000   204.0000 </r>
       <r>   -11.3937     0.0000   204.0000 </r>
       <r>   -11.2080     0.0000   204.0000 </r>
       <r>   -11.0223     0.0000   204.0000 </r>
       <r>   -10.8366     0.0000   204.0000 </r>
       <r>   -10.6509     0.0000   204.0000 </r>
       <r>   -10.4653     0.0000   204.0000 </r>
       <r>   -10.2796     0.0000   204.0000 </r>
       <r>   -10.0939     0.0000   204.0000 </r>
       <r>    -9.9082     0.0000   204.0000 </r>
       <r>    -9.7225     0.0000   204.0000 </r>
       <r>    -9.5369     0.0000   204.0000 </r>
       <r>    -9.3512     3.4847   204.0497 </r>
       <r>    -9.1655     5.0432   205.8985 </r>
       <r>    -8.9798     5.4301   208.0113 </r>
       <r>    -8.7941    18.8888   210.1007 </r>
       <r>    -8.6084    14.6357   212.5943 </r>
       <r>    -8.4228    15.0766   216.8702 </r>
       <r>    -8.2371    24.4470   220.4615 </r>
       <r>    -8.0514    38.7033   223.8881 </r>
       <r>    -7.8657    19.2092   228.4323 </r>
       <r>    -7.6800    19.5875   231.8476 </r>
       <r>    -7.4943    17.7038   234.9775 </r>
       <r>    -7.3087     0.0000   236.0000 </r>
       <r>    -7.1230     0.0000   236.0000 </r>
       <r>    -6.9373     0.0000   236.0000 </r>
       <r>    -6.7516     0.0000   236.0000 </r>
       <r>    -6.5659     0.0000   236.0000 </r>
       <r>    -6.3803     3.5961   236.0556 </r>
       <r>    -6.1946    25.9505   239.0706 </r>
       <r>    -6.0089    20.9197   243.3106 </r>
       <r>    -5.8232    18.5224   245.8272 </r>
       <r>    -5.6375    20.8420   250.3966 </r>
       <r>    -5.4518    16.9901   253.8674 </r>
       <r>    -5.2662    17.1575   257.6729 </r>
       <r>    -5.0805     4.3344   259.8638 </r>
       <r>    -4.8948     7.1298   260.6644 </r>
       <r>    -4.7091     8.9702   262.1884 </r>
       <r>    -4.5234     7.0820   263.8743 </r>
       <r>    -4.3378     6.4460   265.2725 </r>
       <r>    -4.1521     6.5371   266.5204 </r>
       <r>    -3.9664     3.6624   267.4915 </r>
       <r>    -3.7807     1.1960   267.9052 </r>
       <r>    -3.5950     0.0064   268.0000 </r>
       <r>    -3.4093     0.0000   268.0000 </r>
       <r>    -3.2237     0.0000   268.0000 </r>
       <r>    -3.0380     0.0000   268.0000 </r>
       <r>    -2.8523     0.0000   268.0000 </r>
       <r>    -2.6666     0.0000   268.0000 </r>
       <r>    -2.4809     0.0000   268.0000 </r>
       <r>    -2.2952     0.0000   268.0000 </r>
       <r>    -2.1096     0.0000   268.0000 </r>
       <r>    -1.9239     0.0000   268.0000 </r>
       <r>    -1.7382     0.0000   268.0000 </r>
       <r>    -1.5525     0.0452   268.0003 </r>
       <r>    -1.3668     4.4513   268.3290 </r>
       <r>    -1.1812    10.9049   269.7886 </r>
       <r>    -0.9955    13.0563   271.9730 </r>
       <r>    -0.8098     9.8008   274.1314 </r>
       <r>    -0.6241    11.3507   275.5237 </r>
       <r>    -0.4384    21.6335   278.6435 </r>
       <r>    -0.2527    27.9111   283.0785 </r>
       <r>    -0.0671    35.3137   289.6761 </r>
       <r>     0.1186    24.2368   295.8535 </r>
       <r>     0.3043    34.9850   301.7843 </r>
       <r>     0.4900    40.9090   308.4018 </r>
       <r>     0.6757    40.9011   315.9249 </r>
       <r>     0.8614    44.9195   324.3911 </r>
       <r>     1.0470    23.7020   331.8670 </r>
       <r>     1.2327    22.6499   339.5249 </r>
       <r>     1.4184    41.8160   348.3656 </r>
       <r>     1.6041    58.5512   356.8391 </r>
       <r>     1.7898    41.8085   364.6179 </r>
       <r>     1.9754    40.3409   371.5358 </r>
       <r>     2.1611    41.3482   379.4415 </r>
       <r>     2.3468    51.3313   388.6687 </r>
       <r>     2.5325    61.1354   398.8786 </r>
       <r>     2.7182    54.9711   409.2135 </r>
       <r>     2.9039    58.2408   420.5319 </r>
       <r>     3.0895    49.6377   430.7449 </r>
       <r>     3.2752    36.9702   439.4750 </r>
       <r>     3.4609    37.9249   446.6744 </r>
       <r>     3.6466    24.5189   451.6767 </r>
       <r>     3.8323    20.1303   455.0725 </r>
       <r>     4.0179    13.6068   458.5005 </r>
       <r>     4.2036     2.1386   459.9428 </r>
       <r>     4.3893     0.0000   460.0000 </r>
       <r>     4.5750     0.0000   460.0000 </r>
       <r>     4.7607     0.0000   460.0000 </r>
       <r>     4.9464     0.0000   460.0000 </r>
       <r>     5.1320     1.3641   460.0846 </r>
       <r>     5.3177     5.2985   460.6502 </r>
       <r>     5.5034    10.0279   462.0820 </r>
       <r>     5.6891     9.6383   463.8166 </r>
       <r>     5.8748    25.1110   467.1619 </r>
       <r>     6.0605    12.7141   470.1711 </r>
       <r>     6.2461    11.8500   472.3788 </r>
       <r>     6.4318    14.2984   474.7969 </r>
       <r>     6.6175    16.6879   477.6822 </r>
       <r>     6.8032    19.0147   480.9896 </r>
       <r>     6.9889    22.8966   484.8332 </r>
       <r>     7.1745    28.7282   489.5802 </r>
       <r>     7.3602    34.5570   495.2976 </r>
       <r>     7.5459    25.2308   501.1947 </r>
       <r>     7.7316    43.1722   506.9436 </r>
       <r>     7.9173    46.8586   516.1695 </r>
       <r>     8.1030    24.6442   522.3337 </r>
       <r>     8.2886    18.9638   526.2982 </r>
       <r>     8.4743    21.7455   529.9875 </r>
       <r>     8.6600    27.7742   534.5624 </r>
       <r>     8.8457    44.8758   541.2343 </r>
       <r>     9.0314    25.7281   548.1947 </r>
       <r>     9.2171    16.9942   551.7828 </r>
       <r>     9.4027    16.1416   554.7905 </r>
       <r>     9.5884    12.7960   557.4269 </r>
       <r>     9.7741     7.5156   559.3593 </r>
       <r>     9.9598     0.5412   559.9878 </r>
       <r>    10.1455     0.0000   560.0000 </r>
       <r>    10.3311     0.0000   560.0000 </r>
       <r>    10.5168     0.0000   560.0000 </r>
       <r>    10.7025     0.0000   560.0000 </r>
       <r>    10.8882     0.0000   560.0000 </r>
       <r>    11.0739     0.0000   560.0000 </r>
       <r>    11.2596     0.0000   560.0000 </r>
       <r>    11.4452     0.0000   560.0000 </r>
       <r>    11.6309     0.0000   560.0000 </r>
       <r>    11.8166     0.0000   560.0000 </r>
       <r>    12.0023     0.0000   560.0000 </r>
       <r>    12.1880     0.0000   560.0000 </r>
       <r>    12.3736     0.0000   560.0000 </r>
       <r>    12.5593     0.0000   560.0000 </r>
      </set>
     </set>
    </array>
   </total>
  </dos>
 </calculation>
 <structure name="finalpos" >
  <crystal>
   <varray name="basis" >
    <v>      11.17850000       0.00000000       0.00000000 </v>
    <v>       0.00000000       9.57460000       0.00000000 </v>
    <v>       0.00000000       0.00000000      11.18240000 </v>
   </varray>
   <i name="volume">   1196.84853820 </i>
   <varray name="rec_basis" >
    <v>       0.08945744       0.00000000       0.00000000 </v>
    <v>       0.00000000       0.10444301       0.00000000 </v>
    <v>       0.00000000       0.00000000       0.08942624 </v>
   </varray>
  </crystal>
  <varray name="positions" >
   <v>       0.37539000       0.00017000       0.43687000 </v>
   <v>       0.62539000       0.99984000       0.43687000 </v>
   <v>       0.87539000       0.00017000       0.43687000 </v>
   <v>       0.62461000       0.99984000       0.18687000 </v>
   <v>       0.87461000       0.00017000       0.18687000 </v>
   <v>       0.62539000       0.99984000       0.93687000 </v>
   <v>       0.12461000       0.99984000       0.18687000 </v>
   <v>       0.37539000       0.00017000       0.93687000 </v>
   <v>       0.12461000       0.99984000       0.68687000 </v>
   <v>       0.87539000       0.00017000       0.93687000 </v>
   <v>       0.62461000       0.99984000       0.68687000 </v>
   <v>       0.00013000       0.29519000       0.06281000 </v>
   <v>       0.25013000       0.70481000       0.06281000 </v>
   <v>       0.24987000       0.29519000       0.31282000 </v>
   <v>       0.49987000       0.70481000       0.31282000 </v>
   <v>       0.50013000       0.29519000       0.06281000 </v>
   <v>       0.75013000       0.70481000       0.06281000 </v>
   <v>       0.74987000       0.29519000       0.31282000 </v>
   <v>       0.99987000       0.70481000       0.31282000 </v>
   <v>       0.00013000       0.29519000       0.56281000 </v>
   <v>       0.25013000       0.70481000       0.56281000 </v>
   <v>       0.24987000       0.29519000       0.81282000 </v>
   <v>       0.49987000       0.70481000       0.81282000 </v>
   <v>       0.50013000       0.29519000       0.56281000 </v>
   <v>       0.75013000       0.70481000       0.56281000 </v>
   <v>       0.74987000       0.29519000       0.81282000 </v>
   <v>       0.99987000       0.70481000       0.81282000 </v>
   <v>       0.25005000       0.32677000       0.06286000 </v>
   <v>       0.00005000       0.67323000       0.06286000 </v>
   <v>       0.49995000       0.32677000       0.31286000 </v>
   <v>       0.24995000       0.67323000       0.31286000 </v>
   <v>       0.75005000       0.32677000       0.06286000 </v>
   <v>       0.50005000       0.67323000       0.06286000 </v>
   <v>       0.99995000       0.32677000       0.31286000 </v>
   <v>       0.74995000       0.67323000       0.31286000 </v>
   <v>       0.25005000       0.32677000       0.56286000 </v>
   <v>       0.00005000       0.67323000       0.56286000 </v>
   <v>       0.49995000       0.32677000       0.81286000 </v>
   <v>       0.24995000       0.67323000       0.81286000 </v>
   <v>       0.75005000       0.32677000       0.56286000 </v>
   <v>       0.50005000       0.67323000       0.56286000 </v>
   <v>       0.99995000       0.32677000       0.81286000 </v>
   <v>       0.74995000       0.67323000       0.81286000 </v>
   <v>       0.49987000       0.07798000       0.06246000 </v>
   <v>       0.24987000       0.92202000       0.06246000 </v>
   <v>       0.25013000       0.07798000       0.31246000 </v>
   <v>       0.00013000       0.92202000       0.31246000 </v>
   <v>       0.99987000       0.07798000       0.06246000 </v>
   <v>       0.74987000       0.92202000       0.06246000 </v>
   <v>       0.75013000       0.07798000       0.31246000 </v>
   <v>       0.50013000       0.92202000       0.31246000 </v>
   <v>       0.49987000       0.07798000       0.56246000 </v>
   <v>       0.24987000       0.92202000       0.56246000 </v>
   <v>       0.25013000       0.07798000       0.81246000 </v>
   <v>       0.00013000       0.92202000       0.81246000 </v>
   <v>       0.99987000       0.07798000       0.56246000 </v>
   <v>       0.74987000       0.92202000       0.56246000 </v>
   <v>       0.75013000       0.07798000       0.81246000 </v>
   <v>       0.50013000       0.92202000       0.81246000 </v>
  </varray>
 </structure>
</modeling>
