<?xml version="1.0" encoding="ISO-8859-1"?>
<modeling>
 <generator>
  <i name="program" type="string">vasp </i>
  <i name="version" type="string">5.4.4.18Apr17-6-g9f103f2a35  </i>
  <i name="subversion" type="string">(build Jul 31 2017 11:33:29) complex            parallel </i>
  <i name="platform" type="string">LinuxIFC </i>
  <i name="date" type="string">2021 09 29 </i>
  <i name="time" type="string">14:20:18 </i>
 </generator>
 <incar>
  <i type="string" name="SYSTEM"> La2O2S</i>
  <i type="string" name="PREC">normal</i>
  <i type="int" name="NELMIN">     4</i>
  <i type="int" name="IBRION">     2</i>
  <i type="int" name="NFREE">    10</i>
  <i name="EDIFF">      0.00000100</i>
  <i name="EDIFFG">     -0.01000000</i>
  <i type="int" name="NSW">     1</i>
  <i type="int" name="ISIF">     2</i>
  <i name="ENCUT">    600.00000000</i>
  <i name="ENAUG">    900.00000000</i>
  <i type="int" name="ISMEAR">    -5</i>
  <i type="logical" name="LWAVE"> F  </i>
  <i type="logical" name="LCHARG"> F  </i>
  <v type="int" name="KPOINT_BSE">    -1     0     0     0</v>
 </incar>
 <structure name="primitive_cell" >
  <crystal>
   <varray name="basis" >
    <v>      11.17850000       0.00000000       0.00000000 </v>
    <v>       0.00000000       9.57460000       0.00000000 </v>
    <v>       0.00000000       0.00000000      11.18240000 </v>
   </varray>
   <i name="volume">   1196.84853820 </i>
   <varray name="rec_basis" >
    <v>       0.08945744       0.00000000       0.00000000 </v>
    <v>       0.00000000       0.10444301       0.00000000 </v>
    <v>       0.00000000       0.00000000       0.08942624 </v>
   </varray>
  </crystal>
  <varray name="positions" >
   <v>       0.37539000       0.00017000       0.43687000 </v>
   <v>      -0.49987000      -0.07798000       0.31246000 </v>
   <v>       0.25013000       0.07798000       0.31246000 </v>
   <v>       0.49987000       0.07798000      -0.43754000 </v>
   <v>       0.24987000      -0.07798000      -0.43754000 </v>
   <v>      -0.37461000      -0.00016000       0.43687000 </v>
   <v>       0.37461000       0.00017000      -0.31313000 </v>
   <v>       0.37461000       0.00017000       0.18687000 </v>
   <v>       0.49987000      -0.29519000       0.31282000 </v>
   <v>       0.24987000       0.29519000       0.31282000 </v>
   <v>      -0.49987000       0.29519000      -0.43719000 </v>
   <v>       0.25013000      -0.29519000      -0.43719000 </v>
   <v>       0.49995000       0.32677000       0.31286000 </v>
   <v>       0.24995000      -0.32677000       0.31286000 </v>
   <v>      -0.49995000      -0.32677000      -0.43714000 </v>
   <v>       0.25005000       0.32677000      -0.43714000 </v>
   <v>      -0.37539000      -0.00016000      -0.31313000 </v>
   <v>       0.12461000      -0.00016000      -0.31313000 </v>
   <v>       0.49987000       0.07798000       0.06246000 </v>
   <v>      -0.24987000       0.07798000       0.31246000 </v>
   <v>      -0.25013000      -0.07798000      -0.43754000 </v>
   <v>       0.24987000      -0.07798000       0.06246000 </v>
   <v>       0.00013000      -0.07798000       0.31246000 </v>
   <v>      -0.49987000      -0.07798000      -0.18754000 </v>
   <v>      -0.00013000       0.07798000      -0.43754000 </v>
   <v>       0.25013000       0.07798000      -0.18754000 </v>
   <v>      -0.49987000       0.29519000       0.06281000 </v>
   <v>      -0.25013000       0.29519000       0.31282000 </v>
   <v>       0.25013000      -0.29519000       0.06281000 </v>
   <v>      -0.24987000      -0.29519000      -0.43719000 </v>
   <v>      -0.00013000      -0.29519000       0.31282000 </v>
   <v>       0.00013000       0.29519000      -0.43719000 </v>
   <v>       0.49987000      -0.29519000      -0.18718000 </v>
   <v>       0.24987000       0.29519000      -0.18718000 </v>
   <v>      -0.49995000      -0.32677000       0.06286000 </v>
   <v>       0.25005000       0.32677000       0.06286000 </v>
   <v>      -0.25005000      -0.32677000       0.31286000 </v>
   <v>      -0.24995000       0.32677000      -0.43714000 </v>
   <v>      -0.00005000       0.32677000       0.31286000 </v>
   <v>       0.00005000      -0.32677000      -0.43714000 </v>
   <v>       0.49995000       0.32677000      -0.18714000 </v>
   <v>       0.24995000      -0.32677000      -0.18714000 </v>
   <v>      -0.12461000       0.00017000       0.43687000 </v>
   <v>      -0.25013000      -0.07798000       0.06246000 </v>
   <v>      -0.00013000       0.07798000       0.06246000 </v>
   <v>      -0.24987000       0.07798000      -0.18754000 </v>
   <v>       0.00013000      -0.07798000      -0.18754000 </v>
   <v>      -0.12539000       0.00017000      -0.31313000 </v>
   <v>      -0.12539000       0.00017000       0.18687000 </v>
   <v>       0.12539000      -0.00016000      -0.06313000 </v>
   <v>      -0.37461000      -0.00016000      -0.06313000 </v>
   <v>      -0.24987000      -0.29519000       0.06281000 </v>
   <v>       0.00013000       0.29519000       0.06281000 </v>
   <v>      -0.25013000       0.29519000      -0.18718000 </v>
   <v>      -0.00013000      -0.29519000      -0.18718000 </v>
   <v>      -0.24995000       0.32677000       0.06286000 </v>
   <v>       0.00005000      -0.32677000       0.06286000 </v>
   <v>      -0.25005000      -0.32677000      -0.18714000 </v>
   <v>      -0.00005000       0.32677000      -0.18714000 </v>
  </varray>
 </structure>
 <varray name="primitive_index" >
  <v type="int" >        1 </v>
  <v type="int" >       51 </v>
  <v type="int" >       46 </v>
  <v type="int" >       52 </v>
  <v type="int" >       53 </v>
  <v type="int" >        2 </v>
  <v type="int" >        4 </v>
  <v type="int" >        7 </v>
  <v type="int" >       15 </v>
  <v type="int" >       14 </v>
  <v type="int" >       24 </v>
  <v type="int" >       21 </v>
  <v type="int" >       30 </v>
  <v type="int" >       31 </v>
  <v type="int" >       41 </v>
  <v type="int" >       36 </v>
  <v type="int" >        5 </v>
  <v type="int" >       10 </v>
  <v type="int" >       44 </v>
  <v type="int" >       50 </v>
  <v type="int" >       57 </v>
  <v type="int" >       45 </v>
  <v type="int" >       47 </v>
  <v type="int" >       59 </v>
  <v type="int" >       56 </v>
  <v type="int" >       54 </v>
  <v type="int" >       16 </v>
  <v type="int" >       18 </v>
  <v type="int" >       13 </v>
  <v type="int" >       25 </v>
  <v type="int" >       19 </v>
  <v type="int" >       20 </v>
  <v type="int" >       23 </v>
  <v type="int" >       22 </v>
  <v type="int" >       33 </v>
  <v type="int" >       28 </v>
  <v type="int" >       35 </v>
  <v type="int" >       40 </v>
  <v type="int" >       34 </v>
  <v type="int" >       37 </v>
  <v type="int" >       38 </v>
  <v type="int" >       39 </v>
  <v type="int" >        3 </v>
  <v type="int" >       49 </v>
  <v type="int" >       48 </v>
  <v type="int" >       58 </v>
  <v type="int" >       55 </v>
  <v type="int" >        6 </v>
  <v type="int" >        8 </v>
  <v type="int" >        9 </v>
  <v type="int" >       11 </v>
  <v type="int" >       17 </v>
  <v type="int" >       12 </v>
  <v type="int" >       26 </v>
  <v type="int" >       27 </v>
  <v type="int" >       32 </v>
  <v type="int" >       29 </v>
  <v type="int" >       43 </v>
  <v type="int" >       42 </v>
 </varray>
 <kpoints>
  <generation param="Gamma">
   <v type="int" name="divisions">       2        2        2 </v>
   <v name="usershift">      0.00000000       0.00000000       0.00000000 </v>
   <v name="genvec1">      0.50000000       0.00000000       0.00000000 </v>
   <v name="genvec2">      0.00000000       0.50000000       0.00000000 </v>
   <v name="genvec3">      0.00000000       0.00000000       0.50000000 </v>
   <v name="shift">      0.00000000       0.00000000       0.00000000 </v>
  </generation>
  <varray name="kpointlist" >
   <v>       0.00000000       0.00000000       0.00000000 </v>
   <v>       0.50000000       0.00000000       0.00000000 </v>
   <v>       0.00000000       0.50000000       0.00000000 </v>
   <v>       0.50000000       0.50000000       0.00000000 </v>
   <v>       0.00000000       0.00000000       0.50000000 </v>
   <v>       0.50000000       0.00000000       0.50000000 </v>
   <v>       0.00000000       0.50000000       0.50000000 </v>
   <v>       0.50000000       0.50000000       0.50000000 </v>
  </varray>
  <varray name="weights" >
   <v>       0.12500000 </v>
   <v>       0.12500000 </v>
   <v>       0.12500000 </v>
   <v>       0.12500000 </v>
   <v>       0.12500000 </v>
   <v>       0.12500000 </v>
   <v>       0.12500000 </v>
   <v>       0.12500000 </v>
  </varray>
  <varray name="tetrahedronlist"  type="int" >
   <v type="int" >        2        1        2        4        5 </v>
   <v type="int" >        2        1        3        4        5 </v>
   <v type="int" >        2        3        4        5        7 </v>
   <v type="int" >        2        2        4        5        6 </v>
   <v type="int" >        2        4        5        6        8 </v>
   <v type="int" >        2        4        5        7        8 </v>
   <v type="int" >        2        1        2        3        6 </v>
   <v type="int" >        2        2        3        4        6 </v>
   <v type="int" >        2        3        4        6        8 </v>
   <v type="int" >        2        1        3        5        6 </v>
   <v type="int" >        2        3        5        6        7 </v>
   <v type="int" >        2        3        6        7        8 </v>
   <v type="int" >        2        2        3        4        7 </v>
   <v type="int" >        2        1        2        3        7 </v>
   <v type="int" >        2        1        2        5        7 </v>
   <v type="int" >        2        2        4        7        8 </v>
   <v type="int" >        2        2        6        7        8 </v>
   <v type="int" >        2        2        5        6        7 </v>
   <v type="int" >        2        1        3        4        8 </v>
   <v type="int" >        2        1        2        4        8 </v>
   <v type="int" >        2        1        2        6        8 </v>
   <v type="int" >        2        1        3        7        8 </v>
   <v type="int" >        2        1        5        7        8 </v>
   <v type="int" >        2        1        5        6        8 </v>
  </varray>
  <i name="volumeweight">      0.02083333 </i>
 </kpoints>
 <parameters>
  <separator name="general" >
   <i type="string" name="SYSTEM">La2O2S</i>
   <i type="logical" name="LCOMPAT"> F  </i>
  </separator>
  <separator name="electronic" >
   <i type="string" name="PREC">normal</i>
   <i name="ENMAX">    600.00000000</i>
   <i name="ENAUG">    900.00000000</i>
   <i name="EDIFF">      0.00000100</i>
   <i type="int" name="IALGO">    38</i>
   <i type="int" name="IWAVPR">    11</i>
   <i type="int" name="NBANDS">   280</i>
   <i name="NELECT">    460.00000000</i>
   <i type="int" name="TURBO">     0</i>
   <i type="int" name="IRESTART">     0</i>
   <i type="int" name="NREBOOT">     0</i>
   <i type="int" name="NMIN">     0</i>
   <i name="EREF">      0.00000000</i>
   <separator name="electronic smearing" >
    <i type="int" name="ISMEAR">    -5</i>
    <i name="SIGMA">      0.20000000</i>
    <i name="KSPACING">      0.50000000</i>
    <i type="logical" name="KGAMMA"> T  </i>
   </separator>
   <separator name="electronic projectors" >
    <i type="logical" name="LREAL"> F  </i>
    <v name="ROPT">      0.00000000      0.00000000      0.00000000      0.00000000      0.00000000</v>
    <i type="int" name="LMAXPAW">  -100</i>
    <i type="int" name="LMAXMIX">     2</i>
    <i type="logical" name="NLSPLINE"> F  </i>
   </separator>
   <separator name="electronic startup" >
    <i type="int" name="ISTART">     0</i>
    <i type="int" name="ICHARG">     2</i>
    <i type="int" name="INIWAV">     1</i>
   </separator>
   <separator name="electronic spin" >
    <i type="int" name="ISPIN">     1</i>
    <i type="logical" name="LNONCOLLINEAR"> F  </i>
    <v name="MAGMOM">      1.00000000      1.00000000      1.00000000      1.00000000      1.00000000      1.00000000      1.00000000      1.00000000      1.00000000      1.00000000      1.00000000      1.00000000      1.00000000      1.00000000      1.00000000      1.00000000      1.00000000      1.00000000      1.00000000      1.00000000
      1.00000000      1.00000000      1.00000000      1.00000000      1.00000000      1.00000000      1.00000000      1.00000000      1.00000000      1.00000000      1.00000000      1.00000000      1.00000000      1.00000000      1.00000000      1.00000000      1.00000000      1.00000000      1.00000000      1.00000000
      1.00000000      1.00000000      1.00000000      1.00000000      1.00000000      1.00000000      1.00000000      1.00000000      1.00000000      1.00000000      1.00000000      1.00000000      1.00000000      1.00000000      1.00000000      1.00000000      1.00000000      1.00000000      1.00000000</v>
    <i name="NUPDOWN">     -1.00000000</i>
    <i type="logical" name="LSORBIT"> F  </i>
    <v name="SAXIS">      0.00000000      0.00000000      1.00000000</v>
    <i type="logical" name="LSPIRAL"> F  </i>
    <v name="QSPIRAL">      0.00000000      0.00000000      0.00000000</v>
    <i type="logical" name="LZEROZ"> F  </i>
   </separator>
   <separator name="electronic exchange-correlation" >
    <i type="logical" name="LASPH"> F  </i>
    <i type="logical" name="LMETAGGA"> F  </i>
   </separator>
   <separator name="electronic convergence" >
    <i type="int" name="NELM">    60</i>
    <i type="int" name="NELMDL">    -5</i>
    <i type="int" name="NELMIN">     4</i>
    <i name="ENINI">    600.00000000</i>
    <separator name="electronic convergence detail" >
     <i type="logical" name="LDIAG"> T  </i>
     <i type="logical" name="LSUBROT"> F  </i>
     <i name="WEIMIN">      0.00100000</i>
     <i name="EBREAK">      0.00000000</i>
     <i name="DEPER">      0.30000000</i>
     <i type="int" name="NRMM">     4</i>
     <i name="TIME">      0.40000000</i>
    </separator>
   </separator>
   <separator name="electronic mixer" >
    <i name="AMIX">      0.40000000</i>
    <i name="BMIX">      1.00000000</i>
    <i name="AMIN">      0.10000000</i>
    <i name="AMIX_MAG">      1.60000000</i>
    <i name="BMIX_MAG">      1.00000000</i>
    <separator name="electronic mixer details" >
     <i type="int" name="IMIX">     4</i>
     <i type="logical" name="MIXFIRST"> F  </i>
     <i type="int" name="MAXMIX">   -45</i>
     <i name="WC">    100.00000000</i>
     <i type="int" name="INIMIX">     1</i>
     <i type="int" name="MIXPRE">     1</i>
     <i type="int" name="MREMOVE">     5</i>
    </separator>
   </separator>
   <separator name="electronic dipolcorrection" >
    <i type="logical" name="LDIPOL"> F  </i>
    <i type="logical" name="LMONO"> F  </i>
    <i type="int" name="IDIPOL">     0</i>
    <i name="EPSILON">      1.00000000</i>
    <v name="DIPOL">   -100.00000000   -100.00000000   -100.00000000</v>
    <i name="EFIELD">      0.00000000</i>
   </separator>
  </separator>
  <separator name="grids" >
   <i type="int" name="NGX">    70</i>
   <i type="int" name="NGY">    60</i>
   <i type="int" name="NGZ">    70</i>
   <i type="int" name="NGXF">   140</i>
   <i type="int" name="NGYF">   120</i>
   <i type="int" name="NGZF">   140</i>
   <i type="logical" name="ADDGRID"> F  </i>
  </separator>
  <separator name="ionic" >
   <i type="int" name="NSW">     1</i>
   <i type="int" name="IBRION">     2</i>
   <i type="int" name="MDALGO">     0</i>
   <i type="int" name="ISIF">     2</i>
   <i name="PSTRESS">      0.00000000</i>
   <i name="EDIFFG">     -0.01000000</i>
   <i type="int" name="NFREE">    10</i>
   <i name="POTIM">      0.50000000</i>
   <i name="SMASS">     -3.00000000</i>
   <i name="SCALEE">      1.00000000</i>
  </separator>
  <separator name="ionic md" >
   <i name="TEBEG">      0.00010000</i>
   <i name="TEEND">      0.00010000</i>
   <i type="int" name="NBLOCK">     1</i>
   <i type="int" name="KBLOCK">     1</i>
   <i type="int" name="NPACO">   256</i>
   <i name="APACO">     16.00000000</i>
  </separator>
  <separator name="symmetry" >
   <i type="int" name="ISYM">     2</i>
   <i name="SYMPREC">      0.00001000</i>
  </separator>
  <separator name="dos" >
   <i type="int" name="LORBIT">     0</i>
   <v name="RWIGS">     -1.00000000     -1.00000000     -1.00000000     -1.00000000     -1.00000000</v>
   <i type="int" name="NEDOS">   301</i>
   <i name="EMIN">     10.00000000</i>
   <i name="EMAX">    -10.00000000</i>
   <i name="EFERMI">      0.00000000</i>
  </separator>
  <separator name="writing" >
   <i type="int" name="NWRITE">     2</i>
   <i type="logical" name="LWAVE"> F  </i>
   <i type="logical" name="LDOWNSAMPLE"> F  </i>
   <i type="logical" name="LCHARG"> F  </i>
   <i type="logical" name="LPARD"> F  </i>
   <i type="logical" name="LVTOT"> F  </i>
   <i type="logical" name="LVHAR"> F  </i>
   <i type="logical" name="LELF"> F  </i>
   <i type="logical" name="LOPTICS"> F  </i>
   <v name="STM">      0.00000000      0.00000000      0.00000000      0.00000000      0.00000000      0.00000000      0.00000000</v>
  </separator>
  <separator name="performance" >
   <i type="int" name="NPAR">    28</i>
   <i type="int" name="NSIM">     4</i>
   <i type="int" name="NBLK">    -1</i>
   <i type="logical" name="LPLANE"> T  </i>
   <i type="logical" name="LSCALAPACK"> T  </i>
   <i type="logical" name="LSCAAWARE"> F  </i>
   <i type="logical" name="LSCALU"> F  </i>
   <i type="logical" name="LASYNC"> F  </i>
   <i type="logical" name="LORBITALREAL"> F  </i>
  </separator>
  <separator name="miscellaneous" >
   <i type="int" name="IDIOT">     3</i>
   <i type="int" name="ISPECIAL">     0</i>
   <i type="logical" name="LMUSIC"> F  </i>
   <v name="POMASS">      7.01000000     24.30500000    208.98000000     32.06600000     16.00000000</v>
   <v name="DARWINR">      0.00000000      0.00000000      0.00000000      0.00000000      0.00000000</v>
   <v name="DARWINV">      1.00000000      1.00000000      1.00000000      1.00000000      1.00000000</v>
   <i type="logical" name="LCORR"> T  </i>
  </separator>
  <i type="logical" name="GGA_COMPAT"> T  </i>
  <i type="logical" name="LBERRY"> F  </i>
  <i type="int" name="ICORELEVEL">     0</i>
  <i type="logical" name="LDAU"> F  </i>
  <i type="int" name="I_CONSTRAINED_M">     0</i>
  <separator name="electronic exchange-correlation" >
   <i type="string" name="GGA">--</i>
   <i type="int" name="VOSKOWN">     0</i>
   <i type="logical" name="LHFCALC"> F  </i>
   <i type="string" name="PRECFOCK"></i>
   <i type="logical" name="LSYMGRAD"> F  </i>
   <i type="logical" name="LHFONE"> F  </i>
   <i type="logical" name="LRHFCALC"> F  </i>
   <i type="logical" name="LTHOMAS"> F  </i>
   <i type="logical" name="LMODELHF"> F  </i>
   <i name="ENCUT4O">     -1.00000000</i>
   <i type="int" name="EXXOEP">     0</i>
   <i type="int" name="FOURORBIT">     0</i>
   <i name="AEXX">      0.00000000</i>
   <i name="HFALPHA">      0.00000000</i>
   <i name="MCALPHA">      0.00000000</i>
   <i name="ALDAX">      1.00000000</i>
   <i name="AGGAX">      1.00000000</i>
   <i name="ALDAC">      1.00000000</i>
   <i name="AGGAC">      1.00000000</i>
   <i type="int" name="NKREDX">     1</i>
   <i type="int" name="NKREDY">     1</i>
   <i type="int" name="NKREDZ">     1</i>
   <i type="logical" name="SHIFTRED"> F  </i>
   <i type="logical" name="ODDONLY"> F  </i>
   <i type="logical" name="EVENONLY"> F  </i>
   <i type="int" name="LMAXFOCK">     0</i>
   <i type="int" name="NMAXFOCKAE">     0</i>
   <i type="logical" name="LFOCKAEDFT"> F  </i>
   <i name="HFSCREEN">      0.00000000</i>
   <i name="HFSCREENC">      0.00000000</i>
   <i type="int" name="NBANDSGWLOW">     0</i>
  </separator>
  <separator name="vdW DFT" >
   <i type="logical" name="LUSE_VDW"> F  </i>
   <i name="Zab_VDW">     -0.84910000</i>
   <i name="PARAM1">      0.12340000</i>
   <i name="PARAM2">      1.00000000</i>
   <i name="PARAM3">      0.00000000</i>
  </separator>
  <separator name="model GW" >
   <i type="int" name="MODEL_GW">     0</i>
   <i name="MODEL_EPS0">     12.17134107</i>
   <i name="MODEL_ALPHA">      1.00000000</i>
  </separator>
  <separator name="linear response parameters" >
   <i type="logical" name="LEPSILON"> F  </i>
   <i type="logical" name="LRPA"> F  </i>
   <i type="logical" name="LNABLA"> F  </i>
   <i type="logical" name="LVEL"> F  </i>
   <i type="int" name="KINTER">     0</i>
   <i name="CSHIFT">      0.10000000</i>
   <i name="OMEGAMAX">     -1.00000000</i>
   <i name="DEG_THRESHOLD">      0.00200000</i>
   <i name="RTIME">     -0.10000000</i>
   <i name="WPLASMAI">      0.00000000</i>
   <v name="DFIELD">      0.00000000      0.00000000      0.00000000</v>
   <v name="WPLASMA">      0.00000000      0.00000000      0.00000000      0.00000000      0.00000000      0.00000000      0.00000000      0.00000000      0.00000000</v>
  </separator>
  <separator name="orbital magnetization" >
   <i type="logical" name="NUCIND"> F  </i>
   <v name="MAGPOS">      0.00000000      0.00000000      0.00000000</v>
   <i type="logical" name="LNICSALL"> T  </i>
   <i type="logical" name="ORBITALMAG"> F  </i>
   <i type="logical" name="LMAGBLOCH"> F  </i>
   <i type="logical" name="LCHIMAG"> F  </i>
   <i type="logical" name="LGAUGE"> T  </i>
   <i type="int" name="MAGATOM">     0</i>
   <v name="MAGDIPOL">      0.00000000      0.00000000      0.00000000</v>
   <v name="AVECCONST">      0.00000000      0.00000000      0.00000000</v>
  </separator>
  <separator name="response functions" >
   <i type="logical" name="LADDER"> F  </i>
   <i type="logical" name="LRPAFORCE"> F  </i>
   <i type="logical" name="LFXC"> F  </i>
   <i type="logical" name="LHARTREE"> T  </i>
   <i type="int" name="IBSE">     0</i>
   <v type="int" name="KPOINT">    -1     0     0     0</v>
   <i type="logical" name="LTCTE"> F  </i>
   <i type="logical" name="LTETE"> F  </i>
   <i type="logical" name="LTRIPLET"> F  </i>
   <i type="logical" name="LFXCEPS"> F  </i>
   <i type="logical" name="LFXHEG"> F  </i>
   <i type="int" name="NATURALO">     2</i>
   <i type="logical" name="L2ORDER"> F  </i>
   <i type="logical" name="LMP2LT"> F  </i>
   <i type="logical" name="LUSEW"> F  </i>
   <i name="ENCUTGW">     -2.00000000</i>
   <i name="ENCUTGWSOFT">     -2.00000000</i>
   <i name="ENCUTLF">     -1.00000000</i>
   <i type="int" name="LMAXMP2">    -1</i>
   <i name="SCISSOR">      0.00000000</i>
   <i type="int" name="NOMEGA">     0</i>
   <i type="int" name="NOMEGAR">     0</i>
   <i type="int" name="NBANDSGW">    -1</i>
   <i type="int" name="NBANDSO">    -1</i>
   <i type="int" name="NBANDSV">    -1</i>
   <i type="int" name="NELM">     1</i>
   <i type="int" name="NELMHF">     1</i>
   <i type="int" name="DIM">     3</i>
   <i type="int" name="ANTIRES">     0</i>
   <i name="OMEGAMAX">    -30.00000000</i>
   <i name="OMEGAMIN">    -30.00000000</i>
   <i name="OMEGATL">   -200.00000000</i>
   <i type="int" name="OMEGAGRID">   140</i>
   <i name="CSHIFT">     -0.10000000</i>
   <i type="logical" name="SELFENERGY"> F  </i>
   <i type="logical" name="LSPECTRAL"> F  </i>
   <i type="logical" name="LSPECTRALGW"> F  </i>
   <i type="logical" name="LSINGLES"> F  </i>
   <i type="logical" name="LFERMIGW"> F  </i>
   <i type="logical" name="ODDONLYGW"> F  </i>
   <i type="logical" name="EVENONLYGW"> F  </i>
   <i type="int" name="NKREDLFX">     1</i>
   <i type="int" name="NKREDLFY">     1</i>
   <i type="int" name="NKREDLFZ">     1</i>
   <i type="int" name="MAXMEM">  2800</i>
   <i type="int" name="TELESCOPE">     0</i>
   <i type="int" name="TAUPAR">     1</i>
   <i type="int" name="OMEGAPAR">    -1</i>
   <i name="LAMBDA">      1.00000000</i>
  </separator>
  <separator name="External order field" >
   <i name="OFIELD_KAPPA">      0.00000000</i>
   <v name="OFIELD_K">      0.00000000      0.00000000      0.00000000</v>
   <i name="OFIELD_Q6_NEAR">      0.00000000</i>
   <i name="OFIELD_Q6_FAR">      0.00000000</i>
   <i name="OFIELD_A">      0.00000000</i>
  </separator>
 </parameters>
 <atominfo>
  <atoms>      59 </atoms>
  <types>       5 </types>
  <array name="atoms" >
   <dimension dim="1">ion</dimension>
   <field type="string">element</field>
   <field type="int">atomtype</field>
   <set>
    <rc><c>Li</c><c>   1</c></rc>
    <rc><c>Li</c><c>   1</c></rc>
    <rc><c>Li</c><c>   1</c></rc>
    <rc><c>Li</c><c>   1</c></rc>
    <rc><c>Li</c><c>   1</c></rc>
    <rc><c>Li</c><c>   1</c></rc>
    <rc><c>Mg</c><c>   2</c></rc>
    <rc><c>Mg</c><c>   2</c></rc>
    <rc><c>Mg</c><c>   2</c></rc>
    <rc><c>Mg</c><c>   2</c></rc>
    <rc><c>Mg</c><c>   2</c></rc>
    <rc><c>Bi</c><c>   3</c></rc>
    <rc><c>Bi</c><c>   3</c></rc>
    <rc><c>Bi</c><c>   3</c></rc>
    <rc><c>Bi</c><c>   3</c></rc>
    <rc><c>Bi</c><c>   3</c></rc>
    <rc><c>Bi</c><c>   3</c></rc>
    <rc><c>Bi</c><c>   3</c></rc>
    <rc><c>Bi</c><c>   3</c></rc>
    <rc><c>Bi</c><c>   3</c></rc>
    <rc><c>Bi</c><c>   3</c></rc>
    <rc><c>Bi</c><c>   3</c></rc>
    <rc><c>Bi</c><c>   3</c></rc>
    <rc><c>Bi</c><c>   3</c></rc>
    <rc><c>Bi</c><c>   3</c></rc>
    <rc><c>Bi</c><c>   3</c></rc>
    <rc><c>Bi</c><c>   3</c></rc>
    <rc><c>S </c><c>   4</c></rc>
    <rc><c>S </c><c>   4</c></rc>
    <rc><c>S </c><c>   4</c></rc>
    <rc><c>S </c><c>   4</c></rc>
    <rc><c>S </c><c>   4</c></rc>
    <rc><c>S </c><c>   4</c></rc>
    <rc><c>S </c><c>   4</c></rc>
    <rc><c>S </c><c>   4</c></rc>
    <rc><c>S </c><c>   4</c></rc>
    <rc><c>S </c><c>   4</c></rc>
    <rc><c>S </c><c>   4</c></rc>
    <rc><c>S </c><c>   4</c></rc>
    <rc><c>S </c><c>   4</c></rc>
    <rc><c>S </c><c>   4</c></rc>
    <rc><c>S </c><c>   4</c></rc>
    <rc><c>S </c><c>   4</c></rc>
    <rc><c>O </c><c>   5</c></rc>
    <rc><c>O </c><c>   5</c></rc>
    <rc><c>O </c><c>   5</c></rc>
    <rc><c>O </c><c>   5</c></rc>
    <rc><c>O </c><c>   5</c></rc>
    <rc><c>O </c><c>   5</c></rc>
    <rc><c>O </c><c>   5</c></rc>
    <rc><c>O </c><c>   5</c></rc>
    <rc><c>O </c><c>   5</c></rc>
    <rc><c>O </c><c>   5</c></rc>
    <rc><c>O </c><c>   5</c></rc>
    <rc><c>O </c><c>   5</c></rc>
    <rc><c>O </c><c>   5</c></rc>
    <rc><c>O </c><c>   5</c></rc>
    <rc><c>O </c><c>   5</c></rc>
    <rc><c>O </c><c>   5</c></rc>
   </set>
  </array>
  <array name="atomtypes" >
   <dimension dim="1">type</dimension>
   <field type="int">atomspertype</field>
   <field type="string">element</field>
   <field>mass</field>
   <field>valence</field>
   <field type="string">pseudopotential</field>
   <set>
    <rc><c>   6</c><c>Li</c><c>      7.01000000</c><c>      3.00000000</c><c>  PAW_PBE Li_sv 10Sep2004               </c></rc>
    <rc><c>   5</c><c>Mg</c><c>     24.30500000</c><c>      2.00000000</c><c>  PAW_PBE Mg 13Apr2007                  </c></rc>
    <rc><c>  16</c><c>Bi</c><c>    208.98000000</c><c>     15.00000000</c><c>  PAW_PBE Bi_d 06Sep2000                </c></rc>
    <rc><c>  16</c><c>S </c><c>     32.06600000</c><c>      6.00000000</c><c>  PAW_PBE S 06Sep2000                   </c></rc>
    <rc><c>  16</c><c>O </c><c>     16.00000000</c><c>      6.00000000</c><c>  PAW_PBE O 08Apr2002                   </c></rc>
   </set>
  </array>
 </atominfo>
 <structure name="initialpos" >
  <crystal>
   <varray name="basis" >
    <v>      11.17850000       0.00000000       0.00000000 </v>
    <v>       0.00000000       9.57460000       0.00000000 </v>
    <v>       0.00000000       0.00000000      11.18240000 </v>
   </varray>
   <i name="volume">   1196.84853820 </i>
   <varray name="rec_basis" >
    <v>       0.08945744       0.00000000       0.00000000 </v>
    <v>       0.00000000       0.10444301       0.00000000 </v>
    <v>       0.00000000       0.00000000       0.08942624 </v>
   </varray>
  </crystal>
  <varray name="positions" >
   <v>       0.37539000       0.00017000       0.43687000 </v>
   <v>       0.62539000       0.99984000       0.43687000 </v>
   <v>       0.87539000       0.00017000       0.43687000 </v>
   <v>       0.37461000       0.00017000       0.68687000 </v>
   <v>       0.62461000       0.99984000       0.68687000 </v>
   <v>       0.87461000       0.00017000       0.68687000 </v>
   <v>       0.37461000       0.00017000       0.18687000 </v>
   <v>       0.87461000       0.00017000       0.18687000 </v>
   <v>       0.12539000       0.99984000       0.93687000 </v>
   <v>       0.12461000       0.99984000       0.68687000 </v>
   <v>       0.62539000       0.99984000       0.93687000 </v>
   <v>       0.00013000       0.29519000       0.06281000 </v>
   <v>       0.25013000       0.70481000       0.06281000 </v>
   <v>       0.24987000       0.29519000       0.31282000 </v>
   <v>       0.49987000       0.70481000       0.31282000 </v>
   <v>       0.50013000       0.29519000       0.06281000 </v>
   <v>       0.75013000       0.70481000       0.06281000 </v>
   <v>       0.74987000       0.29519000       0.31282000 </v>
   <v>       0.99987000       0.70481000       0.31282000 </v>
   <v>       0.00013000       0.29519000       0.56281000 </v>
   <v>       0.25013000       0.70481000       0.56281000 </v>
   <v>       0.24987000       0.29519000       0.81282000 </v>
   <v>       0.49987000       0.70481000       0.81282000 </v>
   <v>       0.50013000       0.29519000       0.56281000 </v>
   <v>       0.75013000       0.70481000       0.56281000 </v>
   <v>       0.74987000       0.29519000       0.81282000 </v>
   <v>       0.99987000       0.70481000       0.81282000 </v>
   <v>       0.25005000       0.32677000       0.06286000 </v>
   <v>       0.00005000       0.67323000       0.06286000 </v>
   <v>       0.49995000       0.32677000       0.31286000 </v>
   <v>       0.24995000       0.67323000       0.31286000 </v>
   <v>       0.75005000       0.32677000       0.06286000 </v>
   <v>       0.50005000       0.67323000       0.06286000 </v>
   <v>       0.99995000       0.32677000       0.31286000 </v>
   <v>       0.74995000       0.67323000       0.31286000 </v>
   <v>       0.25005000       0.32677000       0.56286000 </v>
   <v>       0.00005000       0.67323000       0.56286000 </v>
   <v>       0.49995000       0.32677000       0.81286000 </v>
   <v>       0.24995000       0.67323000       0.81286000 </v>
   <v>       0.75005000       0.32677000       0.56286000 </v>
   <v>       0.50005000       0.67323000       0.56286000 </v>
   <v>       0.99995000       0.32677000       0.81286000 </v>
   <v>       0.74995000       0.67323000       0.81286000 </v>
   <v>       0.49987000       0.07798000       0.06246000 </v>
   <v>       0.24987000       0.92202000       0.06246000 </v>
   <v>       0.25013000       0.07798000       0.31246000 </v>
   <v>       0.00013000       0.92202000       0.31246000 </v>
   <v>       0.99987000       0.07798000       0.06246000 </v>
   <v>       0.74987000       0.92202000       0.06246000 </v>
   <v>       0.75013000       0.07798000       0.31246000 </v>
   <v>       0.50013000       0.92202000       0.31246000 </v>
   <v>       0.49987000       0.07798000       0.56246000 </v>
   <v>       0.24987000       0.92202000       0.56246000 </v>
   <v>       0.25013000       0.07798000       0.81246000 </v>
   <v>       0.00013000       0.92202000       0.81246000 </v>
   <v>       0.99987000       0.07798000       0.56246000 </v>
   <v>       0.74987000       0.92202000       0.56246000 </v>
   <v>       0.75013000       0.07798000       0.81246000 </v>
   <v>       0.50013000       0.92202000       0.81246000 </v>
  </varray>
 </structure>
 <calculation>
  <scstep>
   <time name="dav">   59.89   60.05</time>
   <time name="total">   59.98   60.14</time>
   <energy>
    <i name="alphaZ">   1060.66890660 </i>
    <i name="ewald"> -30391.57281386 </i>
    <i name="hartreedc"> -12726.21035029 </i>
    <i name="XCdc">   1247.19530522 </i>
    <i name="pawpsdc">  36635.26894311 </i>
    <i name="pawaedc"> -35972.74895369 </i>
    <i name="eentropy">      0.00000000 </i>
    <i name="bandstr">   1866.08262934 </i>
    <i name="atom">  44026.03258983 </i>
    <i name="e_fr_energy">   5744.71625625 </i>
    <i name="e_wo_entrp">   5744.71625625 </i>
    <i name="e_0_energy">   5744.71625625 </i>
   </energy>
  </scstep>
  <scstep>
   <time name="dav">   61.24   61.32</time>
   <time name="total">   61.25   61.33</time>
   <energy>
    <i name="e_fr_energy">    750.27074027 </i>
    <i name="e_wo_entrp">    750.27074027 </i>
    <i name="e_0_energy">    750.27074027 </i>
   </energy>
  </scstep>
  <scstep>
   <time name="dav">   69.26   69.38</time>
   <time name="total">   69.27   69.38</time>
   <energy>
    <i name="e_fr_energy">   -246.61925365 </i>
    <i name="e_wo_entrp">   -246.61925365 </i>
    <i name="e_0_energy">   -246.61925365 </i>
   </energy>
  </scstep>
  <scstep>
   <time name="dav">   72.44   72.65</time>
   <time name="total">   72.44   72.65</time>
   <energy>
    <i name="e_fr_energy">   -336.54067294 </i>
    <i name="e_wo_entrp">   -336.54067294 </i>
    <i name="e_0_energy">   -336.54067294 </i>
   </energy>
  </scstep>
  <scstep>
   <time name="dav">   94.05   94.14</time>
   <time name="total">   94.77   94.86</time>
   <energy>
    <i name="e_fr_energy">   -343.89957943 </i>
    <i name="e_wo_entrp">   -343.89957943 </i>
    <i name="e_0_energy">   -343.89957943 </i>
   </energy>
  </scstep>
  <scstep>
   <time name="dav">   86.08   86.21</time>
   <time name="total">   86.87   87.00</time>
   <energy>
    <i name="e_fr_energy">   -288.46041438 </i>
    <i name="e_wo_entrp">   -288.46041438 </i>
    <i name="e_0_energy">   -288.46041438 </i>
   </energy>
  </scstep>
  <scstep>
   <time name="dav">   65.31   65.57</time>
   <time name="total">   66.12   66.39</time>
   <energy>
    <i name="e_fr_energy">   -290.90834346 </i>
    <i name="e_wo_entrp">   -290.90834346 </i>
    <i name="e_0_energy">   -290.90834346 </i>
   </energy>
  </scstep>
  <scstep>
   <time name="dav">   77.54   77.77</time>
   <time name="total">   78.33   78.55</time>
   <energy>
    <i name="e_fr_energy">   -289.91069454 </i>
    <i name="e_wo_entrp">   -289.91069454 </i>
    <i name="e_0_energy">   -289.91069454 </i>
   </energy>
  </scstep>
  <scstep>
   <time name="dav">   75.90   76.05</time>
   <time name="total">   76.69   76.83</time>
   <energy>
    <i name="e_fr_energy">   -289.39103165 </i>
    <i name="e_wo_entrp">   -289.39103165 </i>
    <i name="e_0_energy">   -289.39103165 </i>
   </energy>
  </scstep>
  <scstep>
   <time name="dav">   72.73   72.90</time>
   <time name="total">   73.51   73.69</time>
   <energy>
    <i name="e_fr_energy">   -289.41075348 </i>
    <i name="e_wo_entrp">   -289.41075348 </i>
    <i name="e_0_energy">   -289.41075348 </i>
   </energy>
  </scstep>
  <scstep>
   <time name="dav">   81.44   81.64</time>
   <time name="total">   82.22   82.43</time>
   <energy>
    <i name="e_fr_energy">   -289.41859262 </i>
    <i name="e_wo_entrp">   -289.41859262 </i>
    <i name="e_0_energy">   -289.41859262 </i>
   </energy>
  </scstep>
  <scstep>
   <time name="dav">   76.82   76.99</time>
   <time name="total">   77.60   77.79</time>
   <energy>
    <i name="e_fr_energy">   -289.42147838 </i>
    <i name="e_wo_entrp">   -289.42147838 </i>
    <i name="e_0_energy">   -289.42147838 </i>
   </energy>
  </scstep>
  <scstep>
   <time name="dav">   74.62   74.78</time>
   <time name="total">   75.40   75.57</time>
   <energy>
    <i name="e_fr_energy">   -289.42261833 </i>
    <i name="e_wo_entrp">   -289.42261833 </i>
    <i name="e_0_energy">   -289.42261833 </i>
   </energy>
  </scstep>
  <scstep>
   <time name="dav">   81.07   81.63</time>
   <time name="total">   81.87   82.44</time>
   <energy>
    <i name="e_fr_energy">   -289.42275489 </i>
    <i name="e_wo_entrp">   -289.42275489 </i>
    <i name="e_0_energy">   -289.42275489 </i>
   </energy>
  </scstep>
  <scstep>
   <time name="dav">   82.69   82.90</time>
   <time name="total">   83.47   83.69</time>
   <energy>
    <i name="e_fr_energy">   -289.42278419 </i>
    <i name="e_wo_entrp">   -289.42278419 </i>
    <i name="e_0_energy">   -289.42278419 </i>
   </energy>
  </scstep>
  <scstep>
   <time name="dav">   65.52   65.68</time>
   <time name="total">   66.30   66.48</time>
   <energy>
    <i name="e_fr_energy">   -289.42280188 </i>
    <i name="e_wo_entrp">   -289.42280188 </i>
    <i name="e_0_energy">   -289.42280188 </i>
   </energy>
  </scstep>
  <scstep>
   <time name="dav">   67.94   68.13</time>
   <time name="total">   68.72   68.92</time>
   <energy>
    <i name="e_fr_energy">   -289.42280465 </i>
    <i name="e_wo_entrp">   -289.42280465 </i>
    <i name="e_0_energy">   -289.42280465 </i>
   </energy>
  </scstep>
  <scstep>
   <time name="dav">   58.01   58.23</time>
   <time name="total">   58.08   58.30</time>
   <energy>
    <i name="alphaZ">   1060.66890660 </i>
    <i name="ewald"> -30391.57281386 </i>
    <i name="hartreedc"> -12966.33237173 </i>
    <i name="XCdc">   1271.97243031 </i>
    <i name="pawpsdc">  43656.75598168 </i>
    <i name="pawaedc"> -42967.35357060 </i>
    <i name="eentropy">      0.00000000 </i>
    <i name="bandstr">  -3979.59395735 </i>
    <i name="atom">  44026.03258983 </i>
    <i name="e_fr_energy">   -289.42280512 </i>
    <i name="e_wo_entrp">   -289.42280512 </i>
    <i name="e_0_energy">   -289.42280512 </i>
   </energy>
  </scstep>
  <structure>
   <crystal>
    <varray name="basis" >
     <v>      11.17850000       0.00000000       0.00000000 </v>
     <v>       0.00000000       9.57460000       0.00000000 </v>
     <v>       0.00000000       0.00000000      11.18240000 </v>
    </varray>
    <i name="volume">   1196.84853820 </i>
    <varray name="rec_basis" >
     <v>       0.08945744       0.00000000       0.00000000 </v>
     <v>       0.00000000       0.10444301       0.00000000 </v>
     <v>       0.00000000       0.00000000       0.08942624 </v>
    </varray>
   </crystal>
   <varray name="positions" >
    <v>       0.37539000       0.00017000       0.43687000 </v>
    <v>       0.62539000       0.99984000       0.43687000 </v>
    <v>       0.87539000       0.00017000       0.43687000 </v>
    <v>       0.37461000       0.00017000       0.68687000 </v>
    <v>       0.62461000       0.99984000       0.68687000 </v>
    <v>       0.87461000       0.00017000       0.68687000 </v>
    <v>       0.37461000       0.00017000       0.18687000 </v>
    <v>       0.87461000       0.00017000       0.18687000 </v>
    <v>       0.12539000       0.99984000       0.93687000 </v>
    <v>       0.12461000       0.99984000       0.68687000 </v>
    <v>       0.62539000       0.99984000       0.93687000 </v>
    <v>       0.00013000       0.29519000       0.06281000 </v>
    <v>       0.25013000       0.70481000       0.06281000 </v>
    <v>       0.24987000       0.29519000       0.31282000 </v>
    <v>       0.49987000       0.70481000       0.31282000 </v>
    <v>       0.50013000       0.29519000       0.06281000 </v>
    <v>       0.75013000       0.70481000       0.06281000 </v>
    <v>       0.74987000       0.29519000       0.31282000 </v>
    <v>       0.99987000       0.70481000       0.31282000 </v>
    <v>       0.00013000       0.29519000       0.56281000 </v>
    <v>       0.25013000       0.70481000       0.56281000 </v>
    <v>       0.24987000       0.29519000       0.81282000 </v>
    <v>       0.49987000       0.70481000       0.81282000 </v>
    <v>       0.50013000       0.29519000       0.56281000 </v>
    <v>       0.75013000       0.70481000       0.56281000 </v>
    <v>       0.74987000       0.29519000       0.81282000 </v>
    <v>       0.99987000       0.70481000       0.81282000 </v>
    <v>       0.25005000       0.32677000       0.06286000 </v>
    <v>       0.00005000       0.67323000       0.06286000 </v>
    <v>       0.49995000       0.32677000       0.31286000 </v>
    <v>       0.24995000       0.67323000       0.31286000 </v>
    <v>       0.75005000       0.32677000       0.06286000 </v>
    <v>       0.50005000       0.67323000       0.06286000 </v>
    <v>       0.99995000       0.32677000       0.31286000 </v>
    <v>       0.74995000       0.67323000       0.31286000 </v>
    <v>       0.25005000       0.32677000       0.56286000 </v>
    <v>       0.00005000       0.67323000       0.56286000 </v>
    <v>       0.49995000       0.32677000       0.81286000 </v>
    <v>       0.24995000       0.67323000       0.81286000 </v>
    <v>       0.75005000       0.32677000       0.56286000 </v>
    <v>       0.50005000       0.67323000       0.56286000 </v>
    <v>       0.99995000       0.32677000       0.81286000 </v>
    <v>       0.74995000       0.67323000       0.81286000 </v>
    <v>       0.49987000       0.07798000       0.06246000 </v>
    <v>       0.24987000       0.92202000       0.06246000 </v>
    <v>       0.25013000       0.07798000       0.31246000 </v>
    <v>       0.00013000       0.92202000       0.31246000 </v>
    <v>       0.99987000       0.07798000       0.06246000 </v>
    <v>       0.74987000       0.92202000       0.06246000 </v>
    <v>       0.75013000       0.07798000       0.31246000 </v>
    <v>       0.50013000       0.92202000       0.31246000 </v>
    <v>       0.49987000       0.07798000       0.56246000 </v>
    <v>       0.24987000       0.92202000       0.56246000 </v>
    <v>       0.25013000       0.07798000       0.81246000 </v>
    <v>       0.00013000       0.92202000       0.81246000 </v>
    <v>       0.99987000       0.07798000       0.56246000 </v>
    <v>       0.74987000       0.92202000       0.56246000 </v>
    <v>       0.75013000       0.07798000       0.81246000 </v>
    <v>       0.50013000       0.92202000       0.81246000 </v>
   </varray>
  </structure>
  <varray name="forces" >
   <v>      -0.41118690       0.06131618       0.03615019 </v>
   <v>      -0.00909471      -0.00048473      -0.37572555 </v>
   <v>       0.40588260      -0.06511128       0.03709251 </v>
   <v>       0.33630226      -0.06532829       0.13621278 </v>
   <v>       0.00350019       0.00036954      -0.16871780 </v>
   <v>      -0.32379627       0.06456753       0.14070971 </v>
   <v>      -0.17029590       0.10816288      -0.31326814 </v>
   <v>       0.21828710      -0.12069899      -0.31623784 </v>
   <v>      -0.02065943       0.00591668       1.73454720 </v>
   <v>       0.02040613       0.00380960      -1.57522955 </v>
   <v>      -0.02475046       0.00591110       0.73334320 </v>
   <v>      -0.00268825      -0.08083108       0.25015636 </v>
   <v>      -0.00881336       0.06307906       0.25169314 </v>
   <v>      -0.31530437      -0.99249323       0.07526697 </v>
   <v>       0.16426474       0.02363897      -0.01543333 </v>
   <v>       0.00015360      -0.11258611       0.14926403 </v>
   <v>      -0.01348356       0.09481204       0.15088559 </v>
   <v>      -0.15439608      -0.01048444      -0.01444343 </v>
   <v>       0.32927164       1.00038138       0.07278109 </v>
   <v>       0.01507555       0.02431386      -0.44564489 </v>
   <v>      -0.02555748      -0.01324071      -0.44616127 </v>
   <v>       0.36678131       1.06489592       0.10140902 </v>
   <v>      -0.11547152      -0.01624545      -0.00165412 </v>
   <v>       0.01949295       0.03209693      -0.14763586 </v>
   <v>      -0.03343438      -0.03217456      -0.14931089 </v>
   <v>       0.12698169       0.02222416      -0.00279674 </v>
   <v>      -0.35575760      -1.06616199       0.10454841 </v>
   <v>      -0.01532804       0.10099880      -0.25988793 </v>
   <v>       0.01386817      -0.10192501      -0.26259697 </v>
   <v>       0.05108844       0.20038568       0.00280978 </v>
   <v>       0.16496530      -0.15457313      -0.02871751 </v>
   <v>       0.00097141       0.09290215      -0.07914216 </v>
   <v>      -0.00142375      -0.09435240      -0.08144309 </v>
   <v>      -0.16460819       0.15419366      -0.02445926 </v>
   <v>      -0.04966441      -0.20036996       0.00024498 </v>
   <v>      -0.03486432       0.12457623       0.31573988 </v>
   <v>       0.03253215      -0.12419604       0.31792107 </v>
   <v>      -0.01629476       0.12230354      -0.00202754 </v>
   <v>      -0.19333900      -0.05856600      -0.02964033 </v>
   <v>      -0.00123445       0.19519974       0.07618565 </v>
   <v>       0.00143807      -0.19642760       0.07753269 </v>
   <v>       0.19339489       0.05966844      -0.03432296 </v>
   <v>       0.01893111      -0.12048900       0.00117988 </v>
   <v>       0.04249361       0.29591663      -0.10033917 </v>
   <v>      -0.05321365      -0.27883431      -0.23787834 </v>
   <v>       1.65442382       0.77732485      -0.44690517 </v>
   <v>      -1.67794894      -0.77309824      -0.45462249 </v>
   <v>       0.06916081       0.28182935      -0.24311047 </v>
   <v>      -0.02584686      -0.29243290      -0.09443229 </v>
   <v>       1.00136306       0.12191546       0.15163336 </v>
   <v>      -1.02004841      -0.12210066       0.14347532 </v>
   <v>       0.00640630      -0.02119359       0.08806481 </v>
   <v>       0.11694498       0.00202428       1.31409416 </v>
   <v>      -1.61718881      -0.86000865      -0.59962855 </v>
   <v>       1.59794634       0.85559335      -0.58971861 </v>
   <v>      -0.11625300      -0.00525409       1.31125116 </v>
   <v>       0.00621905       0.02273646       0.08790758 </v>
   <v>      -1.04299710       0.00983446      -0.16171269 </v>
   <v>       1.03639671      -0.01323643      -0.15925556 </v>
  </varray>
  <varray name="stress" >
   <v>     -12.23494397       0.64463901       0.03618594 </v>
   <v>       0.64463900     -13.61229944      -0.01785642 </v>
   <v>       0.03618581      -0.01785637      -5.25282323 </v>
  </varray>
  <energy>
   <i name="e_fr_energy">   -302.00658726 </i>
   <i name="e_wo_entrp">   -302.00658726 </i>
   <i name="e_0_energy">      0.00000000 </i>
  </energy>
  <time name="totalsc"> 1442.19 1446.07</time>
  <eigenvalues>
   <array>
    <dimension dim="1">band</dimension>
    <dimension dim="2">kpoint</dimension>
    <dimension dim="3">spin</dimension>
    <field>eigene</field>
    <field>occ</field>
    <set>
     <set comment="spin 1">
      <set comment="kpoint 1">
       <r>  -40.0636    1.0000 </r>
       <r>  -40.0613    1.0000 </r>
       <r>  -39.9234    1.0000 </r>
       <r>  -39.7545    1.0000 </r>
       <r>  -39.6486    1.0000 </r>
       <r>  -39.6457    1.0000 </r>
       <r>  -18.9871    1.0000 </r>
       <r>  -18.9857    1.0000 </r>
       <r>  -18.9083    1.0000 </r>
       <r>  -18.9079    1.0000 </r>
       <r>  -18.9010    1.0000 </r>
       <r>  -18.9007    1.0000 </r>
       <r>  -18.8086    1.0000 </r>
       <r>  -18.8073    1.0000 </r>
       <r>  -18.7954    1.0000 </r>
       <r>  -18.7948    1.0000 </r>
       <r>  -18.7515    1.0000 </r>
       <r>  -18.7498    1.0000 </r>
       <r>  -18.7419    1.0000 </r>
       <r>  -18.7402    1.0000 </r>
       <r>  -18.7342    1.0000 </r>
       <r>  -18.7318    1.0000 </r>
       <r>  -18.6923    1.0000 </r>
       <r>  -18.6902    1.0000 </r>
       <r>  -18.6843    1.0000 </r>
       <r>  -18.6818    1.0000 </r>
       <r>  -18.6792    1.0000 </r>
       <r>  -18.6786    1.0000 </r>
       <r>  -18.6773    1.0000 </r>
       <r>  -18.6754    1.0000 </r>
       <r>  -18.6691    1.0000 </r>
       <r>  -18.6684    1.0000 </r>
       <r>  -18.6683    1.0000 </r>
       <r>  -18.6649    1.0000 </r>
       <r>  -18.6622    1.0000 </r>
       <r>  -18.6614    1.0000 </r>
       <r>  -18.6592    1.0000 </r>
       <r>  -18.6583    1.0000 </r>
       <r>  -18.6579    1.0000 </r>
       <r>  -18.6553    1.0000 </r>
       <r>  -18.6532    1.0000 </r>
       <r>  -18.6485    1.0000 </r>
       <r>  -18.6467    1.0000 </r>
       <r>  -18.6419    1.0000 </r>
       <r>  -18.6411    1.0000 </r>
       <r>  -18.6354    1.0000 </r>
       <r>  -18.6032    1.0000 </r>
       <r>  -18.5990    1.0000 </r>
       <r>  -18.5950    1.0000 </r>
       <r>  -18.5926    1.0000 </r>
       <r>  -18.5898    1.0000 </r>
       <r>  -18.5858    1.0000 </r>
       <r>  -18.5791    1.0000 </r>
       <r>  -18.5776    1.0000 </r>
       <r>  -18.5754    1.0000 </r>
       <r>  -18.5739    1.0000 </r>
       <r>  -18.5380    1.0000 </r>
       <r>  -18.5350    1.0000 </r>
       <r>  -18.5251    1.0000 </r>
       <r>  -18.5222    1.0000 </r>
       <r>  -18.5179    1.0000 </r>
       <r>  -18.5152    1.0000 </r>
       <r>  -18.5138    1.0000 </r>
       <r>  -18.5131    1.0000 </r>
       <r>  -18.5128    1.0000 </r>
       <r>  -18.5118    1.0000 </r>
       <r>  -18.5099    1.0000 </r>
       <r>  -18.5041    1.0000 </r>
       <r>  -18.4890    1.0000 </r>
       <r>  -18.4843    1.0000 </r>
       <r>  -18.4824    1.0000 </r>
       <r>  -18.4767    1.0000 </r>
       <r>  -18.4503    1.0000 </r>
       <r>  -18.4473    1.0000 </r>
       <r>  -18.4465    1.0000 </r>
       <r>  -18.4412    1.0000 </r>
       <r>  -18.4370    1.0000 </r>
       <r>  -18.4340    1.0000 </r>
       <r>  -18.4278    1.0000 </r>
       <r>  -18.4226    1.0000 </r>
       <r>  -18.3666    1.0000 </r>
       <r>  -18.3628    1.0000 </r>
       <r>  -18.2479    1.0000 </r>
       <r>  -18.2442    1.0000 </r>
       <r>  -18.2342    1.0000 </r>
       <r>  -18.2304    1.0000 </r>
       <r>  -13.7124    1.0000 </r>
       <r>  -13.5652    1.0000 </r>
       <r>  -12.9430    1.0000 </r>
       <r>  -12.8342    1.0000 </r>
       <r>  -12.8032    1.0000 </r>
       <r>  -12.8000    1.0000 </r>
       <r>  -12.7405    1.0000 </r>
       <r>  -12.7297    1.0000 </r>
       <r>  -12.7165    1.0000 </r>
       <r>  -12.6992    1.0000 </r>
       <r>  -12.6611    1.0000 </r>
       <r>  -12.6276    1.0000 </r>
       <r>  -12.6157    1.0000 </r>
       <r>  -12.5941    1.0000 </r>
       <r>  -12.0876    1.0000 </r>
       <r>  -12.0423    1.0000 </r>
       <r>   -9.3657    1.0000 </r>
       <r>   -9.0700    1.0000 </r>
       <r>   -8.5713    1.0000 </r>
       <r>   -8.5331    1.0000 </r>
       <r>   -8.5206    1.0000 </r>
       <r>   -8.4805    1.0000 </r>
       <r>   -8.3496    1.0000 </r>
       <r>   -8.3127    1.0000 </r>
       <r>   -8.2939    1.0000 </r>
       <r>   -8.2559    1.0000 </r>
       <r>   -8.0651    1.0000 </r>
       <r>   -8.0639    1.0000 </r>
       <r>   -8.0268    1.0000 </r>
       <r>   -8.0247    1.0000 </r>
       <r>   -7.3918    1.0000 </r>
       <r>   -7.3909    1.0000 </r>
       <r>   -6.4165    1.0000 </r>
       <r>   -6.4126    1.0000 </r>
       <r>   -6.3709    1.0000 </r>
       <r>   -6.3684    1.0000 </r>
       <r>   -5.5647    1.0000 </r>
       <r>   -5.5295    1.0000 </r>
       <r>   -5.3972    1.0000 </r>
       <r>   -5.3719    1.0000 </r>
       <r>   -5.3655    1.0000 </r>
       <r>   -5.2843    1.0000 </r>
       <r>   -5.2465    1.0000 </r>
       <r>   -5.1975    1.0000 </r>
       <r>   -5.1669    1.0000 </r>
       <r>   -5.1026    1.0000 </r>
       <r>   -3.8451    1.0000 </r>
       <r>   -3.6967    1.0000 </r>
       <r>   -1.4892    1.0000 </r>
       <r>   -1.3731    1.0000 </r>
       <r>   -1.1356    1.0000 </r>
       <r>   -1.0411    1.0000 </r>
       <r>   -0.5889    1.0000 </r>
       <r>   -0.5680    1.0000 </r>
       <r>   -0.5265    1.0000 </r>
       <r>   -0.5062    1.0000 </r>
       <r>   -0.2181    1.0000 </r>
       <r>   -0.2037    1.0000 </r>
       <r>   -0.1978    1.0000 </r>
       <r>   -0.1841    1.0000 </r>
       <r>   -0.1723    1.0000 </r>
       <r>    0.2161    1.0000 </r>
       <r>    0.2682    1.0000 </r>
       <r>    0.3745    1.0000 </r>
       <r>    0.4584    1.0000 </r>
       <r>    0.5459    1.0000 </r>
       <r>    0.5513    1.0000 </r>
       <r>    0.5958    1.0000 </r>
       <r>    0.6496    1.0000 </r>
       <r>    0.6742    1.0000 </r>
       <r>    0.7091    1.0000 </r>
       <r>    0.7577    1.0000 </r>
       <r>    0.7643    1.0000 </r>
       <r>    0.8091    1.0000 </r>
       <r>    0.8441    1.0000 </r>
       <r>    0.9020    1.0000 </r>
       <r>    0.9107    1.0000 </r>
       <r>    0.9541    1.0000 </r>
       <r>    1.0145    1.0000 </r>
       <r>    1.0317    1.0000 </r>
       <r>    1.0560    1.0000 </r>
       <r>    1.0627    1.0000 </r>
       <r>    1.1086    1.0000 </r>
       <r>    1.2120    1.0000 </r>
       <r>    1.2319    1.0000 </r>
       <r>    1.3290    1.0000 </r>
       <r>    1.3647    1.0000 </r>
       <r>    1.4197    1.0000 </r>
       <r>    1.4570    1.0000 </r>
       <r>    1.4889    1.0000 </r>
       <r>    1.5570    1.0000 </r>
       <r>    1.6151    1.0000 </r>
       <r>    1.6815    1.0000 </r>
       <r>    1.6915    1.0000 </r>
       <r>    1.7228    1.0000 </r>
       <r>    1.7960    1.0000 </r>
       <r>    1.8181    1.0000 </r>
       <r>    1.8383    1.0000 </r>
       <r>    1.8900    1.0000 </r>
       <r>    1.9568    1.0000 </r>
       <r>    1.9696    1.0000 </r>
       <r>    2.0323    1.0000 </r>
       <r>    2.2111    1.0000 </r>
       <r>    2.2436    1.0000 </r>
       <r>    2.3283    1.0000 </r>
       <r>    2.4001    1.0000 </r>
       <r>    2.5264    1.0000 </r>
       <r>    2.5286    1.0000 </r>
       <r>    2.5329    1.0000 </r>
       <r>    2.5472    1.0000 </r>
       <r>    2.5679    1.0000 </r>
       <r>    2.5801    1.0000 </r>
       <r>    2.5996    1.0000 </r>
       <r>    2.6249    1.0000 </r>
       <r>    2.6460    1.0000 </r>
       <r>    2.6925    1.0000 </r>
       <r>    2.7176    1.0000 </r>
       <r>    2.7549    1.0000 </r>
       <r>    2.7810    1.0000 </r>
       <r>    2.8459    1.0000 </r>
       <r>    2.8517    1.0000 </r>
       <r>    2.8536    1.0000 </r>
       <r>    2.9288    1.0000 </r>
       <r>    2.9634    1.0000 </r>
       <r>    3.0152    1.0000 </r>
       <r>    3.0230    1.0000 </r>
       <r>    3.0425    1.0000 </r>
       <r>    3.0736    1.0000 </r>
       <r>    3.1059    1.0000 </r>
       <r>    3.1166    1.0000 </r>
       <r>    3.1323    1.0000 </r>
       <r>    3.1496    1.0000 </r>
       <r>    3.1886    1.0000 </r>
       <r>    3.1931    1.0000 </r>
       <r>    3.2347    1.0000 </r>
       <r>    3.2946    1.0000 </r>
       <r>    3.4000    1.0000 </r>
       <r>    3.4151    1.0000 </r>
       <r>    3.4380    1.0000 </r>
       <r>    3.5204    1.0000 </r>
       <r>    4.1480    1.0000 </r>
       <r>    4.1577    1.0000 </r>
       <r>    4.1877    1.0000 </r>
       <r>    4.1979    1.0000 </r>
       <r>    5.0113    0.0000 </r>
       <r>    5.0134    0.0000 </r>
       <r>    5.1231    0.0000 </r>
       <r>    5.1277    0.0000 </r>
       <r>    5.7094    0.0000 </r>
       <r>    5.7183    0.0000 </r>
       <r>    5.7860    0.0000 </r>
       <r>    5.7895    0.0000 </r>
       <r>    6.0713    0.0000 </r>
       <r>    6.0794    0.0000 </r>
       <r>    6.1129    0.0000 </r>
       <r>    6.1270    0.0000 </r>
       <r>    6.1978    0.0000 </r>
       <r>    6.2017    0.0000 </r>
       <r>    6.2318    0.0000 </r>
       <r>    6.2358    0.0000 </r>
       <r>    7.0342    0.0000 </r>
       <r>    7.1119    0.0000 </r>
       <r>    7.2154    0.0000 </r>
       <r>    7.2738    0.0000 </r>
       <r>    7.7730    0.0000 </r>
       <r>    7.8068    0.0000 </r>
       <r>    7.8917    0.0000 </r>
       <r>    7.8966    0.0000 </r>
       <r>    7.9262    0.0000 </r>
       <r>    7.9699    0.0000 </r>
       <r>    8.0797    0.0000 </r>
       <r>    8.1314    0.0000 </r>
       <r>    8.2826    0.0000 </r>
       <r>    8.5004    0.0000 </r>
       <r>    8.6242    0.0000 </r>
       <r>    8.7420    0.0000 </r>
       <r>    8.7585    0.0000 </r>
       <r>    8.8203    0.0000 </r>
       <r>    8.8780    0.0000 </r>
       <r>    8.9731    0.0000 </r>
       <r>    8.9805    0.0000 </r>
       <r>    9.0089    0.0000 </r>
       <r>    9.0198    0.0000 </r>
       <r>    9.0671    0.0000 </r>
       <r>    9.1032    0.0000 </r>
       <r>    9.1242    0.0000 </r>
       <r>    9.1891    0.0000 </r>
       <r>    9.2213    0.0000 </r>
       <r>    9.3611    0.0000 </r>
       <r>    9.4694    0.0000 </r>
       <r>    9.4760    0.0000 </r>
       <r>    9.5213    0.0000 </r>
       <r>    9.7191    0.0000 </r>
       <r>    9.7388    0.0000 </r>
      </set>
      <set comment="kpoint 2">
       <r>  -40.0636    1.0000 </r>
       <r>  -40.0613    1.0000 </r>
       <r>  -39.9234    1.0000 </r>
       <r>  -39.7545    1.0000 </r>
       <r>  -39.6486    1.0000 </r>
       <r>  -39.6457    1.0000 </r>
       <r>  -18.9871    1.0000 </r>
       <r>  -18.9857    1.0000 </r>
       <r>  -18.9082    1.0000 </r>
       <r>  -18.9078    1.0000 </r>
       <r>  -18.9010    1.0000 </r>
       <r>  -18.9007    1.0000 </r>
       <r>  -18.8086    1.0000 </r>
       <r>  -18.8073    1.0000 </r>
       <r>  -18.7954    1.0000 </r>
       <r>  -18.7948    1.0000 </r>
       <r>  -18.7516    1.0000 </r>
       <r>  -18.7499    1.0000 </r>
       <r>  -18.7419    1.0000 </r>
       <r>  -18.7401    1.0000 </r>
       <r>  -18.7342    1.0000 </r>
       <r>  -18.7318    1.0000 </r>
       <r>  -18.6921    1.0000 </r>
       <r>  -18.6899    1.0000 </r>
       <r>  -18.6843    1.0000 </r>
       <r>  -18.6818    1.0000 </r>
       <r>  -18.6791    1.0000 </r>
       <r>  -18.6783    1.0000 </r>
       <r>  -18.6781    1.0000 </r>
       <r>  -18.6758    1.0000 </r>
       <r>  -18.6692    1.0000 </r>
       <r>  -18.6685    1.0000 </r>
       <r>  -18.6677    1.0000 </r>
       <r>  -18.6642    1.0000 </r>
       <r>  -18.6626    1.0000 </r>
       <r>  -18.6615    1.0000 </r>
       <r>  -18.6600    1.0000 </r>
       <r>  -18.6583    1.0000 </r>
       <r>  -18.6574    1.0000 </r>
       <r>  -18.6558    1.0000 </r>
       <r>  -18.6531    1.0000 </r>
       <r>  -18.6485    1.0000 </r>
       <r>  -18.6465    1.0000 </r>
       <r>  -18.6418    1.0000 </r>
       <r>  -18.6411    1.0000 </r>
       <r>  -18.6354    1.0000 </r>
       <r>  -18.6031    1.0000 </r>
       <r>  -18.5989    1.0000 </r>
       <r>  -18.5950    1.0000 </r>
       <r>  -18.5926    1.0000 </r>
       <r>  -18.5898    1.0000 </r>
       <r>  -18.5859    1.0000 </r>
       <r>  -18.5790    1.0000 </r>
       <r>  -18.5776    1.0000 </r>
       <r>  -18.5754    1.0000 </r>
       <r>  -18.5738    1.0000 </r>
       <r>  -18.5380    1.0000 </r>
       <r>  -18.5350    1.0000 </r>
       <r>  -18.5251    1.0000 </r>
       <r>  -18.5222    1.0000 </r>
       <r>  -18.5179    1.0000 </r>
       <r>  -18.5152    1.0000 </r>
       <r>  -18.5138    1.0000 </r>
       <r>  -18.5130    1.0000 </r>
       <r>  -18.5128    1.0000 </r>
       <r>  -18.5118    1.0000 </r>
       <r>  -18.5099    1.0000 </r>
       <r>  -18.5041    1.0000 </r>
       <r>  -18.4890    1.0000 </r>
       <r>  -18.4843    1.0000 </r>
       <r>  -18.4824    1.0000 </r>
       <r>  -18.4767    1.0000 </r>
       <r>  -18.4504    1.0000 </r>
       <r>  -18.4473    1.0000 </r>
       <r>  -18.4465    1.0000 </r>
       <r>  -18.4412    1.0000 </r>
       <r>  -18.4371    1.0000 </r>
       <r>  -18.4340    1.0000 </r>
       <r>  -18.4278    1.0000 </r>
       <r>  -18.4226    1.0000 </r>
       <r>  -18.3666    1.0000 </r>
       <r>  -18.3629    1.0000 </r>
       <r>  -18.2479    1.0000 </r>
       <r>  -18.2442    1.0000 </r>
       <r>  -18.2342    1.0000 </r>
       <r>  -18.2304    1.0000 </r>
       <r>  -13.7118    1.0000 </r>
       <r>  -13.5658    1.0000 </r>
       <r>  -12.9388    1.0000 </r>
       <r>  -12.8394    1.0000 </r>
       <r>  -12.8032    1.0000 </r>
       <r>  -12.7744    1.0000 </r>
       <r>  -12.7648    1.0000 </r>
       <r>  -12.7642    1.0000 </r>
       <r>  -12.7067    1.0000 </r>
       <r>  -12.6664    1.0000 </r>
       <r>  -12.6531    1.0000 </r>
       <r>  -12.6414    1.0000 </r>
       <r>  -12.6160    1.0000 </r>
       <r>  -12.5966    1.0000 </r>
       <r>  -12.0881    1.0000 </r>
       <r>  -12.0419    1.0000 </r>
       <r>   -9.1664    1.0000 </r>
       <r>   -9.1367    1.0000 </r>
       <r>   -8.8914    1.0000 </r>
       <r>   -8.8598    1.0000 </r>
       <r>   -8.3604    1.0000 </r>
       <r>   -8.3525    1.0000 </r>
       <r>   -8.3508    1.0000 </r>
       <r>   -8.3475    1.0000 </r>
       <r>   -8.1723    1.0000 </r>
       <r>   -8.1653    1.0000 </r>
       <r>   -8.1642    1.0000 </r>
       <r>   -8.1605    1.0000 </r>
       <r>   -7.7274    1.0000 </r>
       <r>   -7.7207    1.0000 </r>
       <r>   -7.6180    1.0000 </r>
       <r>   -7.6101    1.0000 </r>
       <r>   -6.0295    1.0000 </r>
       <r>   -5.9892    1.0000 </r>
       <r>   -5.9223    1.0000 </r>
       <r>   -5.9133    1.0000 </r>
       <r>   -5.8849    1.0000 </r>
       <r>   -5.8067    1.0000 </r>
       <r>   -5.7742    1.0000 </r>
       <r>   -5.7622    1.0000 </r>
       <r>   -5.6675    1.0000 </r>
       <r>   -5.6225    1.0000 </r>
       <r>   -5.5423    1.0000 </r>
       <r>   -5.5290    1.0000 </r>
       <r>   -4.4601    1.0000 </r>
       <r>   -4.4593    1.0000 </r>
       <r>   -4.2974    1.0000 </r>
       <r>   -4.2926    1.0000 </r>
       <r>   -1.2104    1.0000 </r>
       <r>   -1.1636    1.0000 </r>
       <r>   -0.8534    1.0000 </r>
       <r>   -0.8325    1.0000 </r>
       <r>   -0.6278    1.0000 </r>
       <r>   -0.3624    1.0000 </r>
       <r>   -0.0866    1.0000 </r>
       <r>   -0.0095    1.0000 </r>
       <r>    0.0643    1.0000 </r>
       <r>    0.0710    1.0000 </r>
       <r>    0.1098    1.0000 </r>
       <r>    0.1186    1.0000 </r>
       <r>    0.1720    1.0000 </r>
       <r>    0.2579    1.0000 </r>
       <r>    0.2717    1.0000 </r>
       <r>    0.2779    1.0000 </r>
       <r>    0.4762    1.0000 </r>
       <r>    0.5377    1.0000 </r>
       <r>    0.5407    1.0000 </r>
       <r>    0.5428    1.0000 </r>
       <r>    0.5537    1.0000 </r>
       <r>    0.5858    1.0000 </r>
       <r>    0.6092    1.0000 </r>
       <r>    0.6777    1.0000 </r>
       <r>    0.7039    1.0000 </r>
       <r>    0.7518    1.0000 </r>
       <r>    0.8034    1.0000 </r>
       <r>    0.8780    1.0000 </r>
       <r>    0.8892    1.0000 </r>
       <r>    0.9804    1.0000 </r>
       <r>    0.9930    1.0000 </r>
       <r>    1.0874    1.0000 </r>
       <r>    1.1286    1.0000 </r>
       <r>    1.1528    1.0000 </r>
       <r>    1.1651    1.0000 </r>
       <r>    1.2617    1.0000 </r>
       <r>    1.2733    1.0000 </r>
       <r>    1.2812    1.0000 </r>
       <r>    1.3069    1.0000 </r>
       <r>    1.3726    1.0000 </r>
       <r>    1.4061    1.0000 </r>
       <r>    1.4723    1.0000 </r>
       <r>    1.4851    1.0000 </r>
       <r>    1.5003    1.0000 </r>
       <r>    1.5699    1.0000 </r>
       <r>    1.6163    1.0000 </r>
       <r>    1.6239    1.0000 </r>
       <r>    1.7383    1.0000 </r>
       <r>    1.7875    1.0000 </r>
       <r>    1.8025    1.0000 </r>
       <r>    1.8491    1.0000 </r>
       <r>    1.8786    1.0000 </r>
       <r>    1.9243    1.0000 </r>
       <r>    1.9758    1.0000 </r>
       <r>    1.9926    1.0000 </r>
       <r>    2.0020    1.0000 </r>
       <r>    2.0748    1.0000 </r>
       <r>    2.1497    1.0000 </r>
       <r>    2.1921    1.0000 </r>
       <r>    2.1970    1.0000 </r>
       <r>    2.2990    1.0000 </r>
       <r>    2.3107    1.0000 </r>
       <r>    2.3901    1.0000 </r>
       <r>    2.4748    1.0000 </r>
       <r>    2.5019    1.0000 </r>
       <r>    2.5244    1.0000 </r>
       <r>    2.5836    1.0000 </r>
       <r>    2.5948    1.0000 </r>
       <r>    2.6108    1.0000 </r>
       <r>    2.6367    1.0000 </r>
       <r>    2.6839    1.0000 </r>
       <r>    2.7233    1.0000 </r>
       <r>    2.7621    1.0000 </r>
       <r>    2.7905    1.0000 </r>
       <r>    2.8214    1.0000 </r>
       <r>    2.8370    1.0000 </r>
       <r>    2.8779    1.0000 </r>
       <r>    2.9136    1.0000 </r>
       <r>    2.9329    1.0000 </r>
       <r>    2.9832    1.0000 </r>
       <r>    3.0296    1.0000 </r>
       <r>    3.0839    1.0000 </r>
       <r>    3.1080    1.0000 </r>
       <r>    3.1397    1.0000 </r>
       <r>    3.1766    1.0000 </r>
       <r>    3.2057    1.0000 </r>
       <r>    3.2323    1.0000 </r>
       <r>    3.2385    1.0000 </r>
       <r>    3.4560    1.0000 </r>
       <r>    3.4842    1.0000 </r>
       <r>    3.4875    1.0000 </r>
       <r>    3.5318    1.0000 </r>
       <r>    3.5650    1.0000 </r>
       <r>    3.5759    1.0000 </r>
       <r>    3.5882    1.0000 </r>
       <r>    3.7330    1.0000 </r>
       <r>    5.6462    0.0000 </r>
       <r>    5.6482    0.0000 </r>
       <r>    5.6516    0.0000 </r>
       <r>    5.6537    0.0000 </r>
       <r>    5.7273    0.0000 </r>
       <r>    5.7353    0.0000 </r>
       <r>    5.7487    0.0000 </r>
       <r>    5.7551    0.0000 </r>
       <r>    7.1676    0.0000 </r>
       <r>    7.1780    0.0000 </r>
       <r>    7.2653    0.0000 </r>
       <r>    7.2732    0.0000 </r>
       <r>    7.3708    0.0000 </r>
       <r>    7.3760    0.0000 </r>
       <r>    7.3857    0.0000 </r>
       <r>    7.3884    0.0000 </r>
       <r>    7.4059    0.0000 </r>
       <r>    7.4547    0.0000 </r>
       <r>    7.4949    0.0000 </r>
       <r>    7.5091    0.0000 </r>
       <r>    7.7746    0.0000 </r>
       <r>    7.8145    0.0000 </r>
       <r>    7.8259    0.0000 </r>
       <r>    7.8275    0.0000 </r>
       <r>    7.8491    0.0000 </r>
       <r>    7.8742    0.0000 </r>
       <r>    7.8838    0.0000 </r>
       <r>    7.9104    0.0000 </r>
       <r>    7.9841    0.0000 </r>
       <r>    7.9857    0.0000 </r>
       <r>    8.0798    0.0000 </r>
       <r>    8.0915    0.0000 </r>
       <r>    8.2621    0.0000 </r>
       <r>    8.3380    0.0000 </r>
       <r>    8.3503    0.0000 </r>
       <r>    8.3518    0.0000 </r>
       <r>    8.6164    0.0000 </r>
       <r>    8.6686    0.0000 </r>
       <r>    8.7325    0.0000 </r>
       <r>    8.7419    0.0000 </r>
       <r>    8.7783    0.0000 </r>
       <r>    8.7894    0.0000 </r>
       <r>    8.8909    0.0000 </r>
       <r>    8.8947    0.0000 </r>
       <r>    9.1214    0.0000 </r>
       <r>    9.1857    0.0000 </r>
       <r>    9.2578    0.0000 </r>
       <r>    9.3978    0.0000 </r>
       <r>    9.4469    0.0000 </r>
       <r>    9.4971    0.0000 </r>
      </set>
      <set comment="kpoint 3">
       <r>  -40.0636    1.0000 </r>
       <r>  -40.0613    1.0000 </r>
       <r>  -39.9234    1.0000 </r>
       <r>  -39.7545    1.0000 </r>
       <r>  -39.6486    1.0000 </r>
       <r>  -39.6457    1.0000 </r>
       <r>  -18.9876    1.0000 </r>
       <r>  -18.9852    1.0000 </r>
       <r>  -18.9082    1.0000 </r>
       <r>  -18.9079    1.0000 </r>
       <r>  -18.9010    1.0000 </r>
       <r>  -18.9007    1.0000 </r>
       <r>  -18.8086    1.0000 </r>
       <r>  -18.8074    1.0000 </r>
       <r>  -18.7954    1.0000 </r>
       <r>  -18.7948    1.0000 </r>
       <r>  -18.7516    1.0000 </r>
       <r>  -18.7498    1.0000 </r>
       <r>  -18.7419    1.0000 </r>
       <r>  -18.7402    1.0000 </r>
       <r>  -18.7342    1.0000 </r>
       <r>  -18.7319    1.0000 </r>
       <r>  -18.6923    1.0000 </r>
       <r>  -18.6902    1.0000 </r>
       <r>  -18.6843    1.0000 </r>
       <r>  -18.6819    1.0000 </r>
       <r>  -18.6792    1.0000 </r>
       <r>  -18.6786    1.0000 </r>
       <r>  -18.6772    1.0000 </r>
       <r>  -18.6755    1.0000 </r>
       <r>  -18.6691    1.0000 </r>
       <r>  -18.6684    1.0000 </r>
       <r>  -18.6683    1.0000 </r>
       <r>  -18.6649    1.0000 </r>
       <r>  -18.6622    1.0000 </r>
       <r>  -18.6614    1.0000 </r>
       <r>  -18.6593    1.0000 </r>
       <r>  -18.6582    1.0000 </r>
       <r>  -18.6580    1.0000 </r>
       <r>  -18.6553    1.0000 </r>
       <r>  -18.6532    1.0000 </r>
       <r>  -18.6486    1.0000 </r>
       <r>  -18.6467    1.0000 </r>
       <r>  -18.6420    1.0000 </r>
       <r>  -18.6410    1.0000 </r>
       <r>  -18.6353    1.0000 </r>
       <r>  -18.6032    1.0000 </r>
       <r>  -18.5990    1.0000 </r>
       <r>  -18.5950    1.0000 </r>
       <r>  -18.5927    1.0000 </r>
       <r>  -18.5898    1.0000 </r>
       <r>  -18.5858    1.0000 </r>
       <r>  -18.5791    1.0000 </r>
       <r>  -18.5776    1.0000 </r>
       <r>  -18.5754    1.0000 </r>
       <r>  -18.5738    1.0000 </r>
       <r>  -18.5379    1.0000 </r>
       <r>  -18.5351    1.0000 </r>
       <r>  -18.5250    1.0000 </r>
       <r>  -18.5222    1.0000 </r>
       <r>  -18.5179    1.0000 </r>
       <r>  -18.5152    1.0000 </r>
       <r>  -18.5138    1.0000 </r>
       <r>  -18.5130    1.0000 </r>
       <r>  -18.5128    1.0000 </r>
       <r>  -18.5118    1.0000 </r>
       <r>  -18.5099    1.0000 </r>
       <r>  -18.5041    1.0000 </r>
       <r>  -18.4890    1.0000 </r>
       <r>  -18.4843    1.0000 </r>
       <r>  -18.4824    1.0000 </r>
       <r>  -18.4767    1.0000 </r>
       <r>  -18.4503    1.0000 </r>
       <r>  -18.4473    1.0000 </r>
       <r>  -18.4465    1.0000 </r>
       <r>  -18.4412    1.0000 </r>
       <r>  -18.4371    1.0000 </r>
       <r>  -18.4340    1.0000 </r>
       <r>  -18.4278    1.0000 </r>
       <r>  -18.4226    1.0000 </r>
       <r>  -18.3667    1.0000 </r>
       <r>  -18.3628    1.0000 </r>
       <r>  -18.2479    1.0000 </r>
       <r>  -18.2442    1.0000 </r>
       <r>  -18.2342    1.0000 </r>
       <r>  -18.2304    1.0000 </r>
       <r>  -13.7122    1.0000 </r>
       <r>  -13.5654    1.0000 </r>
       <r>  -12.9414    1.0000 </r>
       <r>  -12.8336    1.0000 </r>
       <r>  -12.8033    1.0000 </r>
       <r>  -12.7996    1.0000 </r>
       <r>  -12.7407    1.0000 </r>
       <r>  -12.7294    1.0000 </r>
       <r>  -12.7165    1.0000 </r>
       <r>  -12.6992    1.0000 </r>
       <r>  -12.6624    1.0000 </r>
       <r>  -12.6287    1.0000 </r>
       <r>  -12.6160    1.0000 </r>
       <r>  -12.5949    1.0000 </r>
       <r>  -12.0870    1.0000 </r>
       <r>  -12.0437    1.0000 </r>
       <r>   -9.3549    1.0000 </r>
       <r>   -9.0779    1.0000 </r>
       <r>   -8.5891    1.0000 </r>
       <r>   -8.5508    1.0000 </r>
       <r>   -8.5382    1.0000 </r>
       <r>   -8.4971    1.0000 </r>
       <r>   -8.3296    1.0000 </r>
       <r>   -8.2934    1.0000 </r>
       <r>   -8.2736    1.0000 </r>
       <r>   -8.2372    1.0000 </r>
       <r>   -8.0691    1.0000 </r>
       <r>   -8.0678    1.0000 </r>
       <r>   -8.0293    1.0000 </r>
       <r>   -8.0283    1.0000 </r>
       <r>   -7.3944    1.0000 </r>
       <r>   -7.3938    1.0000 </r>
       <r>   -6.4068    1.0000 </r>
       <r>   -6.4028    1.0000 </r>
       <r>   -6.3613    1.0000 </r>
       <r>   -6.3585    1.0000 </r>
       <r>   -5.5837    1.0000 </r>
       <r>   -5.5133    1.0000 </r>
       <r>   -5.4356    1.0000 </r>
       <r>   -5.4145    1.0000 </r>
       <r>   -5.4117    1.0000 </r>
       <r>   -5.3083    1.0000 </r>
       <r>   -5.1895    1.0000 </r>
       <r>   -5.1405    1.0000 </r>
       <r>   -5.1209    1.0000 </r>
       <r>   -5.0526    1.0000 </r>
       <r>   -3.9217    1.0000 </r>
       <r>   -3.6078    1.0000 </r>
       <r>   -1.3923    1.0000 </r>
       <r>   -1.3090    1.0000 </r>
       <r>   -1.2669    1.0000 </r>
       <r>   -1.1316    1.0000 </r>
       <r>   -0.4737    1.0000 </r>
       <r>   -0.4590    1.0000 </r>
       <r>   -0.4439    1.0000 </r>
       <r>   -0.4266    1.0000 </r>
       <r>   -0.4202    1.0000 </r>
       <r>   -0.3942    1.0000 </r>
       <r>   -0.3143    1.0000 </r>
       <r>   -0.2892    1.0000 </r>
       <r>   -0.2014    1.0000 </r>
       <r>   -0.1534    1.0000 </r>
       <r>    0.1540    1.0000 </r>
       <r>    0.2498    1.0000 </r>
       <r>    0.2593    1.0000 </r>
       <r>    0.2777    1.0000 </r>
       <r>    0.3581    1.0000 </r>
       <r>    0.3793    1.0000 </r>
       <r>    0.5169    1.0000 </r>
       <r>    0.5250    1.0000 </r>
       <r>    0.6610    1.0000 </r>
       <r>    0.7138    1.0000 </r>
       <r>    0.7445    1.0000 </r>
       <r>    0.7799    1.0000 </r>
       <r>    0.7853    1.0000 </r>
       <r>    0.8029    1.0000 </r>
       <r>    0.9151    1.0000 </r>
       <r>    0.9761    1.0000 </r>
       <r>    1.0702    1.0000 </r>
       <r>    1.1285    1.0000 </r>
       <r>    1.1938    1.0000 </r>
       <r>    1.2004    1.0000 </r>
       <r>    1.2659    1.0000 </r>
       <r>    1.3013    1.0000 </r>
       <r>    1.3478    1.0000 </r>
       <r>    1.4547    1.0000 </r>
       <r>    1.5290    1.0000 </r>
       <r>    1.5824    1.0000 </r>
       <r>    1.5895    1.0000 </r>
       <r>    1.6197    1.0000 </r>
       <r>    1.7048    1.0000 </r>
       <r>    1.7050    1.0000 </r>
       <r>    1.7287    1.0000 </r>
       <r>    1.7641    1.0000 </r>
       <r>    1.8619    1.0000 </r>
       <r>    1.8639    1.0000 </r>
       <r>    1.9521    1.0000 </r>
       <r>    2.0324    1.0000 </r>
       <r>    2.0399    1.0000 </r>
       <r>    2.0978    1.0000 </r>
       <r>    2.1711    1.0000 </r>
       <r>    2.1929    1.0000 </r>
       <r>    2.2517    1.0000 </r>
       <r>    2.3426    1.0000 </r>
       <r>    2.3465    1.0000 </r>
       <r>    2.4174    1.0000 </r>
       <r>    2.4703    1.0000 </r>
       <r>    2.4821    1.0000 </r>
       <r>    2.4859    1.0000 </r>
       <r>    2.5327    1.0000 </r>
       <r>    2.5423    1.0000 </r>
       <r>    2.5552    1.0000 </r>
       <r>    2.5589    1.0000 </r>
       <r>    2.6134    1.0000 </r>
       <r>    2.6798    1.0000 </r>
       <r>    2.7200    1.0000 </r>
       <r>    2.7365    1.0000 </r>
       <r>    2.7513    1.0000 </r>
       <r>    2.7778    1.0000 </r>
       <r>    2.8215    1.0000 </r>
       <r>    2.8271    1.0000 </r>
       <r>    2.8703    1.0000 </r>
       <r>    2.9167    1.0000 </r>
       <r>    2.9230    1.0000 </r>
       <r>    2.9453    1.0000 </r>
       <r>    2.9809    1.0000 </r>
       <r>    2.9971    1.0000 </r>
       <r>    3.0343    1.0000 </r>
       <r>    3.0407    1.0000 </r>
       <r>    3.1094    1.0000 </r>
       <r>    3.1759    1.0000 </r>
       <r>    3.2492    1.0000 </r>
       <r>    3.3040    1.0000 </r>
       <r>    3.3494    1.0000 </r>
       <r>    3.3663    1.0000 </r>
       <r>    3.3871    1.0000 </r>
       <r>    3.3903    1.0000 </r>
       <r>    3.4347    1.0000 </r>
       <r>    3.4523    1.0000 </r>
       <r>    3.5519    1.0000 </r>
       <r>    4.2004    1.0000 </r>
       <r>    4.2039    1.0000 </r>
       <r>    4.2414    1.0000 </r>
       <r>    4.2424    1.0000 </r>
       <r>    5.0863    0.0000 </r>
       <r>    5.0893    0.0000 </r>
       <r>    5.1876    0.0000 </r>
       <r>    5.1924    0.0000 </r>
       <r>    5.7194    0.0000 </r>
       <r>    5.7248    0.0000 </r>
       <r>    5.7940    0.0000 </r>
       <r>    5.7967    0.0000 </r>
       <r>    6.1250    0.0000 </r>
       <r>    6.1289    0.0000 </r>
       <r>    6.1608    0.0000 </r>
       <r>    6.1639    0.0000 </r>
       <r>    6.2109    0.0000 </r>
       <r>    6.2186    0.0000 </r>
       <r>    6.2456    0.0000 </r>
       <r>    6.2608    0.0000 </r>
       <r>    6.6189    0.0000 </r>
       <r>    6.8841    0.0000 </r>
       <r>    6.9320    0.0000 </r>
       <r>    7.0434    0.0000 </r>
       <r>    7.1699    0.0000 </r>
       <r>    7.2795    0.0000 </r>
       <r>    7.3487    0.0000 </r>
       <r>    7.4786    0.0000 </r>
       <r>    7.6260    0.0000 </r>
       <r>    7.7962    0.0000 </r>
       <r>    7.9006    0.0000 </r>
       <r>    7.9553    0.0000 </r>
       <r>    7.9622    0.0000 </r>
       <r>    8.2818    0.0000 </r>
       <r>    8.3224    0.0000 </r>
       <r>    8.4310    0.0000 </r>
       <r>    8.6293    0.0000 </r>
       <r>    8.6941    0.0000 </r>
       <r>    8.8780    0.0000 </r>
       <r>    8.8886    0.0000 </r>
       <r>    9.0019    0.0000 </r>
       <r>    9.0257    0.0000 </r>
       <r>    9.0437    0.0000 </r>
       <r>    9.0541    0.0000 </r>
       <r>    9.0717    0.0000 </r>
       <r>    9.0881    0.0000 </r>
       <r>    9.1261    0.0000 </r>
       <r>    9.1850    0.0000 </r>
       <r>    9.4360    0.0000 </r>
       <r>    9.4602    0.0000 </r>
       <r>    9.6384    0.0000 </r>
       <r>    9.6797    0.0000 </r>
       <r>    9.7431    0.0000 </r>
       <r>    9.8253    0.0000 </r>
      </set>
      <set comment="kpoint 4">
       <r>  -40.0636    1.0000 </r>
       <r>  -40.0613    1.0000 </r>
       <r>  -39.9234    1.0000 </r>
       <r>  -39.7545    1.0000 </r>
       <r>  -39.6486    1.0000 </r>
       <r>  -39.6457    1.0000 </r>
       <r>  -18.9876    1.0000 </r>
       <r>  -18.9852    1.0000 </r>
       <r>  -18.9082    1.0000 </r>
       <r>  -18.9079    1.0000 </r>
       <r>  -18.9010    1.0000 </r>
       <r>  -18.9007    1.0000 </r>
       <r>  -18.8086    1.0000 </r>
       <r>  -18.8074    1.0000 </r>
       <r>  -18.7954    1.0000 </r>
       <r>  -18.7948    1.0000 </r>
       <r>  -18.7517    1.0000 </r>
       <r>  -18.7499    1.0000 </r>
       <r>  -18.7419    1.0000 </r>
       <r>  -18.7402    1.0000 </r>
       <r>  -18.7341    1.0000 </r>
       <r>  -18.7318    1.0000 </r>
       <r>  -18.6921    1.0000 </r>
       <r>  -18.6899    1.0000 </r>
       <r>  -18.6843    1.0000 </r>
       <r>  -18.6818    1.0000 </r>
       <r>  -18.6791    1.0000 </r>
       <r>  -18.6784    1.0000 </r>
       <r>  -18.6781    1.0000 </r>
       <r>  -18.6758    1.0000 </r>
       <r>  -18.6692    1.0000 </r>
       <r>  -18.6685    1.0000 </r>
       <r>  -18.6677    1.0000 </r>
       <r>  -18.6642    1.0000 </r>
       <r>  -18.6626    1.0000 </r>
       <r>  -18.6615    1.0000 </r>
       <r>  -18.6601    1.0000 </r>
       <r>  -18.6582    1.0000 </r>
       <r>  -18.6574    1.0000 </r>
       <r>  -18.6557    1.0000 </r>
       <r>  -18.6531    1.0000 </r>
       <r>  -18.6485    1.0000 </r>
       <r>  -18.6466    1.0000 </r>
       <r>  -18.6420    1.0000 </r>
       <r>  -18.6409    1.0000 </r>
       <r>  -18.6353    1.0000 </r>
       <r>  -18.6031    1.0000 </r>
       <r>  -18.5989    1.0000 </r>
       <r>  -18.5950    1.0000 </r>
       <r>  -18.5927    1.0000 </r>
       <r>  -18.5898    1.0000 </r>
       <r>  -18.5859    1.0000 </r>
       <r>  -18.5791    1.0000 </r>
       <r>  -18.5776    1.0000 </r>
       <r>  -18.5753    1.0000 </r>
       <r>  -18.5738    1.0000 </r>
       <r>  -18.5379    1.0000 </r>
       <r>  -18.5351    1.0000 </r>
       <r>  -18.5250    1.0000 </r>
       <r>  -18.5222    1.0000 </r>
       <r>  -18.5179    1.0000 </r>
       <r>  -18.5152    1.0000 </r>
       <r>  -18.5138    1.0000 </r>
       <r>  -18.5130    1.0000 </r>
       <r>  -18.5128    1.0000 </r>
       <r>  -18.5118    1.0000 </r>
       <r>  -18.5099    1.0000 </r>
       <r>  -18.5041    1.0000 </r>
       <r>  -18.4890    1.0000 </r>
       <r>  -18.4843    1.0000 </r>
       <r>  -18.4824    1.0000 </r>
       <r>  -18.4767    1.0000 </r>
       <r>  -18.4504    1.0000 </r>
       <r>  -18.4473    1.0000 </r>
       <r>  -18.4465    1.0000 </r>
       <r>  -18.4412    1.0000 </r>
       <r>  -18.4371    1.0000 </r>
       <r>  -18.4340    1.0000 </r>
       <r>  -18.4278    1.0000 </r>
       <r>  -18.4226    1.0000 </r>
       <r>  -18.3667    1.0000 </r>
       <r>  -18.3628    1.0000 </r>
       <r>  -18.2479    1.0000 </r>
       <r>  -18.2442    1.0000 </r>
       <r>  -18.2342    1.0000 </r>
       <r>  -18.2304    1.0000 </r>
       <r>  -13.7116    1.0000 </r>
       <r>  -13.5659    1.0000 </r>
       <r>  -12.9375    1.0000 </r>
[...]
       <r>    8.8068    0.0000 </r>
       <r>    8.8409    0.0000 </r>
       <r>    8.8483    0.0000 </r>
       <r>    8.8614    0.0000 </r>
       <r>    8.8761    0.0000 </r>
       <r>    8.9062    0.0000 </r>
       <r>    8.9162    0.0000 </r>
       <r>    9.4931    0.0000 </r>
       <r>    9.8874    0.0000 </r>
      </set>
     </set>
    </set>
   </array>
  </eigenvalues>
  <separator name="orbital magnetization" >
   <v name="MAGDIPOLOUT">      0.00000000      0.00000000      0.00000000</v>
  </separator>
  <dos>
   <i name="efermi">      4.26551910 </i>
   <total>
    <array>
     <dimension dim="1">gridpoints</dimension>
     <dimension dim="2">spin</dimension>
     <field>energy</field>
     <field>total</field>
     <field>integrated</field>
     <set>
      <set comment="spin 1">
       <r>   -42.5758     0.0000     0.0000 </r>
       <r>   -42.3916     0.0000     0.0000 </r>
       <r>   -42.2074     0.0000     0.0000 </r>
       <r>   -42.0231     0.0000     0.0000 </r>
       <r>   -41.8389     0.0000     0.0000 </r>
       <r>   -41.6547     0.0000     0.0000 </r>
       <r>   -41.4704     0.0000     0.0000 </r>
       <r>   -41.2862     0.0000     0.0000 </r>
       <r>   -41.1020     0.0000     0.0000 </r>
       <r>   -40.9177     0.0000     0.0000 </r>
       <r>   -40.7335     0.0000     0.0000 </r>
       <r>   -40.5493     0.0000     0.0000 </r>
       <r>   -40.3650     0.0000     0.0000 </r>
       <r>   -40.1808     0.0000     0.0000 </r>
       <r>   -39.9966     0.0000     4.0000 </r>
       <r>   -39.8123     0.0000     6.0000 </r>
       <r>   -39.6281     0.0000    12.0000 </r>
       <r>   -39.4439     0.0000    12.0000 </r>
       <r>   -39.2596     0.0000    12.0000 </r>
       <r>   -39.0754     0.0000    12.0000 </r>
       <r>   -38.8912     0.0000    12.0000 </r>
       <r>   -38.7069     0.0000    12.0000 </r>
       <r>   -38.5227     0.0000    12.0000 </r>
       <r>   -38.3385     0.0000    12.0000 </r>
       <r>   -38.1542     0.0000    12.0000 </r>
       <r>   -37.9700     0.0000    12.0000 </r>
       <r>   -37.7858     0.0000    12.0000 </r>
       <r>   -37.6015     0.0000    12.0000 </r>
       <r>   -37.4173     0.0000    12.0000 </r>
       <r>   -37.2331     0.0000    12.0000 </r>
       <r>   -37.0488     0.0000    12.0000 </r>
       <r>   -36.8646     0.0000    12.0000 </r>
       <r>   -36.6804     0.0000    12.0000 </r>
       <r>   -36.4961     0.0000    12.0000 </r>
       <r>   -36.3119     0.0000    12.0000 </r>
       <r>   -36.1277     0.0000    12.0000 </r>
       <r>   -35.9434     0.0000    12.0000 </r>
       <r>   -35.7592     0.0000    12.0000 </r>
       <r>   -35.5750     0.0000    12.0000 </r>
       <r>   -35.3907     0.0000    12.0000 </r>
       <r>   -35.2065     0.0000    12.0000 </r>
       <r>   -35.0223     0.0000    12.0000 </r>
       <r>   -34.8380     0.0000    12.0000 </r>
       <r>   -34.6538     0.0000    12.0000 </r>
       <r>   -34.4696     0.0000    12.0000 </r>
       <r>   -34.2853     0.0000    12.0000 </r>
       <r>   -34.1011     0.0000    12.0000 </r>
       <r>   -33.9169     0.0000    12.0000 </r>
       <r>   -33.7326     0.0000    12.0000 </r>
       <r>   -33.5484     0.0000    12.0000 </r>
       <r>   -33.3642     0.0000    12.0000 </r>
       <r>   -33.1799     0.0000    12.0000 </r>
       <r>   -32.9957     0.0000    12.0000 </r>
       <r>   -32.8115     0.0000    12.0000 </r>
       <r>   -32.6272     0.0000    12.0000 </r>
       <r>   -32.4430     0.0000    12.0000 </r>
       <r>   -32.2588     0.0000    12.0000 </r>
       <r>   -32.0745     0.0000    12.0000 </r>
       <r>   -31.8903     0.0000    12.0000 </r>
       <r>   -31.7061     0.0000    12.0000 </r>
       <r>   -31.5218     0.0000    12.0000 </r>
       <r>   -31.3376     0.0000    12.0000 </r>
       <r>   -31.1534     0.0000    12.0000 </r>
       <r>   -30.9691     0.0000    12.0000 </r>
       <r>   -30.7849     0.0000    12.0000 </r>
       <r>   -30.6007     0.0000    12.0000 </r>
       <r>   -30.4164     0.0000    12.0000 </r>
       <r>   -30.2322     0.0000    12.0000 </r>
       <r>   -30.0480     0.0000    12.0000 </r>
       <r>   -29.8637     0.0000    12.0000 </r>
       <r>   -29.6795     0.0000    12.0000 </r>
       <r>   -29.4953     0.0000    12.0000 </r>
       <r>   -29.3110     0.0000    12.0000 </r>
       <r>   -29.1268     0.0000    12.0000 </r>
       <r>   -28.9426     0.0000    12.0000 </r>
       <r>   -28.7583     0.0000    12.0000 </r>
       <r>   -28.5741     0.0000    12.0000 </r>
       <r>   -28.3899     0.0000    12.0000 </r>
       <r>   -28.2056     0.0000    12.0000 </r>
       <r>   -28.0214     0.0000    12.0000 </r>
       <r>   -27.8372     0.0000    12.0000 </r>
       <r>   -27.6529     0.0000    12.0000 </r>
       <r>   -27.4687     0.0000    12.0000 </r>
       <r>   -27.2845     0.0000    12.0000 </r>
       <r>   -27.1002     0.0000    12.0000 </r>
       <r>   -26.9160     0.0000    12.0000 </r>
       <r>   -26.7318     0.0000    12.0000 </r>
       <r>   -26.5475     0.0000    12.0000 </r>
       <r>   -26.3633     0.0000    12.0000 </r>
       <r>   -26.1791     0.0000    12.0000 </r>
       <r>   -25.9948     0.0000    12.0000 </r>
       <r>   -25.8106     0.0000    12.0000 </r>
       <r>   -25.6264     0.0000    12.0000 </r>
       <r>   -25.4421     0.0000    12.0000 </r>
       <r>   -25.2579     0.0000    12.0000 </r>
       <r>   -25.0737     0.0000    12.0000 </r>
       <r>   -24.8894     0.0000    12.0000 </r>
       <r>   -24.7052     0.0000    12.0000 </r>
       <r>   -24.5210     0.0000    12.0000 </r>
       <r>   -24.3367     0.0000    12.0000 </r>
       <r>   -24.1525     0.0000    12.0000 </r>
       <r>   -23.9683     0.0000    12.0000 </r>
       <r>   -23.7840     0.0000    12.0000 </r>
       <r>   -23.5998     0.0000    12.0000 </r>
       <r>   -23.4156     0.0000    12.0000 </r>
       <r>   -23.2313     0.0000    12.0000 </r>
       <r>   -23.0471     0.0000    12.0000 </r>
       <r>   -22.8629     0.0000    12.0000 </r>
       <r>   -22.6786     0.0000    12.0000 </r>
       <r>   -22.4944     0.0000    12.0000 </r>
       <r>   -22.3102     0.0000    12.0000 </r>
       <r>   -22.1259     0.0000    12.0000 </r>
       <r>   -21.9417     0.0000    12.0000 </r>
       <r>   -21.7575     0.0000    12.0000 </r>
       <r>   -21.5732     0.0000    12.0000 </r>
       <r>   -21.3890     0.0000    12.0000 </r>
       <r>   -21.2048     0.0000    12.0000 </r>
       <r>   -21.0205     0.0000    12.0000 </r>
       <r>   -20.8363     0.0000    12.0000 </r>
       <r>   -20.6521     0.0000    12.0000 </r>
       <r>   -20.4678     0.0000    12.0000 </r>
       <r>   -20.2836     0.0000    12.0000 </r>
       <r>   -20.0994     0.0000    12.0000 </r>
       <r>   -19.9151     0.0000    12.0000 </r>
       <r>   -19.7309     0.0000    12.0000 </r>
       <r>   -19.5467     0.0000    12.0000 </r>
       <r>   -19.3624     0.0000    12.0000 </r>
       <r>   -19.1782     0.0000    12.0000 </r>
       <r>   -18.9940     0.0000    12.0000 </r>
       <r>   -18.8097     0.0000    24.0000 </r>
       <r>   -18.6255     0.0000    92.0000 </r>
       <r>   -18.4413     0.0000   150.0000 </r>
       <r>   -18.2570     0.0000   164.0000 </r>
       <r>   -18.0728     0.0000   172.0000 </r>
       <r>   -17.8886     0.0000   172.0000 </r>
       <r>   -17.7043     0.0000   172.0000 </r>
       <r>   -17.5201     0.0000   172.0000 </r>
       <r>   -17.3359     0.0000   172.0000 </r>
       <r>   -17.1516     0.0000   172.0000 </r>
       <r>   -16.9674     0.0000   172.0000 </r>
       <r>   -16.7832     0.0000   172.0000 </r>
       <r>   -16.5989     0.0000   172.0000 </r>
       <r>   -16.4147     0.0000   172.0000 </r>
       <r>   -16.2305     0.0000   172.0000 </r>
       <r>   -16.0462     0.0000   172.0000 </r>
       <r>   -15.8620     0.0000   172.0000 </r>
       <r>   -15.6778     0.0000   172.0000 </r>
       <r>   -15.4935     0.0000   172.0000 </r>
       <r>   -15.3093     0.0000   172.0000 </r>
       <r>   -15.1251     0.0000   172.0000 </r>
       <r>   -14.9408     0.0000   172.0000 </r>
       <r>   -14.7566     0.0000   172.0000 </r>
       <r>   -14.5724     0.0000   172.0000 </r>
       <r>   -14.3881     0.0000   172.0000 </r>
       <r>   -14.2039     0.0000   172.0000 </r>
       <r>   -14.0197     0.0000   172.0000 </r>
       <r>   -13.8354     0.0000   172.0000 </r>
       <r>   -13.6512     0.0000   174.0000 </r>
       <r>   -13.4670     0.0000   176.0000 </r>
       <r>   -13.2827     0.0000   176.0000 </r>
       <r>   -13.0985     0.0000   176.0000 </r>
       <r>   -12.9143     0.0000   178.0000 </r>
       <r>   -12.7300    38.1792   187.9906 </r>
       <r>   -12.5458     0.0000   200.0000 </r>
       <r>   -12.3616     0.0000   200.0000 </r>
       <r>   -12.1773     0.0000   200.0000 </r>
       <r>   -11.9931     0.0000   204.0000 </r>
       <r>   -11.8089     0.0000   204.0000 </r>
       <r>   -11.6246     0.0000   204.0000 </r>
       <r>   -11.4404     0.0000   204.0000 </r>
       <r>   -11.2562     0.0000   204.0000 </r>
       <r>   -11.0719     0.0000   204.0000 </r>
       <r>   -10.8877     0.0000   204.0000 </r>
       <r>   -10.7035     0.0000   204.0000 </r>
       <r>   -10.5192     0.0000   204.0000 </r>
       <r>   -10.3350     0.0000   204.0000 </r>
       <r>   -10.1508     0.0000   204.0000 </r>
       <r>    -9.9665     0.0000   204.0000 </r>
       <r>    -9.7823     0.0000   204.0000 </r>
       <r>    -9.5981     0.0000   204.0000 </r>
       <r>    -9.4138     0.0000   204.0000 </r>
       <r>    -9.2296    10.0872   204.6591 </r>
       <r>    -9.0454    18.2227   207.4272 </r>
       <r>    -8.8611     8.1305   208.8588 </r>
       <r>    -8.6769    12.3097   211.7090 </r>
       <r>    -8.4927    25.7001   214.5989 </r>
       <r>    -8.3084    18.5844   219.8626 </r>
       <r>    -8.1242    25.3864   222.4147 </r>
       <r>    -7.9400    20.0082   227.3507 </r>
       <r>    -7.7557    21.7877   230.5992 </r>
       <r>    -7.5715    19.7282   234.1985 </r>
       <r>    -7.3873     0.0000   236.0000 </r>
       <r>    -7.2030     0.0000   236.0000 </r>
       <r>    -7.0188     0.0000   236.0000 </r>
       <r>    -6.8345     0.0000   236.0000 </r>
       <r>    -6.6503     0.0000   236.0000 </r>
       <r>    -6.4661     0.0000   236.0000 </r>
       <r>    -6.2818    11.0945   236.6419 </r>
       <r>    -6.0976    29.0866   240.3669 </r>
       <r>    -5.9134    20.9925   244.1033 </r>
       <r>    -5.7291    26.2144   248.6008 </r>
       <r>    -5.5449    21.0073   252.7432 </r>
       <r>    -5.3607    18.9038   256.6495 </r>
       <r>    -5.1764     9.0311   259.3536 </r>
       <r>    -4.9922     4.8333   260.3080 </r>
       <r>    -4.8080     7.6409   261.5984 </r>
       <r>    -4.6237    10.1201   263.2005 </r>
       <r>    -4.4395     6.3374   264.8629 </r>
       <r>    -4.2553     7.3950   266.0730 </r>
       <r>    -4.0710     4.7850   267.2359 </r>
       <r>    -3.8868     1.6346   267.8191 </r>
       <r>    -3.7026     0.3238   267.9897 </r>
       <r>    -3.5183     0.0000   268.0000 </r>
       <r>    -3.3341     0.0000   268.0000 </r>
       <r>    -3.1499     0.0000   268.0000 </r>
       <r>    -2.9656     0.0000   268.0000 </r>
       <r>    -2.7814     0.0000   268.0000 </r>
       <r>    -2.5972     0.0000   268.0000 </r>
       <r>    -2.4129     0.0000   268.0000 </r>
       <r>    -2.2287     0.0000   268.0000 </r>
       <r>    -2.0445     0.0000   268.0000 </r>
       <r>    -1.8602     0.0000   268.0000 </r>
       <r>    -1.6760     0.0000   268.0000 </r>
       <r>    -1.4918     0.0000   268.0000 </r>
       <r>    -1.3075     4.8219   268.2910 </r>
       <r>    -1.1233    11.1477   269.8721 </r>
       <r>    -0.9391    13.8690   272.1388 </r>
       <r>    -0.7548     8.9498   274.3330 </r>
       <r>    -0.5706     9.7681   275.7038 </r>
       <r>    -0.3864    21.0110   278.2131 </r>
       <r>    -0.2021    27.2627   282.4177 </r>
       <r>    -0.0179    40.5241   289.2401 </r>
       <r>     0.1663    22.5865   294.8912 </r>
       <r>     0.3506    33.2032   301.7451 </r>
       <r>     0.5348    58.5278   309.1978 </r>
       <r>     0.7190    28.2492   315.9987 </r>
       <r>     0.9033    46.4781   322.5639 </r>
       <r>     1.0875    54.0872   331.5763 </r>
       <r>     1.2717    67.0798   340.5970 </r>
       <r>     1.4560    46.8492   349.1687 </r>
       <r>     1.6402    43.9904   358.7041 </r>
       <r>     1.8244    46.2688   366.7765 </r>
       <r>     2.0087    38.4785   373.9715 </r>
       <r>     2.1929    46.0040   381.3849 </r>
       <r>     2.3771    54.7482   390.0385 </r>
       <r>     2.5614    51.6654   400.8481 </r>
       <r>     2.7456    64.1850   411.6431 </r>
       <r>     2.9298    73.6838   423.8012 </r>
       <r>     3.1141    53.1390   435.8108 </r>
       <r>     3.2983    35.3083   443.7114 </r>
       <r>     3.4825    46.2841   451.0379 </r>
       <r>     3.6668    17.7095   455.4809 </r>
       <r>     3.8510    10.6317   458.1346 </r>
       <r>     4.0352     5.0235   459.5769 </r>
       <r>     4.2195     0.0902   459.9993 </r>
       <r>     4.4037     0.0000   460.0000 </r>
       <r>     4.5879     0.0000   460.0000 </r>
       <r>     4.7722     0.0000   460.0000 </r>
       <r>     4.9564     0.0000   460.0000 </r>
       <r>     5.1406     0.9646   460.0453 </r>
       <r>     5.3249     4.7202   460.5531 </r>
       <r>     5.5091     8.6944   461.7886 </r>
       <r>     5.6933     8.3712   463.5106 </r>
       <r>     5.8776    16.7793   467.6051 </r>
       <r>     6.0618    12.2082   470.1057 </r>
       <r>     6.2460    11.7816   472.2545 </r>
       <r>     6.4303    13.7109   474.6024 </r>
       <r>     6.6145    15.5515   477.3023 </r>
       <r>     6.7987    17.3507   480.3281 </r>
       <r>     6.9830    20.6593   483.7552 </r>
       <r>     7.1672    29.1069   488.2717 </r>
       <r>     7.3514    43.8691   494.7849 </r>
       <r>     7.5357    25.3351   501.4587 </r>
       <r>     7.7199    43.0575   507.1658 </r>
       <r>     7.9041    50.9833   515.8913 </r>
       <r>     8.0884    24.4068   522.7187 </r>
       <r>     8.2726    18.8594   526.5359 </r>
       <r>     8.4568    21.7109   530.1888 </r>
       <r>     8.6411    25.0284   534.5902 </r>
       <r>     8.8253    47.9793   540.8517 </r>
       <r>     9.0095    27.3952   547.9751 </r>
       <r>     9.1938    15.2306   551.5851 </r>
       <r>     9.3780    14.0398   554.2464 </r>
       <r>     9.5622    13.4684   556.7214 </r>
       <r>     9.7465     5.5101   558.8428 </r>
       <r>     9.9307     2.7382   559.7759 </r>
       <r>    10.1149     0.1900   559.9958 </r>
       <r>    10.2992     0.0000   560.0000 </r>
       <r>    10.4834     0.0000   560.0000 </r>
       <r>    10.6676     0.0000   560.0000 </r>
       <r>    10.8519     0.0000   560.0000 </r>
       <r>    11.0361     0.0000   560.0000 </r>
       <r>    11.2203     0.0000   560.0000 </r>
       <r>    11.4046     0.0000   560.0000 </r>
       <r>    11.5888     0.0000   560.0000 </r>
       <r>    11.7730     0.0000   560.0000 </r>
       <r>    11.9573     0.0000   560.0000 </r>
       <r>    12.1415     0.0000   560.0000 </r>
       <r>    12.3257     0.0000   560.0000 </r>
       <r>    12.5100     0.0000   560.0000 </r>
       <r>    12.6942     0.0000   560.0000 </r>
      </set>
     </set>
    </array>
   </total>
  </dos>
 </calculation>
 <structure name="finalpos" >
  <crystal>
   <varray name="basis" >
    <v>      11.17850000       0.00000000       0.00000000 </v>
    <v>       0.00000000       9.57460000       0.00000000 </v>
    <v>       0.00000000       0.00000000      11.18240000 </v>
   </varray>
   <i name="volume">   1196.84853820 </i>
   <varray name="rec_basis" >
    <v>       0.08945744       0.00000000       0.00000000 </v>
    <v>       0.00000000       0.10444301       0.00000000 </v>
    <v>       0.00000000       0.00000000       0.08942624 </v>
   </varray>
  </crystal>
  <varray name="positions" >
   <v>       0.37539000       0.00017000       0.43687000 </v>
   <v>       0.62539000       0.99984000       0.43687000 </v>
   <v>       0.87539000       0.00017000       0.43687000 </v>
   <v>       0.37461000       0.00017000       0.68687000 </v>
   <v>       0.62461000       0.99984000       0.68687000 </v>
   <v>       0.87461000       0.00017000       0.68687000 </v>
   <v>       0.37461000       0.00017000       0.18687000 </v>
   <v>       0.87461000       0.00017000       0.18687000 </v>
   <v>       0.12539000       0.99984000       0.93687000 </v>
   <v>       0.12461000       0.99984000       0.68687000 </v>
   <v>       0.62539000       0.99984000       0.93687000 </v>
   <v>       0.00013000       0.29519000       0.06281000 </v>
   <v>       0.25013000       0.70481000       0.06281000 </v>
   <v>       0.24987000       0.29519000       0.31282000 </v>
   <v>       0.49987000       0.70481000       0.31282000 </v>
   <v>       0.50013000       0.29519000       0.06281000 </v>
   <v>       0.75013000       0.70481000       0.06281000 </v>
   <v>       0.74987000       0.29519000       0.31282000 </v>
   <v>       0.99987000       0.70481000       0.31282000 </v>
   <v>       0.00013000       0.29519000       0.56281000 </v>
   <v>       0.25013000       0.70481000       0.56281000 </v>
   <v>       0.24987000       0.29519000       0.81282000 </v>
   <v>       0.49987000       0.70481000       0.81282000 </v>
   <v>       0.50013000       0.29519000       0.56281000 </v>
   <v>       0.75013000       0.70481000       0.56281000 </v>
   <v>       0.74987000       0.29519000       0.81282000 </v>
   <v>       0.99987000       0.70481000       0.81282000 </v>
   <v>       0.25005000       0.32677000       0.06286000 </v>
   <v>       0.00005000       0.67323000       0.06286000 </v>
   <v>       0.49995000       0.32677000       0.31286000 </v>
   <v>       0.24995000       0.67323000       0.31286000 </v>
   <v>       0.75005000       0.32677000       0.06286000 </v>
   <v>       0.50005000       0.67323000       0.06286000 </v>
   <v>       0.99995000       0.32677000       0.31286000 </v>
   <v>       0.74995000       0.67323000       0.31286000 </v>
   <v>       0.25005000       0.32677000       0.56286000 </v>
   <v>       0.00005000       0.67323000       0.56286000 </v>
   <v>       0.49995000       0.32677000       0.81286000 </v>
   <v>       0.24995000       0.67323000       0.81286000 </v>
   <v>       0.75005000       0.32677000       0.56286000 </v>
   <v>       0.50005000       0.67323000       0.56286000 </v>
   <v>       0.99995000       0.32677000       0.81286000 </v>
   <v>       0.74995000       0.67323000       0.81286000 </v>
   <v>       0.49987000       0.07798000       0.06246000 </v>
   <v>       0.24987000       0.92202000       0.06246000 </v>
   <v>       0.25013000       0.07798000       0.31246000 </v>
   <v>       0.00013000       0.92202000       0.31246000 </v>
   <v>       0.99987000       0.07798000       0.06246000 </v>
   <v>       0.74987000       0.92202000       0.06246000 </v>
   <v>       0.75013000       0.07798000       0.31246000 </v>
   <v>       0.50013000       0.92202000       0.31246000 </v>
   <v>       0.49987000       0.07798000       0.56246000 </v>
   <v>       0.24987000       0.92202000       0.56246000 </v>
   <v>       0.25013000       0.07798000       0.81246000 </v>
   <v>       0.00013000       0.92202000       0.81246000 </v>
   <v>       0.99987000       0.07798000       0.56246000 </v>
   <v>       0.74987000       0.92202000       0.56246000 </v>
   <v>       0.75013000       0.07798000       0.81246000 </v>
   <v>       0.50013000       0.92202000       0.81246000 </v>
  </varray>
 </structure>
</modeling>
