<?xml version="1.0" encoding="ISO-8859-1"?>
<modeling>
 <generator>
  <i name="program" type="string">vasp </i>
  <i name="version" type="string">5.4.4.18Apr17-6-g9f103f2a35  </i>
  <i name="subversion" type="string">(build Jul 31 2017 11:33:29) complex            parallel </i>
  <i name="platform" type="string">LinuxIFC </i>
  <i name="date" type="string">2021 09 29 </i>
  <i name="time" type="string">06:38:40 </i>
 </generator>
 <incar>
  <i type="string" name="SYSTEM"> La2O2S</i>
  <i type="string" name="PREC">normal</i>
  <i type="int" name="NELMIN">     4</i>
  <i type="int" name="IBRION">     2</i>
  <i type="int" name="NFREE">    10</i>
  <i name="EDIFF">      0.00000100</i>
  <i name="EDIFFG">     -0.01000000</i>
  <i type="int" name="NSW">     1</i>
  <i type="int" name="ISIF">     2</i>
  <i name="ENCUT">    600.00000000</i>
  <i name="ENAUG">    900.00000000</i>
  <i type="int" name="ISMEAR">    -5</i>
  <i type="logical" name="LWAVE"> F  </i>
  <i type="logical" name="LCHARG"> F  </i>
  <v type="int" name="KPOINT_BSE">    -1     0     0     0</v>
 </incar>
 <structure name="primitive_cell" >
  <crystal>
   <varray name="basis" >
    <v>      11.17850000       0.00000000       0.00000000 </v>
    <v>       0.00000000       9.57460000       0.00000000 </v>
    <v>       0.00000000       0.00000000      11.18240000 </v>
   </varray>
   <i name="volume">   1196.84853820 </i>
   <varray name="rec_basis" >
    <v>       0.08945744       0.00000000       0.00000000 </v>
    <v>       0.00000000       0.10444301       0.00000000 </v>
    <v>       0.00000000       0.00000000       0.08942624 </v>
   </varray>
  </crystal>
  <varray name="positions" >
   <v>       0.37539000       0.00017000       0.43687000 </v>
   <v>      -0.49987000      -0.07798000       0.31246000 </v>
   <v>       0.25013000       0.07798000       0.31246000 </v>
   <v>       0.49987000       0.07798000      -0.43754000 </v>
   <v>       0.24987000      -0.07798000      -0.43754000 </v>
   <v>      -0.37461000      -0.00016000       0.43687000 </v>
   <v>       0.37461000       0.00017000      -0.31313000 </v>
   <v>       0.37461000       0.00017000       0.18687000 </v>
   <v>       0.49987000      -0.29519000       0.31282000 </v>
   <v>       0.24987000       0.29519000       0.31282000 </v>
   <v>      -0.49987000       0.29519000      -0.43719000 </v>
   <v>       0.25013000      -0.29519000      -0.43719000 </v>
   <v>       0.49995000       0.32677000       0.31286000 </v>
   <v>       0.24995000      -0.32677000       0.31286000 </v>
   <v>      -0.49995000      -0.32677000      -0.43714000 </v>
   <v>       0.25005000       0.32677000      -0.43714000 </v>
   <v>      -0.37539000      -0.00016000      -0.31313000 </v>
   <v>       0.12461000      -0.00016000       0.18687000 </v>
   <v>       0.12461000      -0.00016000      -0.31313000 </v>
   <v>       0.49987000       0.07798000       0.06246000 </v>
   <v>      -0.24987000       0.07798000       0.31246000 </v>
   <v>      -0.25013000      -0.07798000      -0.43754000 </v>
   <v>       0.24987000      -0.07798000       0.06246000 </v>
   <v>       0.00013000      -0.07798000       0.31246000 </v>
   <v>      -0.49987000      -0.07798000      -0.18754000 </v>
   <v>      -0.00013000       0.07798000      -0.43754000 </v>
   <v>       0.25013000       0.07798000      -0.18754000 </v>
   <v>      -0.49987000       0.29519000       0.06281000 </v>
   <v>      -0.25013000       0.29519000       0.31282000 </v>
   <v>       0.25013000      -0.29519000       0.06281000 </v>
   <v>      -0.24987000      -0.29519000      -0.43719000 </v>
   <v>      -0.00013000      -0.29519000       0.31282000 </v>
   <v>       0.00013000       0.29519000      -0.43719000 </v>
   <v>       0.49987000      -0.29519000      -0.18718000 </v>
   <v>       0.24987000       0.29519000      -0.18718000 </v>
   <v>      -0.49995000      -0.32677000       0.06286000 </v>
   <v>       0.25005000       0.32677000       0.06286000 </v>
   <v>      -0.25005000      -0.32677000       0.31286000 </v>
   <v>      -0.24995000       0.32677000      -0.43714000 </v>
   <v>      -0.00005000       0.32677000       0.31286000 </v>
   <v>       0.00005000      -0.32677000      -0.43714000 </v>
   <v>       0.49995000       0.32677000      -0.18714000 </v>
   <v>       0.24995000      -0.32677000      -0.18714000 </v>
   <v>      -0.12461000       0.00017000       0.43687000 </v>
   <v>       0.37539000       0.00017000      -0.06313000 </v>
   <v>      -0.25013000      -0.07798000       0.06246000 </v>
   <v>      -0.00013000       0.07798000       0.06246000 </v>
   <v>      -0.24987000       0.07798000      -0.18754000 </v>
   <v>       0.00013000      -0.07798000      -0.18754000 </v>
   <v>      -0.12539000       0.00017000       0.18687000 </v>
   <v>      -0.12539000       0.00017000      -0.31313000 </v>
   <v>       0.12539000      -0.00016000      -0.06313000 </v>
   <v>      -0.37461000      -0.00016000      -0.06313000 </v>
   <v>      -0.24987000      -0.29519000       0.06281000 </v>
   <v>       0.00013000       0.29519000       0.06281000 </v>
   <v>      -0.25013000       0.29519000      -0.18718000 </v>
   <v>      -0.00013000      -0.29519000      -0.18718000 </v>
   <v>      -0.24995000       0.32677000       0.06286000 </v>
   <v>       0.00005000      -0.32677000       0.06286000 </v>
   <v>      -0.25005000      -0.32677000      -0.18714000 </v>
   <v>      -0.00005000       0.32677000      -0.18714000 </v>
   <v>      -0.12461000       0.00017000      -0.06313000 </v>
  </varray>
 </structure>
 <varray name="primitive_index" >
  <v type="int" >        1 </v>
  <v type="int" >       54 </v>
  <v type="int" >       49 </v>
  <v type="int" >       55 </v>
  <v type="int" >       56 </v>
  <v type="int" >       14 </v>
  <v type="int" >        8 </v>
  <v type="int" >       13 </v>
  <v type="int" >       18 </v>
  <v type="int" >       17 </v>
  <v type="int" >       27 </v>
  <v type="int" >       24 </v>
  <v type="int" >       33 </v>
  <v type="int" >       34 </v>
  <v type="int" >       44 </v>
  <v type="int" >       39 </v>
  <v type="int" >       11 </v>
  <v type="int" >        2 </v>
  <v type="int" >        7 </v>
  <v type="int" >       47 </v>
  <v type="int" >       53 </v>
  <v type="int" >       60 </v>
  <v type="int" >       48 </v>
  <v type="int" >       50 </v>
  <v type="int" >       62 </v>
  <v type="int" >       59 </v>
  <v type="int" >       57 </v>
  <v type="int" >       19 </v>
  <v type="int" >       21 </v>
  <v type="int" >       16 </v>
  <v type="int" >       28 </v>
  <v type="int" >       22 </v>
  <v type="int" >       23 </v>
  <v type="int" >       26 </v>
  <v type="int" >       25 </v>
  <v type="int" >       36 </v>
  <v type="int" >       31 </v>
  <v type="int" >       38 </v>
  <v type="int" >       43 </v>
  <v type="int" >       37 </v>
  <v type="int" >       40 </v>
  <v type="int" >       41 </v>
  <v type="int" >       42 </v>
  <v type="int" >        3 </v>
  <v type="int" >        6 </v>
  <v type="int" >       52 </v>
  <v type="int" >       51 </v>
  <v type="int" >       61 </v>
  <v type="int" >       58 </v>
  <v type="int" >        4 </v>
  <v type="int" >       12 </v>
  <v type="int" >        5 </v>
  <v type="int" >        9 </v>
  <v type="int" >       20 </v>
  <v type="int" >       15 </v>
  <v type="int" >       29 </v>
  <v type="int" >       30 </v>
  <v type="int" >       35 </v>
  <v type="int" >       32 </v>
  <v type="int" >       46 </v>
  <v type="int" >       45 </v>
  <v type="int" >       10 </v>
 </varray>
 <kpoints>
  <generation param="Gamma">
   <v type="int" name="divisions">       2        2        2 </v>
   <v name="usershift">      0.00000000       0.00000000       0.00000000 </v>
   <v name="genvec1">      0.50000000       0.00000000       0.00000000 </v>
   <v name="genvec2">      0.00000000       0.50000000       0.00000000 </v>
   <v name="genvec3">      0.00000000       0.00000000       0.50000000 </v>
   <v name="shift">      0.00000000       0.00000000       0.00000000 </v>
  </generation>
  <varray name="kpointlist" >
   <v>       0.00000000       0.00000000       0.00000000 </v>
   <v>       0.50000000       0.00000000       0.00000000 </v>
   <v>       0.00000000       0.50000000       0.00000000 </v>
   <v>       0.50000000       0.50000000       0.00000000 </v>
   <v>       0.00000000       0.00000000       0.50000000 </v>
   <v>       0.50000000       0.00000000       0.50000000 </v>
   <v>       0.00000000       0.50000000       0.50000000 </v>
   <v>       0.50000000       0.50000000       0.50000000 </v>
  </varray>
  <varray name="weights" >
   <v>       0.12500000 </v>
   <v>       0.12500000 </v>
   <v>       0.12500000 </v>
   <v>       0.12500000 </v>
   <v>       0.12500000 </v>
   <v>       0.12500000 </v>
   <v>       0.12500000 </v>
   <v>       0.12500000 </v>
  </varray>
  <varray name="tetrahedronlist"  type="int" >
   <v type="int" >        2        1        2        4        5 </v>
   <v type="int" >        2        1        3        4        5 </v>
   <v type="int" >        2        3        4        5        7 </v>
   <v type="int" >        2        2        4        5        6 </v>
   <v type="int" >        2        4        5        6        8 </v>
   <v type="int" >        2        4        5        7        8 </v>
   <v type="int" >        2        1        2        3        6 </v>
   <v type="int" >        2        2        3        4        6 </v>
   <v type="int" >        2        3        4        6        8 </v>
   <v type="int" >        2        1        3        5        6 </v>
   <v type="int" >        2        3        5        6        7 </v>
   <v type="int" >        2        3        6        7        8 </v>
   <v type="int" >        2        2        3        4        7 </v>
   <v type="int" >        2        1        2        3        7 </v>
   <v type="int" >        2        1        2        5        7 </v>
   <v type="int" >        2        2        4        7        8 </v>
   <v type="int" >        2        2        6        7        8 </v>
   <v type="int" >        2        2        5        6        7 </v>
   <v type="int" >        2        1        3        4        8 </v>
   <v type="int" >        2        1        2        4        8 </v>
   <v type="int" >        2        1        2        6        8 </v>
   <v type="int" >        2        1        3        7        8 </v>
   <v type="int" >        2        1        5        7        8 </v>
   <v type="int" >        2        1        5        6        8 </v>
  </varray>
  <i name="volumeweight">      0.02083333 </i>
 </kpoints>
 <parameters>
  <separator name="general" >
   <i type="string" name="SYSTEM">La2O2S</i>
   <i type="logical" name="LCOMPAT"> F  </i>
  </separator>
  <separator name="electronic" >
   <i type="string" name="PREC">normal</i>
   <i name="ENMAX">    600.00000000</i>
   <i name="ENAUG">    900.00000000</i>
   <i name="EDIFF">      0.00000100</i>
   <i type="int" name="IALGO">    38</i>
   <i type="int" name="IWAVPR">    11</i>
   <i type="int" name="NBANDS">   308</i>
   <i name="NELECT">    472.00000000</i>
   <i type="int" name="TURBO">     0</i>
   <i type="int" name="IRESTART">     0</i>
   <i type="int" name="NREBOOT">     0</i>
   <i type="int" name="NMIN">     0</i>
   <i name="EREF">      0.00000000</i>
   <separator name="electronic smearing" >
    <i type="int" name="ISMEAR">    -5</i>
    <i name="SIGMA">      0.20000000</i>
    <i name="KSPACING">      0.50000000</i>
    <i type="logical" name="KGAMMA"> T  </i>
   </separator>
   <separator name="electronic projectors" >
    <i type="logical" name="LREAL"> F  </i>
    <v name="ROPT">      0.00000000      0.00000000      0.00000000      0.00000000      0.00000000</v>
    <i type="int" name="LMAXPAW">  -100</i>
    <i type="int" name="LMAXMIX">     2</i>
    <i type="logical" name="NLSPLINE"> F  </i>
   </separator>
   <separator name="electronic startup" >
    <i type="int" name="ISTART">     0</i>
    <i type="int" name="ICHARG">     2</i>
    <i type="int" name="INIWAV">     1</i>
   </separator>
   <separator name="electronic spin" >
    <i type="int" name="ISPIN">     1</i>
    <i type="logical" name="LNONCOLLINEAR"> F  </i>
    <v name="MAGMOM">      1.00000000      1.00000000      1.00000000      1.00000000      1.00000000      1.00000000      1.00000000      1.00000000      1.00000000      1.00000000      1.00000000      1.00000000      1.00000000      1.00000000      1.00000000      1.00000000      1.00000000      1.00000000      1.00000000      1.00000000
      1.00000000      1.00000000      1.00000000      1.00000000      1.00000000      1.00000000      1.00000000      1.00000000      1.00000000      1.00000000      1.00000000      1.00000000      1.00000000      1.00000000      1.00000000      1.00000000      1.00000000      1.00000000      1.00000000      1.00000000
      1.00000000      1.00000000      1.00000000      1.00000000      1.00000000      1.00000000      1.00000000      1.00000000      1.00000000      1.00000000      1.00000000      1.00000000      1.00000000      1.00000000      1.00000000      1.00000000      1.00000000      1.00000000      1.00000000      1.00000000
      1.00000000      1.00000000</v>
    <i name="NUPDOWN">     -1.00000000</i>
    <i type="logical" name="LSORBIT"> F  </i>
    <v name="SAXIS">      0.00000000      0.00000000      1.00000000</v>
    <i type="logical" name="LSPIRAL"> F  </i>
    <v name="QSPIRAL">      0.00000000      0.00000000      0.00000000</v>
    <i type="logical" name="LZEROZ"> F  </i>
   </separator>
   <separator name="electronic exchange-correlation" >
    <i type="logical" name="LASPH"> F  </i>
    <i type="logical" name="LMETAGGA"> F  </i>
   </separator>
   <separator name="electronic convergence" >
    <i type="int" name="NELM">    60</i>
    <i type="int" name="NELMDL">    -5</i>
    <i type="int" name="NELMIN">     4</i>
    <i name="ENINI">    600.00000000</i>
    <separator name="electronic convergence detail" >
     <i type="logical" name="LDIAG"> T  </i>
     <i type="logical" name="LSUBROT"> F  </i>
     <i name="WEIMIN">      0.00100000</i>
     <i name="EBREAK">      0.00000000</i>
     <i name="DEPER">      0.30000000</i>
     <i type="int" name="NRMM">     4</i>
     <i name="TIME">      0.40000000</i>
    </separator>
   </separator>
   <separator name="electronic mixer" >
    <i name="AMIX">      0.40000000</i>
    <i name="BMIX">      1.00000000</i>
    <i name="AMIN">      0.10000000</i>
    <i name="AMIX_MAG">      1.60000000</i>
    <i name="BMIX_MAG">      1.00000000</i>
    <separator name="electronic mixer details" >
     <i type="int" name="IMIX">     4</i>
     <i type="logical" name="MIXFIRST"> F  </i>
     <i type="int" name="MAXMIX">   -45</i>
     <i name="WC">    100.00000000</i>
     <i type="int" name="INIMIX">     1</i>
     <i type="int" name="MIXPRE">     1</i>
     <i type="int" name="MREMOVE">     5</i>
    </separator>
   </separator>
   <separator name="electronic dipolcorrection" >
    <i type="logical" name="LDIPOL"> F  </i>
    <i type="logical" name="LMONO"> F  </i>
    <i type="int" name="IDIPOL">     0</i>
    <i name="EPSILON">      1.00000000</i>
    <v name="DIPOL">   -100.00000000   -100.00000000   -100.00000000</v>
    <i name="EFIELD">      0.00000000</i>
   </separator>
  </separator>
  <separator name="grids" >
   <i type="int" name="NGX">    70</i>
   <i type="int" name="NGY">    60</i>
   <i type="int" name="NGZ">    70</i>
   <i type="int" name="NGXF">   140</i>
   <i type="int" name="NGYF">   120</i>
   <i type="int" name="NGZF">   140</i>
   <i type="logical" name="ADDGRID"> F  </i>
  </separator>
  <separator name="ionic" >
   <i type="int" name="NSW">     1</i>
   <i type="int" name="IBRION">     2</i>
   <i type="int" name="MDALGO">     0</i>
   <i type="int" name="ISIF">     2</i>
   <i name="PSTRESS">      0.00000000</i>
   <i name="EDIFFG">     -0.01000000</i>
   <i type="int" name="NFREE">    10</i>
   <i name="POTIM">      0.50000000</i>
   <i name="SMASS">     -3.00000000</i>
   <i name="SCALEE">      1.00000000</i>
  </separator>
  <separator name="ionic md" >
   <i name="TEBEG">      0.00010000</i>
   <i name="TEEND">      0.00010000</i>
   <i type="int" name="NBLOCK">     1</i>
   <i type="int" name="KBLOCK">     1</i>
   <i type="int" name="NPACO">   256</i>
   <i name="APACO">     16.00000000</i>
  </separator>
  <separator name="symmetry" >
   <i type="int" name="ISYM">     2</i>
   <i name="SYMPREC">      0.00001000</i>
  </separator>
  <separator name="dos" >
   <i type="int" name="LORBIT">     0</i>
   <v name="RWIGS">     -1.00000000     -1.00000000     -1.00000000     -1.00000000     -1.00000000</v>
   <i type="int" name="NEDOS">   301</i>
   <i name="EMIN">     10.00000000</i>
   <i name="EMAX">    -10.00000000</i>
   <i name="EFERMI">      0.00000000</i>
  </separator>
  <separator name="writing" >
   <i type="int" name="NWRITE">     2</i>
   <i type="logical" name="LWAVE"> F  </i>
   <i type="logical" name="LDOWNSAMPLE"> F  </i>
   <i type="logical" name="LCHARG"> F  </i>
   <i type="logical" name="LPARD"> F  </i>
   <i type="logical" name="LVTOT"> F  </i>
   <i type="logical" name="LVHAR"> F  </i>
   <i type="logical" name="LELF"> F  </i>
   <i type="logical" name="LOPTICS"> F  </i>
   <v name="STM">      0.00000000      0.00000000      0.00000000      0.00000000      0.00000000      0.00000000      0.00000000</v>
  </separator>
  <separator name="performance" >
   <i type="int" name="NPAR">    28</i>
   <i type="int" name="NSIM">     4</i>
   <i type="int" name="NBLK">    -1</i>
   <i type="logical" name="LPLANE"> T  </i>
   <i type="logical" name="LSCALAPACK"> T  </i>
   <i type="logical" name="LSCAAWARE"> F  </i>
   <i type="logical" name="LSCALU"> F  </i>
   <i type="logical" name="LASYNC"> F  </i>
   <i type="logical" name="LORBITALREAL"> F  </i>
  </separator>
  <separator name="miscellaneous" >
   <i type="int" name="IDIOT">     3</i>
   <i type="int" name="ISPECIAL">     0</i>
   <i type="logical" name="LMUSIC"> F  </i>
   <v name="POMASS">      7.01000000     24.30500000    208.98000000     32.06600000     16.00000000</v>
   <v name="DARWINR">      0.00000000      0.00000000      0.00000000      0.00000000      0.00000000</v>
   <v name="DARWINV">      1.00000000      1.00000000      1.00000000      1.00000000      1.00000000</v>
   <i type="logical" name="LCORR"> T  </i>
  </separator>
  <i type="logical" name="GGA_COMPAT"> T  </i>
  <i type="logical" name="LBERRY"> F  </i>
  <i type="int" name="ICORELEVEL">     0</i>
  <i type="logical" name="LDAU"> F  </i>
  <i type="int" name="I_CONSTRAINED_M">     0</i>
  <separator name="electronic exchange-correlation" >
   <i type="string" name="GGA">--</i>
   <i type="int" name="VOSKOWN">     0</i>
   <i type="logical" name="LHFCALC"> F  </i>
   <i type="string" name="PRECFOCK"></i>
   <i type="logical" name="LSYMGRAD"> F  </i>
   <i type="logical" name="LHFONE"> F  </i>
   <i type="logical" name="LRHFCALC"> F  </i>
   <i type="logical" name="LTHOMAS"> F  </i>
   <i type="logical" name="LMODELHF"> F  </i>
   <i name="ENCUT4O">     -1.00000000</i>
   <i type="int" name="EXXOEP">     0</i>
   <i type="int" name="FOURORBIT">     0</i>
   <i name="AEXX">      0.00000000</i>
   <i name="HFALPHA">      0.00000000</i>
   <i name="MCALPHA">      0.00000000</i>
   <i name="ALDAX">      1.00000000</i>
   <i name="AGGAX">      1.00000000</i>
   <i name="ALDAC">      1.00000000</i>
   <i name="AGGAC">      1.00000000</i>
   <i type="int" name="NKREDX">     1</i>
   <i type="int" name="NKREDY">     1</i>
   <i type="int" name="NKREDZ">     1</i>
   <i type="logical" name="SHIFTRED"> F  </i>
   <i type="logical" name="ODDONLY"> F  </i>
   <i type="logical" name="EVENONLY"> F  </i>
   <i type="int" name="LMAXFOCK">     0</i>
   <i type="int" name="NMAXFOCKAE">     0</i>
   <i type="logical" name="LFOCKAEDFT"> F  </i>
   <i name="HFSCREEN">      0.00000000</i>
   <i name="HFSCREENC">      0.00000000</i>
   <i type="int" name="NBANDSGWLOW">     0</i>
  </separator>
  <separator name="vdW DFT" >
   <i type="logical" name="LUSE_VDW"> F  </i>
   <i name="Zab_VDW">     -0.84910000</i>
   <i name="PARAM1">      0.12340000</i>
   <i name="PARAM2">      1.00000000</i>
   <i name="PARAM3">      0.00000000</i>
  </separator>
  <separator name="model GW" >
   <i type="int" name="MODEL_GW">     0</i>
   <i name="MODEL_EPS0">     11.58240521</i>
   <i name="MODEL_ALPHA">      1.00000000</i>
  </separator>
  <separator name="linear response parameters" >
   <i type="logical" name="LEPSILON"> F  </i>
   <i type="logical" name="LRPA"> F  </i>
   <i type="logical" name="LNABLA"> F  </i>
   <i type="logical" name="LVEL"> F  </i>
   <i type="int" name="KINTER">     0</i>
   <i name="CSHIFT">      0.10000000</i>
   <i name="OMEGAMAX">     -1.00000000</i>
   <i name="DEG_THRESHOLD">      0.00200000</i>
   <i name="RTIME">     -0.10000000</i>
   <i name="WPLASMAI">      0.00000000</i>
   <v name="DFIELD">      0.00000000      0.00000000      0.00000000</v>
   <v name="WPLASMA">      0.00000000      0.00000000      0.00000000      0.00000000      0.00000000      0.00000000      0.00000000      0.00000000      0.00000000</v>
  </separator>
  <separator name="orbital magnetization" >
   <i type="logical" name="NUCIND"> F  </i>
   <v name="MAGPOS">      0.00000000      0.00000000      0.00000000</v>
   <i type="logical" name="LNICSALL"> T  </i>
   <i type="logical" name="ORBITALMAG"> F  </i>
   <i type="logical" name="LMAGBLOCH"> F  </i>
   <i type="logical" name="LCHIMAG"> F  </i>
   <i type="logical" name="LGAUGE"> T  </i>
   <i type="int" name="MAGATOM">     0</i>
   <v name="MAGDIPOL">      0.00000000      0.00000000      0.00000000</v>
   <v name="AVECCONST">      0.00000000      0.00000000      0.00000000</v>
  </separator>
  <separator name="response functions" >
   <i type="logical" name="LADDER"> F  </i>
   <i type="logical" name="LRPAFORCE"> F  </i>
   <i type="logical" name="LFXC"> F  </i>
   <i type="logical" name="LHARTREE"> T  </i>
   <i type="int" name="IBSE">     0</i>
   <v type="int" name="KPOINT">    -1     0     0     0</v>
   <i type="logical" name="LTCTE"> F  </i>
   <i type="logical" name="LTETE"> F  </i>
   <i type="logical" name="LTRIPLET"> F  </i>
   <i type="logical" name="LFXCEPS"> F  </i>
   <i type="logical" name="LFXHEG"> F  </i>
   <i type="int" name="NATURALO">     2</i>
   <i type="logical" name="L2ORDER"> F  </i>
   <i type="logical" name="LMP2LT"> F  </i>
   <i type="logical" name="LUSEW"> F  </i>
   <i name="ENCUTGW">     -2.00000000</i>
   <i name="ENCUTGWSOFT">     -2.00000000</i>
   <i name="ENCUTLF">     -1.00000000</i>
   <i type="int" name="LMAXMP2">    -1</i>
   <i name="SCISSOR">      0.00000000</i>
   <i type="int" name="NOMEGA">     0</i>
   <i type="int" name="NOMEGAR">     0</i>
   <i type="int" name="NBANDSGW">    -1</i>
   <i type="int" name="NBANDSO">    -1</i>
   <i type="int" name="NBANDSV">    -1</i>
   <i type="int" name="NELM">     1</i>
   <i type="int" name="NELMHF">     1</i>
   <i type="int" name="DIM">     3</i>
   <i type="int" name="ANTIRES">     0</i>
   <i name="OMEGAMAX">    -30.00000000</i>
   <i name="OMEGAMIN">    -30.00000000</i>
   <i name="OMEGATL">   -200.00000000</i>
   <i type="int" name="OMEGAGRID">   140</i>
   <i name="CSHIFT">     -0.10000000</i>
   <i type="logical" name="SELFENERGY"> F  </i>
   <i type="logical" name="LSPECTRAL"> F  </i>
   <i type="logical" name="LSPECTRALGW"> F  </i>
   <i type="logical" name="LSINGLES"> F  </i>
   <i type="logical" name="LFERMIGW"> F  </i>
   <i type="logical" name="ODDONLYGW"> F  </i>
   <i type="logical" name="EVENONLYGW"> F  </i>
   <i type="int" name="NKREDLFX">     1</i>
   <i type="int" name="NKREDLFY">     1</i>
   <i type="int" name="NKREDLFZ">     1</i>
   <i type="int" name="MAXMEM">  2800</i>
   <i type="int" name="TELESCOPE">     0</i>
   <i type="int" name="TAUPAR">     1</i>
   <i type="int" name="OMEGAPAR">    -1</i>
   <i name="LAMBDA">      1.00000000</i>
  </separator>
  <separator name="External order field" >
   <i name="OFIELD_KAPPA">      0.00000000</i>
   <v name="OFIELD_K">      0.00000000      0.00000000      0.00000000</v>
   <i name="OFIELD_Q6_NEAR">      0.00000000</i>
   <i name="OFIELD_Q6_FAR">      0.00000000</i>
   <i name="OFIELD_A">      0.00000000</i>
  </separator>
 </parameters>
 <atominfo>
  <atoms>      62 </atoms>
  <types>       5 </types>
  <array name="atoms" >
   <dimension dim="1">ion</dimension>
   <field type="string">element</field>
   <field type="int">atomtype</field>
   <set>
    <rc><c>Li</c><c>   1</c></rc>
    <rc><c>Li</c><c>   1</c></rc>
    <rc><c>Li</c><c>   1</c></rc>
    <rc><c>Li</c><c>   1</c></rc>
    <rc><c>Li</c><c>   1</c></rc>
    <rc><c>Li</c><c>   1</c></rc>
    <rc><c>Li</c><c>   1</c></rc>
    <rc><c>Li</c><c>   1</c></rc>
    <rc><c>Li</c><c>   1</c></rc>
    <rc><c>Li</c><c>   1</c></rc>
    <rc><c>Li</c><c>   1</c></rc>
    <rc><c>Li</c><c>   1</c></rc>
    <rc><c>Mg</c><c>   2</c></rc>
    <rc><c>Mg</c><c>   2</c></rc>
    <rc><c>Bi</c><c>   3</c></rc>
    <rc><c>Bi</c><c>   3</c></rc>
    <rc><c>Bi</c><c>   3</c></rc>
    <rc><c>Bi</c><c>   3</c></rc>
    <rc><c>Bi</c><c>   3</c></rc>
    <rc><c>Bi</c><c>   3</c></rc>
    <rc><c>Bi</c><c>   3</c></rc>
    <rc><c>Bi</c><c>   3</c></rc>
    <rc><c>Bi</c><c>   3</c></rc>
    <rc><c>Bi</c><c>   3</c></rc>
    <rc><c>Bi</c><c>   3</c></rc>
    <rc><c>Bi</c><c>   3</c></rc>
    <rc><c>Bi</c><c>   3</c></rc>
    <rc><c>Bi</c><c>   3</c></rc>
    <rc><c>Bi</c><c>   3</c></rc>
    <rc><c>Bi</c><c>   3</c></rc>
    <rc><c>S </c><c>   4</c></rc>
    <rc><c>S </c><c>   4</c></rc>
    <rc><c>S </c><c>   4</c></rc>
    <rc><c>S </c><c>   4</c></rc>
    <rc><c>S </c><c>   4</c></rc>
    <rc><c>S </c><c>   4</c></rc>
    <rc><c>S </c><c>   4</c></rc>
    <rc><c>S </c><c>   4</c></rc>
    <rc><c>S </c><c>   4</c></rc>
    <rc><c>S </c><c>   4</c></rc>
    <rc><c>S </c><c>   4</c></rc>
    <rc><c>S </c><c>   4</c></rc>
    <rc><c>S </c><c>   4</c></rc>
    <rc><c>S </c><c>   4</c></rc>
    <rc><c>S </c><c>   4</c></rc>
    <rc><c>S </c><c>   4</c></rc>
    <rc><c>O </c><c>   5</c></rc>
    <rc><c>O </c><c>   5</c></rc>
    <rc><c>O </c><c>   5</c></rc>
    <rc><c>O </c><c>   5</c></rc>
    <rc><c>O </c><c>   5</c></rc>
    <rc><c>O </c><c>   5</c></rc>
    <rc><c>O </c><c>   5</c></rc>
    <rc><c>O </c><c>   5</c></rc>
    <rc><c>O </c><c>   5</c></rc>
    <rc><c>O </c><c>   5</c></rc>
    <rc><c>O </c><c>   5</c></rc>
    <rc><c>O </c><c>   5</c></rc>
    <rc><c>O </c><c>   5</c></rc>
    <rc><c>O </c><c>   5</c></rc>
    <rc><c>O </c><c>   5</c></rc>
    <rc><c>O </c><c>   5</c></rc>
   </set>
  </array>
  <array name="atomtypes" >
   <dimension dim="1">type</dimension>
   <field type="int">atomspertype</field>
   <field type="string">element</field>
   <field>mass</field>
   <field>valence</field>
   <field type="string">pseudopotential</field>
   <set>
    <rc><c>  12</c><c>Li</c><c>      7.01000000</c><c>      3.00000000</c><c>  PAW_PBE Li_sv 10Sep2004               </c></rc>
    <rc><c>   2</c><c>Mg</c><c>     24.30500000</c><c>      2.00000000</c><c>  PAW_PBE Mg 13Apr2007                  </c></rc>
    <rc><c>  16</c><c>Bi</c><c>    208.98000000</c><c>     15.00000000</c><c>  PAW_PBE Bi_d 06Sep2000                </c></rc>
    <rc><c>  16</c><c>S </c><c>     32.06600000</c><c>      6.00000000</c><c>  PAW_PBE S 06Sep2000                   </c></rc>
    <rc><c>  16</c><c>O </c><c>     16.00000000</c><c>      6.00000000</c><c>  PAW_PBE O 08Apr2002                   </c></rc>
   </set>
  </array>
 </atominfo>
 <structure name="initialpos" >
  <crystal>
   <varray name="basis" >
    <v>      11.17850000       0.00000000       0.00000000 </v>
    <v>       0.00000000       9.57460000       0.00000000 </v>
    <v>       0.00000000       0.00000000      11.18240000 </v>
   </varray>
   <i name="volume">   1196.84853820 </i>
   <varray name="rec_basis" >
    <v>       0.08945744       0.00000000       0.00000000 </v>
    <v>       0.00000000       0.10444301       0.00000000 </v>
    <v>       0.00000000       0.00000000       0.08942624 </v>
   </varray>
  </crystal>
  <varray name="positions" >
   <v>       0.37539000       0.00017000       0.43687000 </v>
   <v>       0.12461000       0.99984000       0.18687000 </v>
   <v>       0.87539000       0.00017000       0.43687000 </v>
   <v>       0.87461000       0.00017000       0.18687000 </v>
   <v>       0.12539000       0.99984000       0.93687000 </v>
   <v>       0.37539000       0.00017000       0.93687000 </v>
   <v>       0.12461000       0.99984000       0.68687000 </v>
   <v>       0.37461000       0.00017000       0.68687000 </v>
   <v>       0.62539000       0.99984000       0.93687000 </v>
   <v>       0.87539000       0.00017000       0.93687000 </v>
   <v>       0.62461000       0.99984000       0.68687000 </v>
   <v>       0.87461000       0.00017000       0.68687000 </v>
   <v>       0.37461000       0.00017000       0.18687000 </v>
   <v>       0.62539000       0.99984000       0.43687000 </v>
   <v>       0.00013000       0.29519000       0.06281000 </v>
   <v>       0.25013000       0.70481000       0.06281000 </v>
   <v>       0.24987000       0.29519000       0.31282000 </v>
   <v>       0.49987000       0.70481000       0.31282000 </v>
   <v>       0.50013000       0.29519000       0.06281000 </v>
   <v>       0.75013000       0.70481000       0.06281000 </v>
   <v>       0.74987000       0.29519000       0.31282000 </v>
   <v>       0.99987000       0.70481000       0.31282000 </v>
   <v>       0.00013000       0.29519000       0.56281000 </v>
   <v>       0.25013000       0.70481000       0.56281000 </v>
   <v>       0.24987000       0.29519000       0.81282000 </v>
   <v>       0.49987000       0.70481000       0.81282000 </v>
   <v>       0.50013000       0.29519000       0.56281000 </v>
   <v>       0.75013000       0.70481000       0.56281000 </v>
   <v>       0.74987000       0.29519000       0.81282000 </v>
   <v>       0.99987000       0.70481000       0.81282000 </v>
   <v>       0.25005000       0.32677000       0.06286000 </v>
   <v>       0.00005000       0.67323000       0.06286000 </v>
   <v>       0.49995000       0.32677000       0.31286000 </v>
   <v>       0.24995000       0.67323000       0.31286000 </v>
   <v>       0.75005000       0.32677000       0.06286000 </v>
   <v>       0.50005000       0.67323000       0.06286000 </v>
   <v>       0.99995000       0.32677000       0.31286000 </v>
   <v>       0.74995000       0.67323000       0.31286000 </v>
   <v>       0.25005000       0.32677000       0.56286000 </v>
   <v>       0.00005000       0.67323000       0.56286000 </v>
   <v>       0.49995000       0.32677000       0.81286000 </v>
   <v>       0.24995000       0.67323000       0.81286000 </v>
   <v>       0.75005000       0.32677000       0.56286000 </v>
   <v>       0.50005000       0.67323000       0.56286000 </v>
   <v>       0.99995000       0.32677000       0.81286000 </v>
   <v>       0.74995000       0.67323000       0.81286000 </v>
   <v>       0.49987000       0.07798000       0.06246000 </v>
   <v>       0.24987000       0.92202000       0.06246000 </v>
   <v>       0.25013000       0.07798000       0.31246000 </v>
   <v>       0.00013000       0.92202000       0.31246000 </v>
   <v>       0.99987000       0.07798000       0.06246000 </v>
   <v>       0.74987000       0.92202000       0.06246000 </v>
   <v>       0.75013000       0.07798000       0.31246000 </v>
   <v>       0.50013000       0.92202000       0.31246000 </v>
   <v>       0.49987000       0.07798000       0.56246000 </v>
   <v>       0.24987000       0.92202000       0.56246000 </v>
   <v>       0.25013000       0.07798000       0.81246000 </v>
   <v>       0.00013000       0.92202000       0.81246000 </v>
   <v>       0.99987000       0.07798000       0.56246000 </v>
   <v>       0.74987000       0.92202000       0.56246000 </v>
   <v>       0.75013000       0.07798000       0.81246000 </v>
   <v>       0.50013000       0.92202000       0.81246000 </v>
  </varray>
 </structure>
 <calculation>
  <scstep>
   <time name="dav">   64.46   64.68</time>
   <time name="total">   64.55   64.76</time>
   <energy>
    <i name="alphaZ">   1079.87189334 </i>
    <i name="ewald"> -31110.14356031 </i>
    <i name="hartreedc"> -12714.88086784 </i>
    <i name="XCdc">   1468.88805626 </i>
    <i name="pawpsdc">  36917.91861236 </i>
    <i name="pawaedc"> -36503.41947684 </i>
    <i name="eentropy">      0.00000000 </i>
    <i name="bandstr">   1591.07949847 </i>
    <i name="atom">  45173.57650906 </i>
    <i name="e_fr_energy">   5902.89066450 </i>
    <i name="e_wo_entrp">   5902.89066450 </i>
    <i name="e_0_energy">   5902.89066450 </i>
   </energy>
  </scstep>
  <scstep>
   <time name="dav">   65.26   65.48</time>
   <time name="total">   65.27   65.49</time>
   <energy>
    <i name="e_fr_energy">    749.60932908 </i>
    <i name="e_wo_entrp">    749.60932908 </i>
    <i name="e_0_energy">    749.60932908 </i>
   </energy>
  </scstep>
  <scstep>
   <time name="dav">   71.56   71.65</time>
   <time name="total">   71.57   71.65</time>
   <energy>
    <i name="e_fr_energy">   -244.19552200 </i>
    <i name="e_wo_entrp">   -244.19552200 </i>
    <i name="e_0_energy">   -244.19552200 </i>
   </energy>
  </scstep>
  <scstep>
   <time name="dav">   79.71   79.77</time>
   <time name="total">   79.71   79.78</time>
   <energy>
    <i name="e_fr_energy">   -352.57479681 </i>
    <i name="e_wo_entrp">   -352.57479681 </i>
    <i name="e_0_energy">   -352.57479681 </i>
   </energy>
  </scstep>
  <scstep>
   <time name="dav">  104.15  104.41</time>
   <time name="total">  104.89  105.16</time>
   <energy>
    <i name="e_fr_energy">   -361.14052780 </i>
    <i name="e_wo_entrp">   -361.14052780 </i>
    <i name="e_0_energy">   -361.14052780 </i>
   </energy>
  </scstep>
  <scstep>
   <time name="dav">   91.63   91.76</time>
   <time name="total">   92.43   92.56</time>
   <energy>
    <i name="e_fr_energy">   -301.16294600 </i>
    <i name="e_wo_entrp">   -301.16294600 </i>
    <i name="e_0_energy">   -301.16294600 </i>
   </energy>
  </scstep>
  <scstep>
   <time name="dav">   71.11   71.19</time>
   <time name="total">   71.90   71.99</time>
   <energy>
    <i name="e_fr_energy">   -303.32995799 </i>
    <i name="e_wo_entrp">   -303.32995799 </i>
    <i name="e_0_energy">   -303.32995799 </i>
   </energy>
  </scstep>
  <scstep>
   <time name="dav">   82.45   82.57</time>
   <time name="total">   83.25   83.37</time>
   <energy>
    <i name="e_fr_energy">   -301.93154265 </i>
    <i name="e_wo_entrp">   -301.93154265 </i>
    <i name="e_0_energy">   -301.93154265 </i>
   </energy>
  </scstep>
  <scstep>
   <time name="dav">   90.82   91.09</time>
   <time name="total">   91.62   91.89</time>
   <energy>
    <i name="e_fr_energy">   -301.31571187 </i>
    <i name="e_wo_entrp">   -301.31571187 </i>
    <i name="e_0_energy">   -301.31571187 </i>
   </energy>
  </scstep>
  <scstep>
   <time name="dav">   78.32   78.52</time>
   <time name="total">   79.11   79.32</time>
   <energy>
    <i name="e_fr_energy">   -301.27757235 </i>
    <i name="e_wo_entrp">   -301.27757235 </i>
    <i name="e_0_energy">   -301.27757235 </i>
   </energy>
  </scstep>
  <scstep>
   <time name="dav">   83.21   83.44</time>
   <time name="total">   84.01   84.24</time>
   <energy>
    <i name="e_fr_energy">   -301.29082262 </i>
    <i name="e_wo_entrp">   -301.29082262 </i>
    <i name="e_0_energy">   -301.29082262 </i>
   </energy>
  </scstep>
  <scstep>
   <time name="dav">   82.29   82.43</time>
   <time name="total">   83.08   83.23</time>
   <energy>
    <i name="e_fr_energy">   -301.29568994 </i>
    <i name="e_wo_entrp">   -301.29568994 </i>
    <i name="e_0_energy">   -301.29568994 </i>
   </energy>
  </scstep>
  <scstep>
   <time name="dav">   84.11   84.24</time>
   <time name="total">   84.97   85.10</time>
   <energy>
    <i name="e_fr_energy">   -301.29643865 </i>
    <i name="e_wo_entrp">   -301.29643865 </i>
    <i name="e_0_energy">   -301.29643865 </i>
   </energy>
  </scstep>
  <scstep>
   <time name="dav">   73.82   73.91</time>
   <time name="total">   74.65   74.75</time>
   <energy>
    <i name="e_fr_energy">   -301.29672265 </i>
    <i name="e_wo_entrp">   -301.29672265 </i>
    <i name="e_0_energy">   -301.29672265 </i>
   </energy>
  </scstep>
  <scstep>
   <time name="dav">   95.15   95.24</time>
   <time name="total">   95.94   96.04</time>
   <energy>
    <i name="e_fr_energy">   -301.29675536 </i>
    <i name="e_wo_entrp">   -301.29675536 </i>
    <i name="e_0_energy">   -301.29675536 </i>
   </energy>
  </scstep>
  <scstep>
   <time name="dav">   69.60   69.69</time>
   <time name="total">   70.39   70.49</time>
   <energy>
    <i name="e_fr_energy">   -301.29677179 </i>
    <i name="e_wo_entrp">   -301.29677179 </i>
    <i name="e_0_energy">   -301.29677179 </i>
   </energy>
  </scstep>
  <scstep>
   <time name="dav">   72.73   72.78</time>
   <time name="total">   73.54   73.60</time>
   <energy>
    <i name="e_fr_energy">   -301.29677487 </i>
    <i name="e_wo_entrp">   -301.29677487 </i>
    <i name="e_0_energy">   -301.29677487 </i>
   </energy>
  </scstep>
  <scstep>
   <time name="dav">   61.38   61.54</time>
   <time name="total">   61.45   61.61</time>
   <energy>
    <i name="alphaZ">   1079.87189334 </i>
    <i name="ewald"> -31110.14356031 </i>
    <i name="hartreedc"> -12950.87465451 </i>
    <i name="XCdc">   1491.82546755 </i>
    <i name="pawpsdc">  43947.45421063 </i>
    <i name="pawaedc"> -43508.45905062 </i>
    <i name="eentropy">      0.00000000 </i>
    <i name="bandstr">  -4424.54759023 </i>
    <i name="atom">  45173.57650906 </i>
    <i name="e_fr_energy">   -301.29677509 </i>
    <i name="e_wo_entrp">   -301.29677509 </i>
    <i name="e_0_energy">   -301.29677509 </i>
   </energy>
  </scstep>
  <structure>
   <crystal>
    <varray name="basis" >
     <v>      11.17850000       0.00000000       0.00000000 </v>
     <v>       0.00000000       9.57460000       0.00000000 </v>
     <v>       0.00000000       0.00000000      11.18240000 </v>
    </varray>
    <i name="volume">   1196.84853820 </i>
    <varray name="rec_basis" >
     <v>       0.08945744       0.00000000       0.00000000 </v>
     <v>       0.00000000       0.10444301       0.00000000 </v>
     <v>       0.00000000       0.00000000       0.08942624 </v>
    </varray>
   </crystal>
   <varray name="positions" >
    <v>       0.37539000       0.00017000       0.43687000 </v>
    <v>       0.12461000       0.99984000       0.18687000 </v>
    <v>       0.87539000       0.00017000       0.43687000 </v>
    <v>       0.87461000       0.00017000       0.18687000 </v>
    <v>       0.12539000       0.99984000       0.93687000 </v>
    <v>       0.37539000       0.00017000       0.93687000 </v>
    <v>       0.12461000       0.99984000       0.68687000 </v>
    <v>       0.37461000       0.00017000       0.68687000 </v>
    <v>       0.62539000       0.99984000       0.93687000 </v>
    <v>       0.87539000       0.00017000       0.93687000 </v>
    <v>       0.62461000       0.99984000       0.68687000 </v>
    <v>       0.87461000       0.00017000       0.68687000 </v>
    <v>       0.37461000       0.00017000       0.18687000 </v>
    <v>       0.62539000       0.99984000       0.43687000 </v>
    <v>       0.00013000       0.29519000       0.06281000 </v>
    <v>       0.25013000       0.70481000       0.06281000 </v>
    <v>       0.24987000       0.29519000       0.31282000 </v>
    <v>       0.49987000       0.70481000       0.31282000 </v>
    <v>       0.50013000       0.29519000       0.06281000 </v>
    <v>       0.75013000       0.70481000       0.06281000 </v>
    <v>       0.74987000       0.29519000       0.31282000 </v>
    <v>       0.99987000       0.70481000       0.31282000 </v>
    <v>       0.00013000       0.29519000       0.56281000 </v>
    <v>       0.25013000       0.70481000       0.56281000 </v>
    <v>       0.24987000       0.29519000       0.81282000 </v>
    <v>       0.49987000       0.70481000       0.81282000 </v>
    <v>       0.50013000       0.29519000       0.56281000 </v>
    <v>       0.75013000       0.70481000       0.56281000 </v>
    <v>       0.74987000       0.29519000       0.81282000 </v>
    <v>       0.99987000       0.70481000       0.81282000 </v>
    <v>       0.25005000       0.32677000       0.06286000 </v>
    <v>       0.00005000       0.67323000       0.06286000 </v>
    <v>       0.49995000       0.32677000       0.31286000 </v>
    <v>       0.24995000       0.67323000       0.31286000 </v>
    <v>       0.75005000       0.32677000       0.06286000 </v>
    <v>       0.50005000       0.67323000       0.06286000 </v>
    <v>       0.99995000       0.32677000       0.31286000 </v>
    <v>       0.74995000       0.67323000       0.31286000 </v>
    <v>       0.25005000       0.32677000       0.56286000 </v>
    <v>       0.00005000       0.67323000       0.56286000 </v>
    <v>       0.49995000       0.32677000       0.81286000 </v>
    <v>       0.24995000       0.67323000       0.81286000 </v>
    <v>       0.75005000       0.32677000       0.56286000 </v>
    <v>       0.50005000       0.67323000       0.56286000 </v>
    <v>       0.99995000       0.32677000       0.81286000 </v>
    <v>       0.74995000       0.67323000       0.81286000 </v>
    <v>       0.49987000       0.07798000       0.06246000 </v>
    <v>       0.24987000       0.92202000       0.06246000 </v>
    <v>       0.25013000       0.07798000       0.31246000 </v>
    <v>       0.00013000       0.92202000       0.31246000 </v>
    <v>       0.99987000       0.07798000       0.06246000 </v>
    <v>       0.74987000       0.92202000       0.06246000 </v>
    <v>       0.75013000       0.07798000       0.31246000 </v>
    <v>       0.50013000       0.92202000       0.31246000 </v>
    <v>       0.49987000       0.07798000       0.56246000 </v>
    <v>       0.24987000       0.92202000       0.56246000 </v>
    <v>       0.25013000       0.07798000       0.81246000 </v>
    <v>       0.00013000       0.92202000       0.81246000 </v>
    <v>       0.99987000       0.07798000       0.56246000 </v>
    <v>       0.74987000       0.92202000       0.56246000 </v>
    <v>       0.75013000       0.07798000       0.81246000 </v>
    <v>       0.50013000       0.92202000       0.81246000 </v>
   </varray>
  </structure>
  <varray name="forces" >
   <v>      -0.86232105      -0.06954541       0.31632952 </v>
   <v>      -0.51327374      -0.00094871       0.49920711 </v>
   <v>       0.84536039       0.06114664      -0.15431007 </v>
   <v>      -0.21260563      -0.13401366       0.07765733 </v>
   <v>      -0.13269754       0.06476398      -0.08908149 </v>
   <v>       0.12960920       0.06212287      -0.31171830 </v>
   <v>      -0.03193955      -0.00335506      -0.47991477 </v>
   <v>      -0.28485998      -0.13323382      -0.06543211 </v>
   <v>       0.10936285      -0.06838043       0.42164524 </v>
   <v>      -0.13396917      -0.06649813       0.16089513 </v>
   <v>       0.04760544      -0.00259317       0.50754945 </v>
   <v>       0.29759666       0.12609413      -0.06098269 </v>
   <v>       0.55667520       0.22188931       0.05979577 </v>
   <v>       0.23200694       0.11224393      -0.79567137 </v>
   <v>      -0.11616811       0.00684638       0.02406893 </v>
   <v>      -0.25933086      -1.04450037      -0.11404232 </v>
   <v>      -0.45781736       0.03596133       0.29484866 </v>
   <v>       0.12916404      -0.97704978      -0.17715109 </v>
   <v>       0.28915141       0.00009146      -0.04272653 </v>
   <v>       0.05181212       1.01920046       0.07900626 </v>
   <v>       0.23500961       0.01637061      -0.29921374 </v>
   <v>       0.11617063       1.01932314       0.14631668 </v>
   <v>       0.19497319      -1.01630944      -0.14742045 </v>
   <v>      -0.35708345       0.99610092      -0.08918728 </v>
   <v>      -0.13970455       0.00917596      -0.10822828 </v>
   <v>       0.00060646      -0.03723442       0.03681580 </v>
   <v>      -0.19653207       1.06235995       0.16724269 </v>
   <v>       0.34440660      -1.05235676       0.10358609 </v>
   <v>       0.16600153       0.00831101       0.09869305 </v>
   <v>      -0.00300292       0.01212170      -0.04004484 </v>
   <v>       0.10932386       0.14776709       0.04442725 </v>
   <v>       0.19716568      -0.22924904      -0.10480011 </v>
   <v>      -0.00978189       0.05170400       0.10385963 </v>
   <v>       0.30863303      -0.10452001      -0.24036985 </v>
   <v>      -0.05685159       0.16619708      -0.02147986 </v>
   <v>      -0.23955711      -0.08186586       0.10068925 </v>
   <v>      -0.01187222       0.19737162      -0.11550800 </v>
   <v>      -0.28835168      -0.11858667       0.25200720 </v>
   <v>       0.27527266       0.15704522       0.01441058 </v>
   <v>      -0.20344621      -0.18778575       0.11430460 </v>
   <v>       0.00245647       0.14920412      -0.08674040 </v>
   <v>       0.07525293      -0.18704511       0.18452713 </v>
   <v>      -0.30604911       0.13758779      -0.04437092 </v>
   <v>       0.22324556      -0.09856613      -0.11859461 </v>
   <v>       0.00644875       0.21904680       0.10333245 </v>
   <v>      -0.08163534      -0.18789851      -0.18981542 </v>
   <v>      -1.23102287      -0.03887445      -0.06628360 </v>
   <v>       0.55629434       0.78576591       0.46515136 </v>
   <v>       1.25961813      -0.12900749      -1.18565445 </v>
   <v>      -0.60569402      -0.82995775      -0.65074642 </v>
   <v>       0.15784393       0.03179508      -0.07635132 </v>
   <v>       0.54304783      -0.80382888      -0.62155660 </v>
   <v>      -0.10734727       0.00186068       1.26018964 </v>
   <v>      -0.60964317       0.70869929       0.69855485 </v>
   <v>       0.64773445      -0.87362448      -0.57602675 </v>
   <v>       0.82172427      -0.76140777       0.58790227 </v>
   <v>       0.08085060      -0.01983007       0.14932203 </v>
   <v>      -0.00439412      -0.02836273       0.07062578 </v>
   <v>      -0.73605482       0.81576788       0.65345061 </v>
   <v>      -0.71917098       0.81605047      -0.48546047 </v>
   <v>      -0.09196098      -0.01936755      -0.15592172 </v>
   <v>      -0.00628541       0.08581060      -0.08160651 </v>
  </varray>
  <varray name="stress" >
   <v>      -8.45054287      -0.15451586       0.70632213 </v>
   <v>      -0.15451568     -14.51764385       0.21719331 </v>
   <v>       0.70632231       0.21719339      -8.58411414 </v>
  </varray>
  <energy>
   <i name="e_fr_energy">   -317.14604368 </i>
   <i name="e_wo_entrp">   -317.14604368 </i>
   <i name="e_0_energy">      0.00000000 </i>
  </energy>
  <time name="totalsc"> 1547.25 1550.12</time>
  <eigenvalues>
   <array>
    <dimension dim="1">band</dimension>
    <dimension dim="2">kpoint</dimension>
    <dimension dim="3">spin</dimension>
    <field>eigene</field>
    <field>occ</field>
    <set>
     <set comment="spin 1">
      <set comment="kpoint 1">
       <r>  -40.2061    1.0000 </r>
       <r>  -40.0551    1.0000 </r>
       <r>  -40.0306    1.0000 </r>
       <r>  -39.8957    1.0000 </r>
       <r>  -39.8278    1.0000 </r>
       <r>  -39.7552    1.0000 </r>
       <r>  -39.7401    1.0000 </r>
       <r>  -39.6206    1.0000 </r>
       <r>  -39.5954    1.0000 </r>
       <r>  -39.5689    1.0000 </r>
       <r>  -39.3821    1.0000 </r>
       <r>  -39.3810    1.0000 </r>
       <r>  -18.9091    1.0000 </r>
       <r>  -18.8919    1.0000 </r>
       <r>  -18.8382    1.0000 </r>
       <r>  -18.8312    1.0000 </r>
       <r>  -18.8254    1.0000 </r>
       <r>  -18.8220    1.0000 </r>
       <r>  -18.8209    1.0000 </r>
       <r>  -18.8110    1.0000 </r>
       <r>  -18.7553    1.0000 </r>
       <r>  -18.7541    1.0000 </r>
       <r>  -18.7476    1.0000 </r>
       <r>  -18.7462    1.0000 </r>
       <r>  -18.7348    1.0000 </r>
       <r>  -18.7219    1.0000 </r>
       <r>  -18.7216    1.0000 </r>
       <r>  -18.6998    1.0000 </r>
       <r>  -18.6952    1.0000 </r>
       <r>  -18.6852    1.0000 </r>
       <r>  -18.6787    1.0000 </r>
       <r>  -18.6750    1.0000 </r>
       <r>  -18.6626    1.0000 </r>
       <r>  -18.6570    1.0000 </r>
       <r>  -18.6464    1.0000 </r>
       <r>  -18.6446    1.0000 </r>
       <r>  -18.6406    1.0000 </r>
       <r>  -18.6390    1.0000 </r>
       <r>  -18.6386    1.0000 </r>
       <r>  -18.6322    1.0000 </r>
       <r>  -18.6292    1.0000 </r>
       <r>  -18.6271    1.0000 </r>
       <r>  -18.6220    1.0000 </r>
       <r>  -18.6189    1.0000 </r>
       <r>  -18.6153    1.0000 </r>
       <r>  -18.6136    1.0000 </r>
       <r>  -18.6081    1.0000 </r>
       <r>  -18.6059    1.0000 </r>
       <r>  -18.5981    1.0000 </r>
       <r>  -18.5954    1.0000 </r>
       <r>  -18.5417    1.0000 </r>
       <r>  -18.5386    1.0000 </r>
       <r>  -18.5313    1.0000 </r>
       <r>  -18.5285    1.0000 </r>
       <r>  -18.5214    1.0000 </r>
       <r>  -18.5204    1.0000 </r>
       <r>  -18.5176    1.0000 </r>
       <r>  -18.5154    1.0000 </r>
       <r>  -18.5070    1.0000 </r>
       <r>  -18.5048    1.0000 </r>
       <r>  -18.4810    1.0000 </r>
       <r>  -18.4786    1.0000 </r>
       <r>  -18.4753    1.0000 </r>
       <r>  -18.4610    1.0000 </r>
       <r>  -18.4533    1.0000 </r>
       <r>  -18.4520    1.0000 </r>
       <r>  -18.4506    1.0000 </r>
       <r>  -18.4500    1.0000 </r>
       <r>  -18.4368    1.0000 </r>
       <r>  -18.4279    1.0000 </r>
       <r>  -18.4242    1.0000 </r>
       <r>  -18.4156    1.0000 </r>
       <r>  -18.3794    1.0000 </r>
       <r>  -18.3759    1.0000 </r>
       <r>  -18.3685    1.0000 </r>
       <r>  -18.3669    1.0000 </r>
       <r>  -18.3629    1.0000 </r>
       <r>  -18.3621    1.0000 </r>
       <r>  -18.3560    1.0000 </r>
       <r>  -18.3551    1.0000 </r>
       <r>  -18.3466    1.0000 </r>
       <r>  -18.3375    1.0000 </r>
       <r>  -18.2849    1.0000 </r>
       <r>  -18.2713    1.0000 </r>
       <r>  -18.2311    1.0000 </r>
       <r>  -18.2223    1.0000 </r>
       <r>  -18.2205    1.0000 </r>
       <r>  -18.2119    1.0000 </r>
       <r>  -18.1692    1.0000 </r>
       <r>  -18.1567    1.0000 </r>
       <r>  -18.1561    1.0000 </r>
       <r>  -18.1425    1.0000 </r>
       <r>  -13.5596    1.0000 </r>
       <r>  -13.4468    1.0000 </r>
       <r>  -13.3792    1.0000 </r>
       <r>  -13.3704    1.0000 </r>
       <r>  -12.8148    1.0000 </r>
       <r>  -12.7564    1.0000 </r>
       <r>  -12.7257    1.0000 </r>
       <r>  -12.7104    1.0000 </r>
       <r>  -12.6442    1.0000 </r>
       <r>  -12.6313    1.0000 </r>
       <r>  -12.5503    1.0000 </r>
       <r>  -12.4996    1.0000 </r>
       <r>  -12.0226    1.0000 </r>
       <r>  -11.9827    1.0000 </r>
       <r>  -11.9306    1.0000 </r>
       <r>  -11.8868    1.0000 </r>
       <r>   -9.2955    1.0000 </r>
       <r>   -9.0019    1.0000 </r>
       <r>   -8.5313    1.0000 </r>
       <r>   -8.4885    1.0000 </r>
       <r>   -8.4288    1.0000 </r>
       <r>   -8.3884    1.0000 </r>
       <r>   -8.3086    1.0000 </r>
       <r>   -8.2652    1.0000 </r>
       <r>   -8.2037    1.0000 </r>
       <r>   -8.1671    1.0000 </r>
       <r>   -8.0040    1.0000 </r>
       <r>   -7.9894    1.0000 </r>
       <r>   -7.9670    1.0000 </r>
       <r>   -7.9516    1.0000 </r>
       <r>   -7.3263    1.0000 </r>
       <r>   -7.3175    1.0000 </r>
       <r>   -6.3441    1.0000 </r>
       <r>   -6.3421    1.0000 </r>
       <r>   -6.3208    1.0000 </r>
       <r>   -6.3200    1.0000 </r>
       <r>   -5.4962    1.0000 </r>
       <r>   -5.4424    1.0000 </r>
       <r>   -5.4330    1.0000 </r>
       <r>   -5.3167    1.0000 </r>
       <r>   -5.2713    1.0000 </r>
       <r>   -5.2300    1.0000 </r>
       <r>   -5.1925    1.0000 </r>
       <r>   -5.1185    1.0000 </r>
       <r>   -5.0335    1.0000 </r>
       <r>   -4.9804    1.0000 </r>
       <r>   -3.7725    1.0000 </r>
       <r>   -3.6167    1.0000 </r>
       <r>   -1.4002    1.0000 </r>
       <r>   -1.3056    1.0000 </r>
       <r>   -1.0505    1.0000 </r>
       <r>   -1.0001    1.0000 </r>
       <r>   -0.5448    1.0000 </r>
       <r>   -0.5154    1.0000 </r>
       <r>   -0.4453    1.0000 </r>
       <r>   -0.4128    1.0000 </r>
       <r>   -0.1686    1.0000 </r>
       <r>   -0.1569    1.0000 </r>
       <r>   -0.1255    1.0000 </r>
       <r>   -0.0925    1.0000 </r>
       <r>    0.0222    1.0000 </r>
       <r>    0.1439    1.0000 </r>
       <r>    0.3224    1.0000 </r>
       <r>    0.3324    1.0000 </r>
       <r>    0.4004    1.0000 </r>
       <r>    0.4546    1.0000 </r>
       <r>    0.5370    1.0000 </r>
       <r>    0.5840    1.0000 </r>
       <r>    0.7100    1.0000 </r>
       <r>    0.7272    1.0000 </r>
       <r>    0.7704    1.0000 </r>
       <r>    0.8073    1.0000 </r>
       <r>    0.8442    1.0000 </r>
       <r>    0.8889    1.0000 </r>
       <r>    0.9451    1.0000 </r>
       <r>    0.9891    1.0000 </r>
       <r>    1.0181    1.0000 </r>
       <r>    1.0783    1.0000 </r>
       <r>    1.1156    1.0000 </r>
       <r>    1.1498    1.0000 </r>
       <r>    1.1708    1.0000 </r>
       <r>    1.2536    1.0000 </r>
       <r>    1.2757    1.0000 </r>
       <r>    1.2865    1.0000 </r>
       <r>    1.3332    1.0000 </r>
       <r>    1.3747    1.0000 </r>
       <r>    1.4307    1.0000 </r>
       <r>    1.4728    1.0000 </r>
       <r>    1.4899    1.0000 </r>
       <r>    1.5795    1.0000 </r>
       <r>    1.6249    1.0000 </r>
       <r>    1.6595    1.0000 </r>
       <r>    1.6953    1.0000 </r>
       <r>    1.7793    1.0000 </r>
       <r>    1.8147    1.0000 </r>
       <r>    1.8655    1.0000 </r>
       <r>    1.8970    1.0000 </r>
       <r>    1.9488    1.0000 </r>
       <r>    1.9919    1.0000 </r>
       <r>    2.0321    1.0000 </r>
       <r>    2.1297    1.0000 </r>
       <r>    2.2201    1.0000 </r>
       <r>    2.2680    1.0000 </r>
       <r>    2.3018    1.0000 </r>
       <r>    2.3874    1.0000 </r>
       <r>    2.4294    1.0000 </r>
       <r>    2.5448    1.0000 </r>
       <r>    2.5825    1.0000 </r>
       <r>    2.5995    1.0000 </r>
       <r>    2.6129    1.0000 </r>
       <r>    2.6165    1.0000 </r>
       <r>    2.6283    1.0000 </r>
       <r>    2.6411    1.0000 </r>
       <r>    2.6517    1.0000 </r>
       <r>    2.7015    1.0000 </r>
       <r>    2.7503    1.0000 </r>
       <r>    2.7516    1.0000 </r>
       <r>    2.7753    1.0000 </r>
       <r>    2.8129    1.0000 </r>
       <r>    2.8490    1.0000 </r>
       <r>    2.9352    1.0000 </r>
       <r>    2.9702    1.0000 </r>
       <r>    2.9764    1.0000 </r>
       <r>    3.0293    1.0000 </r>
       <r>    3.0666    1.0000 </r>
       <r>    3.1089    1.0000 </r>
       <r>    3.1289    1.0000 </r>
       <r>    3.1628    1.0000 </r>
       <r>    3.1762    1.0000 </r>
       <r>    3.1862    1.0000 </r>
       <r>    3.2317    1.0000 </r>
       <r>    3.2487    1.0000 </r>
       <r>    3.2880    1.0000 </r>
       <r>    3.3040    1.0000 </r>
       <r>    3.3435    1.0000 </r>
       <r>    3.3898    1.0000 </r>
       <r>    3.4221    1.0000 </r>
       <r>    3.5134    1.0000 </r>
       <r>    3.5262    1.0000 </r>
       <r>    3.6368    1.0000 </r>
       <r>    4.2205    1.0000 </r>
       <r>    4.2442    1.0000 </r>
       <r>    4.2505    1.0000 </r>
       <r>    4.2609    1.0000 </r>
       <r>    5.1127    0.0000 </r>
       <r>    5.1346    0.0000 </r>
       <r>    5.1598    0.0000 </r>
       <r>    5.1812    0.0000 </r>
       <r>    5.7830    0.0000 </r>
       <r>    5.8045    0.0000 </r>
       <r>    5.8192    0.0000 </r>
       <r>    5.8382    0.0000 </r>
       <r>    6.1143    0.0000 </r>
       <r>    6.1442    0.0000 </r>
       <r>    6.1711    0.0000 </r>
       <r>    6.1777    0.0000 </r>
       <r>    6.2622    0.0000 </r>
       <r>    6.2732    0.0000 </r>
       <r>    6.2995    0.0000 </r>
       <r>    6.3127    0.0000 </r>
       <r>    7.1325    0.0000 </r>
       <r>    7.1850    0.0000 </r>
       <r>    7.2943    0.0000 </r>
       <r>    7.3167    0.0000 </r>
       <r>    7.7191    0.0000 </r>
       <r>    7.8427    0.0000 </r>
       <r>    7.9178    0.0000 </r>
       <r>    7.9843    0.0000 </r>
       <r>    8.0153    0.0000 </r>
       <r>    8.1414    0.0000 </r>
       <r>    8.2297    0.0000 </r>
       <r>    8.3519    0.0000 </r>
       <r>    8.4927    0.0000 </r>
       <r>    8.6607    0.0000 </r>
       <r>    8.7465    0.0000 </r>
       <r>    8.8043    0.0000 </r>
       <r>    8.8244    0.0000 </r>
       <r>    8.9059    0.0000 </r>
       <r>    8.9611    0.0000 </r>
       <r>    8.9623    0.0000 </r>
       <r>    9.0766    0.0000 </r>
       <r>    9.1062    0.0000 </r>
       <r>    9.1179    0.0000 </r>
       <r>    9.1607    0.0000 </r>
       <r>    9.1671    0.0000 </r>
       <r>    9.2090    0.0000 </r>
       <r>    9.2283    0.0000 </r>
       <r>    9.2818    0.0000 </r>
       <r>    9.4379    0.0000 </r>
       <r>    9.5433    0.0000 </r>
       <r>    9.5468    0.0000 </r>
       <r>    9.6367    0.0000 </r>
       <r>    9.7028    0.0000 </r>
       <r>    9.7092    0.0000 </r>
       <r>    9.7261    0.0000 </r>
       <r>    9.8651    0.0000 </r>
       <r>   10.1624    0.0000 </r>
       <r>   10.2486    0.0000 </r>
       <r>   10.2714    0.0000 </r>
       <r>   10.2878    0.0000 </r>
       <r>   10.3573    0.0000 </r>
       <r>   10.5200    0.0000 </r>
       <r>   10.6171    0.0000 </r>
       <r>   10.6300    0.0000 </r>
       <r>   10.6622    0.0000 </r>
       <r>   10.8580    0.0000 </r>
       <r>   11.0739    0.0000 </r>
       <r>   11.2061    0.0000 </r>
       <r>   11.4075    0.0000 </r>
       <r>   11.4494    0.0000 </r>
       <r>   11.5353    0.0000 </r>
       <r>   11.6597    0.0000 </r>
       <r>   11.7476    0.0000 </r>
       <r>   11.8035    0.0000 </r>
       <r>   11.8435    0.0000 </r>
       <r>   12.0100    0.0000 </r>
      </set>
      <set comment="kpoint 2">
       <r>  -40.2061    1.0000 </r>
       <r>  -40.0551    1.0000 </r>
       <r>  -40.0306    1.0000 </r>
       <r>  -39.8957    1.0000 </r>
       <r>  -39.8278    1.0000 </r>
       <r>  -39.7552    1.0000 </r>
       <r>  -39.7401    1.0000 </r>
       <r>  -39.6206    1.0000 </r>
       <r>  -39.5954    1.0000 </r>
       <r>  -39.5689    1.0000 </r>
       <r>  -39.3821    1.0000 </r>
       <r>  -39.3810    1.0000 </r>
       <r>  -18.9091    1.0000 </r>
       <r>  -18.8919    1.0000 </r>
       <r>  -18.8381    1.0000 </r>
       <r>  -18.8312    1.0000 </r>
       <r>  -18.8252    1.0000 </r>
       <r>  -18.8219    1.0000 </r>
       <r>  -18.8212    1.0000 </r>
       <r>  -18.8109    1.0000 </r>
       <r>  -18.7554    1.0000 </r>
       <r>  -18.7539    1.0000 </r>
       <r>  -18.7479    1.0000 </r>
       <r>  -18.7460    1.0000 </r>
       <r>  -18.7348    1.0000 </r>
       <r>  -18.7219    1.0000 </r>
       <r>  -18.7216    1.0000 </r>
       <r>  -18.6998    1.0000 </r>
       <r>  -18.6950    1.0000 </r>
       <r>  -18.6851    1.0000 </r>
       <r>  -18.6785    1.0000 </r>
       <r>  -18.6750    1.0000 </r>
       <r>  -18.6626    1.0000 </r>
       <r>  -18.6569    1.0000 </r>
       <r>  -18.6464    1.0000 </r>
       <r>  -18.6446    1.0000 </r>
       <r>  -18.6406    1.0000 </r>
       <r>  -18.6393    1.0000 </r>
       <r>  -18.6387    1.0000 </r>
       <r>  -18.6319    1.0000 </r>
       <r>  -18.6295    1.0000 </r>
       <r>  -18.6278    1.0000 </r>
       <r>  -18.6222    1.0000 </r>
       <r>  -18.6182    1.0000 </r>
       <r>  -18.6156    1.0000 </r>
       <r>  -18.6140    1.0000 </r>
       <r>  -18.6084    1.0000 </r>
       <r>  -18.6046    1.0000 </r>
       <r>  -18.5980    1.0000 </r>
       <r>  -18.5957    1.0000 </r>
       <r>  -18.5417    1.0000 </r>
       <r>  -18.5386    1.0000 </r>
       <r>  -18.5314    1.0000 </r>
       <r>  -18.5286    1.0000 </r>
       <r>  -18.5214    1.0000 </r>
       <r>  -18.5204    1.0000 </r>
       <r>  -18.5176    1.0000 </r>
       <r>  -18.5154    1.0000 </r>
       <r>  -18.5070    1.0000 </r>
       <r>  -18.5048    1.0000 </r>
       <r>  -18.4810    1.0000 </r>
       <r>  -18.4786    1.0000 </r>
       <r>  -18.4753    1.0000 </r>
       <r>  -18.4610    1.0000 </r>
       <r>  -18.4533    1.0000 </r>
       <r>  -18.4520    1.0000 </r>
       <r>  -18.4506    1.0000 </r>
       <r>  -18.4500    1.0000 </r>
       <r>  -18.4368    1.0000 </r>
       <r>  -18.4279    1.0000 </r>
       <r>  -18.4243    1.0000 </r>
       <r>  -18.4155    1.0000 </r>
       <r>  -18.3794    1.0000 </r>
       <r>  -18.3759    1.0000 </r>
       <r>  -18.3685    1.0000 </r>
       <r>  -18.3669    1.0000 </r>
       <r>  -18.3629    1.0000 </r>
       <r>  -18.3621    1.0000 </r>
       <r>  -18.3560    1.0000 </r>
       <r>  -18.3552    1.0000 </r>
       <r>  -18.3464    1.0000 </r>
       <r>  -18.3376    1.0000 </r>
       <r>  -18.2849    1.0000 </r>
       <r>  -18.2713    1.0000 </r>
       <r>  -18.2311    1.0000 </r>
       <r>  -18.2223    1.0000 </r>
       <r>  -18.2205    1.0000 </r>
       <r>  -18.2119    1.0000 </r>
       <r>  -18.1692    1.0000 </r>
       <r>  -18.1567    1.0000 </r>
       <r>  -18.1561    1.0000 </r>
       <r>  -18.1425    1.0000 </r>
       <r>  -13.5593    1.0000 </r>
       <r>  -13.4468    1.0000 </r>
       <r>  -13.3797    1.0000 </r>
       <r>  -13.3700    1.0000 </r>
       <r>  -12.8124    1.0000 </r>
       <r>  -12.7578    1.0000 </r>
       <r>  -12.7279    1.0000 </r>
       <r>  -12.7043    1.0000 </r>
       <r>  -12.6636    1.0000 </r>
       <r>  -12.6164    1.0000 </r>
       <r>  -12.5510    1.0000 </r>
       <r>  -12.4994    1.0000 </r>
       <r>  -12.0225    1.0000 </r>
       <r>  -11.9827    1.0000 </r>
       <r>  -11.9306    1.0000 </r>
       <r>  -11.8868    1.0000 </r>
       <r>   -9.1544    1.0000 </r>
       <r>   -8.9940    1.0000 </r>
       <r>   -8.8800    1.0000 </r>
       <r>   -8.7176    1.0000 </r>
       <r>   -8.3683    1.0000 </r>
       <r>   -8.3623    1.0000 </r>
       <r>   -8.2309    1.0000 </r>
       <r>   -8.2252    1.0000 </r>
       <r>   -8.1656    1.0000 </r>
       <r>   -8.1608    1.0000 </r>
       <r>   -8.0281    1.0000 </r>
       <r>   -8.0225    1.0000 </r>
       <r>   -7.7173    1.0000 </r>
       <r>   -7.6047    1.0000 </r>
       <r>   -7.6002    1.0000 </r>
       <r>   -7.4868    1.0000 </r>
       <r>   -6.0010    1.0000 </r>
       <r>   -5.9845    1.0000 </r>
       <r>   -5.8828    1.0000 </r>
       <r>   -5.8349    1.0000 </r>
       <r>   -5.8105    1.0000 </r>
       <r>   -5.7701    1.0000 </r>
       <r>   -5.6870    1.0000 </r>
       <r>   -5.6505    1.0000 </r>
       <r>   -5.5997    1.0000 </r>
       <r>   -5.5463    1.0000 </r>
       <r>   -5.4864    1.0000 </r>
       <r>   -5.3828    1.0000 </r>
       <r>   -4.4706    1.0000 </r>
       <r>   -4.3079    1.0000 </r>
       <r>   -4.3066    1.0000 </r>
       <r>   -4.1318    1.0000 </r>
       <r>   -1.2232    1.0000 </r>
       <r>   -1.0006    1.0000 </r>
       <r>   -0.8706    1.0000 </r>
       <r>   -0.6910    1.0000 </r>
       <r>   -0.4726    1.0000 </r>
       <r>   -0.2387    1.0000 </r>
       <r>   -0.0226    1.0000 </r>
       <r>   -0.0014    1.0000 </r>
       <r>    0.1071    1.0000 </r>
       <r>    0.1160    1.0000 </r>
       <r>    0.1645    1.0000 </r>
       <r>    0.1874    1.0000 </r>
       <r>    0.2074    1.0000 </r>
       <r>    0.2546    1.0000 </r>
       <r>    0.2838    1.0000 </r>
       <r>    0.3509    1.0000 </r>
       <r>    0.4610    1.0000 </r>
       <r>    0.4967    1.0000 </r>
       <r>    0.5323    1.0000 </r>
       <r>    0.5542    1.0000 </r>
       <r>    0.5745    1.0000 </r>
       <r>    0.6177    1.0000 </r>
       <r>    0.6335    1.0000 </r>
       <r>    0.7058    1.0000 </r>
       <r>    0.7236    1.0000 </r>
       <r>    0.8312    1.0000 </r>
       <r>    0.9657    1.0000 </r>
       <r>    1.0062    1.0000 </r>
       <r>    1.0223    1.0000 </r>
       <r>    1.1151    1.0000 </r>
       <r>    1.1580    1.0000 </r>
       <r>    1.1906    1.0000 </r>
       <r>    1.2095    1.0000 </r>
       <r>    1.2255    1.0000 </r>
       <r>    1.2537    1.0000 </r>
       <r>    1.3194    1.0000 </r>
       <r>    1.3586    1.0000 </r>
       <r>    1.3676    1.0000 </r>
       <r>    1.3931    1.0000 </r>
       <r>    1.4491    1.0000 </r>
       <r>    1.4624    1.0000 </r>
       <r>    1.5366    1.0000 </r>
       <r>    1.5471    1.0000 </r>
       <r>    1.5901    1.0000 </r>
       <r>    1.6449    1.0000 </r>
       <r>    1.6766    1.0000 </r>
       <r>    1.7500    1.0000 </r>
       <r>    1.8307    1.0000 </r>
       <r>    1.8490    1.0000 </r>
       <r>    1.8802    1.0000 </r>
       <r>    1.9146    1.0000 </r>
       <r>    1.9399    1.0000 </r>
       <r>    2.0349    1.0000 </r>
       <r>    2.0448    1.0000 </r>
       <r>    2.0977    1.0000 </r>
       <r>    2.1341    1.0000 </r>
       <r>    2.1720    1.0000 </r>
       <r>    2.2172    1.0000 </r>
       <r>    2.2721    1.0000 </r>
       <r>    2.3157    1.0000 </r>
       <r>    2.3409    1.0000 </r>
       <r>    2.4057    1.0000 </r>
       <r>    2.4436    1.0000 </r>
       <r>    2.4883    1.0000 </r>
       <r>    2.5174    1.0000 </r>
       <r>    2.5483    1.0000 </r>
       <r>    2.5874    1.0000 </r>
       <r>    2.6046    1.0000 </r>
       <r>    2.6715    1.0000 </r>
       <r>    2.6872    1.0000 </r>
       <r>    2.7478    1.0000 </r>
       <r>    2.7747    1.0000 </r>
       <r>    2.7816    1.0000 </r>
       <r>    2.8222    1.0000 </r>
       <r>    2.8626    1.0000 </r>
       <r>    2.9266    1.0000 </r>
       <r>    2.9642    1.0000 </r>
       <r>    2.9775    1.0000 </r>
       <r>    3.0392    1.0000 </r>
       <r>    3.0746    1.0000 </r>
       <r>    3.1319    1.0000 </r>
       <r>    3.1497    1.0000 </r>
       <r>    3.1658    1.0000 </r>
       <r>    3.1948    1.0000 </r>
       <r>    3.2814    1.0000 </r>
       <r>    3.2902    1.0000 </r>
       <r>    3.3737    1.0000 </r>
       <r>    3.4090    1.0000 </r>
       <r>    3.4992    1.0000 </r>
       <r>    3.5260    1.0000 </r>
       <r>    3.5636    1.0000 </r>
       <r>    3.5863    1.0000 </r>
       <r>    3.6491    1.0000 </r>
       <r>    3.6712    1.0000 </r>
       <r>    3.7007    1.0000 </r>
       <r>    3.7752    1.0000 </r>
       <r>    5.5879    0.0000 </r>
       <r>    5.6000    0.0000 </r>
       <r>    5.7384    0.0000 </r>
       <r>    5.7568    0.0000 </r>
       <r>    5.7763    0.0000 </r>
       <r>    5.7935    0.0000 </r>
       <r>    5.9317    0.0000 </r>
       <r>    5.9451    0.0000 </r>
       <r>    7.2075    0.0000 </r>
       <r>    7.2421    0.0000 </r>
       <r>    7.2955    0.0000 </r>
       <r>    7.3711    0.0000 </r>
       <r>    7.3933    0.0000 </r>
       <r>    7.4026    0.0000 </r>
       <r>    7.4554    0.0000 </r>
       <r>    7.4974    0.0000 </r>
       <r>    7.5304    0.0000 </r>
       <r>    7.5362    0.0000 </r>
       <r>    7.6200    0.0000 </r>
       <r>    7.6340    0.0000 </r>
       <r>    7.8224    0.0000 </r>
       <r>    7.8343    0.0000 </r>
       <r>    7.8629    0.0000 </r>
       <r>    7.8831    0.0000 </r>
       <r>    7.9214    0.0000 </r>
       <r>    7.9582    0.0000 </r>
       <r>    7.9886    0.0000 </r>
       <r>    7.9891    0.0000 </r>
       <r>    8.0408    0.0000 </r>
       <r>    8.0590    0.0000 </r>
       <r>    8.0987    0.0000 </r>
       <r>    8.2171    0.0000 </r>
       <r>    8.2752    0.0000 </r>
       <r>    8.4333    0.0000 </r>
       <r>    8.4854    0.0000 </r>
       <r>    8.6719    0.0000 </r>
       <r>    8.6955    0.0000 </r>
       <r>    8.7673    0.0000 </r>
       <r>    8.7719    0.0000 </r>
       <r>    8.7858    0.0000 </r>
       <r>    8.8062    0.0000 </r>
       <r>    8.9063    0.0000 </r>
       <r>    8.9672    0.0000 </r>
       <r>    8.9688    0.0000 </r>
       <r>    9.1224    0.0000 </r>
       <r>    9.2912    0.0000 </r>
       <r>    9.3884    0.0000 </r>
       <r>    9.4115    0.0000 </r>
       <r>    9.6256    0.0000 </r>
       <r>    9.7544    0.0000 </r>
       <r>   10.2377    0.0000 </r>
       <r>   10.3579    0.0000 </r>
       <r>   10.4002    0.0000 </r>
       <r>   10.5098    0.0000 </r>
       <r>   10.5273    0.0000 </r>
       <r>   10.5661    0.0000 </r>
       <r>   10.5992    0.0000 </r>
       <r>   10.7457    0.0000 </r>
       <r>   10.8144    0.0000 </r>
       <r>   10.8467    0.0000 </r>
       <r>   10.8656    0.0000 </r>
       <r>   10.9372    0.0000 </r>
       <r>   10.9868    0.0000 </r>
       <r>   11.0444    0.0000 </r>
       <r>   11.2514    0.0000 </r>
       <r>   11.2949    0.0000 </r>
       <r>   11.3202    0.0000 </r>
       <r>   11.3516    0.0000 </r>
       <r>   11.4469    0.0000 </r>
       <r>   11.4718    0.0000 </r>
       <r>   11.5178    0.0000 </r>
       <r>   11.5578    0.0000 </r>
      </set>
      <set comment="kpoint 3">
       <r>  -40.2061    1.0000 </r>
       <r>  -40.0551    1.0000 </r>
       <r>  -40.0306    1.0000 </r>
       <r>  -39.8957    1.0000 </r>
       <r>  -39.8278    1.0000 </r>
       <r>  -39.7552    1.0000 </r>
       <r>  -39.7400    1.0000 </r>
       <r>  -39.6206    1.0000 </r>
       <r>  -39.5954    1.0000 </r>
       <r>  -39.5689    1.0000 </r>
       <r>  -39.3821    1.0000 </r>
       <r>  -39.3810    1.0000 </r>
       <r>  -18.9091    1.0000 </r>
       <r>  -18.8919    1.0000 </r>
       <r>  -18.8381    1.0000 </r>
       <r>  -18.8312    1.0000 </r>
       <r>  -18.8254    1.0000 </r>
       <r>  -18.8220    1.0000 </r>
       <r>  -18.8209    1.0000 </r>
       <r>  -18.8110    1.0000 </r>
       <r>  -18.7552    1.0000 </r>
       <r>  -18.7541    1.0000 </r>
       <r>  -18.7476    1.0000 </r>
       <r>  -18.7462    1.0000 </r>
       <r>  -18.7348    1.0000 </r>
       <r>  -18.7219    1.0000 </r>
       <r>  -18.7216    1.0000 </r>
       <r>  -18.6998    1.0000 </r>
       <r>  -18.6952    1.0000 </r>
       <r>  -18.6852    1.0000 </r>
       <r>  -18.6787    1.0000 </r>
       <r>  -18.6749    1.0000 </r>
       <r>  -18.6626    1.0000 </r>
       <r>  -18.6570    1.0000 </r>
       <r>  -18.6464    1.0000 </r>
       <r>  -18.6446    1.0000 </r>
       <r>  -18.6406    1.0000 </r>
       <r>  -18.6390    1.0000 </r>
       <r>  -18.6386    1.0000 </r>
       <r>  -18.6321    1.0000 </r>
       <r>  -18.6292    1.0000 </r>
       <r>  -18.6271    1.0000 </r>
       <r>  -18.6220    1.0000 </r>
       <r>  -18.6189    1.0000 </r>
       <r>  -18.6153    1.0000 </r>
       <r>  -18.6136    1.0000 </r>
       <r>  -18.6081    1.0000 </r>
       <r>  -18.6059    1.0000 </r>
       <r>  -18.5981    1.0000 </r>
       <r>  -18.5954    1.0000 </r>
       <r>  -18.5417    1.0000 </r>
       <r>  -18.5386    1.0000 </r>
       <r>  -18.5313    1.0000 </r>
       <r>  -18.5285    1.0000 </r>
       <r>  -18.5214    1.0000 </r>
       <r>  -18.5204    1.0000 </r>
       <r>  -18.5176    1.0000 </r>
       <r>  -18.5154    1.0000 </r>
       <r>  -18.5070    1.0000 </r>
       <r>  -18.5048    1.0000 </r>
       <r>  -18.4810    1.0000 </r>
       <r>  -18.4786    1.0000 </r>
       <r>  -18.4753    1.0000 </r>
       <r>  -18.4610    1.0000 </r>
       <r>  -18.4533    1.0000 </r>
       <r>  -18.4520    1.0000 </r>
       <r>  -18.4506    1.0000 </r>
       <r>  -18.4500    1.0000 </r>
       <r>  -18.4368    1.0000 </r>
       <r>  -18.4279    1.0000 </r>
       <r>  -18.4242    1.0000 </r>
       <r>  -18.4156    1.0000 </r>
       <r>  -18.3794    1.0000 </r>
       <r>  -18.3759    1.0000 </r>
       <r>  -18.3685    1.0000 </r>
       <r>  -18.3669    1.0000 </r>
       <r>  -18.3629    1.0000 </r>
       <r>  -18.3621    1.0000 </r>
       <r>  -18.3560    1.0000 </r>
       <r>  -18.3551    1.0000 </r>
       <r>  -18.3466    1.0000 </r>
       <r>  -18.3375    1.0000 </r>
       <r>  -18.2850    1.0000 </r>
       <r>  -18.2712    1.0000 </r>
       <r>  -18.2311    1.0000 </r>
       <r>  -18.2223    1.0000 </r>
       <r>  -18.2205    1.0000 </r>
       <r>  -18.2119    1.0000 </r>
       <r>  -18.1692    1.0000 </r>
       <r>  -18.1567    1.0000 </r>
       <r>  -18.1561    1.0000 </r>
       <r>  -18.1425    1.0000 </r>
       <r>  -13.5593    1.0000 </r>
       <r>  -13.4469    1.0000 </r>
       <r>  -13.3791    1.0000 </r>
       <r>  -13.3704    1.0000 </r>
       <r>  -12.8144    1.0000 </r>
       <r>  -12.7564    1.0000 </r>
       <r>  -12.7258    1.0000 </r>
       <r>  -12.7102    1.0000 </r>
       <r>  -12.6443    1.0000 </r>
       <r>  -12.6312    1.0000 </r>
       <r>  -12.5502    1.0000 </r>
       <r>  -12.5005    1.0000 </r>
       <r>  -12.0221    1.0000 </r>
       <r>  -11.9832    1.0000 </r>
       <r>  -11.9307    1.0000 </r>
       <r>  -11.8880    1.0000 </r>
       <r>   -9.2865    1.0000 </r>
       <r>   -9.0079    1.0000 </r>
       <r>   -8.5507    1.0000 </r>
       <r>   -8.5066    1.0000 </r>
       <r>   -8.4463    1.0000 </r>
       <r>   -8.4060    1.0000 </r>
       <r>   -8.2869    1.0000 </r>
       <r>   -8.2451    1.0000 </r>
       <r>   -8.1842    1.0000 </r>
       <r>   -8.1478    1.0000 </r>
       <r>   -8.0080    1.0000 </r>
       <r>   -7.9934    1.0000 </r>
       <r>   -7.9698    1.0000 </r>
       <r>   -7.9544    1.0000 </r>
       <r>   -7.3291    1.0000 </r>
       <r>   -7.3204    1.0000 </r>
       <r>   -6.3349    1.0000 </r>
       <r>   -6.3318    1.0000 </r>
       <r>   -6.3117    1.0000 </r>
       <r>   -6.3096    1.0000 </r>
       <r>   -5.5120    1.0000 </r>
       <r>   -5.4700    1.0000 </r>
       <r>   -5.4325    1.0000 </r>
       <r>   -5.3526    1.0000 </r>
       <r>   -5.2938    1.0000 </r>
       <r>   -5.2293    1.0000 </r>
       <r>   -5.1559    1.0000 </r>
       <r>   -5.0836    1.0000 </r>
       <r>   -4.9911    1.0000 </r>
       <r>   -4.9382    1.0000 </r>
       <r>   -3.8435    1.0000 </r>
       <r>   -3.5345    1.0000 </r>
       <r>   -1.3084    1.0000 </r>
       <r>   -1.2654    1.0000 </r>
       <r>   -1.1819    1.0000 </r>
       <r>   -1.0535    1.0000 </r>
       <r>   -0.4159    1.0000 </r>
       <r>   -0.4045    1.0000 </r>
       <r>   -0.3862    1.0000 </r>
       <r>   -0.3665    1.0000 </r>
       <r>   -0.3472    1.0000 </r>
       <r>   -0.3197    1.0000 </r>
       <r>   -0.2367    1.0000 </r>
       <r>   -0.1975    1.0000 </r>
       <r>   -0.1002    1.0000 </r>
       <r>   -0.0144    1.0000 </r>
       <r>    0.0419    1.0000 </r>
       <r>    0.1211    1.0000 </r>
       <r>    0.2084    1.0000 </r>
       <r>    0.3176    1.0000 </r>
       <r>    0.4364    1.0000 </r>
       <r>    0.4603    1.0000 </r>
       <r>    0.5159    1.0000 </r>
       <r>    0.6359    1.0000 </r>
       <r>    0.6995    1.0000 </r>
       <r>    0.7729    1.0000 </r>
       <r>    0.8094    1.0000 </r>
       <r>    0.8317    1.0000 </r>
       <r>    0.8581    1.0000 </r>
       <r>    0.9830    1.0000 </r>
       <r>    1.0347    1.0000 </r>
       <r>    1.1349    1.0000 </r>
       <r>    1.1759    1.0000 </r>
       <r>    1.1927    1.0000 </r>
       <r>    1.2990    1.0000 </r>
       <r>    1.3265    1.0000 </r>
       <r>    1.3709    1.0000 </r>
       <r>    1.4138    1.0000 </r>
       <r>    1.4246    1.0000 </r>
       <r>    1.4726    1.0000 </r>
       <r>    1.5628    1.0000 </r>
       <r>    1.5958    1.0000 </r>
       <r>    1.6181    1.0000 </r>
       <r>    1.7245    1.0000 </r>
       <r>    1.7930    1.0000 </r>
       <r>    1.8104    1.0000 </r>
       <r>    1.8429    1.0000 </r>
       <r>    1.9012    1.0000 </r>
       <r>    1.9183    1.0000 </r>
       <r>    1.9751    1.0000 </r>
       <r>    2.0081    1.0000 </r>
       <r>    2.0323    1.0000 </r>
       <r>    2.0998    1.0000 </r>
       <r>    2.1308    1.0000 </r>
       <r>    2.1955    1.0000 </r>
       <r>    2.2759    1.0000 </r>
       <r>    2.3119    1.0000 </r>
       <r>    2.3689    1.0000 </r>
       <r>    2.4474    1.0000 </r>
       <r>    2.4969    1.0000 </r>
       <r>    2.5501    1.0000 </r>
       <r>    2.5570    1.0000 </r>
       <r>    2.6018    1.0000 </r>
       <r>    2.6081    1.0000 </r>
       <r>    2.6134    1.0000 </r>
       <r>    2.6177    1.0000 </r>
       <r>    2.6327    1.0000 </r>
       <r>    2.6622    1.0000 </r>
       <r>    2.7077    1.0000 </r>
       <r>    2.7271    1.0000 </r>
       <r>    2.7492    1.0000 </r>
       <r>    2.7629    1.0000 </r>
       <r>    2.8269    1.0000 </r>
       <r>    2.8789    1.0000 </r>
       <r>    2.8929    1.0000 </r>
       <r>    2.9594    1.0000 </r>
       <r>    2.9782    1.0000 </r>
       <r>    2.9924    1.0000 </r>
       <r>    3.0107    1.0000 </r>
       <r>    3.0496    1.0000 </r>
       <r>    3.0755    1.0000 </r>
       <r>    3.1134    1.0000 </r>
       <r>    3.1352    1.0000 </r>
       <r>    3.1881    1.0000 </r>
       <r>    3.2497    1.0000 </r>
       <r>    3.3352    1.0000 </r>
       <r>    3.3818    1.0000 </r>
       <r>    3.3978    1.0000 </r>
       <r>    3.4668    1.0000 </r>
       <r>    3.4802    1.0000 </r>
       <r>    3.4945    1.0000 </r>
       <r>    3.5164    1.0000 </r>
       <r>    3.5849    1.0000 </r>
       <r>    3.6733    1.0000 </r>
       <r>    4.2684    1.0000 </r>
       <r>    4.2990    1.0000 </r>
       <r>    4.2992    1.0000 </r>
       <r>    4.3124    1.0000 </r>
       <r>    5.1839    0.0000 </r>
       <r>    5.2053    0.0000 </r>
       <r>    5.2235    0.0000 </r>
       <r>    5.2445    0.0000 </r>
       <r>    5.7919    0.0000 </r>
       <r>    5.8132    0.0000 </r>
       <r>    5.8266    0.0000 </r>
       <r>    5.8456    0.0000 </r>
       <r>    6.1830    0.0000 </r>
       <r>    6.1993    0.0000 </r>
       <r>    6.2212    0.0000 </r>
       <r>    6.2292    0.0000 </r>
       <r>    6.2648    0.0000 </r>
       <r>    6.2842    0.0000 </r>
       <r>    6.3092    0.0000 </r>
       <r>    6.3273    0.0000 </r>
       <r>    6.7570    0.0000 </r>
       <r>    6.8716    0.0000 </r>
       <r>    7.0225    0.0000 </r>
       <r>    7.0678    0.0000 </r>
       <r>    7.2514    0.0000 </r>
       <r>    7.3053    0.0000 </r>
       <r>    7.5390    0.0000 </r>
       <r>    7.6514    0.0000 </r>
       <r>    7.8327    0.0000 </r>
       <r>    7.8577    0.0000 </r>
       <r>    7.9609    0.0000 </r>
       <r>    8.0270    0.0000 </r>
       <r>    8.1281    0.0000 </r>
       <r>    8.3233    0.0000 </r>
       <r>    8.3794    0.0000 </r>
       <r>    8.5020    0.0000 </r>
       <r>    8.7547    0.0000 </r>
       <r>    8.7733    0.0000 </r>
       <r>    8.9713    0.0000 </r>
       <r>    8.9787    0.0000 </r>
       <r>    9.0049    0.0000 </r>
       <r>    9.0949    0.0000 </r>
       <r>    9.1175    0.0000 </r>
       <r>    9.1365    0.0000 </r>
       <r>    9.1471    0.0000 </r>
       <r>    9.1786    0.0000 </r>
       <r>    9.1858    0.0000 </r>
       <r>    9.2448    0.0000 </r>
       <r>    9.5080    0.0000 </r>
       <r>    9.5153    0.0000 </r>
       <r>    9.7438    0.0000 </r>
       <r>    9.7493    0.0000 </r>
       <r>    9.7710    0.0000 </r>
       <r>    9.7850    0.0000 </r>
[...]
       <r>   11.3208    0.0000 </r>
       <r>   11.3668    0.0000 </r>
       <r>   11.4970    0.0000 </r>
       <r>   11.5348    0.0000 </r>
      </set>
     </set>
    </set>
   </array>
  </eigenvalues>
  <separator name="orbital magnetization" >
   <v name="MAGDIPOLOUT">      0.00000000      0.00000000      0.00000000</v>
  </separator>
  <dos>
   <i name="efermi">      4.41209828 </i>
   <total>
    <array>
     <dimension dim="1">gridpoints</dimension>
     <dimension dim="2">spin</dimension>
     <field>energy</field>
     <field>total</field>
     <field>integrated</field>
     <set>
      <set comment="spin 1">
       <r>   -42.8331     0.0000     0.0000 </r>
       <r>   -42.6404     0.0000     0.0000 </r>
       <r>   -42.4478     0.0000     0.0000 </r>
       <r>   -42.2551     0.0000     0.0000 </r>
       <r>   -42.0625     0.0000     0.0000 </r>
       <r>   -41.8699     0.0000     0.0000 </r>
       <r>   -41.6772     0.0000     0.0000 </r>
       <r>   -41.4846     0.0000     0.0000 </r>
       <r>   -41.2919     0.0000     0.0000 </r>
       <r>   -41.0993     0.0000     0.0000 </r>
       <r>   -40.9067     0.0000     0.0000 </r>
       <r>   -40.7140     0.0000     0.0000 </r>
       <r>   -40.5214     0.0000     0.0000 </r>
       <r>   -40.3287     0.0000     0.0000 </r>
       <r>   -40.1361     0.0000     2.0000 </r>
       <r>   -39.9435     0.0000     6.0000 </r>
       <r>   -39.7508     0.0000    12.0000 </r>
       <r>   -39.5582     0.0000    20.0000 </r>
       <r>   -39.3655     0.0000    24.0000 </r>
       <r>   -39.1729     0.0000    24.0000 </r>
       <r>   -38.9803     0.0000    24.0000 </r>
       <r>   -38.7876     0.0000    24.0000 </r>
       <r>   -38.5950     0.0000    24.0000 </r>
       <r>   -38.4023     0.0000    24.0000 </r>
       <r>   -38.2097     0.0000    24.0000 </r>
       <r>   -38.0170     0.0000    24.0000 </r>
       <r>   -37.8244     0.0000    24.0000 </r>
       <r>   -37.6318     0.0000    24.0000 </r>
       <r>   -37.4391     0.0000    24.0000 </r>
       <r>   -37.2465     0.0000    24.0000 </r>
       <r>   -37.0538     0.0000    24.0000 </r>
       <r>   -36.8612     0.0000    24.0000 </r>
       <r>   -36.6686     0.0000    24.0000 </r>
       <r>   -36.4759     0.0000    24.0000 </r>
       <r>   -36.2833     0.0000    24.0000 </r>
       <r>   -36.0906     0.0000    24.0000 </r>
       <r>   -35.8980     0.0000    24.0000 </r>
       <r>   -35.7054     0.0000    24.0000 </r>
       <r>   -35.5127     0.0000    24.0000 </r>
       <r>   -35.3201     0.0000    24.0000 </r>
       <r>   -35.1274     0.0000    24.0000 </r>
       <r>   -34.9348     0.0000    24.0000 </r>
       <r>   -34.7422     0.0000    24.0000 </r>
       <r>   -34.5495     0.0000    24.0000 </r>
       <r>   -34.3569     0.0000    24.0000 </r>
       <r>   -34.1642     0.0000    24.0000 </r>
       <r>   -33.9716     0.0000    24.0000 </r>
       <r>   -33.7789     0.0000    24.0000 </r>
       <r>   -33.5863     0.0000    24.0000 </r>
       <r>   -33.3937     0.0000    24.0000 </r>
       <r>   -33.2010     0.0000    24.0000 </r>
       <r>   -33.0084     0.0000    24.0000 </r>
       <r>   -32.8157     0.0000    24.0000 </r>
       <r>   -32.6231     0.0000    24.0000 </r>
       <r>   -32.4305     0.0000    24.0000 </r>
       <r>   -32.2378     0.0000    24.0000 </r>
       <r>   -32.0452     0.0000    24.0000 </r>
       <r>   -31.8525     0.0000    24.0000 </r>
       <r>   -31.6599     0.0000    24.0000 </r>
       <r>   -31.4673     0.0000    24.0000 </r>
       <r>   -31.2746     0.0000    24.0000 </r>
       <r>   -31.0820     0.0000    24.0000 </r>
       <r>   -30.8893     0.0000    24.0000 </r>
       <r>   -30.6967     0.0000    24.0000 </r>
       <r>   -30.5041     0.0000    24.0000 </r>
       <r>   -30.3114     0.0000    24.0000 </r>
       <r>   -30.1188     0.0000    24.0000 </r>
       <r>   -29.9261     0.0000    24.0000 </r>
       <r>   -29.7335     0.0000    24.0000 </r>
       <r>   -29.5409     0.0000    24.0000 </r>
       <r>   -29.3482     0.0000    24.0000 </r>
       <r>   -29.1556     0.0000    24.0000 </r>
       <r>   -28.9629     0.0000    24.0000 </r>
       <r>   -28.7703     0.0000    24.0000 </r>
       <r>   -28.5776     0.0000    24.0000 </r>
       <r>   -28.3850     0.0000    24.0000 </r>
       <r>   -28.1924     0.0000    24.0000 </r>
       <r>   -27.9997     0.0000    24.0000 </r>
       <r>   -27.8071     0.0000    24.0000 </r>
       <r>   -27.6144     0.0000    24.0000 </r>
       <r>   -27.4218     0.0000    24.0000 </r>
       <r>   -27.2292     0.0000    24.0000 </r>
       <r>   -27.0365     0.0000    24.0000 </r>
       <r>   -26.8439     0.0000    24.0000 </r>
       <r>   -26.6512     0.0000    24.0000 </r>
       <r>   -26.4586     0.0000    24.0000 </r>
       <r>   -26.2660     0.0000    24.0000 </r>
       <r>   -26.0733     0.0000    24.0000 </r>
       <r>   -25.8807     0.0000    24.0000 </r>
       <r>   -25.6880     0.0000    24.0000 </r>
       <r>   -25.4954     0.0000    24.0000 </r>
       <r>   -25.3028     0.0000    24.0000 </r>
       <r>   -25.1101     0.0000    24.0000 </r>
       <r>   -24.9175     0.0000    24.0000 </r>
       <r>   -24.7248     0.0000    24.0000 </r>
       <r>   -24.5322     0.0000    24.0000 </r>
       <r>   -24.3395     0.0000    24.0000 </r>
       <r>   -24.1469     0.0000    24.0000 </r>
       <r>   -23.9543     0.0000    24.0000 </r>
       <r>   -23.7616     0.0000    24.0000 </r>
       <r>   -23.5690     0.0000    24.0000 </r>
       <r>   -23.3763     0.0000    24.0000 </r>
       <r>   -23.1837     0.0000    24.0000 </r>
       <r>   -22.9911     0.0000    24.0000 </r>
       <r>   -22.7984     0.0000    24.0000 </r>
       <r>   -22.6058     0.0000    24.0000 </r>
       <r>   -22.4131     0.0000    24.0000 </r>
       <r>   -22.2205     0.0000    24.0000 </r>
       <r>   -22.0279     0.0000    24.0000 </r>
       <r>   -21.8352     0.0000    24.0000 </r>
       <r>   -21.6426     0.0000    24.0000 </r>
       <r>   -21.4499     0.0000    24.0000 </r>
       <r>   -21.2573     0.0000    24.0000 </r>
       <r>   -21.0647     0.0000    24.0000 </r>
       <r>   -20.8720     0.0000    24.0000 </r>
       <r>   -20.6794     0.0000    24.0000 </r>
       <r>   -20.4867     0.0000    24.0000 </r>
       <r>   -20.2941     0.0000    24.0000 </r>
       <r>   -20.1014     0.0000    24.0000 </r>
       <r>   -19.9088     0.0000    24.0000 </r>
       <r>   -19.7162     0.0000    24.0000 </r>
       <r>   -19.5235     0.0000    24.0000 </r>
       <r>   -19.3309     0.0000    24.0000 </r>
       <r>   -19.1382     0.0000    24.0000 </r>
       <r>   -18.9456     0.0000    24.0000 </r>
       <r>   -18.7530     0.0000    44.0000 </r>
       <r>   -18.5603     0.0000   100.0000 </r>
       <r>   -18.3677     0.0000   150.0000 </r>
       <r>   -18.1750     0.0000   176.0000 </r>
       <r>   -17.9824     0.0000   184.0000 </r>
       <r>   -17.7898     0.0000   184.0000 </r>
       <r>   -17.5971     0.0000   184.0000 </r>
       <r>   -17.4045     0.0000   184.0000 </r>
       <r>   -17.2118     0.0000   184.0000 </r>
       <r>   -17.0192     0.0000   184.0000 </r>
       <r>   -16.8266     0.0000   184.0000 </r>
       <r>   -16.6339     0.0000   184.0000 </r>
       <r>   -16.4413     0.0000   184.0000 </r>
       <r>   -16.2486     0.0000   184.0000 </r>
       <r>   -16.0560     0.0000   184.0000 </r>
       <r>   -15.8634     0.0000   184.0000 </r>
       <r>   -15.6707     0.0000   184.0000 </r>
       <r>   -15.4781     0.0000   184.0000 </r>
       <r>   -15.2854     0.0000   184.0000 </r>
       <r>   -15.0928     0.0000   184.0000 </r>
       <r>   -14.9001     0.0000   184.0000 </r>
       <r>   -14.7075     0.0000   184.0000 </r>
       <r>   -14.5149     0.0000   184.0000 </r>
       <r>   -14.3222     0.0000   184.0000 </r>
       <r>   -14.1296     0.0000   184.0000 </r>
       <r>   -13.9369     0.0000   184.0000 </r>
       <r>   -13.7443     0.0000   184.0000 </r>
       <r>   -13.5517     0.0000   186.0000 </r>
       <r>   -13.3590     0.0000   192.0000 </r>
       <r>   -13.1664     0.0000   192.0000 </r>
       <r>   -12.9737     0.0000   192.0000 </r>
       <r>   -12.7811     0.0000   194.0000 </r>
       <r>   -12.5885     0.0000   204.0000 </r>
       <r>   -12.3958     0.0000   208.0000 </r>
       <r>   -12.2032     0.0000   208.0000 </r>
       <r>   -12.0105     0.0000   210.0000 </r>
       <r>   -11.8179     0.0000   216.0000 </r>
       <r>   -11.6253     0.0000   216.0000 </r>
       <r>   -11.4326     0.0000   216.0000 </r>
       <r>   -11.2400     0.0000   216.0000 </r>
       <r>   -11.0473     0.0000   216.0000 </r>
       <r>   -10.8547     0.0000   216.0000 </r>
       <r>   -10.6620     0.0000   216.0000 </r>
       <r>   -10.4694     0.0000   216.0000 </r>
       <r>   -10.2768     0.0000   216.0000 </r>
       <r>   -10.0841     0.0000   216.0000 </r>
       <r>    -9.8915     0.0000   216.0000 </r>
       <r>    -9.6988     0.0000   216.0000 </r>
       <r>    -9.5062     0.0000   216.0000 </r>
       <r>    -9.3136     0.0000   216.0000 </r>
       <r>    -9.1209    11.0754   217.1054 </r>
       <r>    -8.9283     0.5010   219.9991 </r>
       <r>    -8.7356    19.5131   222.0348 </r>
       <r>    -8.5430    10.7000   224.5849 </r>
       <r>    -8.3504    33.6396   228.9291 </r>
       <r>    -8.1577    17.8554   232.2570 </r>
       <r>    -7.9651    24.8723   237.3251 </r>
       <r>    -7.7724    15.3771   241.1429 </r>
       <r>    -7.5798    21.4296   244.4821 </r>
       <r>    -7.3872     7.3064   247.7631 </r>
       <r>    -7.1945     0.0000   248.0000 </r>
       <r>    -7.0019     0.0000   248.0000 </r>
       <r>    -6.8092     0.0000   248.0000 </r>
       <r>    -6.6166     0.0000   248.0000 </r>
       <r>    -6.4239     0.0000   248.0000 </r>
       <r>    -6.2313    10.9780   248.5481 </r>
       <r>    -6.0387    29.2921   252.5791 </r>
       <r>    -5.8460    12.2834   256.2757 </r>
       <r>    -5.6534    26.3000   261.0759 </r>
       <r>    -5.4607    18.4517   264.8377 </r>
       <r>    -5.2681    21.0282   268.8235 </r>
       <r>    -5.0755     6.9786   271.5868 </r>
       <r>    -4.8828     6.0052   272.3291 </r>
       <r>    -4.6902     8.1855   273.8273 </r>
       <r>    -4.4975    10.5450   275.6620 </r>
       <r>    -4.3049     6.1586   277.1761 </r>
       <r>    -4.1123     6.8740   278.5350 </r>
       <r>    -3.9196     3.4960   279.5400 </r>
       <r>    -3.7270     0.9879   279.9234 </r>
       <r>    -3.5343     0.0000   280.0000 </r>
       <r>    -3.3417     0.0000   280.0000 </r>
       <r>    -3.1491     0.0000   280.0000 </r>
       <r>    -2.9564     0.0000   280.0000 </r>
       <r>    -2.7638     0.0000   280.0000 </r>
       <r>    -2.5711     0.0000   280.0000 </r>
       <r>    -2.3785     0.0000   280.0000 </r>
       <r>    -2.1859     0.0000   280.0000 </r>
       <r>    -1.9932     0.0000   280.0000 </r>
       <r>    -1.8006     0.0000   280.0000 </r>
       <r>    -1.6079     0.0000   280.0000 </r>
       <r>    -1.4153     0.0000   280.0000 </r>
       <r>    -1.2226     6.1214   280.3659 </r>
       <r>    -1.0300    11.0469   282.1438 </r>
       <r>    -0.8374    12.7146   284.5405 </r>
       <r>    -0.6447     7.1979   286.4887 </r>
       <r>    -0.4521    13.8631   287.9477 </r>
       <r>    -0.2594    22.0002   291.2992 </r>
       <r>    -0.0668    42.7471   297.0136 </r>
       <r>     0.1258    36.1865   304.8145 </r>
       <r>     0.3185    32.9078   311.7918 </r>
       <r>     0.5111    36.5039   318.7885 </r>
       <r>     0.7038    28.1805   325.8439 </r>
       <r>     0.8964    28.5110   332.1858 </r>
       <r>     1.0890    42.5694   338.9385 </r>
       <r>     1.2817    43.0312   348.4795 </r>
       <r>     1.4743    56.3908   358.5889 </r>
       <r>     1.6670    53.2589   367.8358 </r>
       <r>     1.8596    48.6249   376.4794 </r>
       <r>     2.0522    39.0614   384.8592 </r>
       <r>     2.2449    40.8044   392.8939 </r>
       <r>     2.4375    49.9339   401.6439 </r>
       <r>     2.6302    61.2464   413.4025 </r>
       <r>     2.8228    52.4358   425.5224 </r>
       <r>     3.0155    68.6669   437.2081 </r>
       <r>     3.2081    44.3100   448.0340 </r>
       <r>     3.4007    37.3374   456.4172 </r>
       <r>     3.5934    34.0169   463.7454 </r>
       <r>     3.7860    17.7976   468.2195 </r>
       <r>     3.9787     9.3428   470.6245 </r>
       <r>     4.1713     3.1985   471.8326 </r>
       <r>     4.3639     0.0000   472.0000 </r>
       <r>     4.5566     0.0000   472.0000 </r>
       <r>     4.7492     0.0000   472.0000 </r>
       <r>     4.9419     0.0000   472.0000 </r>
       <r>     5.1345     0.0200   472.0001 </r>
       <r>     5.3271     3.2840   472.2539 </r>
       <r>     5.5198     7.5604   473.2983 </r>
       <r>     5.7124     9.3553   475.0465 </r>
       <r>     5.9051    20.7267   478.8961 </r>
       <r>     6.0977    12.6646   481.7314 </r>
       <r>     6.2903    11.7215   484.0185 </r>
       <r>     6.4830    13.5371   486.4427 </r>
       <r>     6.6756    15.4406   489.2341 </r>
       <r>     6.8683    17.3634   492.3885 </r>
       <r>     7.0609    20.5750   495.9977 </r>
       <r>     7.2536    30.9761   500.8260 </r>
       <r>     7.4462    42.0034   508.0930 </r>
       <r>     7.6388    20.9317   513.9662 </r>
       <r>     7.8315    43.9291   521.0004 </r>
       <r>     8.0241    40.4474   529.2002 </r>
       <r>     8.2168    23.2080   535.2578 </r>
       <r>     8.4094    18.9931   539.1509 </r>
       <r>     8.6020    24.4109   543.1692 </r>
       <r>     8.7947    25.5955   548.4352 </r>
       <r>     8.9873    38.3519   556.8207 </r>
       <r>     9.1800    18.2761   562.2774 </r>
       <r>     9.3726    12.9711   565.1294 </r>
       <r>     9.5652    14.2651   567.7579 </r>
       <r>     9.7579    12.0831   570.6835 </r>
       <r>     9.9505     4.0733   572.2003 </r>
       <r>    10.1432     9.3258   573.3558 </r>
       <r>    10.3358    29.1381   577.1821 </r>
       <r>    10.5284    32.4204   582.6891 </r>
       <r>    10.7211    41.7579   588.9332 </r>
       <r>    10.9137    30.0236   596.0112 </r>
       <r>    11.1064    16.0264   600.1000 </r>
       <r>    11.2990    29.1376   604.3865 </r>
       <r>    11.4916    22.0026   608.9783 </r>
       <r>    11.6843    14.9350   612.6102 </r>
       <r>    11.8769     8.2021   614.8280 </r>
       <r>    12.0696     2.3899   615.8168 </r>
       <r>    12.2622     0.1097   615.9974 </r>
       <r>    12.4549     0.0000   616.0000 </r>
       <r>    12.6475     0.0000   616.0000 </r>
       <r>    12.8401     0.0000   616.0000 </r>
       <r>    13.0328     0.0000   616.0000 </r>
       <r>    13.2254     0.0000   616.0000 </r>
       <r>    13.4181     0.0000   616.0000 </r>
       <r>    13.6107     0.0000   616.0000 </r>
       <r>    13.8033     0.0000   616.0000 </r>
       <r>    13.9960     0.0000   616.0000 </r>
       <r>    14.1886     0.0000   616.0000 </r>
       <r>    14.3813     0.0000   616.0000 </r>
       <r>    14.5739     0.0000   616.0000 </r>
       <r>    14.7665     0.0000   616.0000 </r>
       <r>    14.9592     0.0000   616.0000 </r>
      </set>
     </set>
    </array>
   </total>
  </dos>
 </calculation>
 <structure name="finalpos" >
  <crystal>
   <varray name="basis" >
    <v>      11.17850000       0.00000000       0.00000000 </v>
    <v>       0.00000000       9.57460000       0.00000000 </v>
    <v>       0.00000000       0.00000000      11.18240000 </v>
   </varray>
   <i name="volume">   1196.84853820 </i>
   <varray name="rec_basis" >
    <v>       0.08945744       0.00000000       0.00000000 </v>
    <v>       0.00000000       0.10444301       0.00000000 </v>
    <v>       0.00000000       0.00000000       0.08942624 </v>
   </varray>
  </crystal>
  <varray name="positions" >
   <v>       0.37539000       0.00017000       0.43687000 </v>
   <v>       0.12461000       0.99984000       0.18687000 </v>
   <v>       0.87539000       0.00017000       0.43687000 </v>
   <v>       0.87461000       0.00017000       0.18687000 </v>
   <v>       0.12539000       0.99984000       0.93687000 </v>
   <v>       0.37539000       0.00017000       0.93687000 </v>
   <v>       0.12461000       0.99984000       0.68687000 </v>
   <v>       0.37461000       0.00017000       0.68687000 </v>
   <v>       0.62539000       0.99984000       0.93687000 </v>
   <v>       0.87539000       0.00017000       0.93687000 </v>
   <v>       0.62461000       0.99984000       0.68687000 </v>
   <v>       0.87461000       0.00017000       0.68687000 </v>
   <v>       0.37461000       0.00017000       0.18687000 </v>
   <v>       0.62539000       0.99984000       0.43687000 </v>
   <v>       0.00013000       0.29519000       0.06281000 </v>
   <v>       0.25013000       0.70481000       0.06281000 </v>
   <v>       0.24987000       0.29519000       0.31282000 </v>
   <v>       0.49987000       0.70481000       0.31282000 </v>
   <v>       0.50013000       0.29519000       0.06281000 </v>
   <v>       0.75013000       0.70481000       0.06281000 </v>
   <v>       0.74987000       0.29519000       0.31282000 </v>
   <v>       0.99987000       0.70481000       0.31282000 </v>
   <v>       0.00013000       0.29519000       0.56281000 </v>
   <v>       0.25013000       0.70481000       0.56281000 </v>
   <v>       0.24987000       0.29519000       0.81282000 </v>
   <v>       0.49987000       0.70481000       0.81282000 </v>
   <v>       0.50013000       0.29519000       0.56281000 </v>
   <v>       0.75013000       0.70481000       0.56281000 </v>
   <v>       0.74987000       0.29519000       0.81282000 </v>
   <v>       0.99987000       0.70481000       0.81282000 </v>
   <v>       0.25005000       0.32677000       0.06286000 </v>
   <v>       0.00005000       0.67323000       0.06286000 </v>
   <v>       0.49995000       0.32677000       0.31286000 </v>
   <v>       0.24995000       0.67323000       0.31286000 </v>
   <v>       0.75005000       0.32677000       0.06286000 </v>
   <v>       0.50005000       0.67323000       0.06286000 </v>
   <v>       0.99995000       0.32677000       0.31286000 </v>
   <v>       0.74995000       0.67323000       0.31286000 </v>
   <v>       0.25005000       0.32677000       0.56286000 </v>
   <v>       0.00005000       0.67323000       0.56286000 </v>
   <v>       0.49995000       0.32677000       0.81286000 </v>
   <v>       0.24995000       0.67323000       0.81286000 </v>
   <v>       0.75005000       0.32677000       0.56286000 </v>
   <v>       0.50005000       0.67323000       0.56286000 </v>
   <v>       0.99995000       0.32677000       0.81286000 </v>
   <v>       0.74995000       0.67323000       0.81286000 </v>
   <v>       0.49987000       0.07798000       0.06246000 </v>
   <v>       0.24987000       0.92202000       0.06246000 </v>
   <v>       0.25013000       0.07798000       0.31246000 </v>
   <v>       0.00013000       0.92202000       0.31246000 </v>
   <v>       0.99987000       0.07798000       0.06246000 </v>
   <v>       0.74987000       0.92202000       0.06246000 </v>
   <v>       0.75013000       0.07798000       0.31246000 </v>
   <v>       0.50013000       0.92202000       0.31246000 </v>
   <v>       0.49987000       0.07798000       0.56246000 </v>
   <v>       0.24987000       0.92202000       0.56246000 </v>
   <v>       0.25013000       0.07798000       0.81246000 </v>
   <v>       0.00013000       0.92202000       0.81246000 </v>
   <v>       0.99987000       0.07798000       0.56246000 </v>
   <v>       0.74987000       0.92202000       0.56246000 </v>
   <v>       0.75013000       0.07798000       0.81246000 </v>
   <v>       0.50013000       0.92202000       0.81246000 </v>
  </varray>
 </structure>
</modeling>
