<?xml version="1.0" encoding="ISO-8859-1"?>
<modeling>
 <generator>
  <i name="program" type="string">vasp </i>
  <i name="version" type="string">5.3.3  </i>
  <i name="subversion" type="string">18Dez12 (build Nov 19 2020 19:34:37) complex                          parallel </i>
  <i name="platform" type="string">LinuxIFC </i>
  <i name="date" type="string">2021 09 22 </i>
  <i name="time" type="string">11:14:07 </i>
 </generator>
 <incar>
  <i type="string" name="SYSTEM"> La2O2S</i>
  <i type="string" name="PREC">normal</i>
  <i type="int" name="NELMIN">     4</i>
  <i type="int" name="IBRION">     2</i>
  <i type="int" name="NFREE">    10</i>
  <i name="EDIFF">      0.00000100</i>
  <i name="EDIFFG">     -0.01000000</i>
  <i type="int" name="NSW">   200</i>
  <i type="int" name="ISIF">     3</i>
  <i name="ENCUT">    600.00000000</i>
  <i name="ENAUG">    900.00000000</i>
  <i type="int" name="ISMEAR">    -5</i>
  <i type="logical" name="LWAVE"> F  </i>
  <i type="logical" name="LCHARG"> F  </i>
 </incar>
 <kpoints>
  <generation param="Gamma">
   <v type="int" name="divisions">       2        2        2 </v>
   <v name="usershift">      0.00000000       0.00000000       0.00000000 </v>
   <v name="genvec1">      0.50000000       0.00000000       0.00000000 </v>
   <v name="genvec2">      0.00000000       0.50000000       0.00000000 </v>
   <v name="genvec3">      0.00000000       0.00000000       0.50000000 </v>
   <v name="shift">      0.00000000       0.00000000       0.00000000 </v>
  </generation>
  <varray name="kpointlist" >
   <v>       0.00000000       0.00000000       0.00000000 </v>
   <v>       0.50000000       0.00000000       0.00000000 </v>
   <v>       0.00000000       0.50000000       0.00000000 </v>
   <v>       0.50000000       0.50000000       0.00000000 </v>
   <v>       0.00000000       0.00000000       0.50000000 </v>
   <v>       0.50000000       0.00000000       0.50000000 </v>
   <v>       0.00000000       0.50000000       0.50000000 </v>
   <v>       0.50000000       0.50000000       0.50000000 </v>
  </varray>
  <varray name="weights" >
   <v>       0.12500000 </v>
   <v>       0.12500000 </v>
   <v>       0.12500000 </v>
   <v>       0.12500000 </v>
   <v>       0.12500000 </v>
   <v>       0.12500000 </v>
   <v>       0.12500000 </v>
   <v>       0.12500000 </v>
  </varray>
  <varray name="tetrahedronlist"  type="int" >
   <v type="int" >        2        1        2        4        5 </v>
   <v type="int" >        2        1        3        4        5 </v>
   <v type="int" >        2        3        4        5        7 </v>
   <v type="int" >        2        2        4        5        6 </v>
   <v type="int" >        2        4        5        6        8 </v>
   <v type="int" >        2        4        5        7        8 </v>
   <v type="int" >        2        1        2        3        6 </v>
   <v type="int" >        2        2        3        4        6 </v>
   <v type="int" >        2        3        4        6        8 </v>
   <v type="int" >        2        1        3        5        6 </v>
   <v type="int" >        2        3        5        6        7 </v>
   <v type="int" >        2        3        6        7        8 </v>
   <v type="int" >        2        2        3        4        7 </v>
   <v type="int" >        2        1        2        3        7 </v>
   <v type="int" >        2        1        2        5        7 </v>
   <v type="int" >        2        2        4        7        8 </v>
   <v type="int" >        2        2        6        7        8 </v>
   <v type="int" >        2        2        5        6        7 </v>
   <v type="int" >        2        1        3        4        8 </v>
   <v type="int" >        2        1        2        4        8 </v>
   <v type="int" >        2        1        2        6        8 </v>
   <v type="int" >        2        1        3        7        8 </v>
   <v type="int" >        2        1        5        7        8 </v>
   <v type="int" >        2        1        5        6        8 </v>
  </varray>
  <i name="volumeweight">      0.02083333 </i>
 </kpoints>
 <parameters>
  <separator name="general" >
   <i type="string" name="SYSTEM">La2O2S</i>
   <i type="logical" name="LCOMPAT"> F  </i>
  </separator>
  <separator name="electronic" >
   <i type="string" name="PREC">normal</i>
   <i name="ENMAX">    600.00000000</i>
   <i name="ENAUG">    900.00000000</i>
   <i name="EDIFF">      0.00000100</i>
   <i type="int" name="IALGO">    38</i>
   <i type="int" name="IWAVPR">    11</i>
   <i type="int" name="NBANDS">   280</i>
   <i name="NELECT">    464.00000000</i>
   <i type="int" name="TURBO">     0</i>
   <i type="int" name="IRESTART">     0</i>
   <i type="int" name="NREBOOT">     0</i>
   <i type="int" name="NMIN">     0</i>
   <i name="EREF">      0.00000000</i>
   <separator name="electronic smearing" >
    <i type="int" name="ISMEAR">    -5</i>
    <i name="SIGMA">      0.20000000</i>
    <i name="KSPACING">      0.50000000</i>
    <i type="logical" name="KGAMMA"> T  </i>
   </separator>
   <separator name="electronic projectors" >
    <i type="logical" name="LREAL"> F  </i>
    <v name="ROPT">      0.00000000      0.00000000      0.00000000      0.00000000      0.00000000</v>
    <i type="int" name="LMAXPAW">  -100</i>
    <i type="int" name="LMAXMIX">     2</i>
    <i type="logical" name="NLSPLINE"> F  </i>
   </separator>
   <separator name="electronic startup" >
    <i type="int" name="ISTART">     0</i>
    <i type="int" name="ICHARG">     2</i>
    <i type="int" name="INIWAV">     1</i>
   </separator>
   <separator name="electronic spin" >
    <i type="int" name="ISPIN">     1</i>
    <i type="logical" name="LNONCOLLINEAR"> F  </i>
    <v name="MAGMOM">      1.00000000      1.00000000      1.00000000      1.00000000      1.00000000      1.00000000      1.00000000      1.00000000      1.00000000      1.00000000      1.00000000      1.00000000      1.00000000      1.00000000      1.00000000      1.00000000      1.00000000      1.00000000      1.00000000      1.00000000
      1.00000000      1.00000000      1.00000000      1.00000000      1.00000000      1.00000000      1.00000000      1.00000000      1.00000000      1.00000000      1.00000000      1.00000000      1.00000000      1.00000000      1.00000000      1.00000000      1.00000000      1.00000000      1.00000000      1.00000000
      1.00000000      1.00000000      1.00000000      1.00000000      1.00000000      1.00000000      1.00000000      1.00000000      1.00000000      1.00000000      1.00000000      1.00000000      1.00000000      1.00000000      1.00000000      1.00000000      1.00000000      1.00000000      1.00000000      1.00000000
</v>
    <i name="NUPDOWN">     -1.00000000</i>
    <i type="logical" name="LSORBIT"> F  </i>
    <v name="SAXIS">      0.00000000      0.00000000      1.00000000</v>
    <i type="logical" name="LSPIRAL"> F  </i>
    <v name="QSPIRAL">      0.00000000      0.00000000      0.00000000</v>
    <i type="logical" name="LZEROZ"> F  </i>
   </separator>
   <separator name="electronic exchange-correlation" >
    <i type="logical" name="LASPH"> F  </i>
    <i type="logical" name="LMETAGGA"> F  </i>
   </separator>
   <separator name="electronic convergence" >
    <i type="int" name="NELM">    60</i>
    <i type="int" name="NELMDL">    -5</i>
    <i type="int" name="NELMIN">     4</i>
    <i name="ENINI">    600.00000000</i>
    <separator name="electronic convergence detail" >
     <i type="logical" name="LDIAG"> T  </i>
     <i type="logical" name="LSUBROT"> T  </i>
     <i name="WEIMIN">      0.00100000</i>
     <i name="EBREAK">      0.00000000</i>
     <i name="DEPER">      0.30000000</i>
     <i type="int" name="NRMM">     4</i>
     <i name="TIME">      0.40000000</i>
    </separator>
   </separator>
   <separator name="electronic mixer" >
    <i name="AMIX">      0.40000000</i>
    <i name="BMIX">      1.00000000</i>
    <i name="AMIN">      0.10000000</i>
    <i name="AMIX_MAG">      1.60000000</i>
    <i name="BMIX_MAG">      1.00000000</i>
    <separator name="electronic mixer details" >
     <i type="int" name="IMIX">     4</i>
     <i type="int" name="MAXMIX">   -45</i>
     <i name="WC">    100.00000000</i>
     <i type="int" name="INIMIX">     1</i>
     <i type="int" name="MIXPRE">     1</i>
     <i type="int" name="MREMOVE">     5</i>
    </separator>
   </separator>
   <separator name="electronic dipolcorrection" >
    <i type="logical" name="LDIPOL"> F  </i>
    <i type="logical" name="LMONO"> F  </i>
    <i type="int" name="IDIPOL">     0</i>
    <i name="EPSILON">      1.00000000</i>
    <v name="DIPOL">   -100.00000000   -100.00000000   -100.00000000</v>
    <i name="EFIELD">      0.00000000</i>
   </separator>
  </separator>
  <separator name="grids" >
   <i type="int" name="NGX">    70</i>
   <i type="int" name="NGY">    60</i>
   <i type="int" name="NGZ">    70</i>
   <i type="int" name="NGXF">   140</i>
   <i type="int" name="NGYF">   120</i>
   <i type="int" name="NGZF">   140</i>
   <i type="logical" name="ADDGRID"> F  </i>
  </separator>
  <separator name="ionic" >
   <i type="int" name="NSW">   200</i>
   <i type="int" name="IBRION">     2</i>
   <i type="int" name="ISIF">     3</i>
   <i name="PSTRESS">      0.00000000</i>
   <i name="EDIFFG">     -0.01000000</i>
   <i type="int" name="NFREE">    10</i>
   <i name="POTIM">      0.50000000</i>
   <i name="SMASS">     -3.00000000</i>
   <i name="SCALEE">      1.00000000</i>
  </separator>
  <separator name="ionic md" >
   <i name="TEBEG">      0.00010000</i>
   <i name="TEEND">      0.00010000</i>
   <i type="int" name="NBLOCK">     1</i>
   <i type="int" name="KBLOCK">   200</i>
   <i type="int" name="NPACO">   256</i>
   <i name="APACO">     16.00000000</i>
  </separator>
  <separator name="symmetry" >
   <i type="int" name="ISYM">     2</i>
   <i name="SYMPREC">      0.00001000</i>
  </separator>
  <separator name="dos" >
   <i type="logical" name="LORBIT"> F  </i>
   <v name="RWIGS">     -1.00000000     -1.00000000     -1.00000000     -1.00000000     -1.00000000</v>
   <i type="int" name="NEDOS">   301</i>
   <i name="EMIN">     10.00000000</i>
   <i name="EMAX">    -10.00000000</i>
   <i name="EFERMI">      0.00000000</i>
  </separator>
  <separator name="writing" >
   <i type="int" name="NWRITE">     2</i>
   <i type="logical" name="LWAVE"> F  </i>
   <i type="logical" name="LCHARG"> F  </i>
   <i type="logical" name="LPARD"> F  </i>
   <i type="logical" name="LVTOT"> F  </i>
   <i type="logical" name="LVHAR"> F  </i>
   <i type="logical" name="LELF"> F  </i>
   <i type="logical" name="LOPTICS"> F  </i>
   <v name="STM">      0.00000000      0.00000000      0.00000000      0.00000000      0.00000000      0.00000000      0.00000000</v>
  </separator>
  <separator name="performance" >
   <i type="int" name="NPAR">    40</i>
   <i type="int" name="NSIM">     4</i>
   <i type="int" name="NBLK">    -1</i>
   <i type="logical" name="LPLANE"> T  </i>
   <i type="logical" name="LSCALAPACK"> F  </i>
   <i type="logical" name="LSCAAWARE"> F  </i>
   <i type="logical" name="LSCALU"> F  </i>
   <i type="logical" name="LASYNC"> F  </i>
   <i type="logical" name="LORBITALREAL"> F  </i>
  </separator>
  <separator name="miscellaneous" >
   <i type="int" name="IDIOT">     3</i>
   <i type="logical" name="LMUSIC"> F  </i>
   <v name="POMASS">      7.01000000     24.30500000    208.98000000     32.06600000     16.00000000</v>
   <v name="DARWINR">      0.00000000      0.00000000      0.00000000      0.00000000      0.00000000</v>
   <v name="DARWINV">      1.00000000      1.00000000      1.00000000      1.00000000      1.00000000</v>
   <i type="logical" name="LCORR"> T  </i>
  </separator>
  <i type="logical" name="GGA_COMPAT"> T  </i>
  <i type="logical" name="LBERRY"> F  </i>
  <i type="int" name="ICORELEVEL">     0</i>
  <i type="logical" name="LDAU"> F  </i>
  <i type="int" name="I_CONSTRAINED_M">     0</i>
  <separator name="electronic exchange-correlation" >
   <i type="string" name="GGA">--</i>
   <i type="int" name="VOSKOWN">     0</i>
   <i type="logical" name="LHFCALC"> F  </i>
   <i type="string" name="PRECFOCK"></i>
   <i type="logical" name="LSYMGRAD"> F  </i>
   <i type="logical" name="LHFONE"> F  </i>
   <i type="logical" name="LRHFCALC"> F  </i>
   <i type="logical" name="LTHOMAS"> F  </i>
   <i type="logical" name="LMODELHF"> F  </i>
   <i name="ENCUT4O">     -1.00000000</i>
   <i type="int" name="EXXOEP">     0</i>
   <i type="int" name="FOURORBIT">     0</i>
   <i name="AEXX">      0.00000000</i>
   <i name="HFALPHA">      0.00000000</i>
   <i name="MCALPHA">      0.00000000</i>
   <i name="ALDAX">      1.00000000</i>
   <i name="AGGAX">      1.00000000</i>
   <i name="ALDAC">      1.00000000</i>
   <i name="AGGAC">      1.00000000</i>
   <i type="int" name="NKREDX">     1</i>
   <i type="int" name="NKREDY">     1</i>
   <i type="int" name="NKREDZ">     1</i>
   <i type="logical" name="SHIFTRED"> F  </i>
   <i type="logical" name="ODDONLY"> F  </i>
   <i type="logical" name="EVENONLY"> F  </i>
   <i type="int" name="LMAXFOCK">     0</i>
   <i type="int" name="NMAXFOCKAE">     0</i>
   <i type="logical" name="LFOCKAEDFT"> F  </i>
   <i name="HFSCREEN">      0.00000000</i>
   <i name="HFSCREENC">      0.00000000</i>
   <i type="int" name="NBANDSGWLOW">     0</i>
  </separator>
  <separator name="vdW DFT" >
   <i type="logical" name="LUSE_VDW"> F  </i>
   <i name="Zab_VDW">     -0.84910000</i>
   <i name="PARAM1">      0.12340000</i>
   <i name="PARAM2">      1.00000000</i>
   <i name="PARAM3">      0.00000000</i>
  </separator>
  <separator name="model GW" >
   <i type="int" name="MODEL_GW">     0</i>
   <i name="MODEL_EPS0">     11.96848538</i>
   <i name="MODEL_ALPHA">      1.00000000</i>
  </separator>
  <separator name="linear response parameters" >
   <i type="logical" name="LEPSILON"> F  </i>
   <i type="logical" name="LRPA"> F  </i>
   <i type="logical" name="LNABLA"> F  </i>
   <i type="logical" name="LVEL"> F  </i>
   <i type="int" name="KINTER">     0</i>
   <i name="CSHIFT">      0.10000000</i>
   <i name="OMEGAMAX">     -1.00000000</i>
   <i name="DEG_THRESHOLD">      0.00200000</i>
  </separator>
  <separator name="orbital magnetization" >
   <i type="logical" name="NUCIND"> F  </i>
   <v name="MAGPOS">      0.00000000      0.00000000      0.00000000</v>
   <i type="logical" name="LNICSALL"> T  </i>
   <i type="logical" name="ORBITALMAG"> F  </i>
   <i type="logical" name="LMAGBLOCH"> F  </i>
   <i type="logical" name="LCHIMAG"> F  </i>
   <i type="logical" name="LGAUGE"> T  </i>
   <i type="int" name="MAGATOM">     0</i>
   <v name="MAGDIPOL">      0.00000000      0.00000000      0.00000000</v>
   <v name="AVECCONST">      0.00000000      0.00000000      0.00000000</v>
  </separator>
  <separator name="response functions" >
   <i type="logical" name="LADDER"> F  </i>
   <i type="logical" name="LFXC"> F  </i>
   <i type="logical" name="LHARTREE"> T  </i>
   <i type="int" name="IBSE">     0</i>
   <i type="logical" name="LTCTE"> F  </i>
   <i type="logical" name="LTETE"> F  </i>
   <i type="logical" name="LTRIPLET"> F  </i>
   <i type="logical" name="LFXCEPS"> F  </i>
   <i type="logical" name="L2ORDER"> F  </i>
   <i type="logical" name="LUSEW"> F  </i>
   <i name="ENCUTGW">     -2.00000000</i>
   <i name="ENCUTGWSOFT">     -2.00000000</i>
   <i name="ENCUTLF">     -1.00000000</i>
   <i type="int" name="LMAXMP2">    -1</i>
   <i name="SCISSOR">      0.00000000</i>
   <i type="int" name="NOMEGA">     0</i>
   <i type="int" name="NOMEGAR">     0</i>
   <i type="int" name="NBANDSGW">    -1</i>
   <i type="int" name="NBANDSO">    -1</i>
   <i type="int" name="NBANDSV">    -1</i>
   <i type="int" name="NELM">     1</i>
   <i type="int" name="DIM">     3</i>
   <i type="int" name="ANTIRES">     0</i>
   <i name="OMEGAMAX">    -30.00000000</i>
   <i name="OMEGATL">   -200.00000000</i>
   <i type="int" name="OMEGAGRID">     0</i>
   <i name="CSHIFT">     -0.10000000</i>
   <i type="logical" name="SELFENERGY"> F  </i>
   <i type="logical" name="LSPECTRAL"> F  </i>
   <i type="logical" name="ODDONLYGW"> F  </i>
   <i type="logical" name="EVENONLYGW"> F  </i>
   <i type="int" name="NKREDLFX">     1</i>
   <i type="int" name="NKREDLFY">     1</i>
   <i type="int" name="NKREDLFZ">     1</i>
   <i type="int" name="MAXMEM">  1800</i>
   <i type="int" name="TELESCOPE">     0</i>
  </separator>
 </parameters>
 <atominfo>
  <atoms>      60 </atoms>
  <types>       5 </types>
  <array name="atoms" >
   <dimension dim="1">ion</dimension>
   <field type="string">element</field>
   <field type="int">atomtype</field>
   <set>
    <rc><c>Li</c><c>   1</c></rc>
    <rc><c>Li</c><c>   1</c></rc>
    <rc><c>Li</c><c>   1</c></rc>
    <rc><c>Li</c><c>   1</c></rc>
    <rc><c>Li</c><c>   1</c></rc>
    <rc><c>Li</c><c>   1</c></rc>
    <rc><c>Li</c><c>   1</c></rc>
    <rc><c>Li</c><c>   1</c></rc>
    <rc><c>Mg</c><c>   2</c></rc>
    <rc><c>Mg</c><c>   2</c></rc>
    <rc><c>Mg</c><c>   2</c></rc>
    <rc><c>Mg</c><c>   2</c></rc>
    <rc><c>Bi</c><c>   3</c></rc>
    <rc><c>Bi</c><c>   3</c></rc>
    <rc><c>Bi</c><c>   3</c></rc>
    <rc><c>Bi</c><c>   3</c></rc>
    <rc><c>Bi</c><c>   3</c></rc>
    <rc><c>Bi</c><c>   3</c></rc>
    <rc><c>Bi</c><c>   3</c></rc>
    <rc><c>Bi</c><c>   3</c></rc>
    <rc><c>Bi</c><c>   3</c></rc>
    <rc><c>Bi</c><c>   3</c></rc>
    <rc><c>Bi</c><c>   3</c></rc>
    <rc><c>Bi</c><c>   3</c></rc>
    <rc><c>Bi</c><c>   3</c></rc>
    <rc><c>Bi</c><c>   3</c></rc>
    <rc><c>Bi</c><c>   3</c></rc>
    <rc><c>Bi</c><c>   3</c></rc>
    <rc><c>S </c><c>   4</c></rc>
    <rc><c>S </c><c>   4</c></rc>
    <rc><c>S </c><c>   4</c></rc>
    <rc><c>S </c><c>   4</c></rc>
    <rc><c>S </c><c>   4</c></rc>
    <rc><c>S </c><c>   4</c></rc>
    <rc><c>S </c><c>   4</c></rc>
    <rc><c>S </c><c>   4</c></rc>
    <rc><c>S </c><c>   4</c></rc>
    <rc><c>S </c><c>   4</c></rc>
    <rc><c>S </c><c>   4</c></rc>
    <rc><c>S </c><c>   4</c></rc>
    <rc><c>S </c><c>   4</c></rc>
    <rc><c>S </c><c>   4</c></rc>
    <rc><c>S </c><c>   4</c></rc>
    <rc><c>S </c><c>   4</c></rc>
    <rc><c>O </c><c>   5</c></rc>
    <rc><c>O </c><c>   5</c></rc>
    <rc><c>O </c><c>   5</c></rc>
    <rc><c>O </c><c>   5</c></rc>
    <rc><c>O </c><c>   5</c></rc>
    <rc><c>O </c><c>   5</c></rc>
    <rc><c>O </c><c>   5</c></rc>
    <rc><c>O </c><c>   5</c></rc>
    <rc><c>O </c><c>   5</c></rc>
    <rc><c>O </c><c>   5</c></rc>
    <rc><c>O </c><c>   5</c></rc>
    <rc><c>O </c><c>   5</c></rc>
    <rc><c>O </c><c>   5</c></rc>
    <rc><c>O </c><c>   5</c></rc>
    <rc><c>O </c><c>   5</c></rc>
    <rc><c>O </c><c>   5</c></rc>
   </set>
  </array>
  <array name="atomtypes" >
   <dimension dim="1">type</dimension>
   <field type="int">atomspertype</field>
   <field type="string">element</field>
   <field>mass</field>
   <field>valence</field>
   <field type="string">pseudopotential</field>
   <set>
    <rc><c>   8</c><c>Li</c><c>      7.01000000</c><c>      3.00000000</c><c>  PAW_PBE Li_sv 10Sep2004               </c></rc>
    <rc><c>   4</c><c>Mg</c><c>     24.30500000</c><c>      2.00000000</c><c>  PAW_PBE Mg 13Apr2007                  </c></rc>
    <rc><c>  16</c><c>Bi</c><c>    208.98000000</c><c>     15.00000000</c><c>  PAW_PBE Bi_d 06Sep2000                </c></rc>
    <rc><c>  16</c><c>S </c><c>     32.06600000</c><c>      6.00000000</c><c>  PAW_PBE S 06Sep2000                   </c></rc>
    <rc><c>  16</c><c>O </c><c>     16.00000000</c><c>      6.00000000</c><c>  PAW_PBE O 08Apr2002                   </c></rc>
   </set>
  </array>
 </atominfo>
 <structure name="initialpos" >
  <crystal>
   <varray name="basis" >
    <v>      11.17850000       0.00000000       0.00000000 </v>
    <v>       0.00000000       9.57460000       0.00000000 </v>
    <v>       0.00000000       0.00000000      11.18240000 </v>
   </varray>
   <i name="volume">   1196.84853820 </i>
   <varray name="rec_basis" >
    <v>       0.08945744       0.00000000       0.00000000 </v>
    <v>       0.00000000       0.10444301       0.00000000 </v>
    <v>       0.00000000       0.00000000       0.08942624 </v>
   </varray>
  </crystal>
  <varray name="positions" >
   <v>       0.37539000       0.00017000       0.43687000 </v>
   <v>       0.37461000       0.00017000       0.18687000 </v>
   <v>       0.62539000       0.99984000       0.43687000 </v>
   <v>       0.62461000       0.99984000       0.18687000 </v>
   <v>       0.87461000       0.00017000       0.18687000 </v>
   <v>       0.12539000       0.99984000       0.93687000 </v>
   <v>       0.62539000       0.99984000       0.93687000 </v>
   <v>       0.87539000       0.00017000       0.93687000 </v>
   <v>       0.87539000       0.00017000       0.43687000 </v>
   <v>       0.37539000       0.00017000       0.93687000 </v>
   <v>       0.37461000       0.00017000       0.68687000 </v>
   <v>       0.87461000       0.00017000       0.68687000 </v>
   <v>       0.00013000       0.29519000       0.06281000 </v>
   <v>       0.25013000       0.70481000       0.06281000 </v>
   <v>       0.24987000       0.29519000       0.31282000 </v>
   <v>       0.49987000       0.70481000       0.31282000 </v>
   <v>       0.50013000       0.29519000       0.06281000 </v>
   <v>       0.75013000       0.70481000       0.06281000 </v>
   <v>       0.74987000       0.29519000       0.31282000 </v>
   <v>       0.99987000       0.70481000       0.31282000 </v>
   <v>       0.00013000       0.29519000       0.56281000 </v>
   <v>       0.25013000       0.70481000       0.56281000 </v>
   <v>       0.24987000       0.29519000       0.81282000 </v>
   <v>       0.49987000       0.70481000       0.81282000 </v>
   <v>       0.50013000       0.29519000       0.56281000 </v>
   <v>       0.75013000       0.70481000       0.56281000 </v>
   <v>       0.74987000       0.29519000       0.81282000 </v>
   <v>       0.99987000       0.70481000       0.81282000 </v>
   <v>       0.25005000       0.32677000       0.06286000 </v>
   <v>       0.00005000       0.67323000       0.06286000 </v>
   <v>       0.49995000       0.32677000       0.31286000 </v>
   <v>       0.24995000       0.67323000       0.31286000 </v>
   <v>       0.75005000       0.32677000       0.06286000 </v>
   <v>       0.50005000       0.67323000       0.06286000 </v>
   <v>       0.99995000       0.32677000       0.31286000 </v>
   <v>       0.74995000       0.67323000       0.31286000 </v>
   <v>       0.25005000       0.32677000       0.56286000 </v>
   <v>       0.00005000       0.67323000       0.56286000 </v>
   <v>       0.49995000       0.32677000       0.81286000 </v>
   <v>       0.24995000       0.67323000       0.81286000 </v>
   <v>       0.75005000       0.32677000       0.56286000 </v>
   <v>       0.50005000       0.67323000       0.56286000 </v>
   <v>       0.99995000       0.32677000       0.81286000 </v>
   <v>       0.74995000       0.67323000       0.81286000 </v>
   <v>       0.49987000       0.07798000       0.06246000 </v>
   <v>       0.24987000       0.92202000       0.06246000 </v>
   <v>       0.25013000       0.07798000       0.31246000 </v>
   <v>       0.00013000       0.92202000       0.31246000 </v>
   <v>       0.99987000       0.07798000       0.06246000 </v>
   <v>       0.74987000       0.92202000       0.06246000 </v>
   <v>       0.75013000       0.07798000       0.31246000 </v>
   <v>       0.50013000       0.92202000       0.31246000 </v>
   <v>       0.49987000       0.07798000       0.56246000 </v>
   <v>       0.24987000       0.92202000       0.56246000 </v>
   <v>       0.25013000       0.07798000       0.81246000 </v>
   <v>       0.00013000       0.92202000       0.81246000 </v>
   <v>       0.99987000       0.07798000       0.56246000 </v>
   <v>       0.74987000       0.92202000       0.56246000 </v>
   <v>       0.75013000       0.07798000       0.81246000 </v>
   <v>       0.50013000       0.92202000       0.81246000 </v>
  </varray>
 </structure>
 <calculation>
  <scstep>
   <time name="dav">   39.96   40.12</time>
   <time name="total">   40.14   40.46</time>
   <energy>
    <i name="alphaZ">   1067.11773629 </i>
    <i name="ewald"> -30630.71005143 </i>
    <i name="hartreedc"> -12721.09052341 </i>
    <i name="XCdc">   1321.17923350 </i>
    <i name="pawpsdc">  36729.48549953 </i>
    <i name="pawaedc"> -36149.63912807 </i>
    <i name="eentropy">      0.00000000 </i>
    <i name="bandstr">   1658.68269668 </i>
    <i name="atom">  44408.54722957 </i>
    <i name="e_fr_energy">   5683.57269264 </i>
    <i name="e_wo_entrp">   5683.57269264 </i>
    <i name="e_0_energy">   5683.57269264 </i>
   </energy>
  </scstep>
  <scstep>
   <time name="dav">   40.40   40.71</time>
   <time name="total">   40.41   41.97</time>
   <energy>
    <i name="e_fr_energy">    688.82370034 </i>
    <i name="e_wo_entrp">    688.82370034 </i>
    <i name="e_0_energy">    688.82370034 </i>
   </energy>
  </scstep>
  <scstep>
   <time name="dav">   47.62   48.02</time>
   <time name="total">   47.62   48.13</time>
   <energy>
    <i name="e_fr_energy">   -261.46343360 </i>
    <i name="e_wo_entrp">   -261.46343360 </i>
    <i name="e_0_energy">   -261.46343360 </i>
   </energy>
  </scstep>
  <scstep>
   <time name="dav">   50.70   50.92</time>
   <time name="total">   50.71   51.04</time>
   <energy>
    <i name="e_fr_energy">   -341.80337246 </i>
    <i name="e_wo_entrp">   -341.80337246 </i>
    <i name="e_0_energy">   -341.80337246 </i>
   </energy>
  </scstep>
  <scstep>
   <time name="dav">   64.15   64.53</time>
   <time name="total">   64.60   65.06</time>
   <energy>
    <i name="e_fr_energy">   -348.34452689 </i>
    <i name="e_wo_entrp">   -348.34452689 </i>
    <i name="e_0_energy">   -348.34452689 </i>
   </energy>
  </scstep>
  <scstep>
   <time name="dav">   59.50   60.01</time>
   <time name="total">   60.01   60.61</time>
   <energy>
    <i name="e_fr_energy">   -292.19548012 </i>
    <i name="e_wo_entrp">   -292.19548012 </i>
    <i name="e_0_energy">   -292.19548012 </i>
   </energy>
  </scstep>
  <scstep>
   <time name="dav">   44.02   44.40</time>
   <time name="total">   44.54   44.99</time>
   <energy>
    <i name="e_fr_energy">   -293.72700413 </i>
    <i name="e_wo_entrp">   -293.72700413 </i>
    <i name="e_0_energy">   -293.72700413 </i>
   </energy>
  </scstep>
  <scstep>
   <time name="dav">   47.55   48.02</time>
   <time name="total">   48.06   48.63</time>
   <energy>
    <i name="e_fr_energy">   -292.55657192 </i>
    <i name="e_wo_entrp">   -292.55657192 </i>
    <i name="e_0_energy">   -292.55657192 </i>
   </energy>
  </scstep>
  <scstep>
   <time name="dav">   45.99   46.87</time>
   <time name="total">   46.49   47.47</time>
   <energy>
    <i name="e_fr_energy">   -292.02391379 </i>
    <i name="e_wo_entrp">   -292.02391379 </i>
    <i name="e_0_energy">   -292.02391379 </i>
   </energy>
  </scstep>
  <scstep>
   <time name="dav">   49.88   50.23</time>
   <time name="total">   50.39   50.81</time>
   <energy>
    <i name="e_fr_energy">   -292.08395386 </i>
    <i name="e_wo_entrp">   -292.08395386 </i>
    <i name="e_0_energy">   -292.08395386 </i>
   </energy>
  </scstep>
  <scstep>
   <time name="dav">   57.98   58.55</time>
   <time name="total">   58.51   59.18</time>
   <energy>
    <i name="e_fr_energy">   -292.08518662 </i>
    <i name="e_wo_entrp">   -292.08518662 </i>
    <i name="e_0_energy">   -292.08518662 </i>
   </energy>
  </scstep>
  <scstep>
   <time name="dav">   48.80   49.32</time>
   <time name="total">   49.31   49.92</time>
   <energy>
    <i name="e_fr_energy">   -292.08955725 </i>
    <i name="e_wo_entrp">   -292.08955725 </i>
    <i name="e_0_energy">   -292.08955725 </i>
   </energy>
  </scstep>
  <scstep>
   <time name="dav">   48.10   48.45</time>
   <time name="total">   48.61   49.05</time>
   <energy>
    <i name="e_fr_energy">   -292.09009305 </i>
    <i name="e_wo_entrp">   -292.09009305 </i>
    <i name="e_0_energy">   -292.09009305 </i>
   </energy>
  </scstep>
  <scstep>
   <time name="dav">   47.43   47.89</time>
   <time name="total">   47.94   48.46</time>
   <energy>
    <i name="e_fr_energy">   -292.09015476 </i>
    <i name="e_wo_entrp">   -292.09015476 </i>
    <i name="e_0_energy">   -292.09015476 </i>
   </energy>
  </scstep>
  <scstep>
   <time name="dav">   49.23   49.34</time>
   <time name="total">   49.74   49.97</time>
   <energy>
    <i name="e_fr_energy">   -292.09024831 </i>
    <i name="e_wo_entrp">   -292.09024831 </i>
    <i name="e_0_energy">   -292.09024831 </i>
   </energy>
  </scstep>
  <scstep>
   <time name="dav">   54.04   54.14</time>
   <time name="total">   54.56   54.74</time>
   <energy>
    <i name="e_fr_energy">   -292.09027839 </i>
    <i name="e_wo_entrp">   -292.09027839 </i>
    <i name="e_0_energy">   -292.09027839 </i>
   </energy>
  </scstep>
  <scstep>
   <time name="dav">   48.37   48.77</time>
   <time name="total">   48.88   49.40</time>
   <energy>
    <i name="e_fr_energy">   -292.09028411 </i>
    <i name="e_wo_entrp">   -292.09028411 </i>
    <i name="e_0_energy">   -292.09028411 </i>
   </energy>
  </scstep>
  <scstep>
   <time name="dav">   43.45   43.51</time>
   <time name="total">   43.96   44.10</time>
   <energy>
    <i name="e_fr_energy">   -292.09028620 </i>
    <i name="e_wo_entrp">   -292.09028620 </i>
    <i name="e_0_energy">   -292.09028620 </i>
   </energy>
  </scstep>
  <scstep>
   <time name="dav">   42.70   43.17</time>
   <time name="total">   42.77   43.32</time>
   <energy>
    <i name="alphaZ">   1067.11773629 </i>
    <i name="ewald"> -30630.71005143 </i>
    <i name="hartreedc"> -12953.05225454 </i>
    <i name="XCdc">   1345.04840748 </i>
    <i name="pawpsdc">  43739.77932960 </i>
    <i name="pawaedc"> -43133.76967906 </i>
    <i name="eentropy">      0.00000000 </i>
    <i name="bandstr">  -4135.05100491 </i>
    <i name="atom">  44408.54722957 </i>
    <i name="e_fr_energy">   -292.09028700 </i>
    <i name="e_wo_entrp">   -292.09028700 </i>
    <i name="e_0_energy">   -292.09028700 </i>
   </energy>
  </scstep>
  <structure>
   <crystal>
    <varray name="basis" >
     <v>      11.17850000       0.00000000       0.00000000 </v>
     <v>       0.00000000       9.57460000       0.00000000 </v>
     <v>       0.00000000       0.00000000      11.18240000 </v>
    </varray>
    <i name="volume">   1196.84853820 </i>
    <varray name="rec_basis" >
     <v>       0.08945744       0.00000000       0.00000000 </v>
     <v>       0.00000000       0.10444301       0.00000000 </v>
     <v>       0.00000000       0.00000000       0.08942624 </v>
    </varray>
   </crystal>
   <varray name="positions" >
    <v>       0.37539000       0.00017000       0.43687000 </v>
    <v>       0.37461000       0.00017000       0.18687000 </v>
    <v>       0.62539000       0.99984000       0.43687000 </v>
    <v>       0.62461000       0.99984000       0.18687000 </v>
    <v>       0.87461000       0.00017000       0.18687000 </v>
    <v>       0.12539000       0.99984000       0.93687000 </v>
    <v>       0.62539000       0.99984000       0.93687000 </v>
    <v>       0.87539000       0.00017000       0.93687000 </v>
    <v>       0.87539000       0.00017000       0.43687000 </v>
    <v>       0.37539000       0.00017000       0.93687000 </v>
    <v>       0.37461000       0.00017000       0.68687000 </v>
    <v>       0.87461000       0.00017000       0.68687000 </v>
    <v>       0.00013000       0.29519000       0.06281000 </v>
    <v>       0.25013000       0.70481000       0.06281000 </v>
    <v>       0.24987000       0.29519000       0.31282000 </v>
    <v>       0.49987000       0.70481000       0.31282000 </v>
    <v>       0.50013000       0.29519000       0.06281000 </v>
    <v>       0.75013000       0.70481000       0.06281000 </v>
    <v>       0.74987000       0.29519000       0.31282000 </v>
    <v>       0.99987000       0.70481000       0.31282000 </v>
    <v>       0.00013000       0.29519000       0.56281000 </v>
    <v>       0.25013000       0.70481000       0.56281000 </v>
    <v>       0.24987000       0.29519000       0.81282000 </v>
    <v>       0.49987000       0.70481000       0.81282000 </v>
    <v>       0.50013000       0.29519000       0.56281000 </v>
    <v>       0.75013000       0.70481000       0.56281000 </v>
    <v>       0.74987000       0.29519000       0.81282000 </v>
    <v>       0.99987000       0.70481000       0.81282000 </v>
    <v>       0.25005000       0.32677000       0.06286000 </v>
    <v>       0.00005000       0.67323000       0.06286000 </v>
    <v>       0.49995000       0.32677000       0.31286000 </v>
    <v>       0.24995000       0.67323000       0.31286000 </v>
    <v>       0.75005000       0.32677000       0.06286000 </v>
    <v>       0.50005000       0.67323000       0.06286000 </v>
    <v>       0.99995000       0.32677000       0.31286000 </v>
    <v>       0.74995000       0.67323000       0.31286000 </v>
    <v>       0.25005000       0.32677000       0.56286000 </v>
    <v>       0.00005000       0.67323000       0.56286000 </v>
    <v>       0.49995000       0.32677000       0.81286000 </v>
    <v>       0.24995000       0.67323000       0.81286000 </v>
    <v>       0.75005000       0.32677000       0.56286000 </v>
    <v>       0.50005000       0.67323000       0.56286000 </v>
    <v>       0.99995000       0.32677000       0.81286000 </v>
    <v>       0.74995000       0.67323000       0.81286000 </v>
    <v>       0.49987000       0.07798000       0.06246000 </v>
    <v>       0.24987000       0.92202000       0.06246000 </v>
    <v>       0.25013000       0.07798000       0.31246000 </v>
    <v>       0.00013000       0.92202000       0.31246000 </v>
    <v>       0.99987000       0.07798000       0.06246000 </v>
    <v>       0.74987000       0.92202000       0.06246000 </v>
    <v>       0.75013000       0.07798000       0.31246000 </v>
    <v>       0.50013000       0.92202000       0.31246000 </v>
    <v>       0.49987000       0.07798000       0.56246000 </v>
    <v>       0.24987000       0.92202000       0.56246000 </v>
    <v>       0.25013000       0.07798000       0.81246000 </v>
    <v>       0.00013000       0.92202000       0.81246000 </v>
    <v>       0.99987000       0.07798000       0.56246000 </v>
    <v>       0.74987000       0.92202000       0.56246000 </v>
    <v>       0.75013000       0.07798000       0.81246000 </v>
    <v>       0.50013000       0.92202000       0.81246000 </v>
   </varray>
  </structure>
  <varray name="forces" >
   <v>      -0.69676518       0.05542707      -0.31470091 </v>
   <v>      -0.70175423       0.04988924       0.66633629 </v>
   <v>      -0.49271153       0.00166435       0.31765305 </v>
   <v>       0.01142261      -0.12946361       0.03659156 </v>
   <v>       0.72647874      -0.05953721      -0.27465186 </v>
   <v>      -0.49583803      -0.00007484       0.20253653 </v>
   <v>       0.48462812       0.00252532      -0.30753164 </v>
   <v>       0.21381913       0.06290207       0.34588467 </v>
   <v>       1.30211021      -0.11275280      -0.76880263 </v>
   <v>      -0.35231316      -0.11325942       0.84636156 </v>
   <v>      -0.29930506      -0.10780834      -1.24028676 </v>
   <v>       0.34776539       0.10773416       0.73355976 </v>
   <v>       0.19525655      -1.00754566       0.28389398 </v>
   <v>      -0.41446229      -0.04111115       0.50126014 </v>
   <v>      -0.32483794      -1.94488000       0.03126909 </v>
   <v>      -0.29727380      -0.06045675       0.04980209 </v>
   <v>      -0.07261429       1.05373653       0.31632951 </v>
   <v>       0.25704252      -0.05222115       0.09112633 </v>
   <v>       0.10809903       1.05649645      -0.16149918 </v>
   <v>       0.54366201       0.99787924      -0.14493288 </v>
   <v>       0.59917005       0.03675359      -0.20195317 </v>
   <v>      -0.37962927       0.96550478      -0.37564554 </v>
   <v>      -0.46329122       1.07408269      -0.17079316 </v>
   <v>       0.19729439      -1.03098107      -0.18311197 </v>
   <v>      -0.07470953       0.00476638      -0.19628846 </v>
   <v>      -0.15918838      -1.00563461       0.00958678 </v>
   <v>       0.03892998       0.02315175       0.03825548 </v>
   <v>       0.23628658      -0.00478566       0.03713218 </v>
   <v>       0.31812018       0.13541448      -0.41895316 </v>
   <v>      -0.08949897      -0.20451613      -0.17802719 </v>
   <v>       0.36730824       0.19812125      -0.09190333 </v>
   <v>       0.21084935      -0.20231963      -0.11108346 </v>
   <v>      -0.25343024       0.15909973       0.00698581 </v>
   <v>       0.02628664      -0.10914444      -0.19274301 </v>
   <v>      -0.44246467       0.14576043       0.14615757 </v>
   <v>      -0.13348611      -0.16387315       0.11321107 </v>
   <v>       0.15605886       0.14704008       0.41082908 </v>
   <v>      -0.36970132      -0.10356366       0.16404630 </v>
   <v>      -0.11146444       0.00806076       0.10492968 </v>
   <v>       0.26477824      -0.09720674       0.11007549 </v>
   <v>       0.02553197       0.07447637      -0.02036117 </v>
   <v>       0.18404160      -0.13791662       0.17436434 </v>
   <v>      -0.05854587       0.16330355      -0.12955291 </v>
   <v>      -0.08743543      -0.08413870      -0.09104849 </v>
   <v>      -0.37872256      -0.85094504      -0.64322958 </v>
   <v>       1.28805687       0.11412295      -1.31764980 </v>
   <v>       1.25703098       1.58837597      -0.06717123 </v>
   <v>      -1.85382317      -0.74093619       0.49940626 </v>
   <v>      -0.66499886       0.82171687      -0.72055959 </v>
   <v>      -0.22775448       0.08298231      -0.00818843 </v>
   <v>       0.28258127      -0.78381423       0.53755068 </v>
   <v>       0.28644538       0.04542303      -0.08658076 </v>
   <v>      -0.87665001       0.03548614      -0.00922324 </v>
   <v>       1.71047296      -0.73954687       0.68368521 </v>
   <v>       1.68282559      -0.83136754       0.64557360 </v>
   <v>      -1.14466272      -0.05215881       0.05725329 </v>
   <v>      -2.25988184      -0.09933013       0.11082752 </v>
   <v>       1.40940882       0.79971694      -0.61947919 </v>
   <v>       0.94909386      -0.04321769       0.09404879 </v>
   <v>      -1.50364156       0.90289337       0.67942900 </v>
  </varray>
  <varray name="stress" >
   <v>     -11.84462964       0.12628919       0.62574270 </v>
   <v>       0.12628896     -13.66757778      -0.08531490 </v>
   <v>       0.62574278      -0.08531517       0.73357930 </v>
  </varray>
  <energy>
   <i name="e_fr_energy">   -305.62110501 </i>
   <i name="e_wo_entrp">   -305.62110501 </i>
   <i name="e_0_energy">      0.00000000 </i>
  </energy>
  <time name="totalsc"> 1021.41 1032.67</time>
 </calculation>
 <calculation>
  <scstep>
   <time name="dav">   40.30   40.36</time>
   <time name="total">   40.84   40.93</time>
   <energy>
    <i name="alphaZ">   1083.18275777 </i>
    <i name="ewald"> -30763.55478019 </i>
    <i name="hartreedc"> -13024.42550378 </i>
    <i name="XCdc">   1353.85619312 </i>
    <i name="pawpsdc">  43739.62333471 </i>
    <i name="pawaedc"> -43133.61572376 </i>
    <i name="eentropy">      0.00000000 </i>
    <i name="bandstr">  -3955.55629460 </i>
    <i name="atom">  44408.54722957 </i>
    <i name="e_fr_energy">   -291.94278716 </i>
    <i name="e_wo_entrp">   -291.94278716 </i>
    <i name="e_0_energy">   -291.94278716 </i>
   </energy>
  </scstep>
  <scstep>
   <time name="dav">   47.01   47.10</time>
   <time name="total">   47.54   47.71</time>
   <energy>
    <i name="e_fr_energy">   -294.02824265 </i>
    <i name="e_wo_entrp">   -294.02824265 </i>
    <i name="e_0_energy">   -294.02824265 </i>
   </energy>
  </scstep>
  <scstep>
   <time name="dav">   60.21   61.11</time>
   <time name="total">   60.72   61.72</time>
   <energy>
    <i name="e_fr_energy">   -293.78306138 </i>
    <i name="e_wo_entrp">   -293.78306138 </i>
    <i name="e_0_energy">   -293.78306138 </i>
   </energy>
  </scstep>
  <scstep>
   <time name="dav">   50.37   50.68</time>
   <time name="total">   50.88   51.29</time>
   <energy>
    <i name="e_fr_energy">   -293.66020622 </i>
    <i name="e_wo_entrp">   -293.66020622 </i>
    <i name="e_0_energy">   -293.66020622 </i>
   </energy>
  </scstep>
  <scstep>
   <time name="dav">   50.56   50.92</time>
   <time name="total">   51.06   51.49</time>
   <energy>
    <i name="e_fr_energy">   -293.66001266 </i>
    <i name="e_wo_entrp">   -293.66001266 </i>
    <i name="e_0_energy">   -293.66001266 </i>
   </energy>
  </scstep>
  <scstep>
   <time name="dav">   50.39   50.75</time>
   <time name="total">   50.90   51.34</time>
   <energy>
    <i name="e_fr_energy">   -293.65867887 </i>
    <i name="e_wo_entrp">   -293.65867887 </i>
    <i name="e_0_energy">   -293.65867887 </i>
   </energy>
  </scstep>
  <scstep>
   <time name="dav">   48.62   48.87</time>
   <time name="total">   49.14   49.46</time>
   <energy>
    <i name="e_fr_energy">   -293.65822560 </i>
    <i name="e_wo_entrp">   -293.65822560 </i>
    <i name="e_0_energy">   -293.65822560 </i>
   </energy>
  </scstep>
  <scstep>
   <time name="dav">   61.68   62.73</time>
   <time name="total">   62.19   63.32</time>
   <energy>
    <i name="e_fr_energy">   -293.65825962 </i>
    <i name="e_wo_entrp">   -293.65825962 </i>
    <i name="e_0_energy">   -293.65825962 </i>
   </energy>
  </scstep>
  <scstep>
   <time name="dav">   48.88   49.04</time>
   <time name="total">   49.40   49.67</time>
   <energy>
    <i name="e_fr_energy">   -293.65828863 </i>
    <i name="e_wo_entrp">   -293.65828863 </i>
    <i name="e_0_energy">   -293.65828863 </i>
   </energy>
  </scstep>
  <scstep>
   <time name="dav">   52.14   52.75</time>
   <time name="total">   52.65   53.35</time>
   <energy>
    <i name="e_fr_energy">   -293.65829367 </i>
    <i name="e_wo_entrp">   -293.65829367 </i>
    <i name="e_0_energy">   -293.65829367 </i>
   </energy>
  </scstep>
  <scstep>
   <time name="dav">   45.53   46.13</time>
   <time name="total">   46.03   46.72</time>
   <energy>
    <i name="e_fr_energy">   -293.65829411 </i>
    <i name="e_wo_entrp">   -293.65829411 </i>
    <i name="e_0_energy">   -293.65829411 </i>
   </energy>
  </scstep>
  <scstep>
   <time name="dav">   42.60   43.01</time>
   <time name="total">   42.68   43.16</time>
   <energy>
    <i name="alphaZ">   1083.18275777 </i>
    <i name="ewald"> -30763.55478019 </i>
    <i name="hartreedc"> -12891.59717987 </i>
    <i name="XCdc">   1347.97811341 </i>
    <i name="pawpsdc">  44076.17556199 </i>
    <i name="pawaedc"> -43472.65187530 </i>
    <i name="eentropy">      0.00000000 </i>
    <i name="bandstr">  -4081.73812184 </i>
    <i name="atom">  44408.54722957 </i>
    <i name="e_fr_energy">   -293.65829446 </i>
    <i name="e_wo_entrp">   -293.65829446 </i>
    <i name="e_0_energy">   -293.65829446 </i>
   </energy>
  </scstep>
  <structure>
   <crystal>
    <varray name="basis" >
     <v>      11.09897319       0.00084793       0.00420134 </v>
     <v>       0.00072626       9.49600033      -0.00049063 </v>
     <v>       0.00420281      -0.00057302      11.18732709 </v>
    </varray>
    <i name="volume">   1179.09770406 </i>
    <varray name="rec_basis" >
     <v>       0.09009844      -0.00000689      -0.00003385 </v>
     <v>      -0.00000805       0.10530750       0.00000540 </v>
     <v>      -0.00003384       0.00000462       0.08938687 </v>
    </varray>
   </crystal>
   <varray name="positions" >
    <v>       0.37238300       0.00044928       0.43551233 </v>
    <v>       0.37158146       0.00042137       0.18974468 </v>
    <v>       0.62326362       0.99984839       0.43824041 </v>
    <v>       0.62465930       0.99918768       0.18702786 </v>
    <v>       0.87774524      -0.00012998       0.18568511 </v>
    <v>       0.12325013       0.99983962       0.93774377 </v>
    <v>       0.62748149       0.99985272       0.93554326 </v>
    <v>       0.87631277       0.00048694       0.93836220 </v>
    <v>       0.88100947      -0.00039812       0.43355326 </v>
    <v>       0.37386953      -0.00040067       0.94052134 </v>
    <v>       0.37331830      -0.00037320       0.68151921 </v>
    <v>       0.87611084       0.00071283       0.69003469 </v>
    <v>       0.00097266       0.29011337       0.06403476 </v>
    <v>       0.24834132       0.70460286       0.06497252 </v>
    <v>       0.24846811       0.28539051       0.31295490 </v>
    <v>       0.49858707       0.70450538       0.31303485 </v>
    <v>       0.49981662       0.30049937       0.06417470 </v>
    <v>       0.75123931       0.70454688       0.06320313 </v>
    <v>       0.75033652       0.30051327       0.31212327 </v>
    <v>       0.00221626       0.70983792       0.31219474 </v>
    <v>       0.00271582       0.29537519       0.56193874 </v>
    <v>       0.24849165       0.70967480       0.56118941 </v>
    <v>       0.24787059       0.30060188       0.81208317 </v>
    <v>       0.50072146       0.69961529       0.81203003 </v>
    <v>       0.49980758       0.29521402       0.56196318 </v>
    <v>       0.74944300       0.69974300       0.56285136 </v>
    <v>       0.75003801       0.29530665       0.81298504 </v>
    <v>       0.00088973       0.70478589       0.81298019 </v>
    <v>       0.25142290       0.32745230       0.06105257 </v>
    <v>      -0.00033625       0.67219952       0.06209196 </v>
    <v>       0.50153518       0.32776826       0.31246351 </v>
    <v>       0.25085996       0.67221059       0.31238077 </v>
    <v>       0.74895628       0.32757164       0.06289014 </v>
    <v>       0.50016344       0.67268006       0.06202848 </v>
    <v>       0.99804047       0.32750443       0.31349055 </v>
    <v>       0.74937392       0.67240431       0.31334841 </v>
    <v>       0.25072350       0.32751088       0.56463238 </v>
    <v>      -0.00154551       0.67270818       0.56356772 </v>
    <v>       0.49946896       0.32681062       0.81331268 </v>
    <v>       0.25109269       0.67274021       0.81333488 </v>
    <v>       0.75016019       0.32714526       0.56277216 </v>
    <v>       0.50084426       0.67253509       0.56361224 </v>
    <v>       0.99969734       0.32759282       0.81230109 </v>
    <v>       0.74957266       0.67280606       0.81246720 </v>
    <v>       0.49823556       0.07369242       0.05968501 </v>
    <v>       0.25542882       0.92259502       0.05677545 </v>
    <v>       0.25555492       0.08598320       0.31217021 </v>
    <v>      -0.00787048       0.91828671       0.31461452 </v>
    <v>       0.99700009       0.08212031       0.05935139 </v>
    <v>       0.74888709       0.92243812       0.06242467 </v>
    <v>       0.75134953       0.07403067       0.31477908 </v>
    <v>       0.50136620       0.92224887       0.31208648 </v>
    <v>       0.49608667       0.07815880       0.56242021 </v>
    <v>       0.25725183       0.91829371       0.56540953 </v>
    <v>       0.25739251       0.07379107       0.81524511 </v>
    <v>      -0.00480998       0.92175719       0.81270700 </v>
    <v>       0.99011711       0.07747951       0.56293813 </v>
    <v>       0.75595254       0.92604946       0.55978747 </v>
    <v>       0.75422597       0.07776224       0.81286574 </v>
    <v>       0.49364079       0.92656933       0.81539116 </v>
   </varray>
  </structure>
  <varray name="forces" >
   <v>      -0.46418893       0.02478511      -0.24680506 </v>
   <v>      -0.42717223       0.01303853       0.35393729 </v>
   <v>      -0.17163540      -0.00169834       0.29947081 </v>
   <v>       0.00903690      -0.06674875       0.02291491 </v>
   <v>       0.40664749      -0.03431003      -0.15828993 </v>
   <v>      -0.24147665       0.00434781       0.01974682 </v>
   <v>       0.19925780      -0.00337253      -0.29478805 </v>
   <v>       0.06955328       0.03276426       0.23196254 </v>
   <v>       0.25813727       0.08195524      -0.08406670 </v>
   <v>       0.13554255       0.03432586       0.12955863 </v>
   <v>       0.07837940       0.06270551       0.06808058 </v>
   <v>      -0.04524101      -0.00340141       0.18145640 </v>
   <v>       0.11604634       1.06817027       0.15831736 </v>
   <v>      -0.12190714      -0.17047270       0.15999131 </v>
   <v>      -0.29068452       2.39268135      -0.00872768 </v>
   <v>      -0.02239497      -0.24777737      -0.02235377 </v>
   <v>      -0.04680681      -0.02611413       0.08152796 </v>
   <v>       0.03291955      -0.20534839       0.07388080 </v>
   <v>       0.02959016       0.00413022      -0.01749385 </v>
   <v>       0.27832293      -0.93691487      -0.07555086 </v>
   <v>       0.23625091       0.10490864      -0.07053514 </v>
   <v>      -0.30262731      -0.91015259      -0.12150624 </v>
   <v>      -0.10786155      -0.09417258      -0.05073800 </v>
   <v>       0.04043440       0.19936203      -0.04497891 </v>
   <v>       0.07495609       0.31460507      -0.03412185 </v>
   <v>      -0.05065598       0.14454859      -0.03787106 </v>
   <v>      -0.06785030       0.23024112      -0.03277264 </v>
   <v>       0.15057550      -0.35078782      -0.04012907 </v>
   <v>       0.14088817       0.15537829      -0.20879452 </v>
   <v>      -0.03098268      -0.11961832      -0.07900691 </v>
   <v>       0.14433493       0.20762885      -0.04497881 </v>
   <v>       0.11138588      -0.07795157      -0.05813145 </v>
   <v>      -0.09404481       0.17224471      -0.00045107 </v>
   <v>      -0.00740169      -0.21898428      -0.08316255 </v>
   <v>      -0.23362502       0.08030586       0.09960389 </v>
   <v>      -0.03607342      -0.26160297       0.04347447 </v>
   <v>       0.10872811       0.10172530       0.21433682 </v>
   <v>      -0.17330182      -0.13117175       0.06446710 </v>
   <v>      -0.05113812       0.16330763       0.04110456 </v>
   <v>       0.10732959      -0.21333761       0.04318339 </v>
   <v>       0.02593029       0.20435961       0.00041223 </v>
   <v>       0.02540756      -0.14837220       0.07987910 </v>
   <v>      -0.05251671       0.16035524      -0.08007846 </v>
   <v>       0.00488455      -0.11413435      -0.03467160 </v>
   <v>      -0.14043326       0.34126192      -0.15738440 </v>
   <v>       0.48961022      -0.03554635      -0.52044264 </v>
   <v>       1.08685367      -2.69858651      -0.03190475 </v>
   <v>      -1.02098770       0.85206904      -0.02636940 </v>
   <v>      -0.49116414      -1.19926856      -0.54903274 </v>
   <v>      -0.01678108       0.18313170      -0.00494253 </v>
   <v>       0.24870343       0.29188681       0.21973743 </v>
   <v>       0.01917860       0.20241447      -0.01250578 </v>
   <v>      -0.67656583      -0.15702561      -0.26830638 </v>
   <v>       1.08055174       0.85401716       0.10723744 </v>
   <v>       0.80026410       0.47989883       0.31772585 </v>
   <v>      -0.69544365       0.17343873       0.27947626 </v>
   <v>      -1.22730748       0.12704835       0.07258392 </v>
   <v>       0.95792023      -0.42966437      -0.41694044 </v>
   <v>       0.70822761      -0.11142691       0.24344170 </v>
   <v>      -0.86757904      -0.49507927       0.31032364 </v>
  </varray>
  <varray name="stress" >
   <v>      11.14323574       0.14406343      -0.84524859 </v>
   <v>       0.14406332       7.42291891       0.71851473 </v>
   <v>      -0.84524868       0.71851469       4.53961755 </v>
  </varray>
  <energy>
   <i name="e_fr_energy">   -307.35083924 </i>
   <i name="e_wo_entrp">   -307.35083924 </i>
   <i name="e_0_energy">      0.00000000 </i>
  </energy>
  <time name="totalsc">  681.03  687.98</time>
 </calculation>
 <calculation>
  <scstep>
   <time name="dav">   42.61   43.08</time>
   <time name="total">   43.11   43.59</time>
   <energy>
    <i name="alphaZ">   1083.88786807 </i>
    <i name="ewald"> -30768.60660903 </i>
    <i name="hartreedc"> -12895.41484447 </i>
    <i name="XCdc">   1348.37335775 </i>
    <i name="pawpsdc">  44076.25804107 </i>
    <i name="pawaedc"> -43472.73640372 </i>
    <i name="eentropy">      0.00000000 </i>
    <i name="bandstr">  -4073.95812862 </i>
    <i name="atom">  44408.54722957 </i>
    <i name="e_fr_energy">   -293.64948938 </i>
    <i name="e_wo_entrp">   -293.64948938 </i>
    <i name="e_0_energy">   -293.64948938 </i>
   </energy>
  </scstep>
  <scstep>
   <time name="dav">   43.30   44.31</time>
   <time name="total">   43.80   44.89</time>
   <energy>
    <i name="e_fr_energy">   -293.65320370 </i>
    <i name="e_wo_entrp">   -293.65320370 </i>
    <i name="e_0_energy">   -293.65320370 </i>
   </energy>
  </scstep>
  <scstep>
   <time name="dav">   54.98   55.19</time>
   <time name="total">   55.50   55.81</time>
   <energy>
    <i name="e_fr_energy">   -293.65280299 </i>
    <i name="e_wo_entrp">   -293.65280299 </i>
    <i name="e_0_energy">   -293.65280299 </i>
   </energy>
  </scstep>
  <scstep>
   <time name="dav">   51.47   51.95</time>
   <time name="total">   51.98   52.55</time>
   <energy>
    <i name="e_fr_energy">   -293.65261761 </i>
    <i name="e_wo_entrp">   -293.65261761 </i>
    <i name="e_0_energy">   -293.65261761 </i>
   </energy>
  </scstep>
  <scstep>
   <time name="dav">   52.22   52.74</time>
   <time name="total">   52.74   53.36</time>
   <energy>
    <i name="e_fr_energy">   -293.65262062 </i>
    <i name="e_wo_entrp">   -293.65262062 </i>
    <i name="e_0_energy">   -293.65262062 </i>
   </energy>
  </scstep>
  <scstep>
   <time name="dav">   47.53   47.95</time>
   <time name="total">   48.03   48.53</time>
   <energy>
    <i name="e_fr_energy">   -293.65262347 </i>
    <i name="e_wo_entrp">   -293.65262347 </i>
    <i name="e_0_energy">   -293.65262347 </i>
   </energy>
  </scstep>
  <scstep>
   <time name="dav">   46.93   47.40</time>
   <time name="total">   47.44   48.04</time>
   <energy>
    <i name="e_fr_energy">   -293.65262528 </i>
    <i name="e_wo_entrp">   -293.65262528 </i>
    <i name="e_0_energy">   -293.65262528 </i>
   </energy>
  </scstep>
  <scstep>
   <time name="dav">   38.24   38.88</time>
   <time name="total">   38.74   39.49</time>
   <energy>
    <i name="e_fr_energy">   -293.65262712 </i>
    <i name="e_wo_entrp">   -293.65262712 </i>
    <i name="e_0_energy">   -293.65262712 </i>
   </energy>
  </scstep>
  <scstep>
   <time name="dav">   29.96   30.38</time>
   <time name="total">   30.03   30.55</time>
   <energy>
    <i name="alphaZ">   1083.88786807 </i>
    <i name="ewald"> -30768.60660903 </i>
    <i name="hartreedc"> -12889.54942979 </i>
    <i name="XCdc">   1348.11258181 </i>
    <i name="pawpsdc">  44093.89247077 </i>
    <i name="pawaedc"> -43490.52881473 </i>
    <i name="eentropy">      0.00000000 </i>
    <i name="bandstr">  -4079.40792376 </i>
    <i name="atom">  44408.54722957 </i>
    <i name="e_fr_energy">   -293.65262708 </i>
    <i name="e_wo_entrp">   -293.65262708 </i>
    <i name="e_0_energy">   -293.65262708 </i>
   </energy>
  </scstep>
  <structure>
   <crystal>
    <varray name="basis" >
     <v>      11.09552417       0.00088470       0.00438355 </v>
     <v>       0.00075776       9.49259152      -0.00051191 </v>
     <v>       0.00438508      -0.00059787      11.18754078 </v>
    </varray>
    <i name="volume">   1178.33065613 </i>
    <varray name="rec_basis" >
     <v>       0.09012645      -0.00000720      -0.00003533 </v>
     <v>      -0.00000840       0.10534531       0.00000563 </v>
     <v>      -0.00003531       0.00000482       0.08938516 </v>
    </varray>
   </crystal>
   <varray name="positions" >
    <v>       0.37225167       0.00046150       0.43545352 </v>
    <v>       0.37144913       0.00043238       0.18986935 </v>
    <v>       0.62317072       0.99984876       0.43829985 </v>
    <v>       0.62466145       0.99915916       0.18703470 </v>
    <v>       0.87788221      -0.00014312       0.18563369 </v>
    <v>       0.12315665       0.99983962       0.93778169 </v>
    <v>       0.62757287       0.99985327       0.93548571 </v>
    <v>       0.87635305       0.00050080       0.93842687 </v>
    <v>       0.88125499      -0.00042299       0.43340939 </v>
    <v>       0.37380306      -0.00042561       0.94067965 </v>
    <v>       0.37326197      -0.00039697       0.68128727 </v>
    <v>       0.87617634       0.00073657       0.69017186 </v>
    <v>       0.00100946       0.28989138       0.06408783 </v>
    <v>       0.24826316       0.70459381       0.06506629 </v>
    <v>       0.24840690       0.28496200       0.31296075 </v>
    <v>       0.49853102       0.70449207       0.31304419 </v>
    <v>       0.49980290       0.30073154       0.06423387 </v>
    <v>       0.75128776       0.70453537       0.06322016 </v>
    <v>       0.75035689       0.30074604       0.31209307 </v>
    <v>       0.00231874       0.71005777       0.31216760 </v>
    <v>       0.00282878       0.29538327       0.56190093 </v>
    <v>       0.24842010       0.70988753       0.56111919 </v>
    <v>       0.24778325       0.30083854       0.81205127 </v>
    <v>       0.50075868       0.69938813       0.81199576 </v>
    <v>       0.49979351       0.29521507       0.56192648 </v>
    <v>       0.74941300       0.69952143       0.56285315 </v>
    <v>       0.75004534       0.29531175       0.81299219 </v>
    <v>       0.00093427       0.70478483       0.81298712 </v>
    <v>       0.25148290       0.32748213       0.06097420 </v>
    <v>      -0.00035310       0.67215446       0.06205867 </v>
    <v>       0.50160442       0.32781190       0.31244630 </v>
    <v>       0.25089971       0.67216601       0.31235998 </v>
    <v>       0.74890850       0.32760670       0.06289146 </v>
    <v>       0.50016841       0.67265601       0.06199243 </v>
    <v>       0.99795705       0.32753655       0.31351791 </v>
    <v>       0.74934875       0.67236820       0.31336959 </v>
    <v>       0.25075288       0.32754328       0.56470921 </v>
    <v>      -0.00161521       0.67268537       0.56359843 </v>
    <v>       0.49944794       0.32681239       0.81333232 </v>
    <v>       0.25114260       0.67271879       0.81335545 </v>
    <v>       0.75016500       0.32716167       0.56276835 </v>
    <v>       0.50087894       0.67250470       0.56364483 </v>
    <v>       0.99968631       0.32762880       0.81227686 </v>
    <v>       0.74955618       0.67278752       0.81245018 </v>
    <v>       0.49816423       0.07350493       0.05956473 </v>
    <v>       0.25567172       0.92262013       0.05652893 </v>
    <v>       0.25579187       0.08633315       0.31215758 </v>
    <v>      -0.00821996       0.91812350       0.31470804 </v>
    <v>       0.99687477       0.08230136       0.05921669 </v>
    <v>       0.74884415       0.92245640       0.06242316 </v>
    <v>       0.75140277       0.07385797       0.31487958 </v>
    <v>       0.50142020       0.92225887       0.31207026 </v>
    <v>       0.49592142       0.07816663       0.56241855 </v>
    <v>       0.25757423       0.91813075       0.56553726 </v>
    <v>       0.25770970       0.07360787       0.81536571 </v>
    <v>      -0.00502576       0.92174572       0.81271779 </v>
    <v>       0.98969110       0.07745767       0.56295901 </v>
    <v>       0.75621825       0.92622563       0.55967152 </v>
    <v>       0.75440488       0.07775271       0.81288326 </v>
    <v>       0.49335728       0.92676829       0.81551835 </v>
   </varray>
  </structure>
  <varray name="forces" >
   <v>      -0.45286979       0.02274365      -0.24320535 </v>
   <v>      -0.41404390       0.01007293       0.33929708 </v>
   <v>      -0.15786029      -0.00191635       0.29871106 </v>
   <v>       0.00906327      -0.06393866       0.02223995 </v>
   <v>       0.39206040      -0.03323619      -0.15355164 </v>
   <v>      -0.23032595       0.00419526       0.01160675 </v>
   <v>       0.18683093      -0.00367251      -0.29434148 </v>
   <v>       0.06260510       0.03112030       0.22670786 </v>
   <v>       0.20356287       0.09622225      -0.04840961 </v>
   <v>       0.16417087       0.04439347       0.09407249 </v>
   <v>       0.09990612       0.07436073       0.13148010 </v>
   <v>      -0.06441233      -0.00843712       0.15772034 </v>
   <v>       0.11448148       1.18378349       0.15522822 </v>
   <v>      -0.10862946      -0.17518301       0.14479526 </v>
   <v>      -0.30053690       2.68181525      -0.00946007 </v>
   <v>      -0.00954560      -0.25658434      -0.02532931 </v>
   <v>      -0.04546702      -0.06458540       0.07091029 </v>
   <v>       0.02256714      -0.21227719       0.07299274 </v>
   <v>       0.02590707      -0.03382528      -0.01116557 </v>
   <v>       0.27092693      -1.04043340      -0.07403154 </v>
   <v>       0.21955981       0.10648752      -0.06461308 </v>
   <v>      -0.30351206      -1.01044715      -0.11236076 </v>
   <v>      -0.09114922      -0.13624419      -0.04466009 </v>
   <v>       0.03299735       0.24421072      -0.03853291 </v>
   <v>       0.08214205       0.32890872      -0.02716603 </v>
   <v>      -0.04524265       0.18710300      -0.04018081 </v>
   <v>      -0.07297437       0.23939090      -0.03574030 </v>
   <v>       0.14700615      -0.36603747      -0.04363217 </v>
   <v>       0.13245171       0.15563332      -0.19960601 </v>
   <v>      -0.02826867      -0.11560785      -0.07467046 </v>
   <v>       0.13360048       0.20765847      -0.04268817 </v>
   <v>       0.10683239      -0.07198049      -0.05551399 </v>
   <v>      -0.08659485       0.17268843      -0.00094369 </v>
   <v>      -0.00894612      -0.22357209      -0.07828479 </v>
   <v>      -0.22334913       0.07664556       0.09769219 </v>
   <v>      -0.03168103      -0.26571969       0.04031977 </v>
   <v>       0.10693204       0.09937641       0.20541375 </v>
   <v>      -0.16406154      -0.13203991       0.06016691 </v>
   <v>      -0.04828966       0.16946917       0.03834837 </v>
   <v>       0.09997429      -0.21808648       0.04038170 </v>
   <v>       0.02588691       0.20969903       0.00138418 </v>
   <v>       0.01780126      -0.14886833       0.07559990 </v>
   <v>      -0.05259949       0.16024353      -0.07805844 </v>
   <v>       0.00925505      -0.11540171      -0.03216863 </v>
   <v>      -0.12740215       0.38604928      -0.13362122 </v>
   <v>       0.44573003      -0.04881541      -0.47674711 </v>
   <v>       1.09028325      -2.98243655      -0.03092490 </v>
   <v>      -0.98131709       0.93272619      -0.05685238 </v>
   <v>      -0.48534179      -1.31103221      -0.54362164 </v>
   <v>      -0.00742970       0.18773805      -0.00472160 </v>
   <v>       0.24641582       0.33134836       0.20504908 </v>
   <v>       0.00715054       0.20990971      -0.00928981 </v>
   <v>      -0.66670634      -0.16487766      -0.28138243 </v>
   <v>       1.05098417       0.93605309       0.07768748 </v>
   <v>       0.75750893       0.53087420       0.29950297 </v>
   <v>      -0.67417182       0.18156865       0.29113662 </v>
   <v>      -1.17839255       0.14208514       0.07157151 </v>
   <v>       0.93592534      -0.47693900      -0.40729687 </v>
   <v>       0.69690593      -0.11367364       0.25099107 </v>
   <v>      -0.83630421      -0.54870551       0.29176519 </v>
  </varray>
  <varray name="stress" >
   <v>      12.19855935       0.12775254      -0.91158890 </v>
   <v>       0.12775259       8.76585936       0.78268299 </v>
   <v>      -0.91158930       0.78268315       4.75203285 </v>
  </varray>
  <energy>
   <i name="e_fr_energy">   -307.35247288 </i>
   <i name="e_wo_entrp">   -307.35247288 </i>
   <i name="e_0_energy">      0.00000000 </i>
  </energy>
  <time name="totalsc">  488.34  494.54</time>
 </calculation>
 <calculation>
  <scstep>
   <time name="dav">   44.88   45.11</time>
   <time name="total">   45.38   45.62</time>
   <energy>
    <i name="alphaZ">   1077.00154083 </i>
    <i name="ewald"> -30796.81426829 </i>
    <i name="hartreedc"> -12770.35234820 </i>
    <i name="XCdc">   1343.91261214 </i>
    <i name="pawpsdc">  44093.88217992 </i>
    <i name="pawaedc"> -43490.51829603 </i>
    <i name="eentropy">      0.00000000 </i>
    <i name="bandstr">  -4158.02666532 </i>
    <i name="atom">  44408.54722957 </i>
    <i name="e_fr_energy">   -292.36801537 </i>
    <i name="e_wo_entrp">   -292.36801537 </i>
    <i name="e_0_energy">   -292.36801537 </i>
   </energy>
  </scstep>
  <scstep>
   <time name="dav">   45.93   46.54</time>
   <time name="total">   46.45   47.15</time>
   <energy>
    <i name="e_fr_energy">   -294.54477421 </i>
    <i name="e_wo_entrp">   -294.54477421 </i>
    <i name="e_0_energy">   -294.54477421 </i>
   </energy>
  </scstep>
  <scstep>
   <time name="dav">   60.72   60.82</time>
   <time name="total">   61.23   61.41</time>
   <energy>
    <i name="e_fr_energy">   -294.46876195 </i>
    <i name="e_wo_entrp">   -294.46876195 </i>
    <i name="e_0_energy">   -294.46876195 </i>
   </energy>
  </scstep>
  <scstep>
   <time name="dav">   46.00   46.98</time>
   <time name="total">   46.49   47.56</time>
   <energy>
    <i name="e_fr_energy">   -294.42440630 </i>
    <i name="e_wo_entrp">   -294.42440630 </i>
    <i name="e_0_energy">   -294.42440630 </i>
   </energy>
  </scstep>
  <scstep>
   <time name="dav">   50.45   50.78</time>
   <time name="total">   50.96   51.37</time>
   <energy>
    <i name="e_fr_energy">   -294.39670941 </i>
    <i name="e_wo_entrp">   -294.39670941 </i>
    <i name="e_0_energy">   -294.39670941 </i>
   </energy>
  </scstep>
  <scstep>
   <time name="dav">   47.62   48.02</time>
   <time name="total">   48.12   48.63</time>
   <energy>
    <i name="e_fr_energy">   -294.39649873 </i>
    <i name="e_wo_entrp">   -294.39649873 </i>
    <i name="e_0_energy">   -294.39649873 </i>
   </energy>
  </scstep>
  <scstep>
   <time name="dav">   50.57   50.88</time>
   <time name="total">   51.07   51.51</time>
   <energy>
    <i name="e_fr_energy">   -294.39654330 </i>
    <i name="e_wo_entrp">   -294.39654330 </i>
    <i name="e_0_energy">   -294.39654330 </i>
   </energy>
  </scstep>
  <scstep>
   <time name="dav">   58.81   58.93</time>
   <time name="total">   59.31   59.55</time>
   <energy>
    <i name="e_fr_energy">   -294.39644578 </i>
    <i name="e_wo_entrp">   -294.39644578 </i>
    <i name="e_0_energy">   -294.39644578 </i>
   </energy>
  </scstep>
  <scstep>
   <time name="dav">   50.23   50.80</time>
   <time name="total">   50.73   51.39</time>
   <energy>
    <i name="e_fr_energy">   -294.39645500 </i>
    <i name="e_wo_entrp">   -294.39645500 </i>
    <i name="e_0_energy">   -294.39645500 </i>
   </energy>
  </scstep>
  <scstep>
   <time name="dav">   53.73   54.28</time>
   <time name="total">   54.23   54.88</time>
   <energy>
    <i name="e_fr_energy">   -294.39645700 </i>
    <i name="e_wo_entrp">   -294.39645700 </i>
    <i name="e_0_energy">   -294.39645700 </i>
   </energy>
  </scstep>
  <scstep>
   <time name="dav">   44.36   44.74</time>
   <time name="total">   44.86   45.35</time>
   <energy>
    <i name="e_fr_energy">   -294.39645946 </i>
    <i name="e_wo_entrp">   -294.39645946 </i>
    <i name="e_0_energy">   -294.39645946 </i>
   </energy>
  </scstep>
  <scstep>
   <time name="dav">   41.55   41.86</time>
   <time name="total">   42.06   42.46</time>
   <energy>
    <i name="e_fr_energy">   -294.39646049 </i>
    <i name="e_wo_entrp">   -294.39646049 </i>
    <i name="e_0_energy">   -294.39646049 </i>
   </energy>
  </scstep>
  <scstep>
   <time name="dav">   39.85   40.25</time>
   <time name="total">   40.38   40.89</time>
   <energy>
    <i name="e_fr_energy">   -294.39646168 </i>
    <i name="e_wo_entrp">   -294.39646168 </i>
    <i name="e_0_energy">   -294.39646168 </i>
   </energy>
  </scstep>
  <scstep>
   <time name="dav">   29.39   29.53</time>
   <time name="total">   29.45   29.68</time>
   <energy>
    <i name="alphaZ">   1077.00154083 </i>
    <i name="ewald"> -30796.81426829 </i>
    <i name="hartreedc"> -12829.07359938 </i>
    <i name="XCdc">   1346.68018209 </i>
    <i name="pawpsdc">  43775.63169585 </i>
    <i name="pawaedc"> -43167.93088828 </i>
    <i name="eentropy">      0.00000000 </i>
    <i name="bandstr">  -4108.43835420 </i>
    <i name="atom">  44408.54722957 </i>
    <i name="e_fr_energy">   -294.39646180 </i>
    <i name="e_wo_entrp">   -294.39646180 </i>
    <i name="e_0_energy">   -294.39646180 </i>
   </energy>
  </scstep>
  <structure>
   <crystal>
    <varray name="basis" >
     <v>      11.12875418       0.00223881       0.00087392 </v>
     <v>       0.00191682       9.49533141       0.00362513 </v>
     <v>       0.00084531       0.00428037      11.22221576 </v>
    </varray>
    <i name="volume">   1185.86487980 </i>
    <varray name="rec_basis" >
     <v>       0.08985732      -0.00001814      -0.00000676 </v>
     <v>      -0.00002118       0.10531493      -0.00004017 </v>
     <v>      -0.00000699      -0.00003402       0.08910898 </v>
    </varray>
   </crystal>
   <varray name="positions" >
    <v>       0.36844325       0.00074783       0.43358058 </v>
    <v>       0.36779594       0.00063713       0.19307564 </v>
    <v>       0.62118844       0.99984435       0.44042416 </v>
    <v>       0.62473106       0.99843548       0.18722633 </v>
    <v>       0.88150297      -0.00049599       0.18425169 </v>
    <v>       0.12084898       0.99986115       0.93835863 </v>
    <v>       0.62966104       0.99984184       0.93340663 </v>
    <v>       0.87718628       0.00085274       0.94031017 </v>
    <v>       0.88555543      -0.00027509       0.43120221 </v>
    <v>       0.37360025      -0.00054422       0.94328509 </v>
    <v>       0.37291807      -0.00034561       0.67864091 </v>
    <v>       0.87680270       0.00102290       0.69276114 </v>
    <v>       0.00202164       0.29287844       0.06549942 </v>
    <v>       0.24670166       0.70357033       0.06699736 </v>
    <v>       0.24623840       0.29276196       0.31300195 </v>
    <v>       0.49771147       0.70299195       0.31306350 </v>
    <v>       0.49941286       0.30362310       0.06536342 </v>
    <v>       0.75205912       0.70328745       0.06377375 </v>
    <v>       0.75075332       0.30380355       0.31162542 </v>
    <v>       0.00492980       0.70777571       0.31146839 </v>
    <v>       0.00535963       0.29604126       0.56109489 </v>
    <v>       0.24609647       0.70766058       0.55965652 </v>
    <v>       0.24617143       0.30342499       0.81141458 </v>
    <v>       0.50141997       0.69748696       0.81135266 </v>
    <v>       0.49995842       0.29691564       0.56129899 </v>
    <v>       0.74879829       0.69740519       0.56270340 </v>
    <v>       0.74982709       0.29660974       0.81293615 </v>
    <v>       0.00219737       0.70289368       0.81289311 </v>
    <v>       0.25289680       0.32869381       0.05901837 </v>
    <v>      -0.00071085       0.67093636       0.06127201 </v>
    <v>       0.50315142       0.32948213       0.31202162 </v>
    <v>       0.25192018       0.67117816       0.31182982 </v>
    <v>       0.74786556       0.32897859       0.06290596 </v>
    <v>       0.50019839       0.67117609       0.06115170 </v>
    <v>       0.99581948       0.32837547       0.31432297 </v>
    <v>       0.74886050       0.67050499       0.31383884 </v>
    <v>       0.25162932       0.32850242       0.56666842 </v>
    <v>      -0.00330221       0.67169199       0.56428642 </v>
    <v>       0.49894429       0.32770586       0.81377163 </v>
    <v>       0.25227373       0.67130348       0.81381622 </v>
    <v>       0.75034526       0.32846437       0.56272152 </v>
    <v>       0.50143831       0.67131979       0.56442584 </v>
    <v>       0.99930262       0.32894965       0.81160138 </v>
    <v>       0.74936821       0.67193863       0.81207404 </v>
    <v>       0.49661553       0.07288155       0.05731501 </v>
    <v>       0.26099876       0.92271806       0.05103407 </v>
    <v>       0.26386319       0.07590132       0.31184513 </v>
    <v>      -0.01737459       0.92063985       0.31576035 </v>
    <v>       0.99300829       0.07809379       0.05498373 </v>
    <v>       0.74821561       0.92367262       0.06238168 </v>
    <v>       0.75322195       0.07315945       0.31716559 </v>
    <v>       0.50220104       0.92347374       0.31180494 </v>
    <v>       0.49070436       0.07743037       0.56117273 </v>
    <v>       0.26665773       0.92066677       0.56764580 </v>
    <v>       0.26543361       0.07378623       0.81834059 </v>
    <v>      -0.01097794       0.92251761       0.81413504 </v>
    <v>       0.97861008       0.07788333       0.56356226 </v>
    <v>       0.76401179       0.92622549       0.55628943 </v>
    <v>       0.75994398       0.07703739       0.81421681 </v>
    <v>       0.48575423       0.92671763       0.81855341 </v>
   </varray>
  </structure>
  <varray name="forces" >
   <v>      -0.24599435       0.01448391      -0.11275872 </v>
   <v>      -0.14769052      -0.02070152       0.07624634 </v>
   <v>       0.00899374       0.00126140       0.21893707 </v>
   <v>       0.00348608      -0.04559691       0.02973100 </v>
   <v>       0.17577460      -0.02133797      -0.09369652 </v>
   <v>      -0.10505267       0.01009160      -0.03603514 </v>
   <v>       0.03331457      -0.00272706      -0.20918238 </v>
   <v>      -0.05455694       0.01069463       0.13208477 </v>
   <v>      -0.93084774       0.40292530       0.65041900 </v>
   <v>       0.66265615       0.26406353      -0.39714242 </v>
   <v>       0.58465285       0.33281128       1.14291726 </v>
   <v>      -0.37063621      -0.10551127      -0.15712065 </v>
   <v>      -0.08526587      -0.31966923      -0.13095096 </v>
   <v>       0.22675586       0.25886831      -0.28482277 </v>
   <v>       0.29458113      -1.56559425      -0.07546796 </v>
   <v>       0.32525284       0.30488163      -0.06226510 </v>
   <v>       0.02242383      -0.60276483      -0.10827305 </v>
   <v>      -0.20063134       0.25426459       0.05535503 </v>
   <v>      -0.16266002      -0.61415123       0.10467981 </v>
   <v>      -0.26177575       0.17112967       0.04216251 </v>
   <v>      -0.21149228      -0.27706503       0.13727292 </v>
   <v>       0.04362428       0.21505358       0.23812322 </v>
   <v>       0.22742162      -0.62542420       0.09389736 </v>
   <v>      -0.12735203       0.65448992       0.08364567 </v>
   <v>       0.16726870      -0.17574790       0.05733427 </v>
   <v>       0.04081726       0.66285626      -0.10446679 </v>
   <v>      -0.08671453      -0.12833274      -0.07043564 </v>
   <v>      -0.00342422       0.13984830      -0.09318744 </v>
   <v>      -0.11145367       0.20266237       0.09667657 </v>
   <v>       0.04200825      -0.13235579       0.05649698 </v>
   <v>      -0.09686015       0.25344847       0.01317747 </v>
   <v>      -0.04854025      -0.09613853       0.04061111 </v>
   <v>       0.08401826       0.19770343      -0.00695295 </v>
   <v>      -0.03574530      -0.28670684       0.03192419 </v>
   <v>       0.13176073       0.09725312       0.00300185 </v>
   <v>       0.05616398      -0.34776854      -0.02770804 </v>
   <v>       0.02237892       0.13815592      -0.09174624 </v>
   <v>       0.07817539      -0.18691282      -0.05434575 </v>
   <v>       0.00774273       0.23443170      -0.02657510 </v>
   <v>      -0.07636579      -0.30386972      -0.04250308 </v>
   <v>       0.02177154       0.28287498       0.02229429 </v>
   <v>      -0.11013651      -0.18316817      -0.02481835 </v>
   <v>      -0.01909506       0.19676462      -0.01687125 </v>
   <v>       0.08606972      -0.13786575       0.01765957 </v>
   <v>       0.16255389       0.96038859       0.17260111 </v>
   <v>      -0.46241276      -0.82267132       0.36002532 </v>
   <v>       0.27397520       1.50788879       0.01268336 </v>
   <v>       0.25316032      -0.84578324      -0.95956210 </v>
   <v>      -0.16443177       0.28099985      -0.25294521 </v>
   <v>       0.01878885      -0.30052824       0.00883110 </v>
   <v>       0.06624803       0.95781889      -0.00857188 </v>
   <v>       0.02896114      -0.41213732      -0.00276310 </v>
   <v>      -0.18392147       0.45885376      -0.36669397 </v>
   <v>      -0.05507888      -0.75430294      -0.62535163 </v>
   <v>      -0.02336363       1.19049358      -0.09030101 </v>
   <v>      -0.11982470      -0.47322768       0.37850192 </v>
   <v>      -0.12008017       0.87825760       0.14144254 </v>
   <v>       0.33413452      -1.03371637      -0.11464828 </v>
   <v>       0.25625655       0.36514833       0.30831539 </v>
   <v>      -0.11978696      -1.07909050      -0.07888547 </v>
  </varray>
  <varray name="stress" >
   <v>      16.49615086       1.03963683      -1.57232694 </v>
   <v>       1.03963657     -25.50429654       1.34631129 </v>
   <v>      -1.57232710       1.34631147       4.12589432 </v>
  </varray>
  <energy>
   <i name="e_fr_energy">   -308.03505043 </i>
   <i name="e_wo_entrp">   -308.03505043 </i>
   <i name="e_0_energy">      0.00000000 </i>
  </energy>
  <time name="totalsc">  747.73  755.22</time>
 </calculation>
 <calculation>
  <scstep>
   <time name="dav">   39.40   39.69</time>
   <time name="total">   39.90   40.20</time>
   <energy>
    <i name="alphaZ">   1078.47204122 </i>
    <i name="ewald"> -30793.34182366 </i>
    <i name="hartreedc"> -12851.80893249 </i>
    <i name="XCdc">   1347.53602371 </i>
    <i name="pawpsdc">  43775.63408036 </i>
    <i name="pawaedc"> -43167.93259751 </i>
    <i name="eentropy">      0.00000000 </i>
    <i name="bandstr">  -4091.45899009 </i>
    <i name="atom">  44408.54722957 </i>
    <i name="e_fr_energy">   -294.35296888 </i>
    <i name="e_wo_entrp">   -294.35296888 </i>
    <i name="e_0_energy">   -294.35296888 </i>
   </energy>
  </scstep>
  <scstep>
   <time name="dav">   46.27   46.50</time>
   <time name="total">   46.76   47.07</time>
   <energy>
    <i name="e_fr_energy">   -294.44096824 </i>
    <i name="e_wo_entrp">   -294.44096824 </i>
    <i name="e_0_energy">   -294.44096824 </i>
   </energy>
  </scstep>
  <scstep>
   <time name="dav">   54.43   55.23</time>
   <time name="total">   54.94   55.84</time>
   <energy>
    <i name="e_fr_energy">   -294.43838117 </i>
    <i name="e_wo_entrp">   -294.43838117 </i>
    <i name="e_0_energy">   -294.43838117 </i>
   </energy>
  </scstep>
  <scstep>
   <time name="dav">   49.42   49.76</time>
   <time name="total">   49.93   50.35</time>
   <energy>
    <i name="e_fr_energy">   -294.43521219 </i>
    <i name="e_wo_entrp">   -294.43521219 </i>
    <i name="e_0_energy">   -294.43521219 </i>
   </energy>
  </scstep>
  <scstep>
   <time name="dav">   45.18   45.69</time>
   <time name="total">   45.68   46.34</time>
   <energy>
    <i name="e_fr_energy">   -294.43447203 </i>
    <i name="e_wo_entrp">   -294.43447203 </i>
    <i name="e_0_energy">   -294.43447203 </i>
   </energy>
  </scstep>
  <scstep>
   <time name="dav">   49.81   50.38</time>
   <time name="total">   50.30   50.95</time>
   <energy>
    <i name="e_fr_energy">   -294.43453479 </i>
    <i name="e_wo_entrp">   -294.43453479 </i>
    <i name="e_0_energy">   -294.43453479 </i>
   </energy>
  </scstep>
  <scstep>
   <time name="dav">   60.90   61.42</time>
   <time name="total">   61.40   62.02</time>
   <energy>
    <i name="e_fr_energy">   -294.43453950 </i>
    <i name="e_wo_entrp">   -294.43453950 </i>
    <i name="e_0_energy">   -294.43453950 </i>
   </energy>
  </scstep>
  <scstep>
   <time name="dav">   47.54   48.42</time>
   <time name="total">   48.07   49.02</time>
   <energy>
    <i name="e_fr_energy">   -294.43454019 </i>
    <i name="e_wo_entrp">   -294.43454019 </i>
    <i name="e_0_energy">   -294.43454019 </i>
   </energy>
  </scstep>
  <scstep>
   <time name="dav">   45.14   45.61</time>
[...]
       <r>    8.7846    0.0000 </r>
       <r>    8.8099    0.0000 </r>
       <r>    8.8469    0.0000 </r>
       <r>    8.8764    0.0000 </r>
       <r>    8.9276    0.0000 </r>
       <r>    8.9729    0.0000 </r>
       <r>    8.9996    0.0000 </r>
      </set>
     </set>
    </set>
   </array>
  </eigenvalues>
  <separator name="orbital magnetization" >
   <v name="MAGDIPOLOUT">      0.00000000      0.00000000      0.00000000</v>
  </separator>
  <dos>
   <i name="efermi">      4.18205511 </i>
   <total>
    <array>
     <dimension dim="1">gridpoints</dimension>
     <dimension dim="2">spin</dimension>
     <field>energy</field>
     <field>total</field>
     <field>integrated</field>
     <set>
      <set comment="spin 1">
       <r>   -42.7168     0.0000     0.0000 </r>
       <r>   -42.5345     0.0000     0.0000 </r>
       <r>   -42.3522     0.0000     0.0000 </r>
       <r>   -42.1699     0.0000     0.0000 </r>
       <r>   -41.9875     0.0000     0.0000 </r>
       <r>   -41.8052     0.0000     0.0000 </r>
       <r>   -41.6229     0.0000     0.0000 </r>
       <r>   -41.4406     0.0000     0.0000 </r>
       <r>   -41.2583     0.0000     0.0000 </r>
       <r>   -41.0760     0.0000     0.0000 </r>
       <r>   -40.8937     0.0000     0.0000 </r>
       <r>   -40.7114     0.0000     0.0000 </r>
       <r>   -40.5291     0.0000     0.0000 </r>
       <r>   -40.3468     0.0000     0.0000 </r>
       <r>   -40.1645     0.0000     4.0000 </r>
       <r>   -39.9821     0.0000     4.0000 </r>
       <r>   -39.7998     0.0000     8.0000 </r>
       <r>   -39.6175     0.0000    10.0000 </r>
       <r>   -39.4352     0.0000    12.0000 </r>
       <r>   -39.2529     0.0000    14.0000 </r>
       <r>   -39.0706     0.0000    16.0000 </r>
       <r>   -38.8883     0.0000    16.0000 </r>
       <r>   -38.7060     0.0000    16.0000 </r>
       <r>   -38.5237     0.0000    16.0000 </r>
       <r>   -38.3414     0.0000    16.0000 </r>
       <r>   -38.1591     0.0000    16.0000 </r>
       <r>   -37.9768     0.0000    16.0000 </r>
       <r>   -37.7944     0.0000    16.0000 </r>
       <r>   -37.6121     0.0000    16.0000 </r>
       <r>   -37.4298     0.0000    16.0000 </r>
       <r>   -37.2475     0.0000    16.0000 </r>
       <r>   -37.0652     0.0000    16.0000 </r>
       <r>   -36.8829     0.0000    16.0000 </r>
       <r>   -36.7006     0.0000    16.0000 </r>
       <r>   -36.5183     0.0000    16.0000 </r>
       <r>   -36.3360     0.0000    16.0000 </r>
       <r>   -36.1537     0.0000    16.0000 </r>
       <r>   -35.9714     0.0000    16.0000 </r>
       <r>   -35.7891     0.0000    16.0000 </r>
       <r>   -35.6067     0.0000    16.0000 </r>
       <r>   -35.4244     0.0000    16.0000 </r>
       <r>   -35.2421     0.0000    16.0000 </r>
       <r>   -35.0598     0.0000    16.0000 </r>
       <r>   -34.8775     0.0000    16.0000 </r>
       <r>   -34.6952     0.0000    16.0000 </r>
       <r>   -34.5129     0.0000    16.0000 </r>
       <r>   -34.3306     0.0000    16.0000 </r>
       <r>   -34.1483     0.0000    16.0000 </r>
       <r>   -33.9660     0.0000    16.0000 </r>
       <r>   -33.7837     0.0000    16.0000 </r>
       <r>   -33.6014     0.0000    16.0000 </r>
       <r>   -33.4190     0.0000    16.0000 </r>
       <r>   -33.2367     0.0000    16.0000 </r>
       <r>   -33.0544     0.0000    16.0000 </r>
       <r>   -32.8721     0.0000    16.0000 </r>
       <r>   -32.6898     0.0000    16.0000 </r>
       <r>   -32.5075     0.0000    16.0000 </r>
       <r>   -32.3252     0.0000    16.0000 </r>
       <r>   -32.1429     0.0000    16.0000 </r>
       <r>   -31.9606     0.0000    16.0000 </r>
       <r>   -31.7783     0.0000    16.0000 </r>
       <r>   -31.5960     0.0000    16.0000 </r>
       <r>   -31.4137     0.0000    16.0000 </r>
       <r>   -31.2313     0.0000    16.0000 </r>
       <r>   -31.0490     0.0000    16.0000 </r>
       <r>   -30.8667     0.0000    16.0000 </r>
       <r>   -30.6844     0.0000    16.0000 </r>
       <r>   -30.5021     0.0000    16.0000 </r>
       <r>   -30.3198     0.0000    16.0000 </r>
       <r>   -30.1375     0.0000    16.0000 </r>
       <r>   -29.9552     0.0000    16.0000 </r>
       <r>   -29.7729     0.0000    16.0000 </r>
       <r>   -29.5906     0.0000    16.0000 </r>
       <r>   -29.4083     0.0000    16.0000 </r>
       <r>   -29.2260     0.0000    16.0000 </r>
       <r>   -29.0436     0.0000    16.0000 </r>
       <r>   -28.8613     0.0000    16.0000 </r>
       <r>   -28.6790     0.0000    16.0000 </r>
       <r>   -28.4967     0.0000    16.0000 </r>
       <r>   -28.3144     0.0000    16.0000 </r>
       <r>   -28.1321     0.0000    16.0000 </r>
       <r>   -27.9498     0.0000    16.0000 </r>
       <r>   -27.7675     0.0000    16.0000 </r>
       <r>   -27.5852     0.0000    16.0000 </r>
       <r>   -27.4029     0.0000    16.0000 </r>
       <r>   -27.2206     0.0000    16.0000 </r>
       <r>   -27.0383     0.0000    16.0000 </r>
       <r>   -26.8559     0.0000    16.0000 </r>
       <r>   -26.6736     0.0000    16.0000 </r>
       <r>   -26.4913     0.0000    16.0000 </r>
       <r>   -26.3090     0.0000    16.0000 </r>
       <r>   -26.1267     0.0000    16.0000 </r>
       <r>   -25.9444     0.0000    16.0000 </r>
       <r>   -25.7621     0.0000    16.0000 </r>
       <r>   -25.5798     0.0000    16.0000 </r>
       <r>   -25.3975     0.0000    16.0000 </r>
       <r>   -25.2152     0.0000    16.0000 </r>
       <r>   -25.0329     0.0000    16.0000 </r>
       <r>   -24.8506     0.0000    16.0000 </r>
       <r>   -24.6682     0.0000    16.0000 </r>
       <r>   -24.4859     0.0000    16.0000 </r>
       <r>   -24.3036     0.0000    16.0000 </r>
       <r>   -24.1213     0.0000    16.0000 </r>
       <r>   -23.9390     0.0000    16.0000 </r>
       <r>   -23.7567     0.0000    16.0000 </r>
       <r>   -23.5744     0.0000    16.0000 </r>
       <r>   -23.3921     0.0000    16.0000 </r>
       <r>   -23.2098     0.0000    16.0000 </r>
       <r>   -23.0275     0.0000    16.0000 </r>
       <r>   -22.8452     0.0000    16.0000 </r>
       <r>   -22.6629     0.0000    16.0000 </r>
       <r>   -22.4805     0.0000    16.0000 </r>
       <r>   -22.2982     0.0000    16.0000 </r>
       <r>   -22.1159     0.0000    16.0000 </r>
       <r>   -21.9336     0.0000    16.0000 </r>
       <r>   -21.7513     0.0000    16.0000 </r>
       <r>   -21.5690     0.0000    16.0000 </r>
       <r>   -21.3867     0.0000    16.0000 </r>
       <r>   -21.2044     0.0000    16.0000 </r>
       <r>   -21.0221     0.0000    16.0000 </r>
       <r>   -20.8398     0.0000    16.0000 </r>
       <r>   -20.6575     0.0000    16.0000 </r>
       <r>   -20.4752     0.0000    16.0000 </r>
       <r>   -20.2928     0.0000    16.0000 </r>
       <r>   -20.1105     0.0000    16.0000 </r>
       <r>   -19.9282     0.0000    16.0000 </r>
       <r>   -19.7459     0.0000    16.0000 </r>
       <r>   -19.5636     0.0000    16.0000 </r>
       <r>   -19.3813     0.0000    16.0000 </r>
       <r>   -19.1990     0.0000    16.0000 </r>
       <r>   -19.0167     0.0000    16.0000 </r>
       <r>   -18.8344     0.0000    16.0000 </r>
       <r>   -18.6521     0.0000   104.0000 </r>
       <r>   -18.4698     0.0000   168.0000 </r>
       <r>   -18.2875     0.0000   172.0000 </r>
       <r>   -18.1051     0.0000   176.0000 </r>
       <r>   -17.9228     0.0000   176.0000 </r>
       <r>   -17.7405     0.0000   176.0000 </r>
       <r>   -17.5582     0.0000   176.0000 </r>
       <r>   -17.3759     0.0000   176.0000 </r>
       <r>   -17.1936     0.0000   176.0000 </r>
       <r>   -17.0113     0.0000   176.0000 </r>
       <r>   -16.8290     0.0000   176.0000 </r>
       <r>   -16.6467     0.0000   176.0000 </r>
       <r>   -16.4644     0.0000   176.0000 </r>
       <r>   -16.2821     0.0000   176.0000 </r>
       <r>   -16.0998     0.0000   176.0000 </r>
       <r>   -15.9174     0.0000   176.0000 </r>
       <r>   -15.7351     0.0000   176.0000 </r>
       <r>   -15.5528     0.0000   176.0000 </r>
       <r>   -15.3705     0.0000   176.0000 </r>
       <r>   -15.1882     0.0000   176.0000 </r>
       <r>   -15.0059     0.0000   176.0000 </r>
       <r>   -14.8236     0.0000   176.0000 </r>
       <r>   -14.6413     0.0000   176.0000 </r>
       <r>   -14.4590     0.0000   176.0000 </r>
       <r>   -14.2767     0.0000   176.0000 </r>
       <r>   -14.0944     0.0000   176.0000 </r>
       <r>   -13.9121     0.0000   176.0000 </r>
       <r>   -13.7297     0.0000   176.0000 </r>
       <r>   -13.5474     0.0000   176.0000 </r>
       <r>   -13.3651     0.0000   176.0000 </r>
       <r>   -13.1828     0.0000   180.0000 </r>
       <r>   -13.0005     0.0000   180.0000 </r>
       <r>   -12.8182     0.0000   194.0000 </r>
       <r>   -12.6359     0.0000   202.0000 </r>
       <r>   -12.4536     0.0000   206.0000 </r>
       <r>   -12.2713     0.0000   208.0000 </r>
       <r>   -12.0890     0.0000   208.0000 </r>
       <r>   -11.9067     0.0000   208.0000 </r>
       <r>   -11.7244     0.0000   208.0000 </r>
       <r>   -11.5420     0.0000   208.0000 </r>
       <r>   -11.3597     0.0000   208.0000 </r>
       <r>   -11.1774     0.0000   208.0000 </r>
       <r>   -10.9951     0.0000   208.0000 </r>
       <r>   -10.8128     0.0000   208.0000 </r>
       <r>   -10.6305     0.0000   208.0000 </r>
       <r>   -10.4482     0.0000   208.0000 </r>
       <r>   -10.2659     0.0000   208.0000 </r>
       <r>   -10.0836     0.0000   208.0000 </r>
       <r>    -9.9013     0.0000   208.0000 </r>
       <r>    -9.7190     0.0000   208.0000 </r>
       <r>    -9.5367     0.0000   208.0000 </r>
       <r>    -9.3543    11.1646   208.7876 </r>
       <r>    -9.1720    12.5564   210.5858 </r>
       <r>    -8.9897     4.2271   211.9845 </r>
       <r>    -8.8074    17.3809   213.5399 </r>
       <r>    -8.6251    24.3192   216.1849 </r>
       <r>    -8.4428    18.2354   220.8549 </r>
       <r>    -8.2605     4.6635   223.8617 </r>
       <r>    -8.0782    46.1136   226.5604 </r>
       <r>    -7.8959    28.7669   233.1681 </r>
       <r>    -7.7136     8.3577   236.1779 </r>
       <r>    -7.5313    11.9391   239.6553 </r>
       <r>    -7.3489     0.0000   240.0000 </r>
       <r>    -7.1666     0.0000   240.0000 </r>
       <r>    -6.9843     0.0000   240.0000 </r>
       <r>    -6.8020     0.0000   240.0000 </r>
       <r>    -6.6197     0.0000   240.0000 </r>
       <r>    -6.4374     0.0000   240.0000 </r>
       <r>    -6.2551    18.3338   241.2278 </r>
       <r>    -6.0728    32.4471   246.5570 </r>
       <r>    -5.8905    19.6153   249.1799 </r>
       <r>    -5.7082    28.4936   254.4374 </r>
       <r>    -5.5259    21.5113   258.3417 </r>
       <r>    -5.3436    13.6096   262.2701 </r>
       <r>    -5.1612     3.4358   263.9537 </r>
       <r>    -4.9789     6.7623   264.4837 </r>
       <r>    -4.7966    14.4138   266.9248 </r>
       <r>    -4.6143     3.3390   268.3321 </r>
       <r>    -4.4320     6.5160   269.2306 </r>
       <r>    -4.2497     9.6346   270.8339 </r>
       <r>    -4.0674     2.4084   271.6204 </r>
       <r>    -3.8851     0.9987   271.9308 </r>
       <r>    -3.7028     0.0010   272.0000 </r>
       <r>    -3.5205     0.0000   272.0000 </r>
       <r>    -3.3382     0.0000   272.0000 </r>
       <r>    -3.1559     0.0000   272.0000 </r>
       <r>    -2.9735     0.0000   272.0000 </r>
       <r>    -2.7912     0.0000   272.0000 </r>
       <r>    -2.6089     0.0000   272.0000 </r>
       <r>    -2.4266     0.0000   272.0000 </r>
       <r>    -2.2443     0.0000   272.0000 </r>
       <r>    -2.0620     0.0000   272.0000 </r>
       <r>    -1.8797     0.0000   272.0000 </r>
       <r>    -1.6974     0.0000   272.0000 </r>
       <r>    -1.5151     0.0000   272.0000 </r>
       <r>    -1.3328     2.7013   272.0909 </r>
       <r>    -1.1505     7.7729   273.3030 </r>
       <r>    -0.9682     5.4436   274.5086 </r>
       <r>    -0.7858    13.5193   276.0765 </r>
       <r>    -0.6035    12.1748   278.5991 </r>
       <r>    -0.4212    19.4096   281.0536 </r>
       <r>    -0.2389    34.1635   286.3084 </r>
       <r>    -0.0566    42.5491   292.6719 </r>
       <r>     0.1257    34.8507   300.1910 </r>
       <r>     0.3080    39.8849   308.3430 </r>
       <r>     0.4903    26.7510   313.7480 </r>
       <r>     0.6726    36.4637   320.4383 </r>
       <r>     0.8549    37.4210   327.3260 </r>
       <r>     1.0372    39.5620   334.8041 </r>
       <r>     1.2195    43.3287   343.3638 </r>
       <r>     1.4019    43.0582   351.3904 </r>
       <r>     1.5842    49.6690   361.0812 </r>
       <r>     1.7665    42.4020   369.4464 </r>
       <r>     1.9488    38.9495   377.5045 </r>
       <r>     2.1311    49.6603   385.0582 </r>
       <r>     2.3134    64.3299   395.4618 </r>
       <r>     2.4957    70.7162   408.1648 </r>
       <r>     2.6780    57.3945   418.3262 </r>
       <r>     2.8603    72.5434   429.8226 </r>
       <r>     3.0426    41.0819   441.5550 </r>
       <r>     3.2249    31.6780   448.2406 </r>
       <r>     3.4072    44.1140   454.4747 </r>
       <r>     3.5896    18.6440   459.5956 </r>
       <r>     3.7719    10.9987   462.2663 </r>
       <r>     3.9542     4.3847   463.6668 </r>
       <r>     4.1365     0.0472   463.9998 </r>
       <r>     4.3188     0.0000   464.0000 </r>
       <r>     4.5011     0.0000   464.0000 </r>
       <r>     4.6834     0.0000   464.0000 </r>
       <r>     4.8657     0.0000   464.0000 </r>
       <r>     5.0480     0.0000   464.0000 </r>
       <r>     5.2303     2.8708   464.1459 </r>
       <r>     5.4126     9.0702   465.2617 </r>
       <r>     5.5949    10.2194   467.1133 </r>
       <r>     5.7773    23.8802   469.9748 </r>
       <r>     5.9596    14.8887   473.6057 </r>
       <r>     6.1419    13.2678   476.1479 </r>
       <r>     6.3242    13.4802   478.5595 </r>
       <r>     6.5065    14.8658   481.1295 </r>
       <r>     6.6888    16.8436   484.0053 </r>
       <r>     6.8711    21.0583   487.4479 </r>
       <r>     7.0534    23.0054   491.6072 </r>
       <r>     7.2357    25.5552   495.8384 </r>
       <r>     7.4180    34.4246   502.3067 </r>
       <r>     7.6003    29.2180   507.5379 </r>
       <r>     7.7826    30.6660   512.9977 </r>
       <r>     7.9650    32.9682   518.4949 </r>
       <r>     8.1473    39.4840   525.2994 </r>
       <r>     8.3296    22.9660   531.1368 </r>
       <r>     8.5119    26.4759   535.2331 </r>
       <r>     8.6942    31.2423   541.1850 </r>
       <r>     8.8765    33.9975   547.8093 </r>
       <r>     9.0588    28.4445   553.0512 </r>
       <r>     9.2411    19.6664   557.6819 </r>
       <r>     9.4234     4.6041   559.8771 </r>
       <r>     9.6057     0.0000   560.0000 </r>
       <r>     9.7880     0.0000   560.0000 </r>
       <r>     9.9703     0.0000   560.0000 </r>
       <r>    10.1527     0.0000   560.0000 </r>
       <r>    10.3350     0.0000   560.0000 </r>
       <r>    10.5173     0.0000   560.0000 </r>
       <r>    10.6996     0.0000   560.0000 </r>
       <r>    10.8819     0.0000   560.0000 </r>
       <r>    11.0642     0.0000   560.0000 </r>
       <r>    11.2465     0.0000   560.0000 </r>
       <r>    11.4288     0.0000   560.0000 </r>
       <r>    11.6111     0.0000   560.0000 </r>
       <r>    11.7934     0.0000   560.0000 </r>
       <r>    11.9757     0.0000   560.0000 </r>
      </set>
     </set>
    </array>
   </total>
  </dos>
 </calculation>
 <structure name="finalpos" >
  <crystal>
   <varray name="basis" >
    <v>      11.24216145       0.04673903      -0.03109719 </v>
    <v>       0.04002019       9.56710614       0.01902360 </v>
    <v>      -0.03120497       0.02274378      11.18461803 </v>
   </varray>
   <i name="volume">   1202.92592917 </i>
   <varray name="rec_basis" >
    <v>       0.08895310      -0.00037259       0.00024894 </v>
    <v>      -0.00043516       0.10452706      -0.00021377 </v>
    <v>       0.00024806      -0.00017882       0.08940956 </v>
   </varray>
  </crystal>
  <varray name="positions" >
   <v>       0.37113378       0.00491893       0.43422154 </v>
   <v>       0.38081119       0.00088892       0.19440438 </v>
   <v>       0.61721435       0.00449335       0.44775755 </v>
   <v>       0.63067662      -0.00336267       0.19667460 </v>
   <v>       0.88274300      -0.00947549       0.17596134 </v>
   <v>       0.09689349       0.97306069       0.97556984 </v>
   <v>       0.63082458      -0.00186757       0.92583955 </v>
   <v>       0.86368719       0.00004438       0.94396857 </v>
   <v>       0.87037255       0.00178881       0.43367150 </v>
   <v>       0.37693972       0.00111479       0.94136042 </v>
   <v>       0.39841355       0.00569949       0.68360474 </v>
   <v>       0.86138906      -0.00472529       0.69760306 </v>
   <v>      -0.00477037       0.29275651       0.06285387 </v>
   <v>       0.25105691       0.69221344       0.06098030 </v>
   <v>       0.25264019       0.29748472       0.30939808 </v>
   <v>       0.50057728       0.70038154       0.31283493 </v>
   <v>       0.49611183       0.30614255       0.06169127 </v>
   <v>       0.75008144       0.69968810       0.06417640 </v>
   <v>       0.74842991       0.30968127       0.31469602 </v>
   <v>      -0.00178826       0.69533402       0.31220852 </v>
   <v>      -0.00457681       0.30444014       0.56364831 </v>
   <v>       0.25705115       0.70447878       0.56031826 </v>
   <v>       0.25677032       0.31558621       0.80651880 </v>
   <v>       0.49878623       0.68725450       0.81289169 </v>
   <v>       0.49819075       0.31234089       0.55630699 </v>
   <v>       0.75355265       0.68623715       0.56061554 </v>
   <v>       0.75266057       0.30635705       0.81526720 </v>
   <v>      -0.00451017       0.69105192       0.81249232 </v>
   <v>       0.25350239       0.34149197       0.05709709 </v>
   <v>       0.00121074       0.65940003       0.06060343 </v>
   <v>       0.50134030       0.35944946       0.31003246 </v>
   <v>       0.25312450       0.67812452       0.30851902 </v>
   <v>       0.75189256       0.34762447       0.06107816 </v>
   <v>       0.50123714       0.65246162       0.06014040 </v>
   <v>       0.99619110       0.32319912       0.31356183 </v>
   <v>       0.75079832       0.64188083       0.30992789 </v>
   <v>       0.25556196       0.34860301       0.55982589 </v>
   <v>      -0.00209323       0.65522597       0.56145789 </v>
   <v>       0.50320632       0.35744156       0.81256396 </v>
   <v>       0.25382392       0.65233618       0.80921973 </v>
   <v>       0.75347134       0.35854980       0.56182979 </v>
   <v>       0.50166952       0.65099200       0.56126563 </v>
   <v>       0.99972574       0.34125842       0.81254018 </v>
   <v>       0.75123690       0.65238357       0.81087351 </v>
   <v>       0.49420151       0.08333246       0.05686170 </v>
   <v>       0.25634203       0.90966047       0.03886596 </v>
   <v>       0.28946898       0.09315389       0.30736709 </v>
   <v>      -0.04354968       0.90297795       0.31010954 </v>
   <v>       0.97749627       0.08001542       0.05240515 </v>
   <v>       0.74341996       0.91833364       0.06562627 </v>
   <v>       0.74220710       0.08779548       0.32740650 </v>
   <v>       0.51124526       0.91766896       0.31073172 </v>
   <v>       0.49408472       0.09384445       0.55322930 </v>
   <v>       0.29750501       0.91052069       0.56813430 </v>
   <v>       0.30020116       0.10244457       0.80804296 </v>
   <v>      -0.03180288       0.90620913       0.82335162 </v>
   <v>       0.94990674       0.09466666       0.56975255 </v>
   <v>       0.76657493       0.90808969       0.55733606 </v>
   <v>       0.75817539       0.08674724       0.82194582 </v>
   <v>       0.48804129       0.91082964       0.82336104 </v>
  </varray>
 </structure>
</modeling>
