<?xml version="1.0" encoding="ISO-8859-1"?>
<modeling>
 <generator>
  <i name="program" type="string">vasp </i>
  <i name="version" type="string">5.4.4.18Apr17-6-g9f103f2a35  </i>
  <i name="subversion" type="string">(build Jul 31 2017 11:33:29) complex            parallel </i>
  <i name="platform" type="string">LinuxIFC </i>
  <i name="date" type="string">2021 09 29 </i>
  <i name="time" type="string">01:59:48 </i>
 </generator>
 <incar>
  <i type="string" name="SYSTEM"> La2O2S</i>
  <i type="string" name="PREC">normal</i>
  <i type="int" name="NELMIN">     4</i>
  <i type="int" name="IBRION">     2</i>
  <i type="int" name="NFREE">    10</i>
  <i name="EDIFF">      0.00000100</i>
  <i name="EDIFFG">     -0.01000000</i>
  <i type="int" name="NSW">     1</i>
  <i type="int" name="ISIF">     2</i>
  <i name="ENCUT">    600.00000000</i>
  <i name="ENAUG">    900.00000000</i>
  <i type="int" name="ISMEAR">    -5</i>
  <i type="logical" name="LWAVE"> F  </i>
  <i type="logical" name="LCHARG"> F  </i>
  <v type="int" name="KPOINT_BSE">    -1     0     0     0</v>
 </incar>
 <structure name="primitive_cell" >
  <crystal>
   <varray name="basis" >
    <v>      11.17850000       0.00000000       0.00000000 </v>
    <v>       0.00000000       9.57460000       0.00000000 </v>
    <v>       0.00000000       0.00000000      11.18240000 </v>
   </varray>
   <i name="volume">   1196.84853820 </i>
   <varray name="rec_basis" >
    <v>       0.08945744       0.00000000       0.00000000 </v>
    <v>       0.00000000       0.10444301       0.00000000 </v>
    <v>       0.00000000       0.00000000       0.08942624 </v>
   </varray>
  </crystal>
  <varray name="positions" >
   <v>       0.37539000       0.00017000       0.43687000 </v>
   <v>      -0.49987000      -0.07798000       0.31246000 </v>
   <v>       0.25013000       0.07798000       0.31246000 </v>
   <v>       0.49987000       0.07798000      -0.43754000 </v>
   <v>       0.24987000      -0.07798000      -0.43754000 </v>
   <v>      -0.37461000      -0.00016000       0.43687000 </v>
   <v>       0.37461000       0.00017000       0.18687000 </v>
   <v>       0.37461000       0.00017000      -0.31313000 </v>
   <v>       0.49987000      -0.29519000       0.31282000 </v>
   <v>       0.24987000       0.29519000       0.31282000 </v>
   <v>      -0.49987000       0.29519000      -0.43719000 </v>
   <v>       0.25013000      -0.29519000      -0.43719000 </v>
   <v>       0.49995000       0.32677000       0.31286000 </v>
   <v>       0.24995000      -0.32677000       0.31286000 </v>
   <v>      -0.49995000      -0.32677000      -0.43714000 </v>
   <v>       0.25005000       0.32677000      -0.43714000 </v>
   <v>      -0.37539000      -0.00016000       0.18687000 </v>
   <v>      -0.37539000      -0.00016000      -0.31313000 </v>
   <v>       0.12461000      -0.00016000       0.18687000 </v>
   <v>       0.12461000      -0.00016000      -0.31313000 </v>
   <v>       0.49987000       0.07798000       0.06246000 </v>
   <v>      -0.24987000       0.07798000       0.31246000 </v>
   <v>      -0.25013000      -0.07798000      -0.43754000 </v>
   <v>       0.24987000      -0.07798000       0.06246000 </v>
   <v>       0.00013000      -0.07798000       0.31246000 </v>
   <v>      -0.49987000      -0.07798000      -0.18754000 </v>
   <v>      -0.00013000       0.07798000      -0.43754000 </v>
   <v>       0.25013000       0.07798000      -0.18754000 </v>
   <v>      -0.49987000       0.29519000       0.06281000 </v>
   <v>      -0.25013000       0.29519000       0.31282000 </v>
   <v>       0.25013000      -0.29519000       0.06281000 </v>
   <v>      -0.24987000      -0.29519000      -0.43719000 </v>
   <v>      -0.00013000      -0.29519000       0.31282000 </v>
   <v>       0.00013000       0.29519000      -0.43719000 </v>
   <v>       0.49987000      -0.29519000      -0.18718000 </v>
   <v>       0.24987000       0.29519000      -0.18718000 </v>
   <v>      -0.49995000      -0.32677000       0.06286000 </v>
   <v>       0.25005000       0.32677000       0.06286000 </v>
   <v>      -0.25005000      -0.32677000       0.31286000 </v>
   <v>      -0.24995000       0.32677000      -0.43714000 </v>
   <v>      -0.00005000       0.32677000       0.31286000 </v>
   <v>       0.00005000      -0.32677000      -0.43714000 </v>
   <v>       0.49995000       0.32677000      -0.18714000 </v>
   <v>       0.24995000      -0.32677000      -0.18714000 </v>
   <v>      -0.12461000       0.00017000       0.43687000 </v>
   <v>       0.37539000       0.00017000      -0.06313000 </v>
   <v>      -0.25013000      -0.07798000       0.06246000 </v>
   <v>      -0.00013000       0.07798000       0.06246000 </v>
   <v>      -0.24987000       0.07798000      -0.18754000 </v>
   <v>       0.00013000      -0.07798000      -0.18754000 </v>
   <v>      -0.12539000       0.00017000       0.18687000 </v>
   <v>      -0.37461000      -0.00016000      -0.06313000 </v>
   <v>      -0.24987000      -0.29519000       0.06281000 </v>
   <v>       0.00013000       0.29519000       0.06281000 </v>
   <v>      -0.25013000       0.29519000      -0.18718000 </v>
   <v>      -0.00013000      -0.29519000      -0.18718000 </v>
   <v>      -0.24995000       0.32677000       0.06286000 </v>
   <v>       0.00005000      -0.32677000       0.06286000 </v>
   <v>      -0.25005000      -0.32677000      -0.18714000 </v>
   <v>      -0.00005000       0.32677000      -0.18714000 </v>
   <v>      -0.12461000       0.00017000      -0.06313000 </v>
  </varray>
 </structure>
 <varray name="primitive_index" >
  <v type="int" >        1 </v>
  <v type="int" >       53 </v>
  <v type="int" >       48 </v>
  <v type="int" >       54 </v>
  <v type="int" >       55 </v>
  <v type="int" >        4 </v>
  <v type="int" >        3 </v>
  <v type="int" >        7 </v>
  <v type="int" >       17 </v>
  <v type="int" >       16 </v>
  <v type="int" >       26 </v>
  <v type="int" >       23 </v>
  <v type="int" >       32 </v>
  <v type="int" >       33 </v>
  <v type="int" >       43 </v>
  <v type="int" >       38 </v>
  <v type="int" >        5 </v>
  <v type="int" >       10 </v>
  <v type="int" >        2 </v>
  <v type="int" >       13 </v>
  <v type="int" >       46 </v>
  <v type="int" >       52 </v>
  <v type="int" >       59 </v>
  <v type="int" >       47 </v>
  <v type="int" >       49 </v>
  <v type="int" >       61 </v>
  <v type="int" >       58 </v>
  <v type="int" >       56 </v>
  <v type="int" >       18 </v>
  <v type="int" >       20 </v>
  <v type="int" >       15 </v>
  <v type="int" >       27 </v>
  <v type="int" >       21 </v>
  <v type="int" >       22 </v>
  <v type="int" >       25 </v>
  <v type="int" >       24 </v>
  <v type="int" >       35 </v>
  <v type="int" >       30 </v>
  <v type="int" >       37 </v>
  <v type="int" >       42 </v>
  <v type="int" >       36 </v>
  <v type="int" >       39 </v>
  <v type="int" >       40 </v>
  <v type="int" >       41 </v>
  <v type="int" >       11 </v>
  <v type="int" >       12 </v>
  <v type="int" >       51 </v>
  <v type="int" >       50 </v>
  <v type="int" >       60 </v>
  <v type="int" >       57 </v>
  <v type="int" >        6 </v>
  <v type="int" >        8 </v>
  <v type="int" >       19 </v>
  <v type="int" >       14 </v>
  <v type="int" >       28 </v>
  <v type="int" >       29 </v>
  <v type="int" >       34 </v>
  <v type="int" >       31 </v>
  <v type="int" >       45 </v>
  <v type="int" >       44 </v>
  <v type="int" >        9 </v>
 </varray>
 <kpoints>
  <generation param="Gamma">
   <v type="int" name="divisions">       2        2        2 </v>
   <v name="usershift">      0.00000000       0.00000000       0.00000000 </v>
   <v name="genvec1">      0.50000000       0.00000000       0.00000000 </v>
   <v name="genvec2">      0.00000000       0.50000000       0.00000000 </v>
   <v name="genvec3">      0.00000000       0.00000000       0.50000000 </v>
   <v name="shift">      0.00000000       0.00000000       0.00000000 </v>
  </generation>
  <varray name="kpointlist" >
   <v>       0.00000000       0.00000000       0.00000000 </v>
   <v>       0.50000000       0.00000000       0.00000000 </v>
   <v>       0.00000000       0.50000000       0.00000000 </v>
   <v>       0.50000000       0.50000000       0.00000000 </v>
   <v>       0.00000000       0.00000000       0.50000000 </v>
   <v>       0.50000000       0.00000000       0.50000000 </v>
   <v>       0.00000000       0.50000000       0.50000000 </v>
   <v>       0.50000000       0.50000000       0.50000000 </v>
  </varray>
  <varray name="weights" >
   <v>       0.12500000 </v>
   <v>       0.12500000 </v>
   <v>       0.12500000 </v>
   <v>       0.12500000 </v>
   <v>       0.12500000 </v>
   <v>       0.12500000 </v>
   <v>       0.12500000 </v>
   <v>       0.12500000 </v>
  </varray>
  <varray name="tetrahedronlist"  type="int" >
   <v type="int" >        2        1        2        4        5 </v>
   <v type="int" >        2        1        3        4        5 </v>
   <v type="int" >        2        3        4        5        7 </v>
   <v type="int" >        2        2        4        5        6 </v>
   <v type="int" >        2        4        5        6        8 </v>
   <v type="int" >        2        4        5        7        8 </v>
   <v type="int" >        2        1        2        3        6 </v>
   <v type="int" >        2        2        3        4        6 </v>
   <v type="int" >        2        3        4        6        8 </v>
   <v type="int" >        2        1        3        5        6 </v>
   <v type="int" >        2        3        5        6        7 </v>
   <v type="int" >        2        3        6        7        8 </v>
   <v type="int" >        2        2        3        4        7 </v>
   <v type="int" >        2        1        2        3        7 </v>
   <v type="int" >        2        1        2        5        7 </v>
   <v type="int" >        2        2        4        7        8 </v>
   <v type="int" >        2        2        6        7        8 </v>
   <v type="int" >        2        2        5        6        7 </v>
   <v type="int" >        2        1        3        4        8 </v>
   <v type="int" >        2        1        2        4        8 </v>
   <v type="int" >        2        1        2        6        8 </v>
   <v type="int" >        2        1        3        7        8 </v>
   <v type="int" >        2        1        5        7        8 </v>
   <v type="int" >        2        1        5        6        8 </v>
  </varray>
  <i name="volumeweight">      0.02083333 </i>
 </kpoints>
 <parameters>
  <separator name="general" >
   <i type="string" name="SYSTEM">La2O2S</i>
   <i type="logical" name="LCOMPAT"> F  </i>
  </separator>
  <separator name="electronic" >
   <i type="string" name="PREC">normal</i>
   <i name="ENMAX">    600.00000000</i>
   <i name="ENAUG">    900.00000000</i>
   <i name="EDIFF">      0.00000100</i>
   <i type="int" name="IALGO">    38</i>
   <i type="int" name="IWAVPR">    11</i>
   <i type="int" name="NBANDS">   280</i>
   <i name="NELECT">    468.00000000</i>
   <i type="int" name="TURBO">     0</i>
   <i type="int" name="IRESTART">     0</i>
   <i type="int" name="NREBOOT">     0</i>
   <i type="int" name="NMIN">     0</i>
   <i name="EREF">      0.00000000</i>
   <separator name="electronic smearing" >
    <i type="int" name="ISMEAR">    -5</i>
    <i name="SIGMA">      0.20000000</i>
    <i name="KSPACING">      0.50000000</i>
    <i type="logical" name="KGAMMA"> T  </i>
   </separator>
   <separator name="electronic projectors" >
    <i type="logical" name="LREAL"> F  </i>
    <v name="ROPT">      0.00000000      0.00000000      0.00000000      0.00000000      0.00000000</v>
    <i type="int" name="LMAXPAW">  -100</i>
    <i type="int" name="LMAXMIX">     2</i>
    <i type="logical" name="NLSPLINE"> F  </i>
   </separator>
   <separator name="electronic startup" >
    <i type="int" name="ISTART">     0</i>
    <i type="int" name="ICHARG">     2</i>
    <i type="int" name="INIWAV">     1</i>
   </separator>
   <separator name="electronic spin" >
    <i type="int" name="ISPIN">     1</i>
    <i type="logical" name="LNONCOLLINEAR"> F  </i>
    <v name="MAGMOM">      1.00000000      1.00000000      1.00000000      1.00000000      1.00000000      1.00000000      1.00000000      1.00000000      1.00000000      1.00000000      1.00000000      1.00000000      1.00000000      1.00000000      1.00000000      1.00000000      1.00000000      1.00000000      1.00000000      1.00000000
      1.00000000      1.00000000      1.00000000      1.00000000      1.00000000      1.00000000      1.00000000      1.00000000      1.00000000      1.00000000      1.00000000      1.00000000      1.00000000      1.00000000      1.00000000      1.00000000      1.00000000      1.00000000      1.00000000      1.00000000
      1.00000000      1.00000000      1.00000000      1.00000000      1.00000000      1.00000000      1.00000000      1.00000000      1.00000000      1.00000000      1.00000000      1.00000000      1.00000000      1.00000000      1.00000000      1.00000000      1.00000000      1.00000000      1.00000000      1.00000000
      1.00000000</v>
    <i name="NUPDOWN">     -1.00000000</i>
    <i type="logical" name="LSORBIT"> F  </i>
    <v name="SAXIS">      0.00000000      0.00000000      1.00000000</v>
    <i type="logical" name="LSPIRAL"> F  </i>
    <v name="QSPIRAL">      0.00000000      0.00000000      0.00000000</v>
    <i type="logical" name="LZEROZ"> F  </i>
   </separator>
   <separator name="electronic exchange-correlation" >
    <i type="logical" name="LASPH"> F  </i>
    <i type="logical" name="LMETAGGA"> F  </i>
   </separator>
   <separator name="electronic convergence" >
    <i type="int" name="NELM">    60</i>
    <i type="int" name="NELMDL">    -5</i>
    <i type="int" name="NELMIN">     4</i>
    <i name="ENINI">    600.00000000</i>
    <separator name="electronic convergence detail" >
     <i type="logical" name="LDIAG"> T  </i>
     <i type="logical" name="LSUBROT"> F  </i>
     <i name="WEIMIN">      0.00100000</i>
     <i name="EBREAK">      0.00000000</i>
     <i name="DEPER">      0.30000000</i>
     <i type="int" name="NRMM">     4</i>
     <i name="TIME">      0.40000000</i>
    </separator>
   </separator>
   <separator name="electronic mixer" >
    <i name="AMIX">      0.40000000</i>
    <i name="BMIX">      1.00000000</i>
    <i name="AMIN">      0.10000000</i>
    <i name="AMIX_MAG">      1.60000000</i>
    <i name="BMIX_MAG">      1.00000000</i>
    <separator name="electronic mixer details" >
     <i type="int" name="IMIX">     4</i>
     <i type="logical" name="MIXFIRST"> F  </i>
     <i type="int" name="MAXMIX">   -45</i>
     <i name="WC">    100.00000000</i>
     <i type="int" name="INIMIX">     1</i>
     <i type="int" name="MIXPRE">     1</i>
     <i type="int" name="MREMOVE">     5</i>
    </separator>
   </separator>
   <separator name="electronic dipolcorrection" >
    <i type="logical" name="LDIPOL"> F  </i>
    <i type="logical" name="LMONO"> F  </i>
    <i type="int" name="IDIPOL">     0</i>
    <i name="EPSILON">      1.00000000</i>
    <v name="DIPOL">   -100.00000000   -100.00000000   -100.00000000</v>
    <i name="EFIELD">      0.00000000</i>
   </separator>
  </separator>
  <separator name="grids" >
   <i type="int" name="NGX">    70</i>
   <i type="int" name="NGY">    60</i>
   <i type="int" name="NGZ">    70</i>
   <i type="int" name="NGXF">   140</i>
   <i type="int" name="NGYF">   120</i>
   <i type="int" name="NGZF">   140</i>
   <i type="logical" name="ADDGRID"> F  </i>
  </separator>
  <separator name="ionic" >
   <i type="int" name="NSW">     1</i>
   <i type="int" name="IBRION">     2</i>
   <i type="int" name="MDALGO">     0</i>
   <i type="int" name="ISIF">     2</i>
   <i name="PSTRESS">      0.00000000</i>
   <i name="EDIFFG">     -0.01000000</i>
   <i type="int" name="NFREE">    10</i>
   <i name="POTIM">      0.50000000</i>
   <i name="SMASS">     -3.00000000</i>
   <i name="SCALEE">      1.00000000</i>
  </separator>
  <separator name="ionic md" >
   <i name="TEBEG">      0.00010000</i>
   <i name="TEEND">      0.00010000</i>
   <i type="int" name="NBLOCK">     1</i>
   <i type="int" name="KBLOCK">     1</i>
   <i type="int" name="NPACO">   256</i>
   <i name="APACO">     16.00000000</i>
  </separator>
  <separator name="symmetry" >
   <i type="int" name="ISYM">     2</i>
   <i name="SYMPREC">      0.00001000</i>
  </separator>
  <separator name="dos" >
   <i type="int" name="LORBIT">     0</i>
   <v name="RWIGS">     -1.00000000     -1.00000000     -1.00000000     -1.00000000     -1.00000000</v>
   <i type="int" name="NEDOS">   301</i>
   <i name="EMIN">     10.00000000</i>
   <i name="EMAX">    -10.00000000</i>
   <i name="EFERMI">      0.00000000</i>
  </separator>
  <separator name="writing" >
   <i type="int" name="NWRITE">     2</i>
   <i type="logical" name="LWAVE"> F  </i>
   <i type="logical" name="LDOWNSAMPLE"> F  </i>
   <i type="logical" name="LCHARG"> F  </i>
   <i type="logical" name="LPARD"> F  </i>
   <i type="logical" name="LVTOT"> F  </i>
   <i type="logical" name="LVHAR"> F  </i>
   <i type="logical" name="LELF"> F  </i>
   <i type="logical" name="LOPTICS"> F  </i>
   <v name="STM">      0.00000000      0.00000000      0.00000000      0.00000000      0.00000000      0.00000000      0.00000000</v>
  </separator>
  <separator name="performance" >
   <i type="int" name="NPAR">    28</i>
   <i type="int" name="NSIM">     4</i>
   <i type="int" name="NBLK">    -1</i>
   <i type="logical" name="LPLANE"> T  </i>
   <i type="logical" name="LSCALAPACK"> T  </i>
   <i type="logical" name="LSCAAWARE"> F  </i>
   <i type="logical" name="LSCALU"> F  </i>
   <i type="logical" name="LASYNC"> F  </i>
   <i type="logical" name="LORBITALREAL"> F  </i>
  </separator>
  <separator name="miscellaneous" >
   <i type="int" name="IDIOT">     3</i>
   <i type="int" name="ISPECIAL">     0</i>
   <i type="logical" name="LMUSIC"> F  </i>
   <v name="POMASS">      7.01000000     24.30500000    208.98000000     32.06600000     16.00000000</v>
   <v name="DARWINR">      0.00000000      0.00000000      0.00000000      0.00000000      0.00000000</v>
   <v name="DARWINV">      1.00000000      1.00000000      1.00000000      1.00000000      1.00000000</v>
   <i type="logical" name="LCORR"> T  </i>
  </separator>
  <i type="logical" name="GGA_COMPAT"> T  </i>
  <i type="logical" name="LBERRY"> F  </i>
  <i type="int" name="ICORELEVEL">     0</i>
  <i type="logical" name="LDAU"> F  </i>
  <i type="int" name="I_CONSTRAINED_M">     0</i>
  <separator name="electronic exchange-correlation" >
   <i type="string" name="GGA">--</i>
   <i type="int" name="VOSKOWN">     0</i>
   <i type="logical" name="LHFCALC"> F  </i>
   <i type="string" name="PRECFOCK"></i>
   <i type="logical" name="LSYMGRAD"> F  </i>
   <i type="logical" name="LHFONE"> F  </i>
   <i type="logical" name="LRHFCALC"> F  </i>
   <i type="logical" name="LTHOMAS"> F  </i>
   <i type="logical" name="LMODELHF"> F  </i>
   <i name="ENCUT4O">     -1.00000000</i>
   <i type="int" name="EXXOEP">     0</i>
   <i type="int" name="FOURORBIT">     0</i>
   <i name="AEXX">      0.00000000</i>
   <i name="HFALPHA">      0.00000000</i>
   <i name="MCALPHA">      0.00000000</i>
   <i name="ALDAX">      1.00000000</i>
   <i name="AGGAX">      1.00000000</i>
   <i name="ALDAC">      1.00000000</i>
   <i name="AGGAC">      1.00000000</i>
   <i type="int" name="NKREDX">     1</i>
   <i type="int" name="NKREDY">     1</i>
   <i type="int" name="NKREDZ">     1</i>
   <i type="logical" name="SHIFTRED"> F  </i>
   <i type="logical" name="ODDONLY"> F  </i>
   <i type="logical" name="EVENONLY"> F  </i>
   <i type="int" name="LMAXFOCK">     0</i>
   <i type="int" name="NMAXFOCKAE">     0</i>
   <i type="logical" name="LFOCKAEDFT"> F  </i>
   <i name="HFSCREEN">      0.00000000</i>
   <i name="HFSCREENC">      0.00000000</i>
   <i type="int" name="NBANDSGWLOW">     0</i>
  </separator>
  <separator name="vdW DFT" >
   <i type="logical" name="LUSE_VDW"> F  </i>
   <i name="Zab_VDW">     -0.84910000</i>
   <i name="PARAM1">      0.12340000</i>
   <i name="PARAM2">      1.00000000</i>
   <i name="PARAM3">      0.00000000</i>
  </separator>
  <separator name="model GW" >
   <i type="int" name="MODEL_GW">     0</i>
   <i name="MODEL_EPS0">     11.77228070</i>
   <i name="MODEL_ALPHA">      1.00000000</i>
  </separator>
  <separator name="linear response parameters" >
   <i type="logical" name="LEPSILON"> F  </i>
   <i type="logical" name="LRPA"> F  </i>
   <i type="logical" name="LNABLA"> F  </i>
   <i type="logical" name="LVEL"> F  </i>
   <i type="int" name="KINTER">     0</i>
   <i name="CSHIFT">      0.10000000</i>
   <i name="OMEGAMAX">     -1.00000000</i>
   <i name="DEG_THRESHOLD">      0.00200000</i>
   <i name="RTIME">     -0.10000000</i>
   <i name="WPLASMAI">      0.00000000</i>
   <v name="DFIELD">      0.00000000      0.00000000      0.00000000</v>
   <v name="WPLASMA">      0.00000000      0.00000000      0.00000000      0.00000000      0.00000000      0.00000000      0.00000000      0.00000000      0.00000000</v>
  </separator>
  <separator name="orbital magnetization" >
   <i type="logical" name="NUCIND"> F  </i>
   <v name="MAGPOS">      0.00000000      0.00000000      0.00000000</v>
   <i type="logical" name="LNICSALL"> T  </i>
   <i type="logical" name="ORBITALMAG"> F  </i>
   <i type="logical" name="LMAGBLOCH"> F  </i>
   <i type="logical" name="LCHIMAG"> F  </i>
   <i type="logical" name="LGAUGE"> T  </i>
   <i type="int" name="MAGATOM">     0</i>
   <v name="MAGDIPOL">      0.00000000      0.00000000      0.00000000</v>
   <v name="AVECCONST">      0.00000000      0.00000000      0.00000000</v>
  </separator>
  <separator name="response functions" >
   <i type="logical" name="LADDER"> F  </i>
   <i type="logical" name="LRPAFORCE"> F  </i>
   <i type="logical" name="LFXC"> F  </i>
   <i type="logical" name="LHARTREE"> T  </i>
   <i type="int" name="IBSE">     0</i>
   <v type="int" name="KPOINT">    -1     0     0     0</v>
   <i type="logical" name="LTCTE"> F  </i>
   <i type="logical" name="LTETE"> F  </i>
   <i type="logical" name="LTRIPLET"> F  </i>
   <i type="logical" name="LFXCEPS"> F  </i>
   <i type="logical" name="LFXHEG"> F  </i>
   <i type="int" name="NATURALO">     2</i>
   <i type="logical" name="L2ORDER"> F  </i>
   <i type="logical" name="LMP2LT"> F  </i>
   <i type="logical" name="LUSEW"> F  </i>
   <i name="ENCUTGW">     -2.00000000</i>
   <i name="ENCUTGWSOFT">     -2.00000000</i>
   <i name="ENCUTLF">     -1.00000000</i>
   <i type="int" name="LMAXMP2">    -1</i>
   <i name="SCISSOR">      0.00000000</i>
   <i type="int" name="NOMEGA">     0</i>
   <i type="int" name="NOMEGAR">     0</i>
   <i type="int" name="NBANDSGW">    -1</i>
   <i type="int" name="NBANDSO">    -1</i>
   <i type="int" name="NBANDSV">    -1</i>
   <i type="int" name="NELM">     1</i>
   <i type="int" name="NELMHF">     1</i>
   <i type="int" name="DIM">     3</i>
   <i type="int" name="ANTIRES">     0</i>
   <i name="OMEGAMAX">    -30.00000000</i>
   <i name="OMEGAMIN">    -30.00000000</i>
   <i name="OMEGATL">   -200.00000000</i>
   <i type="int" name="OMEGAGRID">   140</i>
   <i name="CSHIFT">     -0.10000000</i>
   <i type="logical" name="SELFENERGY"> F  </i>
   <i type="logical" name="LSPECTRAL"> F  </i>
   <i type="logical" name="LSPECTRALGW"> F  </i>
   <i type="logical" name="LSINGLES"> F  </i>
   <i type="logical" name="LFERMIGW"> F  </i>
   <i type="logical" name="ODDONLYGW"> F  </i>
   <i type="logical" name="EVENONLYGW"> F  </i>
   <i type="int" name="NKREDLFX">     1</i>
   <i type="int" name="NKREDLFY">     1</i>
   <i type="int" name="NKREDLFZ">     1</i>
   <i type="int" name="MAXMEM">  2800</i>
   <i type="int" name="TELESCOPE">     0</i>
   <i type="int" name="TAUPAR">     1</i>
   <i type="int" name="OMEGAPAR">    -1</i>
   <i name="LAMBDA">      1.00000000</i>
  </separator>
  <separator name="External order field" >
   <i name="OFIELD_KAPPA">      0.00000000</i>
   <v name="OFIELD_K">      0.00000000      0.00000000      0.00000000</v>
   <i name="OFIELD_Q6_NEAR">      0.00000000</i>
   <i name="OFIELD_Q6_FAR">      0.00000000</i>
   <i name="OFIELD_A">      0.00000000</i>
  </separator>
 </parameters>
 <atominfo>
  <atoms>      61 </atoms>
  <types>       5 </types>
  <array name="atoms" >
   <dimension dim="1">ion</dimension>
   <field type="string">element</field>
   <field type="int">atomtype</field>
   <set>
    <rc><c>Li</c><c>   1</c></rc>
    <rc><c>Li</c><c>   1</c></rc>
    <rc><c>Li</c><c>   1</c></rc>
    <rc><c>Li</c><c>   1</c></rc>
    <rc><c>Li</c><c>   1</c></rc>
    <rc><c>Li</c><c>   1</c></rc>
    <rc><c>Li</c><c>   1</c></rc>
    <rc><c>Li</c><c>   1</c></rc>
    <rc><c>Li</c><c>   1</c></rc>
    <rc><c>Li</c><c>   1</c></rc>
    <rc><c>Mg</c><c>   2</c></rc>
    <rc><c>Mg</c><c>   2</c></rc>
    <rc><c>Mg</c><c>   2</c></rc>
    <rc><c>Bi</c><c>   3</c></rc>
    <rc><c>Bi</c><c>   3</c></rc>
    <rc><c>Bi</c><c>   3</c></rc>
    <rc><c>Bi</c><c>   3</c></rc>
    <rc><c>Bi</c><c>   3</c></rc>
    <rc><c>Bi</c><c>   3</c></rc>
    <rc><c>Bi</c><c>   3</c></rc>
    <rc><c>Bi</c><c>   3</c></rc>
    <rc><c>Bi</c><c>   3</c></rc>
    <rc><c>Bi</c><c>   3</c></rc>
    <rc><c>Bi</c><c>   3</c></rc>
    <rc><c>Bi</c><c>   3</c></rc>
    <rc><c>Bi</c><c>   3</c></rc>
    <rc><c>Bi</c><c>   3</c></rc>
    <rc><c>Bi</c><c>   3</c></rc>
    <rc><c>Bi</c><c>   3</c></rc>
    <rc><c>S </c><c>   4</c></rc>
    <rc><c>S </c><c>   4</c></rc>
    <rc><c>S </c><c>   4</c></rc>
    <rc><c>S </c><c>   4</c></rc>
    <rc><c>S </c><c>   4</c></rc>
    <rc><c>S </c><c>   4</c></rc>
    <rc><c>S </c><c>   4</c></rc>
    <rc><c>S </c><c>   4</c></rc>
    <rc><c>S </c><c>   4</c></rc>
    <rc><c>S </c><c>   4</c></rc>
    <rc><c>S </c><c>   4</c></rc>
    <rc><c>S </c><c>   4</c></rc>
    <rc><c>S </c><c>   4</c></rc>
    <rc><c>S </c><c>   4</c></rc>
    <rc><c>S </c><c>   4</c></rc>
    <rc><c>S </c><c>   4</c></rc>
    <rc><c>O </c><c>   5</c></rc>
    <rc><c>O </c><c>   5</c></rc>
    <rc><c>O </c><c>   5</c></rc>
    <rc><c>O </c><c>   5</c></rc>
    <rc><c>O </c><c>   5</c></rc>
    <rc><c>O </c><c>   5</c></rc>
    <rc><c>O </c><c>   5</c></rc>
    <rc><c>O </c><c>   5</c></rc>
    <rc><c>O </c><c>   5</c></rc>
    <rc><c>O </c><c>   5</c></rc>
    <rc><c>O </c><c>   5</c></rc>
    <rc><c>O </c><c>   5</c></rc>
    <rc><c>O </c><c>   5</c></rc>
    <rc><c>O </c><c>   5</c></rc>
    <rc><c>O </c><c>   5</c></rc>
    <rc><c>O </c><c>   5</c></rc>
   </set>
  </array>
  <array name="atomtypes" >
   <dimension dim="1">type</dimension>
   <field type="int">atomspertype</field>
   <field type="string">element</field>
   <field>mass</field>
   <field>valence</field>
   <field type="string">pseudopotential</field>
   <set>
    <rc><c>  10</c><c>Li</c><c>      7.01000000</c><c>      3.00000000</c><c>  PAW_PBE Li_sv 10Sep2004               </c></rc>
    <rc><c>   3</c><c>Mg</c><c>     24.30500000</c><c>      2.00000000</c><c>  PAW_PBE Mg 13Apr2007                  </c></rc>
    <rc><c>  16</c><c>Bi</c><c>    208.98000000</c><c>     15.00000000</c><c>  PAW_PBE Bi_d 06Sep2000                </c></rc>
    <rc><c>  16</c><c>S </c><c>     32.06600000</c><c>      6.00000000</c><c>  PAW_PBE S 06Sep2000                   </c></rc>
    <rc><c>  16</c><c>O </c><c>     16.00000000</c><c>      6.00000000</c><c>  PAW_PBE O 08Apr2002                   </c></rc>
   </set>
  </array>
 </atominfo>
 <structure name="initialpos" >
  <crystal>
   <varray name="basis" >
    <v>      11.17850000       0.00000000       0.00000000 </v>
    <v>       0.00000000       9.57460000       0.00000000 </v>
    <v>       0.00000000       0.00000000      11.18240000 </v>
   </varray>
   <i name="volume">   1196.84853820 </i>
   <varray name="rec_basis" >
    <v>       0.08945744       0.00000000       0.00000000 </v>
    <v>       0.00000000       0.10444301       0.00000000 </v>
    <v>       0.00000000       0.00000000       0.08942624 </v>
   </varray>
  </crystal>
  <varray name="positions" >
   <v>       0.37539000       0.00017000       0.43687000 </v>
   <v>       0.12461000       0.99984000       0.18687000 </v>
   <v>       0.37461000       0.00017000       0.18687000 </v>
   <v>       0.62539000       0.99984000       0.43687000 </v>
   <v>       0.62461000       0.99984000       0.18687000 </v>
   <v>       0.87461000       0.00017000       0.18687000 </v>
   <v>       0.37461000       0.00017000       0.68687000 </v>
   <v>       0.62539000       0.99984000       0.93687000 </v>
   <v>       0.87539000       0.00017000       0.93687000 </v>
   <v>       0.62461000       0.99984000       0.68687000 </v>
   <v>       0.87539000       0.00017000       0.43687000 </v>
   <v>       0.37539000       0.00017000       0.93687000 </v>
   <v>       0.12461000       0.99984000       0.68687000 </v>
   <v>       0.00013000       0.29519000       0.06281000 </v>
   <v>       0.25013000       0.70481000       0.06281000 </v>
   <v>       0.24987000       0.29519000       0.31282000 </v>
   <v>       0.49987000       0.70481000       0.31282000 </v>
   <v>       0.50013000       0.29519000       0.06281000 </v>
   <v>       0.75013000       0.70481000       0.06281000 </v>
   <v>       0.74987000       0.29519000       0.31282000 </v>
   <v>       0.99987000       0.70481000       0.31282000 </v>
   <v>       0.00013000       0.29519000       0.56281000 </v>
   <v>       0.25013000       0.70481000       0.56281000 </v>
   <v>       0.24987000       0.29519000       0.81282000 </v>
   <v>       0.49987000       0.70481000       0.81282000 </v>
   <v>       0.50013000       0.29519000       0.56281000 </v>
   <v>       0.75013000       0.70481000       0.56281000 </v>
   <v>       0.74987000       0.29519000       0.81282000 </v>
   <v>       0.99987000       0.70481000       0.81282000 </v>
   <v>       0.25005000       0.32677000       0.06286000 </v>
   <v>       0.00005000       0.67323000       0.06286000 </v>
   <v>       0.49995000       0.32677000       0.31286000 </v>
   <v>       0.24995000       0.67323000       0.31286000 </v>
   <v>       0.75005000       0.32677000       0.06286000 </v>
   <v>       0.50005000       0.67323000       0.06286000 </v>
   <v>       0.99995000       0.32677000       0.31286000 </v>
   <v>       0.74995000       0.67323000       0.31286000 </v>
   <v>       0.25005000       0.32677000       0.56286000 </v>
   <v>       0.00005000       0.67323000       0.56286000 </v>
   <v>       0.49995000       0.32677000       0.81286000 </v>
   <v>       0.24995000       0.67323000       0.81286000 </v>
   <v>       0.75005000       0.32677000       0.56286000 </v>
   <v>       0.50005000       0.67323000       0.56286000 </v>
   <v>       0.99995000       0.32677000       0.81286000 </v>
   <v>       0.74995000       0.67323000       0.81286000 </v>
   <v>       0.49987000       0.07798000       0.06246000 </v>
   <v>       0.24987000       0.92202000       0.06246000 </v>
   <v>       0.25013000       0.07798000       0.31246000 </v>
   <v>       0.00013000       0.92202000       0.31246000 </v>
   <v>       0.99987000       0.07798000       0.06246000 </v>
   <v>       0.74987000       0.92202000       0.06246000 </v>
   <v>       0.75013000       0.07798000       0.31246000 </v>
   <v>       0.50013000       0.92202000       0.31246000 </v>
   <v>       0.49987000       0.07798000       0.56246000 </v>
   <v>       0.24987000       0.92202000       0.56246000 </v>
   <v>       0.25013000       0.07798000       0.81246000 </v>
   <v>       0.00013000       0.92202000       0.81246000 </v>
   <v>       0.99987000       0.07798000       0.56246000 </v>
   <v>       0.74987000       0.92202000       0.56246000 </v>
   <v>       0.75013000       0.07798000       0.81246000 </v>
   <v>       0.50013000       0.92202000       0.81246000 </v>
  </varray>
 </structure>
 <calculation>
  <scstep>
   <time name="dav">   59.57   59.70</time>
   <time name="total">   59.65   59.78</time>
   <energy>
    <i name="alphaZ">   1073.51873187 </i>
    <i name="ewald"> -30865.43203447 </i>
    <i name="hartreedc"> -12723.41724593 </i>
    <i name="XCdc">   1394.97518688 </i>
    <i name="pawpsdc">  36823.70205594 </i>
    <i name="pawaedc"> -36326.52930246 </i>
    <i name="eentropy">      0.00000000 </i>
    <i name="bandstr">   1805.17456770 </i>
    <i name="atom">  44791.06186932 </i>
    <i name="e_fr_energy">   5973.05382885 </i>
    <i name="e_wo_entrp">   5973.05382885 </i>
    <i name="e_0_energy">   5973.05382885 </i>
   </energy>
  </scstep>
  <scstep>
   <time name="dav">   60.04   60.75</time>
   <time name="total">   60.05   60.76</time>
   <energy>
    <i name="e_fr_energy">    797.33992330 </i>
    <i name="e_wo_entrp">    797.33992330 </i>
    <i name="e_0_energy">    797.33992330 </i>
   </energy>
  </scstep>
  <scstep>
   <time name="dav">   68.05   69.14</time>
   <time name="total">   68.05   69.14</time>
   <energy>
    <i name="e_fr_energy">   -242.14870798 </i>
    <i name="e_wo_entrp">   -242.14870798 </i>
    <i name="e_0_energy">   -242.14870798 </i>
   </energy>
  </scstep>
  <scstep>
   <time name="dav">   71.73   72.32</time>
   <time name="total">   71.74   72.32</time>
   <energy>
    <i name="e_fr_energy">   -346.31574598 </i>
    <i name="e_wo_entrp">   -346.31574598 </i>
    <i name="e_0_energy">   -346.31574598 </i>
   </energy>
  </scstep>
  <scstep>
   <time name="dav">   96.58   96.88</time>
   <time name="total">   97.31   97.61</time>
   <energy>
    <i name="e_fr_energy">   -355.25988874 </i>
    <i name="e_wo_entrp">   -355.25988874 </i>
    <i name="e_0_energy">   -355.25988874 </i>
   </energy>
  </scstep>
  <scstep>
   <time name="dav">   85.51   85.60</time>
   <time name="total">   86.31   86.39</time>
   <energy>
    <i name="e_fr_energy">   -296.46572126 </i>
    <i name="e_wo_entrp">   -296.46572126 </i>
    <i name="e_0_energy">   -296.46572126 </i>
   </energy>
  </scstep>
  <scstep>
   <time name="dav">   65.64   66.14</time>
   <time name="total">   66.43   66.93</time>
   <energy>
    <i name="e_fr_energy">   -299.21992128 </i>
    <i name="e_wo_entrp">   -299.21992128 </i>
    <i name="e_0_energy">   -299.21992128 </i>
   </energy>
  </scstep>
  <scstep>
   <time name="dav">   78.42   78.68</time>
   <time name="total">   79.21   79.47</time>
   <energy>
    <i name="e_fr_energy">   -297.96372002 </i>
    <i name="e_wo_entrp">   -297.96372002 </i>
    <i name="e_0_energy">   -297.96372002 </i>
   </energy>
  </scstep>
  <scstep>
   <time name="dav">   72.91   73.57</time>
   <time name="total">   73.69   74.36</time>
   <energy>
    <i name="e_fr_energy">   -297.31539860 </i>
    <i name="e_wo_entrp">   -297.31539860 </i>
    <i name="e_0_energy">   -297.31539860 </i>
   </energy>
  </scstep>
  <scstep>
   <time name="dav">   74.60   74.95</time>
   <time name="total">   75.39   75.74</time>
   <energy>
    <i name="e_fr_energy">   -297.33886565 </i>
    <i name="e_wo_entrp">   -297.33886565 </i>
    <i name="e_0_energy">   -297.33886565 </i>
   </energy>
  </scstep>
  <scstep>
   <time name="dav">   77.84   77.99</time>
   <time name="total">   78.63   78.79</time>
   <energy>
    <i name="e_fr_energy">   -297.34686894 </i>
    <i name="e_wo_entrp">   -297.34686894 </i>
    <i name="e_0_energy">   -297.34686894 </i>
   </energy>
  </scstep>
  <scstep>
   <time name="dav">   83.76   83.83</time>
   <time name="total">   84.56   84.63</time>
   <energy>
    <i name="e_fr_energy">   -297.35077868 </i>
    <i name="e_wo_entrp">   -297.35077868 </i>
    <i name="e_0_energy">   -297.35077868 </i>
   </energy>
  </scstep>
  <scstep>
   <time name="dav">   71.27   71.31</time>
   <time name="total">   72.06   72.10</time>
   <energy>
    <i name="e_fr_energy">   -297.35183336 </i>
    <i name="e_wo_entrp">   -297.35183336 </i>
    <i name="e_0_energy">   -297.35183336 </i>
   </energy>
  </scstep>
  <scstep>
   <time name="dav">   74.15   74.22</time>
   <time name="total">   74.94   75.01</time>
   <energy>
    <i name="e_fr_energy">   -297.35213070 </i>
    <i name="e_wo_entrp">   -297.35213070 </i>
    <i name="e_0_energy">   -297.35213070 </i>
   </energy>
  </scstep>
  <scstep>
   <time name="dav">   86.99   87.10</time>
   <time name="total">   87.80   87.91</time>
   <energy>
    <i name="e_fr_energy">   -297.35216340 </i>
    <i name="e_wo_entrp">   -297.35216340 </i>
    <i name="e_0_energy">   -297.35216340 </i>
   </energy>
  </scstep>
  <scstep>
   <time name="dav">   65.72   65.75</time>
   <time name="total">   66.51   66.53</time>
   <energy>
    <i name="e_fr_energy">   -297.35218774 </i>
    <i name="e_wo_entrp">   -297.35218774 </i>
    <i name="e_0_energy">   -297.35218774 </i>
   </energy>
  </scstep>
  <scstep>
   <time name="dav">   70.24   70.30</time>
   <time name="total">   71.04   71.10</time>
   <energy>
    <i name="e_fr_energy">   -297.35219103 </i>
    <i name="e_wo_entrp">   -297.35219103 </i>
    <i name="e_0_energy">   -297.35219103 </i>
   </energy>
  </scstep>
  <scstep>
   <time name="dav">   60.23   60.23</time>
   <time name="total">   60.31   60.31</time>
   <energy>
    <i name="alphaZ">   1073.51873187 </i>
    <i name="ewald"> -30865.43203447 </i>
    <i name="hartreedc"> -12961.00912276 </i>
    <i name="XCdc">   1418.55262414 </i>
    <i name="pawpsdc">  43855.41646416 </i>
    <i name="pawaedc"> -43333.05409923 </i>
    <i name="eentropy">      0.00000000 </i>
    <i name="bandstr">  -4276.40662499 </i>
    <i name="atom">  44791.06186932 </i>
    <i name="e_fr_energy">   -297.35219197 </i>
    <i name="e_wo_entrp">   -297.35219197 </i>
    <i name="e_0_energy">   -297.35219197 </i>
   </energy>
  </scstep>
  <structure>
   <crystal>
    <varray name="basis" >
     <v>      11.17850000       0.00000000       0.00000000 </v>
     <v>       0.00000000       9.57460000       0.00000000 </v>
     <v>       0.00000000       0.00000000      11.18240000 </v>
    </varray>
    <i name="volume">   1196.84853820 </i>
    <varray name="rec_basis" >
     <v>       0.08945744       0.00000000       0.00000000 </v>
     <v>       0.00000000       0.10444301       0.00000000 </v>
     <v>       0.00000000       0.00000000       0.08942624 </v>
    </varray>
   </crystal>
   <varray name="positions" >
    <v>       0.37539000       0.00017000       0.43687000 </v>
    <v>       0.12461000       0.99984000       0.18687000 </v>
    <v>       0.37461000       0.00017000       0.18687000 </v>
    <v>       0.62539000       0.99984000       0.43687000 </v>
    <v>       0.62461000       0.99984000       0.18687000 </v>
    <v>       0.87461000       0.00017000       0.18687000 </v>
    <v>       0.37461000       0.00017000       0.68687000 </v>
    <v>       0.62539000       0.99984000       0.93687000 </v>
    <v>       0.87539000       0.00017000       0.93687000 </v>
    <v>       0.62461000       0.99984000       0.68687000 </v>
    <v>       0.87539000       0.00017000       0.43687000 </v>
    <v>       0.37539000       0.00017000       0.93687000 </v>
    <v>       0.12461000       0.99984000       0.68687000 </v>
    <v>       0.00013000       0.29519000       0.06281000 </v>
    <v>       0.25013000       0.70481000       0.06281000 </v>
    <v>       0.24987000       0.29519000       0.31282000 </v>
    <v>       0.49987000       0.70481000       0.31282000 </v>
    <v>       0.50013000       0.29519000       0.06281000 </v>
    <v>       0.75013000       0.70481000       0.06281000 </v>
    <v>       0.74987000       0.29519000       0.31282000 </v>
    <v>       0.99987000       0.70481000       0.31282000 </v>
    <v>       0.00013000       0.29519000       0.56281000 </v>
    <v>       0.25013000       0.70481000       0.56281000 </v>
    <v>       0.24987000       0.29519000       0.81282000 </v>
    <v>       0.49987000       0.70481000       0.81282000 </v>
    <v>       0.50013000       0.29519000       0.56281000 </v>
    <v>       0.75013000       0.70481000       0.56281000 </v>
    <v>       0.74987000       0.29519000       0.81282000 </v>
    <v>       0.99987000       0.70481000       0.81282000 </v>
    <v>       0.25005000       0.32677000       0.06286000 </v>
    <v>       0.00005000       0.67323000       0.06286000 </v>
    <v>       0.49995000       0.32677000       0.31286000 </v>
    <v>       0.24995000       0.67323000       0.31286000 </v>
    <v>       0.75005000       0.32677000       0.06286000 </v>
    <v>       0.50005000       0.67323000       0.06286000 </v>
    <v>       0.99995000       0.32677000       0.31286000 </v>
    <v>       0.74995000       0.67323000       0.31286000 </v>
    <v>       0.25005000       0.32677000       0.56286000 </v>
    <v>       0.00005000       0.67323000       0.56286000 </v>
    <v>       0.49995000       0.32677000       0.81286000 </v>
    <v>       0.24995000       0.67323000       0.81286000 </v>
    <v>       0.75005000       0.32677000       0.56286000 </v>
    <v>       0.50005000       0.67323000       0.56286000 </v>
    <v>       0.99995000       0.32677000       0.81286000 </v>
    <v>       0.74995000       0.67323000       0.81286000 </v>
    <v>       0.49987000       0.07798000       0.06246000 </v>
    <v>       0.24987000       0.92202000       0.06246000 </v>
    <v>       0.25013000       0.07798000       0.31246000 </v>
    <v>       0.00013000       0.92202000       0.31246000 </v>
    <v>       0.99987000       0.07798000       0.06246000 </v>
    <v>       0.74987000       0.92202000       0.06246000 </v>
    <v>       0.75013000       0.07798000       0.31246000 </v>
    <v>       0.50013000       0.92202000       0.31246000 </v>
    <v>       0.49987000       0.07798000       0.56246000 </v>
    <v>       0.24987000       0.92202000       0.56246000 </v>
    <v>       0.25013000       0.07798000       0.81246000 </v>
    <v>       0.00013000       0.92202000       0.81246000 </v>
    <v>       0.99987000       0.07798000       0.56246000 </v>
    <v>       0.74987000       0.92202000       0.56246000 </v>
    <v>       0.75013000       0.07798000       0.81246000 </v>
    <v>       0.50013000       0.92202000       0.81246000 </v>
   </varray>
  </structure>
  <varray name="forces" >
   <v>      -0.45304279       0.06735314      -0.08360638 </v>
   <v>      -0.02174443       0.13576275       0.00973781 </v>
   <v>      -0.35411997      -0.00162019       0.48358751 </v>
   <v>      -0.28650437      -0.06304509       0.16947810 </v>
   <v>       0.03790284      -0.13195504       0.00730908 </v>
   <v>       0.36246168      -0.00229146      -0.46538362 </v>
   <v>       0.11733615       0.00557539      -0.47639565 </v>
   <v>       0.67645288       0.06398181      -0.14917971 </v>
   <v>       0.43342915       0.06872465      -0.40630040 </v>
   <v>       0.54848327       0.13661203      -0.00388188 </v>
   <v>       0.86159633      -0.11956200       0.84687260 </v>
   <v>      -0.91197243      -0.11401769       0.22188741 </v>
   <v>      -1.03592759      -0.22254435       0.01013664 </v>
   <v>       0.07466151      -0.99299216      -0.15167677 </v>
   <v>      -0.42992180      -0.00382835       0.06632769 </v>
   <v>      -0.21075002      -0.99722750       0.09989899 </v>
   <v>      -0.09716826      -0.04099487       0.04877534 </v>
   <v>       0.09357815       1.04727248       0.14701192 </v>
   <v>       0.23727499      -0.03339604      -0.09847774 </v>
   <v>       0.05384844       1.03578447      -0.11396489 </v>
   <v>       0.28844024       0.00506094      -0.03943678 </v>
   <v>      -0.02195025      -0.10749294       0.03549194 </v>
   <v>      -0.15247323      -0.01067438      -0.31893567 </v>
   <v>      -0.35812245       0.97741060       0.13408374 </v>
   <v>       0.21341973      -1.07841764      -0.13958100 </v>
   <v>      -0.00394239       0.05401787      -0.07214313 </v>
   <v>       0.15457512       0.01963903       0.28820265 </v>
   <v>       0.33403722      -0.97616718      -0.09346492 </v>
   <v>      -0.17263148       1.04168948       0.13502567 </v>
   <v>       0.32064518       0.12153135      -0.21288043 </v>
   <v>      -0.02367929      -0.20117653       0.12074066 </v>
   <v>       0.18320641       0.15393005      -0.07781335 </v>
   <v>       0.10387078      -0.17084287      -0.01810877 </v>
   <v>      -0.26391645       0.19375388       0.18218537 </v>
   <v>      -0.03622934      -0.10024267      -0.12747174 </v>
   <v>      -0.24871419       0.16076527       0.11985761 </v>
   <v>      -0.04090835      -0.15150354       0.03385439 </v>
   <v>       0.06489176       0.12518232       0.23008692 </v>
   <v>       0.00119852      -0.12174155      -0.10984014 </v>
   <v>      -0.21294638       0.09685368       0.12733133 </v>
   <v>       0.28510511      -0.09183869      -0.00449628 </v>
   <v>      -0.06717621       0.12202817      -0.24011809 </v>
   <v>      -0.00198384      -0.15432685       0.07969073 </v>
   <v>       0.22667280       0.14206740      -0.13108874 </v>
   <v>      -0.29057545      -0.16059904       0.02452628 </v>
   <v>      -0.46709367      -0.85619266      -0.57565100 </v>
   <v>       1.35250483       0.00871823      -0.04904941 </v>
   <v>       0.69078883       0.79107076      -0.60636266 </v>
   <v>      -1.25846719      -0.06013840      -0.06217451 </v>
   <v>      -0.61503110       0.82843478       0.67374645 </v>
   <v>      -0.23331579       0.03086507       0.14789632 </v>
   <v>       0.37789443      -0.77918893       0.46356443 </v>
   <v>       0.14619704       0.08127834      -0.08045870 </v>
   <v>       0.00330153      -0.08798830       0.07735523 </v>
   <v>       0.22622046      -0.00433380       1.22740396 </v>
   <v>       0.84993582      -0.66891056      -0.59862166 </v>
   <v>       0.61173768      -0.96503875      -0.55174547 </v>
   <v>      -0.01131841       0.33046301      -0.07413280 </v>
   <v>      -0.18830696      -0.00815925      -1.23968047 </v>
   <v>      -0.83417574       0.75981606       0.60025871 </v>
   <v>      -0.62755908       0.87280628       0.55979726 </v>
  </varray>
  <varray name="stress" >
   <v>      -8.33150541      -0.36673641       0.80093021 </v>
   <v>      -0.36673666     -14.04559577       0.20278423 </v>
   <v>       0.80093024       0.20278419      -9.15527195 </v>
  </varray>
  <energy>
   <i name="e_fr_energy">   -312.04039548 </i>
   <i name="e_wo_entrp">   -312.04039548 </i>
   <i name="e_0_energy">      0.00000000 </i>
  </energy>
  <time name="totalsc"> 1441.14 1446.62</time>
  <eigenvalues>
   <array>
    <dimension dim="1">band</dimension>
    <dimension dim="2">kpoint</dimension>
    <dimension dim="3">spin</dimension>
    <field>eigene</field>
    <field>occ</field>
    <set>
     <set comment="spin 1">
      <set comment="kpoint 1">
       <r>  -40.2625    1.0000 </r>
       <r>  -40.1754    1.0000 </r>
       <r>  -40.0630    1.0000 </r>
       <r>  -40.0516    1.0000 </r>
       <r>  -39.8934    1.0000 </r>
       <r>  -39.8165    1.0000 </r>
       <r>  -39.8037    1.0000 </r>
       <r>  -39.6456    1.0000 </r>
       <r>  -39.3673    1.0000 </r>
       <r>  -39.2125    1.0000 </r>
       <r>  -18.9290    1.0000 </r>
       <r>  -18.9162    1.0000 </r>
       <r>  -18.8566    1.0000 </r>
       <r>  -18.8496    1.0000 </r>
       <r>  -18.8453    1.0000 </r>
       <r>  -18.8435    1.0000 </r>
       <r>  -18.8357    1.0000 </r>
       <r>  -18.8305    1.0000 </r>
       <r>  -18.7714    1.0000 </r>
       <r>  -18.7704    1.0000 </r>
       <r>  -18.7640    1.0000 </r>
       <r>  -18.7623    1.0000 </r>
       <r>  -18.7545    1.0000 </r>
       <r>  -18.7421    1.0000 </r>
       <r>  -18.7408    1.0000 </r>
       <r>  -18.7281    1.0000 </r>
       <r>  -18.7091    1.0000 </r>
       <r>  -18.6991    1.0000 </r>
       <r>  -18.6973    1.0000 </r>
       <r>  -18.6899    1.0000 </r>
       <r>  -18.6853    1.0000 </r>
       <r>  -18.6794    1.0000 </r>
       <r>  -18.6666    1.0000 </r>
       <r>  -18.6615    1.0000 </r>
       <r>  -18.6548    1.0000 </r>
       <r>  -18.6476    1.0000 </r>
       <r>  -18.6470    1.0000 </r>
       <r>  -18.6439    1.0000 </r>
       <r>  -18.6410    1.0000 </r>
       <r>  -18.6373    1.0000 </r>
       <r>  -18.6359    1.0000 </r>
       <r>  -18.6357    1.0000 </r>
       <r>  -18.6326    1.0000 </r>
       <r>  -18.6314    1.0000 </r>
       <r>  -18.6283    1.0000 </r>
       <r>  -18.6269    1.0000 </r>
       <r>  -18.6227    1.0000 </r>
       <r>  -18.6177    1.0000 </r>
       <r>  -18.5677    1.0000 </r>
       <r>  -18.5548    1.0000 </r>
       <r>  -18.5491    1.0000 </r>
       <r>  -18.5475    1.0000 </r>
       <r>  -18.5457    1.0000 </r>
       <r>  -18.5400    1.0000 </r>
       <r>  -18.5386    1.0000 </r>
       <r>  -18.5370    1.0000 </r>
       <r>  -18.5299    1.0000 </r>
       <r>  -18.5234    1.0000 </r>
       <r>  -18.4903    1.0000 </r>
       <r>  -18.4899    1.0000 </r>
       <r>  -18.4849    1.0000 </r>
       <r>  -18.4765    1.0000 </r>
       <r>  -18.4749    1.0000 </r>
       <r>  -18.4724    1.0000 </r>
       <r>  -18.4720    1.0000 </r>
       <r>  -18.4697    1.0000 </r>
       <r>  -18.4566    1.0000 </r>
       <r>  -18.4529    1.0000 </r>
       <r>  -18.4443    1.0000 </r>
       <r>  -18.4407    1.0000 </r>
       <r>  -18.4121    1.0000 </r>
       <r>  -18.3952    1.0000 </r>
       <r>  -18.3938    1.0000 </r>
       <r>  -18.3924    1.0000 </r>
       <r>  -18.3843    1.0000 </r>
       <r>  -18.3798    1.0000 </r>
       <r>  -18.3764    1.0000 </r>
       <r>  -18.3689    1.0000 </r>
       <r>  -18.3640    1.0000 </r>
       <r>  -18.3621    1.0000 </r>
       <r>  -18.3035    1.0000 </r>
       <r>  -18.2944    1.0000 </r>
       <r>  -18.2513    1.0000 </r>
       <r>  -18.2466    1.0000 </r>
       <r>  -18.2420    1.0000 </r>
       <r>  -18.2372    1.0000 </r>
       <r>  -18.1940    1.0000 </r>
       <r>  -18.1787    1.0000 </r>
       <r>  -18.1672    1.0000 </r>
       <r>  -18.1657    1.0000 </r>
       <r>  -13.5816    1.0000 </r>
       <r>  -13.4591    1.0000 </r>
       <r>  -13.3987    1.0000 </r>
       <r>  -13.3886    1.0000 </r>
       <r>  -12.8166    1.0000 </r>
       <r>  -12.7408    1.0000 </r>
       <r>  -12.7312    1.0000 </r>
       <r>  -12.7109    1.0000 </r>
       <r>  -12.7025    1.0000 </r>
       <r>  -12.6621    1.0000 </r>
       <r>  -12.6178    1.0000 </r>
       <r>  -12.5521    1.0000 </r>
       <r>  -12.0444    1.0000 </r>
       <r>  -12.0147    1.0000 </r>
       <r>  -11.9676    1.0000 </r>
       <r>  -11.9179    1.0000 </r>
       <r>   -9.3159    1.0000 </r>
       <r>   -9.0217    1.0000 </r>
       <r>   -8.5529    1.0000 </r>
       <r>   -8.5070    1.0000 </r>
       <r>   -8.4491    1.0000 </r>
       <r>   -8.4087    1.0000 </r>
       <r>   -8.3293    1.0000 </r>
       <r>   -8.2837    1.0000 </r>
       <r>   -8.2250    1.0000 </r>
       <r>   -8.1869    1.0000 </r>
       <r>   -8.0222    1.0000 </r>
       <r>   -8.0107    1.0000 </r>
       <r>   -7.9891    1.0000 </r>
       <r>   -7.9764    1.0000 </r>
       <r>   -7.3462    1.0000 </r>
       <r>   -7.3395    1.0000 </r>
       <r>   -6.3659    1.0000 </r>
       <r>   -6.3580    1.0000 </r>
       <r>   -6.3453    1.0000 </r>
       <r>   -6.3361    1.0000 </r>
       <r>   -5.5145    1.0000 </r>
       <r>   -5.4649    1.0000 </r>
       <r>   -5.4503    1.0000 </r>
       <r>   -5.3340    1.0000 </r>
       <r>   -5.2973    1.0000 </r>
       <r>   -5.2483    1.0000 </r>
       <r>   -5.2140    1.0000 </r>
       <r>   -5.1347    1.0000 </r>
       <r>   -5.0569    1.0000 </r>
       <r>   -5.0009    1.0000 </r>
       <r>   -3.7942    1.0000 </r>
       <r>   -3.6411    1.0000 </r>
       <r>   -1.4395    1.0000 </r>
       <r>   -1.3064    1.0000 </r>
       <r>   -1.0910    1.0000 </r>
       <r>   -0.9975    1.0000 </r>
       <r>   -0.6110    1.0000 </r>
       <r>   -0.5195    1.0000 </r>
       <r>   -0.4574    1.0000 </r>
       <r>   -0.4362    1.0000 </r>
       <r>   -0.2014    1.0000 </r>
       <r>   -0.1732    1.0000 </r>
       <r>   -0.1360    1.0000 </r>
       <r>   -0.1171    1.0000 </r>
       <r>   -0.0202    1.0000 </r>
       <r>    0.2293    1.0000 </r>
       <r>    0.2481    1.0000 </r>
       <r>    0.2846    1.0000 </r>
       <r>    0.3548    1.0000 </r>
       <r>    0.4584    1.0000 </r>
       <r>    0.5127    1.0000 </r>
       <r>    0.6098    1.0000 </r>
       <r>    0.6368    1.0000 </r>
       <r>    0.6901    1.0000 </r>
       <r>    0.7468    1.0000 </r>
       <r>    0.7725    1.0000 </r>
       <r>    0.8182    1.0000 </r>
       <r>    0.8531    1.0000 </r>
       <r>    0.9299    1.0000 </r>
       <r>    0.9528    1.0000 </r>
       <r>    0.9853    1.0000 </r>
       <r>    1.0119    1.0000 </r>
       <r>    1.0438    1.0000 </r>
       <r>    1.0736    1.0000 </r>
       <r>    1.0983    1.0000 </r>
       <r>    1.1260    1.0000 </r>
       <r>    1.2403    1.0000 </r>
       <r>    1.2908    1.0000 </r>
       <r>    1.3571    1.0000 </r>
       <r>    1.3606    1.0000 </r>
       <r>    1.4252    1.0000 </r>
       <r>    1.4441    1.0000 </r>
       <r>    1.4716    1.0000 </r>
       <r>    1.5319    1.0000 </r>
       <r>    1.6083    1.0000 </r>
       <r>    1.6237    1.0000 </r>
       <r>    1.6654    1.0000 </r>
       <r>    1.6883    1.0000 </r>
       <r>    1.7358    1.0000 </r>
       <r>    1.8405    1.0000 </r>
       <r>    1.8814    1.0000 </r>
       <r>    1.9247    1.0000 </r>
       <r>    1.9526    1.0000 </r>
       <r>    2.0056    1.0000 </r>
       <r>    2.1776    1.0000 </r>
       <r>    2.2004    1.0000 </r>
       <r>    2.2541    1.0000 </r>
       <r>    2.3361    1.0000 </r>
       <r>    2.3432    1.0000 </r>
       <r>    2.3717    1.0000 </r>
       <r>    2.4750    1.0000 </r>
       <r>    2.5395    1.0000 </r>
       <r>    2.5712    1.0000 </r>
       <r>    2.5791    1.0000 </r>
       <r>    2.5887    1.0000 </r>
       <r>    2.6016    1.0000 </r>
       <r>    2.6148    1.0000 </r>
       <r>    2.6462    1.0000 </r>
       <r>    2.6797    1.0000 </r>
       <r>    2.7244    1.0000 </r>
       <r>    2.7516    1.0000 </r>
       <r>    2.7858    1.0000 </r>
       <r>    2.8325    1.0000 </r>
       <r>    2.8960    1.0000 </r>
       <r>    2.9307    1.0000 </r>
       <r>    2.9476    1.0000 </r>
       <r>    2.9898    1.0000 </r>
       <r>    3.0510    1.0000 </r>
       <r>    3.0720    1.0000 </r>
       <r>    3.1059    1.0000 </r>
       <r>    3.1209    1.0000 </r>
       <r>    3.1336    1.0000 </r>
       <r>    3.1662    1.0000 </r>
       <r>    3.1771    1.0000 </r>
       <r>    3.1949    1.0000 </r>
       <r>    3.2054    1.0000 </r>
       <r>    3.2393    1.0000 </r>
       <r>    3.2670    1.0000 </r>
       <r>    3.3176    1.0000 </r>
       <r>    3.3932    1.0000 </r>
       <r>    3.4558    1.0000 </r>
       <r>    3.5040    1.0000 </r>
       <r>    3.5239    1.0000 </r>
       <r>    3.7230    1.0000 </r>
       <r>    4.1921    1.0000 </r>
       <r>    4.2127    1.0000 </r>
       <r>    4.2344    1.0000 </r>
       <r>    4.2499    1.0000 </r>
       <r>    5.0569    0.0000 </r>
       <r>    5.0779    0.0000 </r>
       <r>    5.1716    0.0000 </r>
       <r>    5.1912    0.0000 </r>
       <r>    5.7510    0.0000 </r>
       <r>    5.7681    0.0000 </r>
       <r>    5.8175    0.0000 </r>
       <r>    5.8348    0.0000 </r>
       <r>    6.1011    0.0000 </r>
       <r>    6.1191    0.0000 </r>
       <r>    6.1589    0.0000 </r>
       <r>    6.1659    0.0000 </r>
       <r>    6.2389    0.0000 </r>
       <r>    6.2505    0.0000 </r>
       <r>    6.2799    0.0000 </r>
       <r>    6.2947    0.0000 </r>
       <r>    7.0785    0.0000 </r>
       <r>    7.1678    0.0000 </r>
       <r>    7.2873    0.0000 </r>
       <r>    7.3133    0.0000 </r>
       <r>    7.6986    0.0000 </r>
       <r>    7.8086    0.0000 </r>
       <r>    7.8610    0.0000 </r>
       <r>    7.9778    0.0000 </r>
       <r>    8.0020    0.0000 </r>
       <r>    8.1218    0.0000 </r>
       <r>    8.1893    0.0000 </r>
       <r>    8.3293    0.0000 </r>
       <r>    8.3785    0.0000 </r>
       <r>    8.6412    0.0000 </r>
       <r>    8.7136    0.0000 </r>
       <r>    8.7822    0.0000 </r>
       <r>    8.8095    0.0000 </r>
       <r>    8.9215    0.0000 </r>
       <r>    8.9229    0.0000 </r>
       <r>    8.9832    0.0000 </r>
       <r>    9.0189    0.0000 </r>
       <r>    9.0640    0.0000 </r>
       <r>    9.0850    0.0000 </r>
       <r>    9.1066    0.0000 </r>
       <r>    9.1420    0.0000 </r>
       <r>    9.1799    0.0000 </r>
       <r>    9.2317    0.0000 </r>
       <r>    9.2829    0.0000 </r>
       <r>    9.4377    0.0000 </r>
       <r>    9.5035    0.0000 </r>
      </set>
      <set comment="kpoint 2">
       <r>  -40.2625    1.0000 </r>
       <r>  -40.1754    1.0000 </r>
       <r>  -40.0630    1.0000 </r>
       <r>  -40.0516    1.0000 </r>
       <r>  -39.8934    1.0000 </r>
       <r>  -39.8165    1.0000 </r>
       <r>  -39.8037    1.0000 </r>
       <r>  -39.6456    1.0000 </r>
       <r>  -39.3673    1.0000 </r>
       <r>  -39.2125    1.0000 </r>
       <r>  -18.9290    1.0000 </r>
       <r>  -18.9162    1.0000 </r>
       <r>  -18.8566    1.0000 </r>
       <r>  -18.8496    1.0000 </r>
       <r>  -18.8452    1.0000 </r>
       <r>  -18.8433    1.0000 </r>
       <r>  -18.8361    1.0000 </r>
       <r>  -18.8303    1.0000 </r>
       <r>  -18.7715    1.0000 </r>
       <r>  -18.7703    1.0000 </r>
       <r>  -18.7639    1.0000 </r>
       <r>  -18.7625    1.0000 </r>
       <r>  -18.7545    1.0000 </r>
       <r>  -18.7421    1.0000 </r>
       <r>  -18.7408    1.0000 </r>
       <r>  -18.7281    1.0000 </r>
       <r>  -18.7088    1.0000 </r>
       <r>  -18.6990    1.0000 </r>
       <r>  -18.6973    1.0000 </r>
       <r>  -18.6898    1.0000 </r>
       <r>  -18.6853    1.0000 </r>
       <r>  -18.6794    1.0000 </r>
       <r>  -18.6666    1.0000 </r>
       <r>  -18.6615    1.0000 </r>
       <r>  -18.6548    1.0000 </r>
       <r>  -18.6486    1.0000 </r>
       <r>  -18.6476    1.0000 </r>
       <r>  -18.6431    1.0000 </r>
       <r>  -18.6397    1.0000 </r>
       <r>  -18.6387    1.0000 </r>
       <r>  -18.6366    1.0000 </r>
       <r>  -18.6362    1.0000 </r>
       <r>  -18.6322    1.0000 </r>
       <r>  -18.6310    1.0000 </r>
       <r>  -18.6287    1.0000 </r>
       <r>  -18.6258    1.0000 </r>
       <r>  -18.6222    1.0000 </r>
       <r>  -18.6177    1.0000 </r>
       <r>  -18.5677    1.0000 </r>
       <r>  -18.5549    1.0000 </r>
       <r>  -18.5492    1.0000 </r>
       <r>  -18.5475    1.0000 </r>
       <r>  -18.5457    1.0000 </r>
       <r>  -18.5400    1.0000 </r>
       <r>  -18.5387    1.0000 </r>
       <r>  -18.5370    1.0000 </r>
       <r>  -18.5299    1.0000 </r>
       <r>  -18.5234    1.0000 </r>
       <r>  -18.4903    1.0000 </r>
       <r>  -18.4899    1.0000 </r>
       <r>  -18.4849    1.0000 </r>
       <r>  -18.4765    1.0000 </r>
       <r>  -18.4749    1.0000 </r>
       <r>  -18.4724    1.0000 </r>
       <r>  -18.4720    1.0000 </r>
       <r>  -18.4697    1.0000 </r>
       <r>  -18.4567    1.0000 </r>
       <r>  -18.4529    1.0000 </r>
       <r>  -18.4445    1.0000 </r>
       <r>  -18.4405    1.0000 </r>
       <r>  -18.4121    1.0000 </r>
       <r>  -18.3952    1.0000 </r>
       <r>  -18.3938    1.0000 </r>
       <r>  -18.3924    1.0000 </r>
       <r>  -18.3843    1.0000 </r>
       <r>  -18.3798    1.0000 </r>
       <r>  -18.3765    1.0000 </r>
       <r>  -18.3686    1.0000 </r>
       <r>  -18.3641    1.0000 </r>
       <r>  -18.3622    1.0000 </r>
       <r>  -18.3035    1.0000 </r>
       <r>  -18.2944    1.0000 </r>
       <r>  -18.2513    1.0000 </r>
       <r>  -18.2466    1.0000 </r>
       <r>  -18.2420    1.0000 </r>
       <r>  -18.2372    1.0000 </r>
       <r>  -18.1940    1.0000 </r>
       <r>  -18.1787    1.0000 </r>
       <r>  -18.1672    1.0000 </r>
       <r>  -18.1657    1.0000 </r>
       <r>  -13.5813    1.0000 </r>
       <r>  -13.4591    1.0000 </r>
       <r>  -13.3994    1.0000 </r>
       <r>  -13.3881    1.0000 </r>
       <r>  -12.8058    1.0000 </r>
       <r>  -12.7613    1.0000 </r>
       <r>  -12.7350    1.0000 </r>
       <r>  -12.7144    1.0000 </r>
       <r>  -12.6848    1.0000 </r>
       <r>  -12.6619    1.0000 </r>
       <r>  -12.6193    1.0000 </r>
       <r>  -12.5519    1.0000 </r>
       <r>  -12.0444    1.0000 </r>
       <r>  -12.0147    1.0000 </r>
       <r>  -11.9675    1.0000 </r>
       <r>  -11.9180    1.0000 </r>
       <r>   -9.1708    1.0000 </r>
       <r>   -9.0197    1.0000 </r>
       <r>   -8.8966    1.0000 </r>
       <r>   -8.7421    1.0000 </r>
       <r>   -8.3867    1.0000 </r>
       <r>   -8.3789    1.0000 </r>
       <r>   -8.2536    1.0000 </r>
       <r>   -8.2468    1.0000 </r>
       <r>   -8.1831    1.0000 </r>
       <r>   -8.1811    1.0000 </r>
       <r>   -8.0506    1.0000 </r>
       <r>   -8.0472    1.0000 </r>
       <r>   -7.7351    1.0000 </r>
       <r>   -7.6235    1.0000 </r>
       <r>   -7.6225    1.0000 </r>
       <r>   -7.5102    1.0000 </r>
       <r>   -6.0193    1.0000 </r>
       <r>   -6.0051    1.0000 </r>
       <r>   -5.9023    1.0000 </r>
       <r>   -5.8503    1.0000 </r>
       <r>   -5.8282    1.0000 </r>
       <r>   -5.7871    1.0000 </r>
       <r>   -5.7044    1.0000 </r>
       <r>   -5.6779    1.0000 </r>
       <r>   -5.6250    1.0000 </r>
       <r>   -5.5680    1.0000 </r>
       <r>   -5.5040    1.0000 </r>
       <r>   -5.4037    1.0000 </r>
       <r>   -4.4876    1.0000 </r>
       <r>   -4.3327    1.0000 </r>
       <r>   -4.3221    1.0000 </r>
       <r>   -4.1611    1.0000 </r>
       <r>   -1.2232    1.0000 </r>
       <r>   -1.0602    1.0000 </r>
       <r>   -0.8858    1.0000 </r>
       <r>   -0.7197    1.0000 </r>
       <r>   -0.4596    1.0000 </r>
       <r>   -0.2925    1.0000 </r>
       <r>   -0.0529    1.0000 </r>
       <r>    0.0253    1.0000 </r>
       <r>    0.0511    1.0000 </r>
       <r>    0.0891    1.0000 </r>
       <r>    0.1082    1.0000 </r>
       <r>    0.1452    1.0000 </r>
       <r>    0.1941    1.0000 </r>
       <r>    0.2511    1.0000 </r>
       <r>    0.2665    1.0000 </r>
       <r>    0.3514    1.0000 </r>
       <r>    0.4317    1.0000 </r>
       <r>    0.4625    1.0000 </r>
       <r>    0.4726    1.0000 </r>
       <r>    0.5270    1.0000 </r>
       <r>    0.5686    1.0000 </r>
       <r>    0.6032    1.0000 </r>
       <r>    0.6195    1.0000 </r>
       <r>    0.6974    1.0000 </r>
       <r>    0.7076    1.0000 </r>
       <r>    0.8352    1.0000 </r>
       <r>    0.8439    1.0000 </r>
       <r>    0.9491    1.0000 </r>
       <r>    0.9998    1.0000 </r>
       <r>    1.0728    1.0000 </r>
       <r>    1.1209    1.0000 </r>
       <r>    1.1375    1.0000 </r>
       <r>    1.1749    1.0000 </r>
       <r>    1.1830    1.0000 </r>
       <r>    1.2299    1.0000 </r>
       <r>    1.2797    1.0000 </r>
       <r>    1.2968    1.0000 </r>
       <r>    1.3358    1.0000 </r>
       <r>    1.3867    1.0000 </r>
       <r>    1.4241    1.0000 </r>
       <r>    1.4603    1.0000 </r>
       <r>    1.5043    1.0000 </r>
       <r>    1.5249    1.0000 </r>
       <r>    1.5988    1.0000 </r>
       <r>    1.6244    1.0000 </r>
       <r>    1.6377    1.0000 </r>
       <r>    1.6792    1.0000 </r>
       <r>    1.7452    1.0000 </r>
       <r>    1.7660    1.0000 </r>
       <r>    1.8753    1.0000 </r>
       <r>    1.8835    1.0000 </r>
       <r>    1.8925    1.0000 </r>
       <r>    1.9868    1.0000 </r>
       <r>    2.0320    1.0000 </r>
       <r>    2.0877    1.0000 </r>
       <r>    2.1322    1.0000 </r>
       <r>    2.1557    1.0000 </r>
       <r>    2.1775    1.0000 </r>
       <r>    2.2329    1.0000 </r>
       <r>    2.2980    1.0000 </r>
       <r>    2.3548    1.0000 </r>
       <r>    2.3851    1.0000 </r>
       <r>    2.4066    1.0000 </r>
       <r>    2.4699    1.0000 </r>
       <r>    2.5125    1.0000 </r>
       <r>    2.5200    1.0000 </r>
       <r>    2.5736    1.0000 </r>
       <r>    2.6210    1.0000 </r>
       <r>    2.6323    1.0000 </r>
       <r>    2.6876    1.0000 </r>
       <r>    2.7286    1.0000 </r>
       <r>    2.7488    1.0000 </r>
       <r>    2.7961    1.0000 </r>
       <r>    2.8154    1.0000 </r>
       <r>    2.8288    1.0000 </r>
       <r>    2.9279    1.0000 </r>
       <r>    2.9339    1.0000 </r>
       <r>    2.9628    1.0000 </r>
       <r>    3.0439    1.0000 </r>
       <r>    3.0726    1.0000 </r>
       <r>    3.1188    1.0000 </r>
       <r>    3.1420    1.0000 </r>
       <r>    3.1491    1.0000 </r>
       <r>    3.1547    1.0000 </r>
       <r>    3.2484    1.0000 </r>
       <r>    3.2704    1.0000 </r>
       <r>    3.4197    1.0000 </r>
       <r>    3.4537    1.0000 </r>
       <r>    3.4991    1.0000 </r>
       <r>    3.5116    1.0000 </r>
       <r>    3.5494    1.0000 </r>
       <r>    3.5650    1.0000 </r>
       <r>    3.6116    1.0000 </r>
       <r>    3.6407    1.0000 </r>
       <r>    3.7155    1.0000 </r>
       <r>    3.8300    1.0000 </r>
       <r>    5.5678    0.0000 </r>
       <r>    5.5789    0.0000 </r>
       <r>    5.7272    0.0000 </r>
       <r>    5.7398    0.0000 </r>
       <r>    5.7557    0.0000 </r>
       <r>    5.7674    0.0000 </r>
       <r>    5.9079    0.0000 </r>
       <r>    5.9207    0.0000 </r>
       <r>    7.2097    0.0000 </r>
       <r>    7.2311    0.0000 </r>
       <r>    7.2710    0.0000 </r>
       <r>    7.3396    0.0000 </r>
       <r>    7.3606    0.0000 </r>
       <r>    7.3861    0.0000 </r>
       <r>    7.4341    0.0000 </r>
       <r>    7.4592    0.0000 </r>
       <r>    7.4828    0.0000 </r>
       <r>    7.5195    0.0000 </r>
       <r>    7.6043    0.0000 </r>
       <r>    7.6298    0.0000 </r>
       <r>    7.8046    0.0000 </r>
       <r>    7.8340    0.0000 </r>
       <r>    7.8450    0.0000 </r>
       <r>    7.8652    0.0000 </r>
       <r>    7.8899    0.0000 </r>
       <r>    7.8968    0.0000 </r>
       <r>    7.9530    0.0000 </r>
       <r>    7.9825    0.0000 </r>
       <r>    7.9861    0.0000 </r>
       <r>    8.0464    0.0000 </r>
       <r>    8.0966    0.0000 </r>
       <r>    8.2012    0.0000 </r>
       <r>    8.2776    0.0000 </r>
       <r>    8.4061    0.0000 </r>
       <r>    8.4612    0.0000 </r>
       <r>    8.5559    0.0000 </r>
       <r>    8.6560    0.0000 </r>
       <r>    8.7348    0.0000 </r>
       <r>    8.7572    0.0000 </r>
       <r>    8.7705    0.0000 </r>
       <r>    8.7871    0.0000 </r>
       <r>    8.8673    0.0000 </r>
       <r>    8.9383    0.0000 </r>
       <r>    8.9521    0.0000 </r>
       <r>    9.1150    0.0000 </r>
       <r>    9.3453    0.0000 </r>
      </set>
      <set comment="kpoint 3">
       <r>  -40.2625    1.0000 </r>
       <r>  -40.1754    1.0000 </r>
       <r>  -40.0630    1.0000 </r>
       <r>  -40.0516    1.0000 </r>
       <r>  -39.8934    1.0000 </r>
       <r>  -39.8165    1.0000 </r>
       <r>  -39.8037    1.0000 </r>
       <r>  -39.6456    1.0000 </r>
       <r>  -39.3673    1.0000 </r>
       <r>  -39.2125    1.0000 </r>
       <r>  -18.9291    1.0000 </r>
       <r>  -18.9162    1.0000 </r>
       <r>  -18.8566    1.0000 </r>
       <r>  -18.8496    1.0000 </r>
       <r>  -18.8453    1.0000 </r>
       <r>  -18.8435    1.0000 </r>
       <r>  -18.8357    1.0000 </r>
       <r>  -18.8305    1.0000 </r>
       <r>  -18.7714    1.0000 </r>
       <r>  -18.7704    1.0000 </r>
       <r>  -18.7640    1.0000 </r>
       <r>  -18.7623    1.0000 </r>
       <r>  -18.7545    1.0000 </r>
       <r>  -18.7421    1.0000 </r>
       <r>  -18.7408    1.0000 </r>
       <r>  -18.7281    1.0000 </r>
       <r>  -18.7091    1.0000 </r>
       <r>  -18.6991    1.0000 </r>
       <r>  -18.6973    1.0000 </r>
       <r>  -18.6899    1.0000 </r>
       <r>  -18.6853    1.0000 </r>
       <r>  -18.6795    1.0000 </r>
       <r>  -18.6666    1.0000 </r>
       <r>  -18.6615    1.0000 </r>
       <r>  -18.6548    1.0000 </r>
       <r>  -18.6476    1.0000 </r>
       <r>  -18.6470    1.0000 </r>
       <r>  -18.6439    1.0000 </r>
       <r>  -18.6410    1.0000 </r>
       <r>  -18.6373    1.0000 </r>
       <r>  -18.6359    1.0000 </r>
       <r>  -18.6357    1.0000 </r>
       <r>  -18.6326    1.0000 </r>
       <r>  -18.6314    1.0000 </r>
       <r>  -18.6282    1.0000 </r>
       <r>  -18.6269    1.0000 </r>
       <r>  -18.6227    1.0000 </r>
       <r>  -18.6177    1.0000 </r>
       <r>  -18.5677    1.0000 </r>
       <r>  -18.5548    1.0000 </r>
       <r>  -18.5491    1.0000 </r>
       <r>  -18.5475    1.0000 </r>
       <r>  -18.5458    1.0000 </r>
       <r>  -18.5400    1.0000 </r>
       <r>  -18.5386    1.0000 </r>
       <r>  -18.5370    1.0000 </r>
       <r>  -18.5299    1.0000 </r>
       <r>  -18.5234    1.0000 </r>
       <r>  -18.4903    1.0000 </r>
       <r>  -18.4899    1.0000 </r>
       <r>  -18.4849    1.0000 </r>
       <r>  -18.4765    1.0000 </r>
       <r>  -18.4749    1.0000 </r>
       <r>  -18.4724    1.0000 </r>
       <r>  -18.4720    1.0000 </r>
       <r>  -18.4697    1.0000 </r>
       <r>  -18.4566    1.0000 </r>
       <r>  -18.4529    1.0000 </r>
       <r>  -18.4443    1.0000 </r>
       <r>  -18.4407    1.0000 </r>
       <r>  -18.4121    1.0000 </r>
       <r>  -18.3952    1.0000 </r>
       <r>  -18.3938    1.0000 </r>
       <r>  -18.3923    1.0000 </r>
       <r>  -18.3843    1.0000 </r>
       <r>  -18.3798    1.0000 </r>
       <r>  -18.3764    1.0000 </r>
       <r>  -18.3689    1.0000 </r>
       <r>  -18.3640    1.0000 </r>
       <r>  -18.3621    1.0000 </r>
       <r>  -18.3035    1.0000 </r>
       <r>  -18.2944    1.0000 </r>
       <r>  -18.2513    1.0000 </r>
       <r>  -18.2466    1.0000 </r>
       <r>  -18.2420    1.0000 </r>
       <r>  -18.2372    1.0000 </r>
       <r>  -18.1940    1.0000 </r>
       <r>  -18.1787    1.0000 </r>
       <r>  -18.1672    1.0000 </r>
       <r>  -18.1657    1.0000 </r>
       <r>  -13.5813    1.0000 </r>
       <r>  -13.4592    1.0000 </r>
       <r>  -13.3986    1.0000 </r>
       <r>  -13.3887    1.0000 </r>
       <r>  -12.8155    1.0000 </r>
       <r>  -12.7409    1.0000 </r>
       <r>  -12.7315    1.0000 </r>
       <r>  -12.7109    1.0000 </r>
       <r>  -12.7030    1.0000 </r>
       <r>  -12.6621    1.0000 </r>
       <r>  -12.6178    1.0000 </r>
       <r>  -12.5529    1.0000 </r>
       <r>  -12.0438    1.0000 </r>
       <r>  -12.0152    1.0000 </r>
       <r>  -11.9679    1.0000 </r>
       <r>  -11.9191    1.0000 </r>
       <r>   -9.3063    1.0000 </r>
       <r>   -9.0282    1.0000 </r>
       <r>   -8.5715    1.0000 </r>
       <r>   -8.5253    1.0000 </r>
       <r>   -8.4672    1.0000 </r>
       <r>   -8.4256    1.0000 </r>
       <r>   -8.3082    1.0000 </r>
       <r>   -8.2633    1.0000 </r>
       <r>   -8.2049    1.0000 </r>
       <r>   -8.1683    1.0000 </r>
       <r>   -8.0262    1.0000 </r>
       <r>   -8.0147    1.0000 </r>
       <r>   -7.9920    1.0000 </r>
       <r>   -7.9793    1.0000 </r>
       <r>   -7.3490    1.0000 </r>
       <r>   -7.3423    1.0000 </r>
       <r>   -6.3560    1.0000 </r>
       <r>   -6.3482    1.0000 </r>
       <r>   -6.3354    1.0000 </r>
       <r>   -6.3263    1.0000 </r>
       <r>   -5.5340    1.0000 </r>
       <r>   -5.4887    1.0000 </r>
       <r>   -5.4523    1.0000 </r>
       <r>   -5.3705    1.0000 </r>
       <r>   -5.3169    1.0000 </r>
       <r>   -5.2487    1.0000 </r>
       <r>   -5.1760    1.0000 </r>
       <r>   -5.1002    1.0000 </r>
       <r>   -5.0159    1.0000 </r>
       <r>   -4.9574    1.0000 </r>
       <r>   -3.8672    1.0000 </r>
       <r>   -3.5565    1.0000 </r>
       <r>   -1.3471    1.0000 </r>
       <r>   -1.2647    1.0000 </r>
       <r>   -1.2200    1.0000 </r>
       <r>   -1.0530    1.0000 </r>
       <r>   -0.4777    1.0000 </r>
       <r>   -0.4291    1.0000 </r>
       <r>   -0.4169    1.0000 </r>
       <r>   -0.3800    1.0000 </r>
       <r>   -0.3632    1.0000 </r>
       <r>   -0.3212    1.0000 </r>
       <r>   -0.2501    1.0000 </r>
       <r>   -0.2197    1.0000 </r>
       <r>   -0.1153    1.0000 </r>
       <r>   -0.1042    1.0000 </r>
       <r>    0.0650    1.0000 </r>
       <r>    0.1004    1.0000 </r>
       <r>    0.2347    1.0000 </r>
       <r>    0.2889    1.0000 </r>
       <r>    0.3833    1.0000 </r>
       <r>    0.4218    1.0000 </r>
       <r>    0.5251    1.0000 </r>
       <r>    0.6006    1.0000 </r>
       <r>    0.6379    1.0000 </r>
       <r>    0.7386    1.0000 </r>
       <r>    0.7496    1.0000 </r>
       <r>    0.8093    1.0000 </r>
       <r>    0.8340    1.0000 </r>
       <r>    0.8867    1.0000 </r>
       <r>    1.0162    1.0000 </r>
       <r>    1.1239    1.0000 </r>
       <r>    1.1358    1.0000 </r>
       <r>    1.1901    1.0000 </r>
       <r>    1.2444    1.0000 </r>
       <r>    1.2946    1.0000 </r>
       <r>    1.3288    1.0000 </r>
       <r>    1.3554    1.0000 </r>
       <r>    1.4075    1.0000 </r>
       <r>    1.4900    1.0000 </r>
       <r>    1.4990    1.0000 </r>
       <r>    1.5677    1.0000 </r>
       <r>    1.6205    1.0000 </r>
       <r>    1.6304    1.0000 </r>
       <r>    1.6717    1.0000 </r>
       <r>    1.7233    1.0000 </r>
       <r>    1.7722    1.0000 </r>
       <r>    1.8034    1.0000 </r>
       <r>    1.8916    1.0000 </r>
       <r>    1.9669    1.0000 </r>
       <r>    1.9887    1.0000 </r>
       <r>    2.0351    1.0000 </r>
       <r>    2.1028    1.0000 </r>
       <r>    2.1313    1.0000 </r>
       <r>    2.2332    1.0000 </r>
       <r>    2.2406    1.0000 </r>
       <r>    2.3013    1.0000 </r>
       <r>    2.3652    1.0000 </r>
       <r>    2.4523    1.0000 </r>
       <r>    2.4617    1.0000 </r>
       <r>    2.4906    1.0000 </r>
       <r>    2.5347    1.0000 </r>
       <r>    2.5565    1.0000 </r>
       <r>    2.5831    1.0000 </r>
       <r>    2.5868    1.0000 </r>
       <r>    2.6014    1.0000 </r>
       <r>    2.6107    1.0000 </r>
       <r>    2.6559    1.0000 </r>
       <r>    2.7072    1.0000 </r>
       <r>    2.7127    1.0000 </r>
       <r>    2.7362    1.0000 </r>
       <r>    2.7659    1.0000 </r>
       <r>    2.8249    1.0000 </r>
       <r>    2.8840    1.0000 </r>
       <r>    2.8918    1.0000 </r>
       <r>    2.9512    1.0000 </r>
       <r>    2.9808    1.0000 </r>
       <r>    3.0040    1.0000 </r>
       <r>    3.0302    1.0000 </r>
       <r>    3.0440    1.0000 </r>
       <r>    3.0804    1.0000 </r>
       <r>    3.1033    1.0000 </r>
       <r>    3.1108    1.0000 </r>
       <r>    3.1338    1.0000 </r>
       <r>    3.2357    1.0000 </r>
       <r>    3.3228    1.0000 </r>
       <r>    3.3609    1.0000 </r>
       <r>    3.4065    1.0000 </r>
       <r>    3.4295    1.0000 </r>
       <r>    3.4548    1.0000 </r>
       <r>    3.4903    1.0000 </r>
       <r>    3.5660    1.0000 </r>
       <r>    3.6076    1.0000 </r>
       <r>    3.6720    1.0000 </r>
       <r>    4.2405    1.0000 </r>
       <r>    4.2654    1.0000 </r>
       <r>    4.2851    1.0000 </r>
       <r>    4.3007    1.0000 </r>
       <r>    5.1315    0.0000 </r>
       <r>    5.1509    0.0000 </r>
       <r>    5.2350    0.0000 </r>
       <r>    5.2539    0.0000 </r>
       <r>    5.7591    0.0000 </r>
       <r>    5.7764    0.0000 </r>
       <r>    5.8263    0.0000 </r>
       <r>    5.8434    0.0000 </r>
       <r>    6.1613    0.0000 </r>
       <r>    6.1792    0.0000 </r>
       <r>    6.2047    0.0000 </r>
       <r>    6.2086    0.0000 </r>
       <r>    6.2490    0.0000 </r>
       <r>    6.2599    0.0000 </r>
       <r>    6.2933    0.0000 </r>
       <r>    6.3133    0.0000 </r>
       <r>    6.7308    0.0000 </r>
       <r>    6.9274    0.0000 </r>
       <r>    6.9750    0.0000 </r>
       <r>    7.0195    0.0000 </r>
       <r>    7.1468    0.0000 </r>
       <r>    7.2968    0.0000 </r>
       <r>    7.4840    0.0000 </r>
       <r>    7.6317    0.0000 </r>
       <r>    7.7722    0.0000 </r>
       <r>    7.8334    0.0000 </r>
       <r>    7.9022    0.0000 </r>
       <r>    8.0067    0.0000 </r>
       <r>    8.1063    0.0000 </r>
       <r>    8.3188    0.0000 </r>
       <r>    8.3740    0.0000 </r>
       <r>    8.4756    0.0000 </r>
       <r>    8.7238    0.0000 </r>
       <r>    8.8052    0.0000 </r>
       <r>    8.9299    0.0000 </r>
       <r>    8.9494    0.0000 </r>
       <r>    9.0160    0.0000 </r>
       <r>    9.0186    0.0000 </r>
       <r>    9.0839    0.0000 </r>
       <r>    9.1056    0.0000 </r>
       <r>    9.1184    0.0000 </r>
       <r>    9.1519    0.0000 </r>
       <r>    9.1861    0.0000 </r>
       <r>    9.2449    0.0000 </r>
       <r>    9.4969    0.0000 </r>
       <r>    9.6034    0.0000 </r>
      </set>
      <set comment="kpoint 4">
       <r>  -40.2625    1.0000 </r>
       <r>  -40.1754    1.0000 </r>
       <r>  -40.0630    1.0000 </r>
       <r>  -40.0516    1.0000 </r>
       <r>  -39.8934    1.0000 </r>
       <r>  -39.8165    1.0000 </r>
       <r>  -39.8037    1.0000 </r>
       <r>  -39.6456    1.0000 </r>
       <r>  -39.3673    1.0000 </r>
       <r>  -39.2125    1.0000 </r>
       <r>  -18.9291    1.0000 </r>
       <r>  -18.9162    1.0000 </r>
       <r>  -18.8566    1.0000 </r>
       <r>  -18.8496    1.0000 </r>
       <r>  -18.8452    1.0000 </r>
       <r>  -18.8433    1.0000 </r>
       <r>  -18.8361    1.0000 </r>
       <r>  -18.8303    1.0000 </r>
       <r>  -18.7715    1.0000 </r>
       <r>  -18.7703    1.0000 </r>
       <r>  -18.7639    1.0000 </r>
       <r>  -18.7625    1.0000 </r>
       <r>  -18.7545    1.0000 </r>
       <r>  -18.7421    1.0000 </r>
       <r>  -18.7408    1.0000 </r>
       <r>  -18.7281    1.0000 </r>
       <r>  -18.7088    1.0000 </r>
       <r>  -18.6990    1.0000 </r>
       <r>  -18.6973    1.0000 </r>
       <r>  -18.6898    1.0000 </r>
       <r>  -18.6853    1.0000 </r>
       <r>  -18.6794    1.0000 </r>
       <r>  -18.6666    1.0000 </r>
       <r>  -18.6615    1.0000 </r>
       <r>  -18.6548    1.0000 </r>
       <r>  -18.6486    1.0000 </r>
       <r>  -18.6476    1.0000 </r>
       <r>  -18.6431    1.0000 </r>
       <r>  -18.6397    1.0000 </r>
       <r>  -18.6387    1.0000 </r>
       <r>  -18.6366    1.0000 </r>
       <r>  -18.6362    1.0000 </r>
       <r>  -18.6322    1.0000 </r>
       <r>  -18.6310    1.0000 </r>
       <r>  -18.6287    1.0000 </r>
       <r>  -18.6258    1.0000 </r>
       <r>  -18.6222    1.0000 </r>
       <r>  -18.6177    1.0000 </r>
       <r>  -18.5677    1.0000 </r>
       <r>  -18.5549    1.0000 </r>
       <r>  -18.5492    1.0000 </r>
       <r>  -18.5475    1.0000 </r>
       <r>  -18.5458    1.0000 </r>
       <r>  -18.5400    1.0000 </r>
       <r>  -18.5386    1.0000 </r>
       <r>  -18.5370    1.0000 </r>
       <r>  -18.5299    1.0000 </r>
       <r>  -18.5234    1.0000 </r>
       <r>  -18.4903    1.0000 </r>
       <r>  -18.4899    1.0000 </r>
       <r>  -18.4849    1.0000 </r>
       <r>  -18.4765    1.0000 </r>
       <r>  -18.4749    1.0000 </r>
       <r>  -18.4724    1.0000 </r>
       <r>  -18.4720    1.0000 </r>
       <r>  -18.4697    1.0000 </r>
       <r>  -18.4567    1.0000 </r>
       <r>  -18.4529    1.0000 </r>
       <r>  -18.4445    1.0000 </r>
       <r>  -18.4405    1.0000 </r>
[...]
       <r>    8.8736    0.0000 </r>
       <r>    8.8820    0.0000 </r>
       <r>    8.8960    0.0000 </r>
       <r>    8.9176    0.0000 </r>
       <r>    8.9576    0.0000 </r>
      </set>
     </set>
    </set>
   </array>
  </eigenvalues>
  <separator name="orbital magnetization" >
   <v name="MAGDIPOLOUT">      0.00000000      0.00000000      0.00000000</v>
  </separator>
  <dos>
   <i name="efermi">      4.32590641 </i>
   <total>
    <array>
     <dimension dim="1">gridpoints</dimension>
     <dimension dim="2">spin</dimension>
     <field>energy</field>
     <field>total</field>
     <field>integrated</field>
     <set>
      <set comment="spin 1">
       <r>   -42.7558     0.0000     0.0000 </r>
       <r>   -42.5729     0.0000     0.0000 </r>
       <r>   -42.3901     0.0000     0.0000 </r>
       <r>   -42.2072     0.0000     0.0000 </r>
       <r>   -42.0244     0.0000     0.0000 </r>
       <r>   -41.8416     0.0000     0.0000 </r>
       <r>   -41.6587     0.0000     0.0000 </r>
       <r>   -41.4759     0.0000     0.0000 </r>
       <r>   -41.2930     0.0000     0.0000 </r>
       <r>   -41.1102     0.0000     0.0000 </r>
       <r>   -40.9274     0.0000     0.0000 </r>
       <r>   -40.7445     0.0000     0.0000 </r>
       <r>   -40.5617     0.0000     0.0000 </r>
       <r>   -40.3788     0.0000     0.0000 </r>
       <r>   -40.1960     0.0000     2.0000 </r>
       <r>   -40.0131     0.0000     8.0000 </r>
       <r>   -39.8303     0.0000    10.0000 </r>
       <r>   -39.6475     0.0000    14.0000 </r>
       <r>   -39.4646     0.0000    16.0000 </r>
       <r>   -39.2818     0.0000    18.0000 </r>
       <r>   -39.0989     0.0000    20.0000 </r>
       <r>   -38.9161     0.0000    20.0000 </r>
       <r>   -38.7333     0.0000    20.0000 </r>
       <r>   -38.5504     0.0000    20.0000 </r>
       <r>   -38.3676     0.0000    20.0000 </r>
       <r>   -38.1847     0.0000    20.0000 </r>
       <r>   -38.0019     0.0000    20.0000 </r>
       <r>   -37.8191     0.0000    20.0000 </r>
       <r>   -37.6362     0.0000    20.0000 </r>
       <r>   -37.4534     0.0000    20.0000 </r>
       <r>   -37.2705     0.0000    20.0000 </r>
       <r>   -37.0877     0.0000    20.0000 </r>
       <r>   -36.9048     0.0000    20.0000 </r>
       <r>   -36.7220     0.0000    20.0000 </r>
       <r>   -36.5392     0.0000    20.0000 </r>
       <r>   -36.3563     0.0000    20.0000 </r>
       <r>   -36.1735     0.0000    20.0000 </r>
       <r>   -35.9906     0.0000    20.0000 </r>
       <r>   -35.8078     0.0000    20.0000 </r>
       <r>   -35.6250     0.0000    20.0000 </r>
       <r>   -35.4421     0.0000    20.0000 </r>
       <r>   -35.2593     0.0000    20.0000 </r>
       <r>   -35.0764     0.0000    20.0000 </r>
       <r>   -34.8936     0.0000    20.0000 </r>
       <r>   -34.7107     0.0000    20.0000 </r>
       <r>   -34.5279     0.0000    20.0000 </r>
       <r>   -34.3451     0.0000    20.0000 </r>
       <r>   -34.1622     0.0000    20.0000 </r>
       <r>   -33.9794     0.0000    20.0000 </r>
       <r>   -33.7965     0.0000    20.0000 </r>
       <r>   -33.6137     0.0000    20.0000 </r>
       <r>   -33.4309     0.0000    20.0000 </r>
       <r>   -33.2480     0.0000    20.0000 </r>
       <r>   -33.0652     0.0000    20.0000 </r>
       <r>   -32.8823     0.0000    20.0000 </r>
       <r>   -32.6995     0.0000    20.0000 </r>
       <r>   -32.5166     0.0000    20.0000 </r>
       <r>   -32.3338     0.0000    20.0000 </r>
       <r>   -32.1510     0.0000    20.0000 </r>
       <r>   -31.9681     0.0000    20.0000 </r>
       <r>   -31.7853     0.0000    20.0000 </r>
       <r>   -31.6024     0.0000    20.0000 </r>
       <r>   -31.4196     0.0000    20.0000 </r>
       <r>   -31.2368     0.0000    20.0000 </r>
       <r>   -31.0539     0.0000    20.0000 </r>
       <r>   -30.8711     0.0000    20.0000 </r>
       <r>   -30.6882     0.0000    20.0000 </r>
       <r>   -30.5054     0.0000    20.0000 </r>
       <r>   -30.3226     0.0000    20.0000 </r>
       <r>   -30.1397     0.0000    20.0000 </r>
       <r>   -29.9569     0.0000    20.0000 </r>
       <r>   -29.7740     0.0000    20.0000 </r>
       <r>   -29.5912     0.0000    20.0000 </r>
       <r>   -29.4083     0.0000    20.0000 </r>
       <r>   -29.2255     0.0000    20.0000 </r>
       <r>   -29.0427     0.0000    20.0000 </r>
       <r>   -28.8598     0.0000    20.0000 </r>
       <r>   -28.6770     0.0000    20.0000 </r>
       <r>   -28.4941     0.0000    20.0000 </r>
       <r>   -28.3113     0.0000    20.0000 </r>
       <r>   -28.1285     0.0000    20.0000 </r>
       <r>   -27.9456     0.0000    20.0000 </r>
       <r>   -27.7628     0.0000    20.0000 </r>
       <r>   -27.5799     0.0000    20.0000 </r>
       <r>   -27.3971     0.0000    20.0000 </r>
       <r>   -27.2142     0.0000    20.0000 </r>
       <r>   -27.0314     0.0000    20.0000 </r>
       <r>   -26.8486     0.0000    20.0000 </r>
       <r>   -26.6657     0.0000    20.0000 </r>
       <r>   -26.4829     0.0000    20.0000 </r>
       <r>   -26.3000     0.0000    20.0000 </r>
       <r>   -26.1172     0.0000    20.0000 </r>
       <r>   -25.9344     0.0000    20.0000 </r>
       <r>   -25.7515     0.0000    20.0000 </r>
       <r>   -25.5687     0.0000    20.0000 </r>
       <r>   -25.3858     0.0000    20.0000 </r>
       <r>   -25.2030     0.0000    20.0000 </r>
       <r>   -25.0201     0.0000    20.0000 </r>
       <r>   -24.8373     0.0000    20.0000 </r>
       <r>   -24.6545     0.0000    20.0000 </r>
       <r>   -24.4716     0.0000    20.0000 </r>
       <r>   -24.2888     0.0000    20.0000 </r>
       <r>   -24.1059     0.0000    20.0000 </r>
       <r>   -23.9231     0.0000    20.0000 </r>
       <r>   -23.7403     0.0000    20.0000 </r>
       <r>   -23.5574     0.0000    20.0000 </r>
       <r>   -23.3746     0.0000    20.0000 </r>
       <r>   -23.1917     0.0000    20.0000 </r>
       <r>   -23.0089     0.0000    20.0000 </r>
       <r>   -22.8261     0.0000    20.0000 </r>
       <r>   -22.6432     0.0000    20.0000 </r>
       <r>   -22.4604     0.0000    20.0000 </r>
       <r>   -22.2775     0.0000    20.0000 </r>
       <r>   -22.0947     0.0000    20.0000 </r>
       <r>   -21.9118     0.0000    20.0000 </r>
       <r>   -21.7290     0.0000    20.0000 </r>
       <r>   -21.5462     0.0000    20.0000 </r>
       <r>   -21.3633     0.0000    20.0000 </r>
       <r>   -21.1805     0.0000    20.0000 </r>
       <r>   -20.9976     0.0000    20.0000 </r>
       <r>   -20.8148     0.0000    20.0000 </r>
       <r>   -20.6320     0.0000    20.0000 </r>
       <r>   -20.4491     0.0000    20.0000 </r>
       <r>   -20.2663     0.0000    20.0000 </r>
       <r>   -20.0834     0.0000    20.0000 </r>
       <r>   -19.9006     0.0000    20.0000 </r>
       <r>   -19.7177     0.0000    20.0000 </r>
       <r>   -19.5349     0.0000    20.0000 </r>
       <r>   -19.3521     0.0000    20.0000 </r>
       <r>   -19.1692     0.0000    20.0000 </r>
       <r>   -18.9864     0.0000    20.0000 </r>
       <r>   -18.8035     0.0000    36.0000 </r>
       <r>   -18.6207     0.0000    94.0000 </r>
       <r>   -18.4379     0.0000   140.0000 </r>
       <r>   -18.2550     0.0000   164.0000 </r>
       <r>   -18.0722     0.0000   180.0000 </r>
       <r>   -17.8893     0.0000   180.0000 </r>
       <r>   -17.7065     0.0000   180.0000 </r>
       <r>   -17.5236     0.0000   180.0000 </r>
       <r>   -17.3408     0.0000   180.0000 </r>
       <r>   -17.1580     0.0000   180.0000 </r>
       <r>   -16.9751     0.0000   180.0000 </r>
       <r>   -16.7923     0.0000   180.0000 </r>
       <r>   -16.6094     0.0000   180.0000 </r>
       <r>   -16.4266     0.0000   180.0000 </r>
       <r>   -16.2438     0.0000   180.0000 </r>
       <r>   -16.0609     0.0000   180.0000 </r>
       <r>   -15.8781     0.0000   180.0000 </r>
       <r>   -15.6952     0.0000   180.0000 </r>
       <r>   -15.5124     0.0000   180.0000 </r>
       <r>   -15.3296     0.0000   180.0000 </r>
       <r>   -15.1467     0.0000   180.0000 </r>
       <r>   -14.9639     0.0000   180.0000 </r>
       <r>   -14.7810     0.0000   180.0000 </r>
       <r>   -14.5982     0.0000   180.0000 </r>
       <r>   -14.4153     0.0000   180.0000 </r>
       <r>   -14.2325     0.0000   180.0000 </r>
       <r>   -14.0497     0.0000   180.0000 </r>
       <r>   -13.8668     0.0000   180.0000 </r>
       <r>   -13.6840     0.0000   180.0000 </r>
       <r>   -13.5011     0.0000   182.0000 </r>
       <r>   -13.3183     0.0000   188.0000 </r>
       <r>   -13.1355     0.0000   188.0000 </r>
       <r>   -12.9526     0.0000   188.0000 </r>
       <r>   -12.7698     0.0000   190.0000 </r>
       <r>   -12.5869     0.0000   202.0000 </r>
       <r>   -12.4041     0.0000   204.0000 </r>
       <r>   -12.2212     0.0000   204.0000 </r>
       <r>   -12.0384     0.0000   206.0000 </r>
       <r>   -11.8556     0.0000   212.0000 </r>
       <r>   -11.6727     0.0000   212.0000 </r>
       <r>   -11.4899     0.0000   212.0000 </r>
       <r>   -11.3070     0.0000   212.0000 </r>
       <r>   -11.1242     0.0000   212.0000 </r>
       <r>   -10.9414     0.0000   212.0000 </r>
       <r>   -10.7585     0.0000   212.0000 </r>
       <r>   -10.5757     0.0000   212.0000 </r>
       <r>   -10.3928     0.0000   212.0000 </r>
       <r>   -10.2100     0.0000   212.0000 </r>
       <r>   -10.0271     0.0000   212.0000 </r>
       <r>    -9.8443     0.0000   212.0000 </r>
       <r>    -9.6615     0.0000   212.0000 </r>
       <r>    -9.4786     0.0000   212.0000 </r>
       <r>    -9.2958     1.1618   212.0092 </r>
       <r>    -9.1129    11.0563   213.3794 </r>
       <r>    -8.9301     0.0000   216.0000 </r>
       <r>    -8.7473    17.5110   218.2260 </r>
       <r>    -8.5644    10.7099   220.5554 </r>
       <r>    -8.3816    37.4260   224.5493 </r>
       <r>    -8.1987     5.3664   228.0491 </r>
       <r>    -8.0159    29.0984   232.5150 </r>
       <r>    -7.8331    17.2670   236.5068 </r>
       <r>    -7.6502    12.9370   239.8693 </r>
       <r>    -7.4674    13.9274   243.1383 </r>
       <r>    -7.2845     0.0000   244.0000 </r>
       <r>    -7.1017     0.0000   244.0000 </r>
       <r>    -6.9188     0.0000   244.0000 </r>
       <r>    -6.7360     0.0000   244.0000 </r>
       <r>    -6.5532     0.0000   244.0000 </r>
       <r>    -6.3703     0.0000   244.0000 </r>
       <r>    -6.1875    18.0012   245.4650 </r>
       <r>    -6.0046    23.0863   250.0966 </r>
       <r>    -5.8218    17.7185   252.9799 </r>
       <r>    -5.6390    20.9710   257.8743 </r>
       <r>    -5.4561    19.2461   261.3105 </r>
       <r>    -5.2733    20.2110   265.1357 </r>
       <r>    -5.0904     6.6260   267.6226 </r>
       <r>    -4.9076     5.6711   268.3045 </r>
       <r>    -4.7247     8.1685   269.7146 </r>
       <r>    -4.5419    10.7850   271.4251 </r>
       <r>    -4.3591     5.9102   272.9899 </r>
       <r>    -4.1762     7.4282   274.2399 </r>
       <r>    -3.9934     4.4048   275.3390 </r>
       <r>    -3.8105     1.4039   275.8515 </r>
       <r>    -3.6277     0.1957   275.9954 </r>
       <r>    -3.4449     0.0000   276.0000 </r>
       <r>    -3.2620     0.0000   276.0000 </r>
       <r>    -3.0792     0.0000   276.0000 </r>
       <r>    -2.8963     0.0000   276.0000 </r>
       <r>    -2.7135     0.0000   276.0000 </r>
       <r>    -2.5306     0.0000   276.0000 </r>
       <r>    -2.3478     0.0000   276.0000 </r>
       <r>    -2.1650     0.0000   276.0000 </r>
       <r>    -1.9821     0.0000   276.0000 </r>
       <r>    -1.7993     0.0000   276.0000 </r>
       <r>    -1.6164     0.0000   276.0000 </r>
       <r>    -1.4336     0.0051   276.0000 </r>
       <r>    -1.2508     4.9591   276.3085 </r>
       <r>    -1.0679    11.0305   277.9360 </r>
       <r>    -0.8851    13.9939   280.1864 </r>
       <r>    -0.7022     8.5133   282.2785 </r>
       <r>    -0.5194     7.8366   283.5312 </r>
       <r>    -0.3366    19.4384   286.1797 </r>
       <r>    -0.1537    32.0281   290.5640 </r>
       <r>     0.0291    41.2479   298.5836 </r>
       <r>     0.2120    36.9207   304.7187 </r>
       <r>     0.3948    40.9371   310.9594 </r>
       <r>     0.5777    44.2355   318.0313 </r>
       <r>     0.7605    39.9835   324.6665 </r>
       <r>     0.9433    31.0841   330.6782 </r>
       <r>     1.1262    55.2700   339.3304 </r>
       <r>     1.3090    57.9278   346.9698 </r>
       <r>     1.4919    45.4875   357.4983 </r>
       <r>     1.6747    50.7349   366.5456 </r>
       <r>     1.8575    37.7120   374.2627 </r>
       <r>     2.0404    33.5332   380.8249 </r>
       <r>     2.2232    45.5451   388.4916 </r>
       <r>     2.4061    52.3677   397.5049 </r>
       <r>     2.5889    54.3434   408.1560 </r>
       <r>     2.7718    68.9120   419.0097 </r>
       <r>     2.9546    64.9619   429.3025 </r>
       <r>     3.1374    60.1621   441.5453 </r>
       <r>     3.3203    31.9711   449.3807 </r>
       <r>     3.5031    49.4033   456.1140 </r>
       <r>     3.6860    18.8031   462.3605 </r>
       <r>     3.8688    14.2216   465.2634 </r>
       <r>     4.0516     7.4326   467.2386 </r>
       <r>     4.2345     0.8480   467.9827 </r>
       <r>     4.4173     0.0000   468.0000 </r>
       <r>     4.6002     0.0000   468.0000 </r>
       <r>     4.7830     0.0000   468.0000 </r>
       <r>     4.9659     0.0000   468.0000 </r>
       <r>     5.1487     0.4716   468.0134 </r>
       <r>     5.3315     3.7593   468.3593 </r>
       <r>     5.5144     7.7833   469.4144 </r>
       <r>     5.6972     9.4866   471.0888 </r>
       <r>     5.8801    22.6170   474.7532 </r>
       <r>     6.0629    12.9383   477.5488 </r>
       <r>     6.2457    11.6532   479.7469 </r>
       <r>     6.4286    13.2187   482.0026 </r>
       <r>     6.6114    15.0354   484.5859 </r>
       <r>     6.7943    16.8474   487.4996 </r>
       <r>     6.9771    19.5404   490.7918 </r>
       <r>     7.1599    26.2922   494.8930 </r>
       <r>     7.3428    37.6574   500.7974 </r>
       <r>     7.5256    30.6087   507.7992 </r>
       <r>     7.7085    38.7997   512.7151 </r>
       <r>     7.8913    47.6037   520.7033 </r>
       <r>     8.0742    33.3003   527.9890 </r>
       <r>     8.2570    20.5337   532.6536 </r>
       <r>     8.4398    20.3028   536.2237 </r>
       <r>     8.6227    26.3320   540.4332 </r>
       <r>     8.8055    40.3009   545.5691 </r>
       <r>     8.9884    32.9476   553.6321 </r>
       <r>     9.1712    13.8085   557.8121 </r>
       <r>     9.3540     5.8493   559.4991 </r>
       <r>     9.5369     0.4150   559.9908 </r>
       <r>     9.7197     0.0000   560.0000 </r>
       <r>     9.9026     0.0000   560.0000 </r>
       <r>    10.0854     0.0000   560.0000 </r>
       <r>    10.2683     0.0000   560.0000 </r>
       <r>    10.4511     0.0000   560.0000 </r>
       <r>    10.6339     0.0000   560.0000 </r>
       <r>    10.8168     0.0000   560.0000 </r>
       <r>    10.9996     0.0000   560.0000 </r>
       <r>    11.1825     0.0000   560.0000 </r>
       <r>    11.3653     0.0000   560.0000 </r>
       <r>    11.5481     0.0000   560.0000 </r>
       <r>    11.7310     0.0000   560.0000 </r>
       <r>    11.9138     0.0000   560.0000 </r>
       <r>    12.0967     0.0000   560.0000 </r>
      </set>
     </set>
    </array>
   </total>
  </dos>
 </calculation>
 <structure name="finalpos" >
  <crystal>
   <varray name="basis" >
    <v>      11.17850000       0.00000000       0.00000000 </v>
    <v>       0.00000000       9.57460000       0.00000000 </v>
    <v>       0.00000000       0.00000000      11.18240000 </v>
   </varray>
   <i name="volume">   1196.84853820 </i>
   <varray name="rec_basis" >
    <v>       0.08945744       0.00000000       0.00000000 </v>
    <v>       0.00000000       0.10444301       0.00000000 </v>
    <v>       0.00000000       0.00000000       0.08942624 </v>
   </varray>
  </crystal>
  <varray name="positions" >
   <v>       0.37539000       0.00017000       0.43687000 </v>
   <v>       0.12461000       0.99984000       0.18687000 </v>
   <v>       0.37461000       0.00017000       0.18687000 </v>
   <v>       0.62539000       0.99984000       0.43687000 </v>
   <v>       0.62461000       0.99984000       0.18687000 </v>
   <v>       0.87461000       0.00017000       0.18687000 </v>
   <v>       0.37461000       0.00017000       0.68687000 </v>
   <v>       0.62539000       0.99984000       0.93687000 </v>
   <v>       0.87539000       0.00017000       0.93687000 </v>
   <v>       0.62461000       0.99984000       0.68687000 </v>
   <v>       0.87539000       0.00017000       0.43687000 </v>
   <v>       0.37539000       0.00017000       0.93687000 </v>
   <v>       0.12461000       0.99984000       0.68687000 </v>
   <v>       0.00013000       0.29519000       0.06281000 </v>
   <v>       0.25013000       0.70481000       0.06281000 </v>
   <v>       0.24987000       0.29519000       0.31282000 </v>
   <v>       0.49987000       0.70481000       0.31282000 </v>
   <v>       0.50013000       0.29519000       0.06281000 </v>
   <v>       0.75013000       0.70481000       0.06281000 </v>
   <v>       0.74987000       0.29519000       0.31282000 </v>
   <v>       0.99987000       0.70481000       0.31282000 </v>
   <v>       0.00013000       0.29519000       0.56281000 </v>
   <v>       0.25013000       0.70481000       0.56281000 </v>
   <v>       0.24987000       0.29519000       0.81282000 </v>
   <v>       0.49987000       0.70481000       0.81282000 </v>
   <v>       0.50013000       0.29519000       0.56281000 </v>
   <v>       0.75013000       0.70481000       0.56281000 </v>
   <v>       0.74987000       0.29519000       0.81282000 </v>
   <v>       0.99987000       0.70481000       0.81282000 </v>
   <v>       0.25005000       0.32677000       0.06286000 </v>
   <v>       0.00005000       0.67323000       0.06286000 </v>
   <v>       0.49995000       0.32677000       0.31286000 </v>
   <v>       0.24995000       0.67323000       0.31286000 </v>
   <v>       0.75005000       0.32677000       0.06286000 </v>
   <v>       0.50005000       0.67323000       0.06286000 </v>
   <v>       0.99995000       0.32677000       0.31286000 </v>
   <v>       0.74995000       0.67323000       0.31286000 </v>
   <v>       0.25005000       0.32677000       0.56286000 </v>
   <v>       0.00005000       0.67323000       0.56286000 </v>
   <v>       0.49995000       0.32677000       0.81286000 </v>
   <v>       0.24995000       0.67323000       0.81286000 </v>
   <v>       0.75005000       0.32677000       0.56286000 </v>
   <v>       0.50005000       0.67323000       0.56286000 </v>
   <v>       0.99995000       0.32677000       0.81286000 </v>
   <v>       0.74995000       0.67323000       0.81286000 </v>
   <v>       0.49987000       0.07798000       0.06246000 </v>
   <v>       0.24987000       0.92202000       0.06246000 </v>
   <v>       0.25013000       0.07798000       0.31246000 </v>
   <v>       0.00013000       0.92202000       0.31246000 </v>
   <v>       0.99987000       0.07798000       0.06246000 </v>
   <v>       0.74987000       0.92202000       0.06246000 </v>
   <v>       0.75013000       0.07798000       0.31246000 </v>
   <v>       0.50013000       0.92202000       0.31246000 </v>
   <v>       0.49987000       0.07798000       0.56246000 </v>
   <v>       0.24987000       0.92202000       0.56246000 </v>
   <v>       0.25013000       0.07798000       0.81246000 </v>
   <v>       0.00013000       0.92202000       0.81246000 </v>
   <v>       0.99987000       0.07798000       0.56246000 </v>
   <v>       0.74987000       0.92202000       0.56246000 </v>
   <v>       0.75013000       0.07798000       0.81246000 </v>
   <v>       0.50013000       0.92202000       0.81246000 </v>
  </varray>
 </structure>
</modeling>
