<?xml version="1.0" encoding="ISO-8859-1"?>
<modeling>
 <generator>
  <i name="program" type="string">vasp </i>
  <i name="version" type="string">5.4.4.18Apr17-6-g9f103f2a35  </i>
  <i name="subversion" type="string">(build Jul 31 2017 11:33:29) complex            parallel </i>
  <i name="platform" type="string">LinuxIFC </i>
  <i name="date" type="string">2021 09 22 </i>
  <i name="time" type="string">18:08:14 </i>
 </generator>
 <incar>
  <i type="string" name="SYSTEM"> La2O2S</i>
  <i type="string" name="PREC">normal</i>
  <i type="int" name="NELMIN">     4</i>
  <i type="int" name="IBRION">     2</i>
  <i type="int" name="NFREE">    10</i>
  <i name="EDIFF">      0.00000100</i>
  <i name="EDIFFG">     -0.01000000</i>
  <i type="int" name="NSW">   200</i>
  <i type="int" name="ISIF">     3</i>
  <i name="ENCUT">    600.00000000</i>
  <i name="ENAUG">    900.00000000</i>
  <i type="int" name="ISMEAR">    -5</i>
  <i type="logical" name="LWAVE"> F  </i>
  <i type="logical" name="LCHARG"> F  </i>
  <v type="int" name="KPOINT_BSE">    -1     0     0     0</v>
 </incar>
 <structure name="primitive_cell" >
  <crystal>
   <varray name="basis" >
    <v>      11.17850000       0.00000000       0.00000000 </v>
    <v>       0.00000000       9.57460000       0.00000000 </v>
    <v>       0.00000000       0.00000000      11.18240000 </v>
   </varray>
   <i name="volume">   1196.84853820 </i>
   <varray name="rec_basis" >
    <v>       0.08945744       0.00000000       0.00000000 </v>
    <v>       0.00000000       0.10444301       0.00000000 </v>
    <v>       0.00000000       0.00000000       0.08942624 </v>
   </varray>
  </crystal>
  <varray name="positions" >
   <v>       0.37539000       0.00017000       0.43687000 </v>
   <v>      -0.49987000      -0.07798000       0.31246000 </v>
   <v>       0.25013000       0.07798000       0.31246000 </v>
   <v>       0.49987000       0.07798000      -0.43754000 </v>
   <v>       0.24987000      -0.07798000      -0.43754000 </v>
   <v>       0.37461000       0.00017000       0.18687000 </v>
   <v>       0.49987000      -0.29519000       0.31282000 </v>
   <v>       0.24987000       0.29519000       0.31282000 </v>
   <v>      -0.49987000       0.29519000      -0.43719000 </v>
   <v>       0.25013000      -0.29519000      -0.43719000 </v>
   <v>       0.49995000       0.32677000       0.31286000 </v>
   <v>       0.24995000      -0.32677000       0.31286000 </v>
   <v>      -0.49995000      -0.32677000      -0.43714000 </v>
   <v>       0.25005000       0.32677000      -0.43714000 </v>
   <v>      -0.37539000      -0.00016000       0.18687000 </v>
   <v>      -0.37539000      -0.00016000      -0.31313000 </v>
   <v>       0.12461000      -0.00016000      -0.31313000 </v>
   <v>       0.49987000       0.07798000       0.06246000 </v>
   <v>      -0.24987000       0.07798000       0.31246000 </v>
   <v>      -0.25013000      -0.07798000      -0.43754000 </v>
   <v>       0.24987000      -0.07798000       0.06246000 </v>
   <v>       0.00013000      -0.07798000       0.31246000 </v>
   <v>      -0.49987000      -0.07798000      -0.18754000 </v>
   <v>      -0.00013000       0.07798000      -0.43754000 </v>
   <v>       0.25013000       0.07798000      -0.18754000 </v>
   <v>      -0.49987000       0.29519000       0.06281000 </v>
   <v>      -0.25013000       0.29519000       0.31282000 </v>
   <v>       0.25013000      -0.29519000       0.06281000 </v>
   <v>      -0.24987000      -0.29519000      -0.43719000 </v>
   <v>      -0.00013000      -0.29519000       0.31282000 </v>
   <v>       0.00013000       0.29519000      -0.43719000 </v>
   <v>       0.49987000      -0.29519000      -0.18718000 </v>
   <v>       0.24987000       0.29519000      -0.18718000 </v>
   <v>      -0.49995000      -0.32677000       0.06286000 </v>
   <v>       0.25005000       0.32677000       0.06286000 </v>
   <v>      -0.25005000      -0.32677000       0.31286000 </v>
   <v>      -0.24995000       0.32677000      -0.43714000 </v>
   <v>      -0.00005000       0.32677000       0.31286000 </v>
   <v>       0.00005000      -0.32677000      -0.43714000 </v>
   <v>       0.49995000       0.32677000      -0.18714000 </v>
   <v>       0.24995000      -0.32677000      -0.18714000 </v>
   <v>      -0.12461000       0.00017000       0.43687000 </v>
   <v>      -0.25013000      -0.07798000       0.06246000 </v>
   <v>      -0.00013000       0.07798000       0.06246000 </v>
   <v>      -0.24987000       0.07798000      -0.18754000 </v>
   <v>       0.00013000      -0.07798000      -0.18754000 </v>
   <v>      -0.12539000       0.00017000       0.18687000 </v>
   <v>       0.12539000      -0.00016000      -0.06313000 </v>
   <v>      -0.37461000      -0.00016000      -0.06313000 </v>
   <v>      -0.24987000      -0.29519000       0.06281000 </v>
   <v>       0.00013000       0.29519000       0.06281000 </v>
   <v>      -0.25013000       0.29519000      -0.18718000 </v>
   <v>      -0.00013000      -0.29519000      -0.18718000 </v>
   <v>      -0.24995000       0.32677000       0.06286000 </v>
   <v>       0.00005000      -0.32677000       0.06286000 </v>
   <v>      -0.25005000      -0.32677000      -0.18714000 </v>
   <v>      -0.00005000       0.32677000      -0.18714000 </v>
   <v>      -0.12461000       0.00017000      -0.06313000 </v>
  </varray>
 </structure>
 <varray name="primitive_index" >
  <v type="int" >        1 </v>
  <v type="int" >       50 </v>
  <v type="int" >       45 </v>
  <v type="int" >       51 </v>
  <v type="int" >       52 </v>
  <v type="int" >        5 </v>
  <v type="int" >       14 </v>
  <v type="int" >       13 </v>
  <v type="int" >       23 </v>
  <v type="int" >       20 </v>
  <v type="int" >       29 </v>
  <v type="int" >       30 </v>
  <v type="int" >       40 </v>
  <v type="int" >       35 </v>
  <v type="int" >        2 </v>
  <v type="int" >       10 </v>
  <v type="int" >        4 </v>
  <v type="int" >       43 </v>
  <v type="int" >       49 </v>
  <v type="int" >       56 </v>
  <v type="int" >       44 </v>
  <v type="int" >       46 </v>
  <v type="int" >       58 </v>
  <v type="int" >       55 </v>
  <v type="int" >       53 </v>
  <v type="int" >       15 </v>
  <v type="int" >       17 </v>
  <v type="int" >       12 </v>
  <v type="int" >       24 </v>
  <v type="int" >       18 </v>
  <v type="int" >       19 </v>
  <v type="int" >       22 </v>
  <v type="int" >       21 </v>
  <v type="int" >       32 </v>
  <v type="int" >       27 </v>
  <v type="int" >       34 </v>
  <v type="int" >       39 </v>
  <v type="int" >       33 </v>
  <v type="int" >       36 </v>
  <v type="int" >       37 </v>
  <v type="int" >       38 </v>
  <v type="int" >        6 </v>
  <v type="int" >       48 </v>
  <v type="int" >       47 </v>
  <v type="int" >       57 </v>
  <v type="int" >       54 </v>
  <v type="int" >        7 </v>
  <v type="int" >        3 </v>
  <v type="int" >        8 </v>
  <v type="int" >       16 </v>
  <v type="int" >       11 </v>
  <v type="int" >       25 </v>
  <v type="int" >       26 </v>
  <v type="int" >       31 </v>
  <v type="int" >       28 </v>
  <v type="int" >       42 </v>
  <v type="int" >       41 </v>
  <v type="int" >        9 </v>
 </varray>
 <kpoints>
  <generation param="Gamma">
   <v type="int" name="divisions">       2        2        2 </v>
   <v name="usershift">      0.00000000       0.00000000       0.00000000 </v>
   <v name="genvec1">      0.50000000       0.00000000       0.00000000 </v>
   <v name="genvec2">      0.00000000       0.50000000       0.00000000 </v>
   <v name="genvec3">      0.00000000       0.00000000       0.50000000 </v>
   <v name="shift">      0.00000000       0.00000000       0.00000000 </v>
  </generation>
  <varray name="kpointlist" >
   <v>       0.00000000       0.00000000       0.00000000 </v>
   <v>       0.50000000       0.00000000       0.00000000 </v>
   <v>       0.00000000       0.50000000       0.00000000 </v>
   <v>       0.50000000       0.50000000       0.00000000 </v>
   <v>       0.00000000       0.00000000       0.50000000 </v>
   <v>       0.50000000       0.00000000       0.50000000 </v>
   <v>       0.00000000       0.50000000       0.50000000 </v>
   <v>       0.50000000       0.50000000       0.50000000 </v>
  </varray>
  <varray name="weights" >
   <v>       0.12500000 </v>
   <v>       0.12500000 </v>
   <v>       0.12500000 </v>
   <v>       0.12500000 </v>
   <v>       0.12500000 </v>
   <v>       0.12500000 </v>
   <v>       0.12500000 </v>
   <v>       0.12500000 </v>
  </varray>
  <varray name="tetrahedronlist"  type="int" >
   <v type="int" >        2        1        2        4        5 </v>
   <v type="int" >        2        1        3        4        5 </v>
   <v type="int" >        2        3        4        5        7 </v>
   <v type="int" >        2        2        4        5        6 </v>
   <v type="int" >        2        4        5        6        8 </v>
   <v type="int" >        2        4        5        7        8 </v>
   <v type="int" >        2        1        2        3        6 </v>
   <v type="int" >        2        2        3        4        6 </v>
   <v type="int" >        2        3        4        6        8 </v>
   <v type="int" >        2        1        3        5        6 </v>
   <v type="int" >        2        3        5        6        7 </v>
   <v type="int" >        2        3        6        7        8 </v>
   <v type="int" >        2        2        3        4        7 </v>
   <v type="int" >        2        1        2        3        7 </v>
   <v type="int" >        2        1        2        5        7 </v>
   <v type="int" >        2        2        4        7        8 </v>
   <v type="int" >        2        2        6        7        8 </v>
   <v type="int" >        2        2        5        6        7 </v>
   <v type="int" >        2        1        3        4        8 </v>
   <v type="int" >        2        1        2        4        8 </v>
   <v type="int" >        2        1        2        6        8 </v>
   <v type="int" >        2        1        3        7        8 </v>
   <v type="int" >        2        1        5        7        8 </v>
   <v type="int" >        2        1        5        6        8 </v>
  </varray>
  <i name="volumeweight">      0.02083333 </i>
 </kpoints>
 <parameters>
  <separator name="general" >
   <i type="string" name="SYSTEM">La2O2S</i>
   <i type="logical" name="LCOMPAT"> F  </i>
  </separator>
  <separator name="electronic" >
   <i type="string" name="PREC">normal</i>
   <i name="ENMAX">    600.00000000</i>
   <i name="ENAUG">    900.00000000</i>
   <i name="EDIFF">      0.00000100</i>
   <i type="int" name="IALGO">    38</i>
   <i type="int" name="IWAVPR">    11</i>
   <i type="int" name="NBANDS">   280</i>
   <i name="NELECT">    456.00000000</i>
   <i type="int" name="TURBO">     0</i>
   <i type="int" name="IRESTART">     0</i>
   <i type="int" name="NREBOOT">     0</i>
   <i type="int" name="NMIN">     0</i>
   <i name="EREF">      0.00000000</i>
   <separator name="electronic smearing" >
    <i type="int" name="ISMEAR">    -5</i>
    <i name="SIGMA">      0.20000000</i>
    <i name="KSPACING">      0.50000000</i>
    <i type="logical" name="KGAMMA"> T  </i>
   </separator>
   <separator name="electronic projectors" >
    <i type="logical" name="LREAL"> F  </i>
    <v name="ROPT">      0.00000000      0.00000000      0.00000000      0.00000000      0.00000000</v>
    <i type="int" name="LMAXPAW">  -100</i>
    <i type="int" name="LMAXMIX">     2</i>
    <i type="logical" name="NLSPLINE"> F  </i>
   </separator>
   <separator name="electronic startup" >
    <i type="int" name="ISTART">     0</i>
    <i type="int" name="ICHARG">     2</i>
    <i type="int" name="INIWAV">     1</i>
   </separator>
   <separator name="electronic spin" >
    <i type="int" name="ISPIN">     1</i>
    <i type="logical" name="LNONCOLLINEAR"> F  </i>
    <v name="MAGMOM">      1.00000000      1.00000000      1.00000000      1.00000000      1.00000000      1.00000000      1.00000000      1.00000000      1.00000000      1.00000000      1.00000000      1.00000000      1.00000000      1.00000000      1.00000000      1.00000000      1.00000000      1.00000000      1.00000000      1.00000000
      1.00000000      1.00000000      1.00000000      1.00000000      1.00000000      1.00000000      1.00000000      1.00000000      1.00000000      1.00000000      1.00000000      1.00000000      1.00000000      1.00000000      1.00000000      1.00000000      1.00000000      1.00000000      1.00000000      1.00000000
      1.00000000      1.00000000      1.00000000      1.00000000      1.00000000      1.00000000      1.00000000      1.00000000      1.00000000      1.00000000      1.00000000      1.00000000      1.00000000      1.00000000      1.00000000      1.00000000      1.00000000      1.00000000</v>
    <i name="NUPDOWN">     -1.00000000</i>
    <i type="logical" name="LSORBIT"> F  </i>
    <v name="SAXIS">      0.00000000      0.00000000      1.00000000</v>
    <i type="logical" name="LSPIRAL"> F  </i>
    <v name="QSPIRAL">      0.00000000      0.00000000      0.00000000</v>
    <i type="logical" name="LZEROZ"> F  </i>
   </separator>
   <separator name="electronic exchange-correlation" >
    <i type="logical" name="LASPH"> F  </i>
    <i type="logical" name="LMETAGGA"> F  </i>
   </separator>
   <separator name="electronic convergence" >
    <i type="int" name="NELM">    60</i>
    <i type="int" name="NELMDL">    -5</i>
    <i type="int" name="NELMIN">     4</i>
    <i name="ENINI">    600.00000000</i>
    <separator name="electronic convergence detail" >
     <i type="logical" name="LDIAG"> T  </i>
     <i type="logical" name="LSUBROT"> F  </i>
     <i name="WEIMIN">      0.00100000</i>
     <i name="EBREAK">      0.00000000</i>
     <i name="DEPER">      0.30000000</i>
     <i type="int" name="NRMM">     4</i>
     <i name="TIME">      0.40000000</i>
    </separator>
   </separator>
   <separator name="electronic mixer" >
    <i name="AMIX">      0.40000000</i>
    <i name="BMIX">      1.00000000</i>
    <i name="AMIN">      0.10000000</i>
    <i name="AMIX_MAG">      1.60000000</i>
    <i name="BMIX_MAG">      1.00000000</i>
    <separator name="electronic mixer details" >
     <i type="int" name="IMIX">     4</i>
     <i type="logical" name="MIXFIRST"> F  </i>
     <i type="int" name="MAXMIX">   -45</i>
     <i name="WC">    100.00000000</i>
     <i type="int" name="INIMIX">     1</i>
     <i type="int" name="MIXPRE">     1</i>
     <i type="int" name="MREMOVE">     5</i>
    </separator>
   </separator>
   <separator name="electronic dipolcorrection" >
    <i type="logical" name="LDIPOL"> F  </i>
    <i type="logical" name="LMONO"> F  </i>
    <i type="int" name="IDIPOL">     0</i>
    <i name="EPSILON">      1.00000000</i>
    <v name="DIPOL">   -100.00000000   -100.00000000   -100.00000000</v>
    <i name="EFIELD">      0.00000000</i>
   </separator>
  </separator>
  <separator name="grids" >
   <i type="int" name="NGX">    70</i>
   <i type="int" name="NGY">    60</i>
   <i type="int" name="NGZ">    70</i>
   <i type="int" name="NGXF">   140</i>
   <i type="int" name="NGYF">   120</i>
   <i type="int" name="NGZF">   140</i>
   <i type="logical" name="ADDGRID"> F  </i>
  </separator>
  <separator name="ionic" >
   <i type="int" name="NSW">   200</i>
   <i type="int" name="IBRION">     2</i>
   <i type="int" name="MDALGO">     0</i>
   <i type="int" name="ISIF">     3</i>
   <i name="PSTRESS">      0.00000000</i>
   <i name="EDIFFG">     -0.01000000</i>
   <i type="int" name="NFREE">    10</i>
   <i name="POTIM">      0.50000000</i>
   <i name="SMASS">     -3.00000000</i>
   <i name="SCALEE">      1.00000000</i>
  </separator>
  <separator name="ionic md" >
   <i name="TEBEG">      0.00010000</i>
   <i name="TEEND">      0.00010000</i>
   <i type="int" name="NBLOCK">     1</i>
   <i type="int" name="KBLOCK">   200</i>
   <i type="int" name="NPACO">   256</i>
   <i name="APACO">     16.00000000</i>
  </separator>
  <separator name="symmetry" >
   <i type="int" name="ISYM">     2</i>
   <i name="SYMPREC">      0.00001000</i>
  </separator>
  <separator name="dos" >
   <i type="int" name="LORBIT">     0</i>
   <v name="RWIGS">     -1.00000000     -1.00000000     -1.00000000     -1.00000000     -1.00000000</v>
   <i type="int" name="NEDOS">   301</i>
   <i name="EMIN">     10.00000000</i>
   <i name="EMAX">    -10.00000000</i>
   <i name="EFERMI">      0.00000000</i>
  </separator>
  <separator name="writing" >
   <i type="int" name="NWRITE">     2</i>
   <i type="logical" name="LWAVE"> F  </i>
   <i type="logical" name="LDOWNSAMPLE"> F  </i>
   <i type="logical" name="LCHARG"> F  </i>
   <i type="logical" name="LPARD"> F  </i>
   <i type="logical" name="LVTOT"> F  </i>
   <i type="logical" name="LVHAR"> F  </i>
   <i type="logical" name="LELF"> F  </i>
   <i type="logical" name="LOPTICS"> F  </i>
   <v name="STM">      0.00000000      0.00000000      0.00000000      0.00000000      0.00000000      0.00000000      0.00000000</v>
  </separator>
  <separator name="performance" >
   <i type="int" name="NPAR">    28</i>
   <i type="int" name="NSIM">     4</i>
   <i type="int" name="NBLK">    -1</i>
   <i type="logical" name="LPLANE"> T  </i>
   <i type="logical" name="LSCALAPACK"> T  </i>
   <i type="logical" name="LSCAAWARE"> F  </i>
   <i type="logical" name="LSCALU"> F  </i>
   <i type="logical" name="LASYNC"> F  </i>
   <i type="logical" name="LORBITALREAL"> F  </i>
  </separator>
  <separator name="miscellaneous" >
   <i type="int" name="IDIOT">     3</i>
   <i type="int" name="ISPECIAL">     0</i>
   <i type="logical" name="LMUSIC"> F  </i>
   <v name="POMASS">      7.01000000     24.30500000    208.98000000     32.06600000     16.00000000</v>
   <v name="DARWINR">      0.00000000      0.00000000      0.00000000      0.00000000      0.00000000</v>
   <v name="DARWINV">      1.00000000      1.00000000      1.00000000      1.00000000      1.00000000</v>
   <i type="logical" name="LCORR"> T  </i>
  </separator>
  <i type="logical" name="GGA_COMPAT"> T  </i>
  <i type="logical" name="LBERRY"> F  </i>
  <i type="int" name="ICORELEVEL">     0</i>
  <i type="logical" name="LDAU"> F  </i>
  <i type="int" name="I_CONSTRAINED_M">     0</i>
  <separator name="electronic exchange-correlation" >
   <i type="string" name="GGA">--</i>
   <i type="int" name="VOSKOWN">     0</i>
   <i type="logical" name="LHFCALC"> F  </i>
   <i type="string" name="PRECFOCK"></i>
   <i type="logical" name="LSYMGRAD"> F  </i>
   <i type="logical" name="LHFONE"> F  </i>
   <i type="logical" name="LRHFCALC"> F  </i>
   <i type="logical" name="LTHOMAS"> F  </i>
   <i type="logical" name="LMODELHF"> F  </i>
   <i name="ENCUT4O">     -1.00000000</i>
   <i type="int" name="EXXOEP">     0</i>
   <i type="int" name="FOURORBIT">     0</i>
   <i name="AEXX">      0.00000000</i>
   <i name="HFALPHA">      0.00000000</i>
   <i name="MCALPHA">      0.00000000</i>
   <i name="ALDAX">      1.00000000</i>
   <i name="AGGAX">      1.00000000</i>
   <i name="ALDAC">      1.00000000</i>
   <i name="AGGAC">      1.00000000</i>
   <i type="int" name="NKREDX">     1</i>
   <i type="int" name="NKREDY">     1</i>
   <i type="int" name="NKREDZ">     1</i>
   <i type="logical" name="SHIFTRED"> F  </i>
   <i type="logical" name="ODDONLY"> F  </i>
   <i type="logical" name="EVENONLY"> F  </i>
   <i type="int" name="LMAXFOCK">     0</i>
   <i type="int" name="NMAXFOCKAE">     0</i>
   <i type="logical" name="LFOCKAEDFT"> F  </i>
   <i name="HFSCREEN">      0.00000000</i>
   <i name="HFSCREENC">      0.00000000</i>
   <i type="int" name="NBANDSGWLOW">     0</i>
  </separator>
  <separator name="vdW DFT" >
   <i type="logical" name="LUSE_VDW"> F  </i>
   <i name="Zab_VDW">     -0.84910000</i>
   <i name="PARAM1">      0.12340000</i>
   <i name="PARAM2">      1.00000000</i>
   <i name="PARAM3">      0.00000000</i>
  </separator>
  <separator name="model GW" >
   <i type="int" name="MODEL_GW">     0</i>
   <i name="MODEL_EPS0">     12.38119177</i>
   <i name="MODEL_ALPHA">      1.00000000</i>
  </separator>
  <separator name="linear response parameters" >
   <i type="logical" name="LEPSILON"> F  </i>
   <i type="logical" name="LRPA"> F  </i>
   <i type="logical" name="LNABLA"> F  </i>
   <i type="logical" name="LVEL"> F  </i>
   <i type="int" name="KINTER">     0</i>
   <i name="CSHIFT">      0.10000000</i>
   <i name="OMEGAMAX">     -1.00000000</i>
   <i name="DEG_THRESHOLD">      0.00200000</i>
   <i name="RTIME">     -0.10000000</i>
   <i name="WPLASMAI">      0.00000000</i>
   <v name="DFIELD">      0.00000000      0.00000000      0.00000000</v>
   <v name="WPLASMA">      0.00000000      0.00000000      0.00000000      0.00000000      0.00000000      0.00000000      0.00000000      0.00000000      0.00000000</v>
  </separator>
  <separator name="orbital magnetization" >
   <i type="logical" name="NUCIND"> F  </i>
   <v name="MAGPOS">      0.00000000      0.00000000      0.00000000</v>
   <i type="logical" name="LNICSALL"> T  </i>
   <i type="logical" name="ORBITALMAG"> F  </i>
   <i type="logical" name="LMAGBLOCH"> F  </i>
   <i type="logical" name="LCHIMAG"> F  </i>
   <i type="logical" name="LGAUGE"> T  </i>
   <i type="int" name="MAGATOM">     0</i>
   <v name="MAGDIPOL">      0.00000000      0.00000000      0.00000000</v>
   <v name="AVECCONST">      0.00000000      0.00000000      0.00000000</v>
  </separator>
  <separator name="response functions" >
   <i type="logical" name="LADDER"> F  </i>
   <i type="logical" name="LRPAFORCE"> F  </i>
   <i type="logical" name="LFXC"> F  </i>
   <i type="logical" name="LHARTREE"> T  </i>
   <i type="int" name="IBSE">     0</i>
   <v type="int" name="KPOINT">    -1     0     0     0</v>
   <i type="logical" name="LTCTE"> F  </i>
   <i type="logical" name="LTETE"> F  </i>
   <i type="logical" name="LTRIPLET"> F  </i>
   <i type="logical" name="LFXCEPS"> F  </i>
   <i type="logical" name="LFXHEG"> F  </i>
   <i type="int" name="NATURALO">     2</i>
   <i type="logical" name="L2ORDER"> F  </i>
   <i type="logical" name="LMP2LT"> F  </i>
   <i type="logical" name="LUSEW"> F  </i>
   <i name="ENCUTGW">     -2.00000000</i>
   <i name="ENCUTGWSOFT">     -2.00000000</i>
   <i name="ENCUTLF">     -1.00000000</i>
   <i type="int" name="LMAXMP2">    -1</i>
   <i name="SCISSOR">      0.00000000</i>
   <i type="int" name="NOMEGA">     0</i>
   <i type="int" name="NOMEGAR">     0</i>
   <i type="int" name="NBANDSGW">    -1</i>
   <i type="int" name="NBANDSO">    -1</i>
   <i type="int" name="NBANDSV">    -1</i>
   <i type="int" name="NELM">     1</i>
   <i type="int" name="NELMHF">     1</i>
   <i type="int" name="DIM">     3</i>
   <i type="int" name="ANTIRES">     0</i>
   <i name="OMEGAMAX">    -30.00000000</i>
   <i name="OMEGAMIN">    -30.00000000</i>
   <i name="OMEGATL">   -200.00000000</i>
   <i type="int" name="OMEGAGRID">   140</i>
   <i name="CSHIFT">     -0.10000000</i>
   <i type="logical" name="SELFENERGY"> F  </i>
   <i type="logical" name="LSPECTRAL"> F  </i>
   <i type="logical" name="LSPECTRALGW"> F  </i>
   <i type="logical" name="LSINGLES"> F  </i>
   <i type="logical" name="LFERMIGW"> F  </i>
   <i type="logical" name="ODDONLYGW"> F  </i>
   <i type="logical" name="EVENONLYGW"> F  </i>
   <i type="int" name="NKREDLFX">     1</i>
   <i type="int" name="NKREDLFY">     1</i>
   <i type="int" name="NKREDLFZ">     1</i>
   <i type="int" name="MAXMEM">  2800</i>
   <i type="int" name="TELESCOPE">     0</i>
   <i type="int" name="TAUPAR">     1</i>
   <i type="int" name="OMEGAPAR">    -1</i>
   <i name="LAMBDA">      1.00000000</i>
  </separator>
  <separator name="External order field" >
   <i name="OFIELD_KAPPA">      0.00000000</i>
   <v name="OFIELD_K">      0.00000000      0.00000000      0.00000000</v>
   <i name="OFIELD_Q6_NEAR">      0.00000000</i>
   <i name="OFIELD_Q6_FAR">      0.00000000</i>
   <i name="OFIELD_A">      0.00000000</i>
  </separator>
 </parameters>
 <atominfo>
  <atoms>      58 </atoms>
  <types>       5 </types>
  <array name="atoms" >
   <dimension dim="1">ion</dimension>
   <field type="string">element</field>
   <field type="int">atomtype</field>
   <set>
    <rc><c>Li</c><c>   1</c></rc>
    <rc><c>Li</c><c>   1</c></rc>
    <rc><c>Li</c><c>   1</c></rc>
    <rc><c>Li</c><c>   1</c></rc>
    <rc><c>Mg</c><c>   2</c></rc>
    <rc><c>Mg</c><c>   2</c></rc>
    <rc><c>Mg</c><c>   2</c></rc>
    <rc><c>Mg</c><c>   2</c></rc>
    <rc><c>Mg</c><c>   2</c></rc>
    <rc><c>Mg</c><c>   2</c></rc>
    <rc><c>Bi</c><c>   3</c></rc>
    <rc><c>Bi</c><c>   3</c></rc>
    <rc><c>Bi</c><c>   3</c></rc>
    <rc><c>Bi</c><c>   3</c></rc>
    <rc><c>Bi</c><c>   3</c></rc>
    <rc><c>Bi</c><c>   3</c></rc>
    <rc><c>Bi</c><c>   3</c></rc>
    <rc><c>Bi</c><c>   3</c></rc>
    <rc><c>Bi</c><c>   3</c></rc>
    <rc><c>Bi</c><c>   3</c></rc>
    <rc><c>Bi</c><c>   3</c></rc>
    <rc><c>Bi</c><c>   3</c></rc>
    <rc><c>Bi</c><c>   3</c></rc>
    <rc><c>Bi</c><c>   3</c></rc>
    <rc><c>Bi</c><c>   3</c></rc>
    <rc><c>Bi</c><c>   3</c></rc>
    <rc><c>S </c><c>   4</c></rc>
    <rc><c>S </c><c>   4</c></rc>
    <rc><c>S </c><c>   4</c></rc>
    <rc><c>S </c><c>   4</c></rc>
    <rc><c>S </c><c>   4</c></rc>
    <rc><c>S </c><c>   4</c></rc>
    <rc><c>S </c><c>   4</c></rc>
    <rc><c>S </c><c>   4</c></rc>
    <rc><c>S </c><c>   4</c></rc>
    <rc><c>S </c><c>   4</c></rc>
    <rc><c>S </c><c>   4</c></rc>
    <rc><c>S </c><c>   4</c></rc>
    <rc><c>S </c><c>   4</c></rc>
    <rc><c>S </c><c>   4</c></rc>
    <rc><c>S </c><c>   4</c></rc>
    <rc><c>S </c><c>   4</c></rc>
    <rc><c>O </c><c>   5</c></rc>
    <rc><c>O </c><c>   5</c></rc>
    <rc><c>O </c><c>   5</c></rc>
    <rc><c>O </c><c>   5</c></rc>
    <rc><c>O </c><c>   5</c></rc>
    <rc><c>O </c><c>   5</c></rc>
    <rc><c>O </c><c>   5</c></rc>
    <rc><c>O </c><c>   5</c></rc>
    <rc><c>O </c><c>   5</c></rc>
    <rc><c>O </c><c>   5</c></rc>
    <rc><c>O </c><c>   5</c></rc>
    <rc><c>O </c><c>   5</c></rc>
    <rc><c>O </c><c>   5</c></rc>
    <rc><c>O </c><c>   5</c></rc>
    <rc><c>O </c><c>   5</c></rc>
    <rc><c>O </c><c>   5</c></rc>
   </set>
  </array>
  <array name="atomtypes" >
   <dimension dim="1">type</dimension>
   <field type="int">atomspertype</field>
   <field type="string">element</field>
   <field>mass</field>
   <field>valence</field>
   <field type="string">pseudopotential</field>
   <set>
    <rc><c>   4</c><c>Li</c><c>      7.01000000</c><c>      3.00000000</c><c>  PAW_PBE Li_sv 10Sep2004               </c></rc>
    <rc><c>   6</c><c>Mg</c><c>     24.30500000</c><c>      2.00000000</c><c>  PAW_PBE Mg 13Apr2007                  </c></rc>
    <rc><c>  16</c><c>Bi</c><c>    208.98000000</c><c>     15.00000000</c><c>  PAW_PBE Bi_d 06Sep2000                </c></rc>
    <rc><c>  16</c><c>S </c><c>     32.06600000</c><c>      6.00000000</c><c>  PAW_PBE S 06Sep2000                   </c></rc>
    <rc><c>  16</c><c>O </c><c>     16.00000000</c><c>      6.00000000</c><c>  PAW_PBE O 08Apr2002                   </c></rc>
   </set>
  </array>
 </atominfo>
 <structure name="initialpos" >
  <crystal>
   <varray name="basis" >
    <v>      11.17850000       0.00000000       0.00000000 </v>
    <v>       0.00000000       9.57460000       0.00000000 </v>
    <v>       0.00000000       0.00000000      11.18240000 </v>
   </varray>
   <i name="volume">   1196.84853820 </i>
   <varray name="rec_basis" >
    <v>       0.08945744       0.00000000       0.00000000 </v>
    <v>       0.00000000       0.10444301       0.00000000 </v>
    <v>       0.00000000       0.00000000       0.08942624 </v>
   </varray>
  </crystal>
  <varray name="positions" >
   <v>       0.37539000       0.00017000       0.43687000 </v>
   <v>       0.62461000       0.99984000       0.18687000 </v>
   <v>       0.12539000       0.99984000       0.93687000 </v>
   <v>       0.12461000       0.99984000       0.68687000 </v>
   <v>       0.37461000       0.00017000       0.18687000 </v>
   <v>       0.87539000       0.00017000       0.43687000 </v>
   <v>       0.87461000       0.00017000       0.18687000 </v>
   <v>       0.62539000       0.99984000       0.93687000 </v>
   <v>       0.87539000       0.00017000       0.93687000 </v>
   <v>       0.62461000       0.99984000       0.68687000 </v>
   <v>       0.00013000       0.29519000       0.06281000 </v>
   <v>       0.25013000       0.70481000       0.06281000 </v>
   <v>       0.24987000       0.29519000       0.31282000 </v>
   <v>       0.49987000       0.70481000       0.31282000 </v>
   <v>       0.50013000       0.29519000       0.06281000 </v>
   <v>       0.75013000       0.70481000       0.06281000 </v>
   <v>       0.74987000       0.29519000       0.31282000 </v>
   <v>       0.99987000       0.70481000       0.31282000 </v>
   <v>       0.00013000       0.29519000       0.56281000 </v>
   <v>       0.25013000       0.70481000       0.56281000 </v>
   <v>       0.24987000       0.29519000       0.81282000 </v>
   <v>       0.49987000       0.70481000       0.81282000 </v>
   <v>       0.50013000       0.29519000       0.56281000 </v>
   <v>       0.75013000       0.70481000       0.56281000 </v>
   <v>       0.74987000       0.29519000       0.81282000 </v>
   <v>       0.99987000       0.70481000       0.81282000 </v>
   <v>       0.25005000       0.32677000       0.06286000 </v>
   <v>       0.00005000       0.67323000       0.06286000 </v>
   <v>       0.49995000       0.32677000       0.31286000 </v>
   <v>       0.24995000       0.67323000       0.31286000 </v>
   <v>       0.75005000       0.32677000       0.06286000 </v>
   <v>       0.50005000       0.67323000       0.06286000 </v>
   <v>       0.99995000       0.32677000       0.31286000 </v>
   <v>       0.74995000       0.67323000       0.31286000 </v>
   <v>       0.25005000       0.32677000       0.56286000 </v>
   <v>       0.00005000       0.67323000       0.56286000 </v>
   <v>       0.49995000       0.32677000       0.81286000 </v>
   <v>       0.24995000       0.67323000       0.81286000 </v>
   <v>       0.75005000       0.32677000       0.56286000 </v>
   <v>       0.50005000       0.67323000       0.56286000 </v>
   <v>       0.99995000       0.32677000       0.81286000 </v>
   <v>       0.74995000       0.67323000       0.81286000 </v>
   <v>       0.49987000       0.07798000       0.06246000 </v>
   <v>       0.24987000       0.92202000       0.06246000 </v>
   <v>       0.25013000       0.07798000       0.31246000 </v>
   <v>       0.00013000       0.92202000       0.31246000 </v>
   <v>       0.99987000       0.07798000       0.06246000 </v>
   <v>       0.74987000       0.92202000       0.06246000 </v>
   <v>       0.75013000       0.07798000       0.31246000 </v>
   <v>       0.50013000       0.92202000       0.31246000 </v>
   <v>       0.49987000       0.07798000       0.56246000 </v>
   <v>       0.24987000       0.92202000       0.56246000 </v>
   <v>       0.25013000       0.07798000       0.81246000 </v>
   <v>       0.00013000       0.92202000       0.81246000 </v>
   <v>       0.99987000       0.07798000       0.56246000 </v>
   <v>       0.74987000       0.92202000       0.56246000 </v>
   <v>       0.75013000       0.07798000       0.81246000 </v>
   <v>       0.50013000       0.92202000       0.81246000 </v>
  </varray>
 </structure>
 <calculation>
  <scstep>
   <time name="dav">   60.67   60.89</time>
   <time name="total">   60.75   60.98</time>
   <energy>
    <i name="alphaZ">   1054.17224280 </i>
    <i name="ewald"> -30187.84851848 </i>
    <i name="hartreedc"> -12695.50939061 </i>
    <i name="XCdc">   1173.40632898 </i>
    <i name="pawpsdc">  36541.05238669 </i>
    <i name="pawaedc"> -35795.85877930 </i>
    <i name="eentropy">      0.00000000 </i>
    <i name="bandstr">   1916.36187702 </i>
    <i name="atom">  43643.51795008 </i>
    <i name="e_fr_energy">   5649.29409719 </i>
    <i name="e_wo_entrp">   5649.29409719 </i>
    <i name="e_0_energy">   5649.29409719 </i>
   </energy>
  </scstep>
  <scstep>
   <time name="dav">   62.07   62.34</time>
   <time name="total">   62.07   62.35</time>
   <energy>
    <i name="e_fr_energy">    729.48850922 </i>
    <i name="e_wo_entrp">    729.48850922 </i>
    <i name="e_0_energy">    729.48850922 </i>
   </energy>
  </scstep>
  <scstep>
   <time name="dav">   70.77   71.10</time>
   <time name="total">   70.78   71.10</time>
   <energy>
    <i name="e_fr_energy">   -246.43383391 </i>
    <i name="e_wo_entrp">   -246.43383391 </i>
    <i name="e_0_energy">   -246.43383391 </i>
   </energy>
  </scstep>
  <scstep>
   <time name="dav">   72.47   72.79</time>
   <time name="total">   72.48   72.79</time>
   <energy>
    <i name="e_fr_energy">   -330.51435905 </i>
    <i name="e_wo_entrp">   -330.51435905 </i>
    <i name="e_0_energy">   -330.51435905 </i>
   </energy>
  </scstep>
  <scstep>
   <time name="dav">   90.92   91.37</time>
   <time name="total">   91.63   92.08</time>
   <energy>
    <i name="e_fr_energy">   -336.45842826 </i>
    <i name="e_wo_entrp">   -336.45842826 </i>
    <i name="e_0_energy">   -336.45842826 </i>
   </energy>
  </scstep>
  <scstep>
   <time name="dav">   86.43   86.77</time>
   <time name="total">   87.20   87.56</time>
   <energy>
    <i name="e_fr_energy">   -281.85241092 </i>
    <i name="e_wo_entrp">   -281.85241092 </i>
    <i name="e_0_energy">   -281.85241092 </i>
   </energy>
  </scstep>
  <scstep>
   <time name="dav">   65.64   65.98</time>
   <time name="total">   66.42   66.76</time>
   <energy>
    <i name="e_fr_energy">   -283.55804087 </i>
    <i name="e_wo_entrp">   -283.55804087 </i>
    <i name="e_0_energy">   -283.55804087 </i>
   </energy>
  </scstep>
  <scstep>
   <time name="dav">   75.04   75.38</time>
   <time name="total">   75.82   76.16</time>
   <energy>
    <i name="e_fr_energy">   -282.54364338 </i>
    <i name="e_wo_entrp">   -282.54364338 </i>
    <i name="e_0_energy">   -282.54364338 </i>
   </energy>
  </scstep>
  <scstep>
   <time name="dav">   69.84   70.21</time>
   <time name="total">   70.60   71.00</time>
   <energy>
    <i name="e_fr_energy">   -282.04231952 </i>
    <i name="e_wo_entrp">   -282.04231952 </i>
    <i name="e_0_energy">   -282.04231952 </i>
   </energy>
  </scstep>
  <scstep>
   <time name="dav">   76.18   76.45</time>
   <time name="total">   76.95   77.23</time>
   <energy>
    <i name="e_fr_energy">   -282.08424725 </i>
    <i name="e_wo_entrp">   -282.08424725 </i>
    <i name="e_0_energy">   -282.08424725 </i>
   </energy>
  </scstep>
  <scstep>
   <time name="dav">   80.80   81.00</time>
   <time name="total">   81.58   81.78</time>
   <energy>
    <i name="e_fr_energy">   -282.08549344 </i>
    <i name="e_wo_entrp">   -282.08549344 </i>
    <i name="e_0_energy">   -282.08549344 </i>
   </energy>
  </scstep>
  <scstep>
   <time name="dav">   80.37   80.38</time>
   <time name="total">   81.15   81.16</time>
   <energy>
    <i name="e_fr_energy">   -282.08806915 </i>
    <i name="e_wo_entrp">   -282.08806915 </i>
    <i name="e_0_energy">   -282.08806915 </i>
   </energy>
  </scstep>
  <scstep>
   <time name="dav">   76.26   76.28</time>
   <time name="total">   77.04   77.06</time>
   <energy>
    <i name="e_fr_energy">   -282.08902392 </i>
    <i name="e_wo_entrp">   -282.08902392 </i>
    <i name="e_0_energy">   -282.08902392 </i>
   </energy>
  </scstep>
  <scstep>
   <time name="dav">   69.08   69.11</time>
   <time name="total">   69.86   69.89</time>
   <energy>
    <i name="e_fr_energy">   -282.08922106 </i>
    <i name="e_wo_entrp">   -282.08922106 </i>
    <i name="e_0_energy">   -282.08922106 </i>
   </energy>
  </scstep>
  <scstep>
   <time name="dav">   80.05   80.09</time>
   <time name="total">   80.83   80.87</time>
   <energy>
    <i name="e_fr_energy">   -282.08931301 </i>
    <i name="e_wo_entrp">   -282.08931301 </i>
    <i name="e_0_energy">   -282.08931301 </i>
   </energy>
  </scstep>
  <scstep>
   <time name="dav">   75.10   75.21</time>
   <time name="total">   75.88   75.99</time>
   <energy>
    <i name="e_fr_energy">   -282.08934939 </i>
    <i name="e_wo_entrp">   -282.08934939 </i>
    <i name="e_0_energy">   -282.08934939 </i>
   </energy>
  </scstep>
  <scstep>
   <time name="dav">   67.86   67.87</time>
   <time name="total">   68.64   68.65</time>
   <energy>
    <i name="e_fr_energy">   -282.08935283 </i>
    <i name="e_wo_entrp">   -282.08935283 </i>
    <i name="e_0_energy">   -282.08935283 </i>
   </energy>
  </scstep>
  <scstep>
   <time name="dav">   65.12   65.12</time>
   <time name="total">   65.19   65.20</time>
   <energy>
    <i name="alphaZ">   1054.17224280 </i>
    <i name="ewald"> -30187.84851848 </i>
    <i name="hartreedc"> -12925.47222360 </i>
    <i name="XCdc">   1198.19592866 </i>
    <i name="pawpsdc">  43551.90575101 </i>
    <i name="pawaedc"> -42779.81340768 </i>
    <i name="eentropy">      0.00000000 </i>
    <i name="bandstr">  -3836.74707607 </i>
    <i name="atom">  43643.51795008 </i>
    <i name="e_fr_energy">   -282.08935326 </i>
    <i name="e_wo_entrp">   -282.08935326 </i>
    <i name="e_0_energy">   -282.08935326 </i>
   </energy>
  </scstep>
  <structure>
   <crystal>
    <varray name="basis" >
     <v>      11.17850000       0.00000000       0.00000000 </v>
     <v>       0.00000000       9.57460000       0.00000000 </v>
     <v>       0.00000000       0.00000000      11.18240000 </v>
    </varray>
    <i name="volume">   1196.84853820 </i>
    <varray name="rec_basis" >
     <v>       0.08945744       0.00000000       0.00000000 </v>
     <v>       0.00000000       0.10444301       0.00000000 </v>
     <v>       0.00000000       0.00000000       0.08942624 </v>
    </varray>
   </crystal>
   <varray name="positions" >
    <v>       0.37539000       0.00017000       0.43687000 </v>
    <v>       0.62461000       0.99984000       0.18687000 </v>
    <v>       0.12539000       0.99984000       0.93687000 </v>
    <v>       0.12461000       0.99984000       0.68687000 </v>
    <v>       0.37461000       0.00017000       0.18687000 </v>
    <v>       0.87539000       0.00017000       0.43687000 </v>
    <v>       0.87461000       0.00017000       0.18687000 </v>
    <v>       0.62539000       0.99984000       0.93687000 </v>
    <v>       0.87539000       0.00017000       0.93687000 </v>
    <v>       0.62461000       0.99984000       0.68687000 </v>
    <v>       0.00013000       0.29519000       0.06281000 </v>
    <v>       0.25013000       0.70481000       0.06281000 </v>
    <v>       0.24987000       0.29519000       0.31282000 </v>
    <v>       0.49987000       0.70481000       0.31282000 </v>
    <v>       0.50013000       0.29519000       0.06281000 </v>
    <v>       0.75013000       0.70481000       0.06281000 </v>
    <v>       0.74987000       0.29519000       0.31282000 </v>
    <v>       0.99987000       0.70481000       0.31282000 </v>
    <v>       0.00013000       0.29519000       0.56281000 </v>
    <v>       0.25013000       0.70481000       0.56281000 </v>
    <v>       0.24987000       0.29519000       0.81282000 </v>
    <v>       0.49987000       0.70481000       0.81282000 </v>
    <v>       0.50013000       0.29519000       0.56281000 </v>
    <v>       0.75013000       0.70481000       0.56281000 </v>
    <v>       0.74987000       0.29519000       0.81282000 </v>
    <v>       0.99987000       0.70481000       0.81282000 </v>
    <v>       0.25005000       0.32677000       0.06286000 </v>
    <v>       0.00005000       0.67323000       0.06286000 </v>
    <v>       0.49995000       0.32677000       0.31286000 </v>
    <v>       0.24995000       0.67323000       0.31286000 </v>
    <v>       0.75005000       0.32677000       0.06286000 </v>
    <v>       0.50005000       0.67323000       0.06286000 </v>
    <v>       0.99995000       0.32677000       0.31286000 </v>
    <v>       0.74995000       0.67323000       0.31286000 </v>
    <v>       0.25005000       0.32677000       0.56286000 </v>
    <v>       0.00005000       0.67323000       0.56286000 </v>
    <v>       0.49995000       0.32677000       0.81286000 </v>
    <v>       0.24995000       0.67323000       0.81286000 </v>
    <v>       0.75005000       0.32677000       0.56286000 </v>
    <v>       0.50005000       0.67323000       0.56286000 </v>
    <v>       0.99995000       0.32677000       0.81286000 </v>
    <v>       0.74995000       0.67323000       0.81286000 </v>
    <v>       0.49987000       0.07798000       0.06246000 </v>
    <v>       0.24987000       0.92202000       0.06246000 </v>
    <v>       0.25013000       0.07798000       0.31246000 </v>
    <v>       0.00013000       0.92202000       0.31246000 </v>
    <v>       0.99987000       0.07798000       0.06246000 </v>
    <v>       0.74987000       0.92202000       0.06246000 </v>
    <v>       0.75013000       0.07798000       0.31246000 </v>
    <v>       0.50013000       0.92202000       0.31246000 </v>
    <v>       0.49987000       0.07798000       0.56246000 </v>
    <v>       0.24987000       0.92202000       0.56246000 </v>
    <v>       0.25013000       0.07798000       0.81246000 </v>
    <v>       0.00013000       0.92202000       0.81246000 </v>
    <v>       0.99987000       0.07798000       0.56246000 </v>
    <v>       0.74987000       0.92202000       0.56246000 </v>
    <v>       0.75013000       0.07798000       0.81246000 </v>
    <v>       0.50013000       0.92202000       0.81246000 </v>
   </varray>
  </structure>
  <varray name="forces" >
   <v>      -0.33510367       0.00892921       0.76601948 </v>
   <v>      -0.45663490       0.06214438       0.92027257 </v>
   <v>       1.08358918      -0.02069880      -0.02972375 </v>
   <v>       0.40184730       0.07229673      -0.40004726 </v>
   <v>      -1.35159848      -0.13634759      -0.19095659 </v>
   <v>       0.54067371      -0.01506794       1.74521673 </v>
   <v>       1.40144383       0.10849159       0.84845916 </v>
   <v>      -2.23811326       0.02046457       0.06818930 </v>
   <v>       1.59610838      -0.00979922      -1.70608563 </v>
   <v>      -0.73126276      -0.11923374      -1.90626609 </v>
   <v>       0.93173845       1.18534447       0.09178705 </v>
   <v>      -0.05746397       0.96004969      -0.11949329 </v>
   <v>      -0.24968488      -0.97387926       0.40730686 </v>
   <v>      -0.32954477      -0.04406858       0.56435298 </v>
   <v>      -0.78079889       1.07149320      -0.09765148 </v>
   <v>      -0.10352457      -3.09593956       0.16467143 </v>
   <v>      -0.32469664       1.15614140       0.56829465 </v>
   <v>       0.92632272      -0.10695369       0.38462707 </v>
   <v>       0.59068222      -1.00497602       0.08344933 </v>
   <v>      -0.00124870       1.92369004       0.04126886 </v>
   <v>       0.21254248      -1.89424881      -0.33348160 </v>
   <v>      -1.04724560      -0.16392412      -0.38499467 </v>
   <v>      -0.61243455      -0.99149978      -0.09584729 </v>
   <v>      -0.00392017       0.00268038      -0.07187278 </v>
   <v>       0.25236352       2.13484859      -0.67757176 </v>
   <v>       0.60321008      -0.11256003      -0.58519588 </v>
   <v>       0.04114864       0.16756324       0.13901990 </v>
   <v>      -0.63833274       0.02111094      -0.01405457 </v>
   <v>       0.35263695       0.16352453      -0.38772450 </v>
   <v>       0.09156488      -0.22516565      -0.27864244 </v>
   <v>       0.05234694      -0.19557772      -0.10033631 </v>
   <v>       0.55358887      -0.02402596      -0.01503195 </v>
   <v>      -0.51103325       0.05365062      -0.33926192 </v>
   <v>       0.08904295      -0.00117630      -0.39586360 </v>
   <v>      -0.00083259       0.30461632      -0.12153062 </v>
   <v>      -0.43780421      -0.17704032      -0.05374942 </v>
   <v>       0.67334487       0.01627616       0.32778457 </v>
   <v>      -0.05366978      -0.24369367       0.24036277 </v>
   <v>      -0.00126053       0.07491016       0.06028313 </v>
   <v>       0.44081972      -0.17632036       0.07721446 </v>
   <v>      -0.61064559       0.12496686       0.41416499 </v>
   <v>      -0.03530900       0.08713874       0.43671146 </v>
   <v>       1.24151465      -0.84056770       0.49049992 </v>
   <v>       0.50202231      -0.93731209       0.48531875 </v>
   <v>       1.65220866       0.83982633      -0.61402430 </v>
   <v>      -2.39709847       0.22522873      -0.32168574 </v>
   <v>      -2.09360763      -1.08345126      -0.55778049 </v>
   <v>       0.42394875       2.49756864      -0.55553535 </v>
   <v>       1.41491537      -1.00681987      -1.05485352 </v>
   <v>      -0.66995808       0.05685235      -1.38691207 </v>
   <v>       0.79467508       0.97102225       0.57049761 </v>
   <v>       0.01223285      -1.79468333      -0.03887109 </v>
   <v>      -1.17131506       1.61621612       0.18367513 </v>
   <v>      -0.42259800       0.06764291       1.44920162 </v>
   <v>      -0.78178035       0.97623876      -0.55125359 </v>
   <v>       0.00192074      -0.18634084       0.06993931 </v>
   <v>      -0.94141057      -1.71196420       1.49634330 </v>
   <v>       2.51147752       0.32240849       0.29136715 </v>
  </varray>
  <varray name="stress" >
   <v>      -8.47044536       0.21555290      -0.32212489 </v>
   <v>       0.21555279     -11.97466979      -0.25381786 </v>
   <v>      -0.32212490      -0.25381797       2.55169991 </v>
  </varray>
  <energy>
   <i name="e_fr_energy">   -293.78135336 </i>
   <i name="e_wo_entrp">   -293.78135336 </i>
   <i name="e_0_energy">      0.00000000 </i>
  </energy>
  <time name="totalsc"> 1455.69 1459.57</time>
 </calculation>
 <calculation>
  <scstep>
   <time name="dav">   65.67   65.85</time>
   <time name="total">   66.49   66.67</time>
   <energy>
    <i name="alphaZ">   1066.00377699 </i>
    <i name="ewald"> -30269.55930454 </i>
    <i name="hartreedc"> -12985.44421253 </i>
    <i name="XCdc">   1204.78566297 </i>
    <i name="pawpsdc">  43551.25115334 </i>
    <i name="pawaedc"> -42779.15631326 </i>
    <i name="eentropy">      0.00000000 </i>
    <i name="bandstr">  -3712.69974482 </i>
    <i name="atom">  43643.51795008 </i>
    <i name="e_fr_energy">   -281.30103176 </i>
    <i name="e_wo_entrp">   -281.30103176 </i>
    <i name="e_0_energy">   -281.30103176 </i>
   </energy>
  </scstep>
  <scstep>
   <time name="dav">   67.81   67.89</time>
   <time name="total">   68.58   68.68</time>
   <energy>
    <i name="e_fr_energy">   -285.30818289 </i>
    <i name="e_wo_entrp">   -285.30818289 </i>
    <i name="e_0_energy">   -285.30818289 </i>
   </energy>
  </scstep>
  <scstep>
   <time name="dav">   89.93   90.24</time>
   <time name="total">   90.71   91.02</time>
   <energy>
    <i name="e_fr_energy">   -285.05917250 </i>
    <i name="e_wo_entrp">   -285.05917250 </i>
    <i name="e_0_energy">   -285.05917250 </i>
   </energy>
  </scstep>
  <scstep>
   <time name="dav">   75.24   75.43</time>
   <time name="total">   76.04   76.23</time>
   <energy>
    <i name="e_fr_energy">   -284.87607887 </i>
    <i name="e_wo_entrp">   -284.87607887 </i>
    <i name="e_0_energy">   -284.87607887 </i>
   </energy>
  </scstep>
  <scstep>
   <time name="dav">   80.51   81.42</time>
   <time name="total">   81.28   82.20</time>
   <energy>
    <i name="e_fr_energy">   -284.84634272 </i>
    <i name="e_wo_entrp">   -284.84634272 </i>
    <i name="e_0_energy">   -284.84634272 </i>
   </energy>
  </scstep>
  <scstep>
   <time name="dav">   78.38   79.34</time>
   <time name="total">   79.15   80.12</time>
   <energy>
    <i name="e_fr_energy">   -284.84523656 </i>
    <i name="e_wo_entrp">   -284.84523656 </i>
    <i name="e_0_energy">   -284.84523656 </i>
   </energy>
  </scstep>
  <scstep>
   <time name="dav">   75.77   75.98</time>
   <time name="total">   76.55   76.76</time>
   <energy>
    <i name="e_fr_energy">   -284.84383236 </i>
    <i name="e_wo_entrp">   -284.84383236 </i>
    <i name="e_0_energy">   -284.84383236 </i>
   </energy>
  </scstep>
  <scstep>
   <time name="dav">   84.75   85.10</time>
   <time name="total">   85.53   85.88</time>
   <energy>
    <i name="e_fr_energy">   -284.84315558 </i>
    <i name="e_wo_entrp">   -284.84315558 </i>
    <i name="e_0_energy">   -284.84315558 </i>
   </energy>
  </scstep>
  <scstep>
   <time name="dav">   73.61   73.75</time>
   <time name="total">   74.39   74.53</time>
   <energy>
    <i name="e_fr_energy">   -284.84314753 </i>
    <i name="e_wo_entrp">   -284.84314753 </i>
    <i name="e_0_energy">   -284.84314753 </i>
   </energy>
  </scstep>
  <scstep>
   <time name="dav">   73.42   73.61</time>
   <time name="total">   74.20   74.40</time>
   <energy>
    <i name="e_fr_energy">   -284.84316047 </i>
    <i name="e_wo_entrp">   -284.84316047 </i>
    <i name="e_0_energy">   -284.84316047 </i>
   </energy>
  </scstep>
  <scstep>
   <time name="dav">   75.90   76.01</time>
   <time name="total">   76.68   76.79</time>
   <energy>
    <i name="e_fr_energy">   -284.84316288 </i>
    <i name="e_wo_entrp">   -284.84316288 </i>
    <i name="e_0_energy">   -284.84316288 </i>
   </energy>
  </scstep>
  <scstep>
   <time name="dav">   73.19   73.31</time>
   <time name="total">   73.26   73.39</time>
   <energy>
    <i name="alphaZ">   1066.00377699 </i>
    <i name="ewald"> -30269.55930454 </i>
    <i name="hartreedc"> -12895.96585809 </i>
    <i name="XCdc">   1201.24620715 </i>
    <i name="pawpsdc">  43900.28810268 </i>
    <i name="pawaedc"> -43131.13945671 </i>
    <i name="eentropy">      0.00000000 </i>
    <i name="bandstr">  -3799.23458028 </i>
    <i name="atom">  43643.51795008 </i>
    <i name="e_fr_energy">   -284.84316272 </i>
    <i name="e_wo_entrp">   -284.84316272 </i>
    <i name="e_0_energy">   -284.84316272 </i>
   </energy>
  </scstep>
  <structure>
   <crystal>
    <varray name="basis" >
     <v>      11.11966692       0.00149716      -0.00223738 </v>
     <v>       0.00128235       9.50336130      -0.00150999 </v>
     <v>      -0.00223816      -0.00176356      11.20012950 </v>
    </varray>
    <i name="volume">   1183.56476313 </i>
    <varray name="rec_basis" >
     <v>       0.08993076      -0.00001213       0.00001797 </v>
     <v>      -0.00001416       0.10522593       0.00001657 </v>
     <v>       0.00001796       0.00001418       0.08928469 </v>
    </varray>
   </crystal>
   <varray name="positions" >
    <v>       0.37394381       0.00021499       0.44017473 </v>
    <v>       0.62263932       0.00015312       0.19084020 </v>
    <v>       0.13006641       0.99973571       0.93674177 </v>
    <v>       0.12634424       0.00020427       0.68514413 </v>
    <v>       0.36877695      -0.00051700       0.18604618 </v>
    <v>       0.87772337       0.00009408       0.44439914 </v>
    <v>       0.88065816       0.00071665       0.19053039 </v>
    <v>       0.61573105       0.99994311       0.93716418 </v>
    <v>       0.88227827       0.00012063       0.92950967 </v>
    <v>       0.62145412       0.99923923       0.67864606 </v>
    <v>       0.00415107       0.30116249       0.06320598 </v>
    <v>       0.24988200       0.70964731       0.06229449 </v>
    <v>       0.24879244       0.29028300       0.31457719 </v>
    <v>       0.49844780       0.70458796       0.31525471 </v>
    <v>       0.49676033       0.30058883       0.06238872 </v>
    <v>       0.74968322       0.68921077       0.06352042 </v>
    <v>       0.74846872       0.30101534       0.31527171 </v>
    <v>       0.00386770       0.70427110       0.31447934 </v>
    <v>       0.00267919       0.29012632       0.56317001 </v>
    <v>       0.25012461       0.71450272       0.56298804 </v>
    <v>       0.25078726       0.28564562       0.81138131 </v>
    <v>       0.49535044       0.70398405       0.81115907 </v>
    <v>       0.49748694       0.29019422       0.56239650 </v>
    <v>       0.75011308       0.70482351       0.56249993 </v>
    <v>       0.75095912       0.30594666       0.80989685 </v>
    <v>       0.00247325       0.70424285       0.81029537 </v>
    <v>       0.25022758       0.32761429       0.06345975 </v>
    <v>      -0.00270483       0.67333637       0.06279937 </v>
    <v>       0.50147186       0.32759394       0.31118729 </v>
    <v>       0.25034516       0.67209548       0.31165789 </v>
    <v>       0.75027591       0.32578456       0.06242713 </v>
    <v>       0.50243910       0.67310894       0.06279515 </v>
    <v>       0.99774455       0.32704032       0.31139637 </v>
    <v>       0.75033428       0.67322407       0.31115218 </v>
    <v>       0.25004641       0.32830484       0.56233570 </v>
    <v>      -0.00183942       0.67233796       0.56262812 </v>
    <v>       0.50285593       0.32685201       0.81427411 </v>
    <v>       0.24971838       0.67200212       0.81389696 </v>
    <v>       0.75004456       0.32714744       0.56312007 </v>
    <v>       0.50195243       0.67234159       0.56319312 </v>
    <v>       0.99731466       0.32739966       0.81464677 </v>
    <v>       0.74979762       0.67366906       0.81474404 </v>
    <v>       0.50522796       0.07374471       0.06457609 </v>
    <v>       0.25203656       0.91729725       0.06455374 </v>
    <v>       0.25726038       0.08221156       0.30981100 </v>
    <v>      -0.01021507       0.92315484       0.31107220 </v>
    <v>       0.99083469       0.07252091       0.06005365 </v>
    <v>       0.75169962       0.93460427       0.06006333 </v>
    <v>       0.75623630       0.07290703       0.30790919 </v>
    <v>       0.49723869       0.92230646       0.30647664 </v>
    <v>       0.50329955       0.08287260       0.56492122 </v>
    <v>       0.24992279       0.91297729       0.56229230 </v>
    <v>       0.24507500       0.08612348       0.81325240 </v>
    <v>      -0.00169379       0.92236083       0.81871209 </v>
    <v>       0.99649610       0.08289888       0.56008180 </v>
    <v>       0.74987829       0.92108110       0.56276173 </v>
    <v>       0.74606719       0.06935408       0.81891546 </v>
    <v>       0.51096869       0.92364449       0.81371700 </v>
   </varray>
  </structure>
  <varray name="forces" >
   <v>      -0.17282012       0.00231171       0.46212472 </v>
   <v>       0.01591703       0.04282063       0.50516353 </v>
   <v>       0.73237873      -0.01677797       0.11675967 </v>
   <v>       0.21791942       0.03818139      -0.24907607 </v>
   <v>      -0.37539523      -0.05737381      -0.35662572 </v>
   <v>      -0.08610957      -0.07022840       0.66890113 </v>
   <v>       0.20100920       0.12385710      -0.38221650 </v>
   <v>      -0.30721273       0.13123025       0.51371204 </v>
   <v>      -0.42555682       0.17228392      -0.41841332 </v>
   <v>       0.08122156      -0.12917733      -0.50576225 </v>
   <v>       0.17387679      -0.21996480       0.05903580 </v>
   <v>      -0.06492593      -1.19911580      -0.05828088 </v>
   <v>      -0.23968883       1.01161350       0.24021197 </v>
   <v>      -0.03087081      -0.11584764       0.18090226 </v>
   <v>      -0.12598595      -0.04605543      -0.04534564 </v>
   <v>      -0.01610796       0.07799888       0.01211988 </v>
   <v>      -0.14335843      -0.26898599       0.06342997 </v>
   <v>       0.41411083       0.02256503       0.09261719 </v>
   <v>       0.29104845       1.26119692       0.05161114 </v>
   <v>       0.01132769      -2.75029438      -0.00162205 </v>
   <v>       0.29837410       2.37213708      -0.17571479 </v>
   <v>      -0.39265435       0.11130020      -0.11803183 </v>
   <v>      -0.31050337       1.26697146      -0.06980998 </v>
   <v>      -0.00516363      -0.48047645      -0.00180468 </v>
   <v>       0.07057976      -0.20974388      -0.09581175 </v>
   <v>       0.10729676      -0.25387813      -0.20576575 </v>
   <v>       0.03517321       0.07849477       0.09267822 </v>
   <v>      -0.23590328      -0.14759027       0.00461030 </v>
   <v>       0.10946717       0.18046196      -0.19563771 </v>
   <v>       0.07514265      -0.15377703      -0.15681241 </v>
   <v>       0.01907984       0.30477496      -0.02626322 </v>
   <v>       0.18042714      -0.14833762      -0.03720432 </v>
   <v>      -0.23722404       0.10476599      -0.15799569 </v>
   <v>       0.05593076      -0.17733316      -0.13942609 </v>
   <v>      -0.00207096       0.12954499      -0.08556301 </v>
   <v>      -0.20971865      -0.07236990      -0.06687953 </v>
   <v>       0.31702594       0.08579953       0.14268169 </v>
   <v>      -0.07193336      -0.11500130       0.11487444 </v>
   <v>      -0.00105037       0.06931684       0.01236027 </v>
   <v>       0.21741875      -0.07159035       0.10155247 </v>
   <v>      -0.23868613       0.13878743       0.22206233 </v>
   <v>       0.00494504      -0.21682131       0.15075830 </v>
   <v>       0.14750792       0.47117972       0.70140732 </v>
   <v>       0.25905623       1.09198965       0.24129577 </v>
   <v>       1.17459028      -0.98421080      -0.24534029 </v>
   <v>      -1.11000244      -0.34246728       0.41507761 </v>
   <v>      -0.61850186       0.67552947      -0.46638969 </v>
   <v>       0.27125395      -0.74542680      -0.28481473 </v>
   <v>       0.90361882       0.58900825      -0.16469772 </v>
   <v>      -0.77053263       0.04585093      -0.80066495 </v>
   <v>       0.23717787      -1.07287581       0.14390249 </v>
   <v>      -0.00773873       2.92109975      -0.01013097 </v>
   <v>      -1.10528526      -2.63998997       0.06769650 </v>
   <v>       0.62145370      -0.19193832       0.35279145 </v>
   <v>      -0.26822881      -1.10754869      -0.16754507 </v>
   <v>       0.02208068       0.17405463      -0.00930645 </v>
   <v>      -0.75410294       0.75376092       0.42465064 </v>
   <v>       1.06092291      -0.44368924      -0.45603606 </v>
  </varray>
  <varray name="stress" >
   <v>      11.51429219      -0.70708402      -0.09553635 </v>
   <v>      -0.70708404      15.52300118       1.35468304 </v>
   <v>      -0.09553636       1.35468268       4.98019588 </v>
  </varray>
  <energy>
   <i name="e_fr_energy">   -296.62064565 </i>
   <i name="e_wo_entrp">   -296.62064565 </i>
   <i name="e_0_energy">      0.00000000 </i>
  </energy>
  <time name="totalsc"> 1031.58 1035.39</time>
 </calculation>
 <calculation>
  <scstep>
   <time name="dav">   68.29   68.33</time>
   <time name="total">   69.06   69.11</time>
   <energy>
    <i name="alphaZ">   1065.05583984 </i>
    <i name="ewald"> -30265.84102142 </i>
    <i name="hartreedc"> -12888.79114839 </i>
    <i name="XCdc">   1200.68423716 </i>
    <i name="pawpsdc">  43900.46016406 </i>
    <i name="pawaedc"> -43131.31304518 </i>
    <i name="eentropy">      0.00000000 </i>
    <i name="bandstr">  -3808.62544994 </i>
    <i name="atom">  43643.51795008 </i>
    <i name="e_fr_energy">   -284.85247378 </i>
    <i name="e_wo_entrp">   -284.85247378 </i>
    <i name="e_0_energy">   -284.85247378 </i>
   </energy>
  </scstep>
  <scstep>
   <time name="dav">   69.13   69.17</time>
   <time name="total">   69.91   69.95</time>
   <energy>
    <i name="e_fr_energy">   -284.87800645 </i>
    <i name="e_wo_entrp">   -284.87800645 </i>
    <i name="e_0_energy">   -284.87800645 </i>
   </energy>
  </scstep>
  <scstep>
   <time name="dav">   82.50   82.65</time>
   <time name="total">   83.27   83.43</time>
   <energy>
    <i name="e_fr_energy">   -284.87643457 </i>
    <i name="e_wo_entrp">   -284.87643457 </i>
    <i name="e_0_energy">   -284.87643457 </i>
   </energy>
  </scstep>
  <scstep>
   <time name="dav">   69.07   69.52</time>
   <time name="total">   69.85   70.30</time>
   <energy>
    <i name="e_fr_energy">   -284.87493108 </i>
    <i name="e_wo_entrp">   -284.87493108 </i>
    <i name="e_0_energy">   -284.87493108 </i>
   </energy>
  </scstep>
  <scstep>
   <time name="dav">   83.43   84.43</time>
   <time name="total">   84.21   85.22</time>
   <energy>
    <i name="e_fr_energy">   -284.87477586 </i>
    <i name="e_wo_entrp">   -284.87477586 </i>
    <i name="e_0_energy">   -284.87477586 </i>
   </energy>
  </scstep>
  <scstep>
   <time name="dav">   70.69   70.74</time>
   <time name="total">   71.47   71.52</time>
   <energy>
    <i name="e_fr_energy">   -284.87476474 </i>
    <i name="e_wo_entrp">   -284.87476474 </i>
    <i name="e_0_energy">   -284.87476474 </i>
   </energy>
  </scstep>
  <scstep>
   <time name="dav">   80.77   80.79</time>
   <time name="total">   81.55   81.57</time>
   <energy>
    <i name="e_fr_energy">   -284.87474828 </i>
    <i name="e_wo_entrp">   -284.87474828 </i>
    <i name="e_0_energy">   -284.87474828 </i>
   </energy>
  </scstep>
  <scstep>
   <time name="dav">   66.10   66.10</time>
   <time name="total">   66.95   66.96</time>
   <energy>
    <i name="e_fr_energy">   -284.87474290 </i>
    <i name="e_wo_entrp">   -284.87474290 </i>
    <i name="e_0_energy">   -284.87474290 </i>
   </energy>
  </scstep>
  <scstep>
   <time name="dav">   77.54   77.58</time>
   <time name="total">   77.61   77.65</time>
   <energy>
    <i name="alphaZ">   1065.05583984 </i>
    <i name="ewald"> -30265.84102142 </i>
    <i name="hartreedc"> -12896.14019134 </i>
    <i name="XCdc">   1200.98163590 </i>
    <i name="pawpsdc">  43863.19202811 </i>
    <i name="pawaedc"> -43093.64581443 </i>
    <i name="eentropy">      0.00000000 </i>
    <i name="bandstr">  -3801.99516965 </i>
    <i name="atom">  43643.51795008 </i>
    <i name="e_fr_energy">   -284.87474291 </i>
    <i name="e_wo_entrp">   -284.87474291 </i>
    <i name="e_0_energy">   -284.87474291 </i>
   </energy>
  </scstep>
  <structure>
   <crystal>
    <varray name="basis" >
     <v>      11.12433982       0.00137825      -0.00205967 </v>
     <v>       0.00118050       9.50901953      -0.00139006 </v>
     <v>      -0.00206039      -0.00162348      11.19872131 </v>
    </varray>
    <i name="volume">   1184.61817738 </i>
    <varray name="rec_basis" >
     <v>       0.08989298      -0.00001116       0.00001654 </v>
     <v>      -0.00001303       0.10516332       0.00001524 </v>
     <v>       0.00001653       0.00001305       0.08929591 </v>
    </varray>
   </crystal>
   <varray name="positions" >
    <v>       0.37405923       0.00021132       0.43991269 </v>
    <v>       0.62279661       0.00012798       0.19052539 </v>
    <v>       0.12969301       0.99974411       0.93675186 </v>
    <v>       0.12620580       0.00017517       0.68528096 </v>
    <v>       0.36924271      -0.00046209       0.18611161 </v>
    <v>       0.87753693       0.00010007       0.44380204 </v>
    <v>       0.88017518       0.00067293       0.19024001 </v>
    <v>       0.61650228       0.99993474       0.93714100 </v>
    <v>       0.88172838       0.00012477       0.93009324 </v>
    <v>       0.62170623       0.99928738       0.67929828 </v>
    <v>       0.00383005       0.30068460       0.06317445 </v>
    <v>       0.24990186       0.70926023       0.06233532 </v>
    <v>       0.24887841       0.29067563       0.31443791 </v>
    <v>       0.49856131       0.70460567       0.31506166 </v>
    <v>       0.49702945       0.30015677       0.06242212 </v>
    <v>       0.74971874       0.69045904       0.06346426 </v>
    <v>       0.74858062       0.30054914       0.31507725 </v>
    <v>       0.00354846       0.70431425       0.31434770 </v>
    <v>       0.00247559       0.29053155       0.56314148 </v>
    <v>       0.25012513       0.71372709       0.56297382 </v>
    <v>       0.25071396       0.28640941       0.81149548 </v>
    <v>       0.49571133       0.70405011       0.81129087 </v>
    <v>       0.49769794       0.29059397       0.56242939 </v>
    <v>       0.75011444       0.70482243       0.56252452 </v>
    <v>       0.75087230       0.30508595       0.81012852 </v>
    <v>       0.00226543       0.70428831       0.81049554 </v>
    <v>       0.25021340       0.32754672       0.06341218 </v>
    <v>      -0.00248486       0.67332782       0.06280422 </v>
    <v>       0.50135038       0.32752805       0.31131991 </v>
    <v>       0.25031362       0.67218629       0.31175323 </v>
    <v>       0.75025787       0.32586343       0.06246147 </v>
    <v>       0.50224834       0.67311866       0.06280026 </v>
    <v>       0.99792068       0.32701869       0.31151247 </v>
    <v>       0.75030362       0.67322458       0.31128761 </v>
    <v>       0.25004672       0.32818203       0.56237726 </v>
    <v>      -0.00168856       0.67240933       0.56264654 </v>
    <v>       0.50262388       0.32684546       0.81416193 </v>
    <v>       0.24973685       0.67210036       0.81381475 </v>
    <v>       0.75004499       0.32711724       0.56309944 </v>
    <v>       0.50180051       0.67241270       0.56316668 </v>
    <v>       0.99752506       0.32734921       0.81450512 </v>
    <v>       0.74980976       0.67363389       0.81459463 </v>
    <v>       0.50480007       0.07408366       0.06440825 </v>
    <v>       0.25186349       0.91767517       0.06438772 </v>
    <v>       0.25669112       0.08187307       0.31002091 </v>
    <v>      -0.00938902       0.92306392       0.31118240 </v>
    <v>       0.99155612       0.07295768       0.06024467 </v>
    <v>       0.75155369       0.93359731       0.06025322 </v>
    <v>       0.75574876       0.07331312       0.30827003 </v>
    <v>       0.49746965       0.92228359       0.30695117 </v>
    <v>       0.50302572       0.08248109       0.56472593 </v>
    <v>       0.24991850       0.91370091       0.56230570 </v>
    <v>       0.24547868       0.08547175       0.81318956 </v>
    <v>      -0.00154826       0.92233344       0.81821632 </v>
    <v>       0.99676558       0.08250526       0.56027040 </v>
    <v>       0.74987761       0.92115623       0.56273781 </v>
    <v>       0.74639141       0.07004420       0.81840370 </v>
    <v>       0.51010326       0.92351461       0.81361713 </v>
   </varray>
  </structure>
  <varray name="forces" >
   <v>      -0.18617417       0.00185432       0.48739000 </v>
   <v>      -0.02199386       0.04332190       0.53748764 </v>
   <v>       0.76122308      -0.01531862       0.10490777 </v>
   <v>       0.23294575       0.04052967      -0.26153903 </v>
   <v>      -0.45858210      -0.06174585      -0.34235705 </v>
   <v>      -0.03111251      -0.05888694       0.75946737 </v>
   <v>       0.30945749       0.11130523      -0.26764166 </v>
   <v>      -0.47597419       0.11321063       0.46308723 </v>
   <v>      -0.24317819       0.14049749      -0.53414786 </v>
   <v>       0.01219760      -0.11841087      -0.61940235 </v>
   <v>       0.23772599      -0.13086119       0.06260319 </v>
   <v>      -0.06193809      -0.98307408      -0.06106304 </v>
   <v>      -0.23322042       0.81942975       0.25082679 </v>
   <v>      -0.05645159      -0.10987527       0.21167087 </v>
   <v>      -0.18081788       0.02688364      -0.04955797 </v>
   <v>      -0.02289341      -0.06898120       0.02387736 </v>
   <v>      -0.16019285      -0.17612796       0.10315082 </v>
   <v>       0.45831187       0.00977336       0.11682290 </v>
   <v>       0.31177195       1.03469346       0.05130611 </v>
   <v>       0.01014153      -2.19085012       0.00033929 </v>
   <v>       0.27592929       1.87664874      -0.18391570 </v>
   <v>      -0.44950237       0.08773975      -0.14060022 </v>
   <v>      -0.33151208       1.04194758      -0.06890846 </v>
   <v>      -0.00507971      -0.43892525      -0.00676613 </v>
   <v>       0.08738196      -0.08138210      -0.14196477 </v>
   <v>       0.14903054      -0.24248734      -0.23616606 </v>
   <v>       0.03560429       0.08645450       0.09629796 </v>
   <v>      -0.27103303      -0.13566555       0.00286111 </v>
   <v>       0.13057796       0.17947880      -0.21068246 </v>
   <v>       0.07529284      -0.16067701      -0.16681689 </v>
   <v>       0.02184522       0.26989280      -0.03214274 </v>
   <v>       0.21319444      -0.13951364      -0.03492610 </v>
   <v>      -0.26036468       0.10134888      -0.17219569 </v>
   <v>       0.05927412      -0.16444473      -0.16047060 </v>
   <v>      -0.00192684       0.14608520      -0.08902685 </v>
   <v>      -0.23019038      -0.08216306      -0.06593662 </v>
   <v>       0.34788590       0.08184262       0.15707453 </v>
   <v>      -0.06903226      -0.12679857       0.12548773 </v>
   <v>      -0.00120025       0.06997999       0.01683940 </v>
   <v>       0.23739272      -0.08141031       0.09934091 </v>
   <v>      -0.27223627       0.13894555       0.23720083 </v>
   <v>       0.00087616      -0.19482078       0.17387397 </v>
   <v>       0.24423764       0.37606989       0.67776115 </v>
   <v>       0.27881794       0.88944059       0.26161848 </v>
   <v>       1.21000987      -0.81006331      -0.27727114 </v>
   <v>      -1.23296360      -0.27910768       0.33207738 </v>
   <v>      -0.74818428       0.55152848      -0.47744702 </v>
   <v>       0.28687169      -0.58378792      -0.30845794 </v>
   <v>       0.95466725       0.47700724      -0.24175256 </v>
   <v>      -0.76229778       0.04835432      -0.84799051 </v>
   <v>       0.28514600      -0.87321912       0.18196256 </v>
   <v>      -0.00618400       2.36367319      -0.01148508 </v>
   <v>      -1.09611921      -2.14974782       0.07306283 </v>
   <v>       0.51166220      -0.15339831       0.46339957 </v>
   <v>      -0.31033354      -0.90245162      -0.20064930 </v>
   <v>       0.02017025       0.14233859      -0.00311291 </v>
   <v>      -0.77571269       0.60996102       0.51326248 </v>
   <v>       1.19675869      -0.36604094      -0.37066353 </v>
  </varray>
  <varray name="stress" >
   <v>       9.63193386      -0.62310125      -0.13858530 </v>
   <v>      -0.62310121      11.67237132       1.17646856 </v>
   <v>      -0.13858520       1.17646892       4.50790080 </v>
  </varray>
  <energy>
   <i name="e_fr_energy">   -296.64458611 </i>
   <i name="e_wo_entrp">   -296.64458611 </i>
   <i name="e_0_energy">      0.00000000 </i>
  </energy>
  <time name="totalsc">  782.51  784.54</time>
 </calculation>
 <calculation>
  <scstep>
   <time name="dav">   72.65   72.79</time>
   <time name="total">   73.41   73.57</time>
   <energy>
    <i name="alphaZ">   1052.78375310 </i>
    <i name="ewald"> -30258.55805321 </i>
    <i name="hartreedc"> -12742.49337580 </i>
    <i name="XCdc">   1193.83559552 </i>
    <i name="pawpsdc">  43863.23838593 </i>
    <i name="pawaedc"> -43093.69263477 </i>
    <i name="eentropy">      0.00000000 </i>
    <i name="bandstr">  -3943.17963519 </i>
    <i name="atom">  43643.51795008 </i>
    <i name="e_fr_energy">   -284.54801433 </i>
    <i name="e_wo_entrp">   -284.54801433 </i>
    <i name="e_0_energy">   -284.54801433 </i>
   </energy>
  </scstep>
  <scstep>
   <time name="dav">   70.51   70.64</time>
   <time name="total">   71.29   71.42</time>
   <energy>
    <i name="e_fr_energy">   -285.98933550 </i>
    <i name="e_wo_entrp">   -285.98933550 </i>
    <i name="e_0_energy">   -285.98933550 </i>
   </energy>
  </scstep>
  <scstep>
   <time name="dav">   82.50   83.24</time>
   <time name="total">   83.28   84.03</time>
   <energy>
    <i name="e_fr_energy">   -285.91047919 </i>
    <i name="e_wo_entrp">   -285.91047919 </i>
    <i name="e_0_energy">   -285.91047919 </i>
   </energy>
  </scstep>
  <scstep>
   <time name="dav">   82.12   82.54</time>
   <time name="total">   82.90   83.32</time>
   <energy>
    <i name="e_fr_energy">   -285.87185021 </i>
    <i name="e_wo_entrp">   -285.87185021 </i>
    <i name="e_0_energy">   -285.87185021 </i>
   </energy>
  </scstep>
  <scstep>
   <time name="dav">   66.32   67.07</time>
   <time name="total">   67.10   67.85</time>
   <energy>
    <i name="e_fr_energy">   -285.85241969 </i>
    <i name="e_wo_entrp">   -285.85241969 </i>
    <i name="e_0_energy">   -285.85241969 </i>
   </energy>
  </scstep>
  <scstep>
   <time name="dav">   78.59   79.17</time>
   <time name="total">   79.37   79.95</time>
   <energy>
    <i name="e_fr_energy">   -285.85107400 </i>
    <i name="e_wo_entrp">   -285.85107400 </i>
    <i name="e_0_energy">   -285.85107400 </i>
   </energy>
  </scstep>
  <scstep>
   <time name="dav">   75.00   75.53</time>
   <time name="total">   75.78   76.31</time>
   <energy>
    <i name="e_fr_energy">   -285.85104923 </i>
    <i name="e_wo_entrp">   -285.85104923 </i>
    <i name="e_0_energy">   -285.85104923 </i>
   </energy>
  </scstep>
  <scstep>
   <time name="dav">   79.28   79.70</time>
   <time name="total">   80.05   80.48</time>
   <energy>
    <i name="e_fr_energy">   -285.85086506 </i>
    <i name="e_wo_entrp">   -285.85086506 </i>
    <i name="e_0_energy">   -285.85086506 </i>
   </energy>
  </scstep>
  <scstep>
   <time name="dav">   83.31   83.47</time>
   <time name="total">   84.09   84.26</time>
   <energy>
    <i name="e_fr_energy">   -285.85084736 </i>
    <i name="e_wo_entrp">   -285.85084736 </i>
    <i name="e_0_energy">   -285.85084736 </i>
   </energy>
  </scstep>
  <scstep>
   <time name="dav">   80.05   80.27</time>
   <time name="total">   80.82   81.07</time>
   <energy>
    <i name="e_fr_energy">   -285.85085107 </i>
    <i name="e_wo_entrp">   -285.85085107 </i>
    <i name="e_0_energy">   -285.85085107 </i>
   </energy>
  </scstep>
  <scstep>
   <time name="dav">   67.24   67.68</time>
   <time name="total">   68.02   68.46</time>
   <energy>
    <i name="e_fr_energy">   -285.85085377 </i>
    <i name="e_wo_entrp">   -285.85085377 </i>
    <i name="e_0_energy">   -285.85085377 </i>
   </energy>
  </scstep>
  <scstep>
   <time name="dav">   68.78   68.93</time>
   <time name="total">   69.60   69.76</time>
   <energy>
    <i name="e_fr_energy">   -285.85085703 </i>
    <i name="e_wo_entrp">   -285.85085703 </i>
    <i name="e_0_energy">   -285.85085703 </i>
   </energy>
  </scstep>
  <scstep>
   <time name="dav">   59.11   59.24</time>
   <time name="total">   59.92   60.05</time>
   <energy>
    <i name="e_fr_energy">   -285.85085891 </i>
    <i name="e_wo_entrp">   -285.85085891 </i>
    <i name="e_0_energy">   -285.85085891 </i>
   </energy>
  </scstep>
  <scstep>
   <time name="dav">   44.48   44.52</time>
   <time name="total">   44.54   44.59</time>
   <energy>
    <i name="alphaZ">   1052.78375310 </i>
    <i name="ewald"> -30258.55805321 </i>
    <i name="hartreedc"> -12846.60237644 </i>
    <i name="XCdc">   1198.60844257 </i>
    <i name="pawpsdc">  43458.60967697 </i>
    <i name="pawaedc"> -42683.71527678 </i>
    <i name="eentropy">      0.00000000 </i>
    <i name="bandstr">  -3850.49497552 </i>
    <i name="atom">  43643.51795008 </i>
    <i name="e_fr_energy">   -285.85085922 </i>
    <i name="e_wo_entrp">   -285.85085922 </i>
    <i name="e_0_energy">   -285.85085922 </i>
   </energy>
  </scstep>
  <structure>
   <crystal>
    <varray name="basis" >
     <v>      11.16807431      -0.00227492      -0.00380159 </v>
     <v>      -0.00194136       9.55067854       0.00483503 </v>
     <v>      -0.00381559       0.00570696      11.23567720 </v>
    </varray>
    <i name="volume">   1198.42703127 </i>
    <varray name="rec_basis" >
     <v>       0.08954097       0.00001819       0.00003040 </v>
     <v>       0.00002131       0.10470463      -0.00005318 </v>
     <v>       0.00003029      -0.00004505       0.08900223 </v>
    </varray>
   </crystal>
   <varray name="positions" >
    <v>       0.37274119       0.00023767       0.44316878 </v>
    <v>       0.62198924       0.00045873       0.19423364 </v>
    <v>       0.13463653       0.99962911       0.93715133 </v>
    <v>       0.12782808       0.00050927       0.68355102 </v>
    <v>       0.36517147      -0.00101955       0.18436273 </v>
    <v>       0.87825088      -0.00022060       0.44973317 </v>
    <v>       0.88368764       0.00142667       0.19042425 </v>
    <v>       0.61097092       0.00053857       0.93920923 </v>
    <v>       0.88318582       0.00080726       0.92517858 </v>
    <v>       0.62061367       0.99847724       0.67371054 </v>
    <v>       0.00630173       0.30219970       0.06358310 </v>
    <v>       0.24954790       0.70610849       0.06189035 </v>
    <v>       0.24749265       0.29298550       0.31613409 </v>
    <v>       0.49780539       0.70397687       0.31683557 </v>
    <v>       0.49503632       0.30225167       0.06206021 </v>
    <v>       0.74945983       0.68445028       0.06382052 </v>
    <v>       0.74738925       0.30178549       0.31639738 </v>
    <v>       0.00695339       0.70416705       0.31544112 </v>
    <v>       0.00472968       0.29385852       0.56348946 </v>
    <v>       0.25016726       0.70630835       0.56303846 </v>
    <v>       0.25222311       0.29231285       0.81019871 </v>
    <v>       0.49215486       0.70418857       0.81009604 </v>
    <v>       0.49532485       0.29398235       0.56198833 </v>
    <v>       0.75008683       0.70263586       0.56238390 </v>
    <v>       0.75163924       0.30858524       0.80847459 </v>
    <v>       0.00384465       0.70287113       0.80858530 </v>
    <v>       0.25042975       0.32828502       0.06403654 </v>
    <v>      -0.00463984       0.67268941       0.06279404 </v>
    <v>       0.50245877       0.32872292       0.30982473 </v>
    <v>       0.25077808       0.67097183       0.31061306 </v>
    <v>       0.75043281       0.32685303       0.06216947 </v>
    <v>       0.50402405       0.67237786       0.06262907 </v>
    <v>       0.99600996       0.32762292       0.31025511 </v>
    <v>       0.75069570       0.67240111       0.30999227 </v>
    <v>       0.25003695       0.32946864       0.56181119 </v>
    <v>      -0.00335566       0.67167536       0.56228311 </v>
    <v>       0.50516184       0.32728370       0.81533759 </v>
    <v>       0.24935858       0.67102162       0.81471996 </v>
    <v>       0.75003788       0.32760372       0.56326455 </v>
    <v>       0.50350326       0.67168348       0.56370801 </v>
    <v>       0.99540839       0.32827217       0.81615388 </v>
    <v>       0.74975863       0.67282088       0.81601012 </v>
    <v>       0.50778475       0.07442354       0.06804419 </v>
    <v>       0.25383863       0.92040103       0.06625152 </v>
    <v>       0.26443905       0.07936370       0.30789262 </v>
    <v>      -0.01839975       0.92208395       0.31208868 </v>
    <v>       0.98508809       0.07372945       0.05735292 </v>
    <v>       0.75344046       0.93525160       0.05808302 </v>
    <v>       0.76203540       0.07385123       0.30560757 </v>
    <v>       0.49316743       0.92262867       0.30120074 </v>
    <v>       0.50548608       0.07989786       0.56638380 </v>
    <v>       0.24991031       0.92221854       0.56219768 </v>
    <v>       0.23896972       0.07769670       0.81378249 </v>
    <v>      -0.00002468       0.92169182       0.82243252 </v>
    <v>       0.99421844       0.07978577       0.55856254 </v>
    <v>       0.74996668       0.92152596       0.56283333 </v>
    <v>       0.74160934       0.06995878       0.82290344 </v>
    <v>       0.51913855       0.92227545       0.81249990 </v>
   </varray>
  </structure>
  <varray name="forces" >
   <v>      -0.15307435      -0.00851848       0.32778325 </v>
   <v>       0.12741874       0.03982168       0.38818405 </v>
   <v>       0.54402730      -0.04624625       0.12679946 </v>
   <v>       0.21845397       0.03395014      -0.19366611 </v>
   <v>       0.25481292      -0.05347715      -0.35493073 </v>
   <v>      -0.40452141      -0.15664578      -0.00617652 </v>
   <v>      -0.31066915       0.16002489      -0.78065018 </v>
   <v>       0.40246390       0.17426076       0.60154181 </v>
   <v>      -1.01150693       0.22919352      -0.00596117 </v>
   <v>       0.46450556      -0.20342805       0.15949125 </v>
[...]
       <r>    8.6980    0.0000 </r>
       <r>    8.7194    0.0000 </r>
       <r>    8.7430    0.0000 </r>
       <r>    8.7884    0.0000 </r>
       <r>    8.8345    0.0000 </r>
       <r>    8.8853    0.0000 </r>
       <r>    8.9464    0.0000 </r>
       <r>    9.7459    0.0000 </r>
       <r>    9.9801    0.0000 </r>
       <r>   10.0901    0.0000 </r>
       <r>   10.1962    0.0000 </r>
      </set>
     </set>
    </set>
   </array>
  </eigenvalues>
  <separator name="orbital magnetization" >
   <v name="MAGDIPOLOUT">      0.00000000      0.00000000      0.00000000</v>
  </separator>
  <dos>
   <i name="efermi">      4.09442129 </i>
   <total>
    <array>
     <dimension dim="1">gridpoints</dimension>
     <dimension dim="2">spin</dimension>
     <field>energy</field>
     <field>total</field>
     <field>integrated</field>
     <set>
      <set comment="spin 1">
       <r>   -42.6119     0.0000     0.0000 </r>
       <r>   -42.4275     0.0000     0.0000 </r>
       <r>   -42.2430     0.0000     0.0000 </r>
       <r>   -42.0586     0.0000     0.0000 </r>
       <r>   -41.8742     0.0000     0.0000 </r>
       <r>   -41.6898     0.0000     0.0000 </r>
       <r>   -41.5053     0.0000     0.0000 </r>
       <r>   -41.3209     0.0000     0.0000 </r>
       <r>   -41.1365     0.0000     0.0000 </r>
       <r>   -40.9521     0.0000     0.0000 </r>
       <r>   -40.7676     0.0000     0.0000 </r>
       <r>   -40.5832     0.0000     0.0000 </r>
       <r>   -40.3988     0.0000     0.0000 </r>
       <r>   -40.2143     0.0000     0.0000 </r>
       <r>   -40.0299     0.0000     2.0000 </r>
       <r>   -39.8455     0.0000     2.0000 </r>
       <r>   -39.6611     0.0000     2.0000 </r>
       <r>   -39.4766     0.0000     6.0000 </r>
       <r>   -39.2922     0.0000     6.0000 </r>
       <r>   -39.1078     0.0000     8.0000 </r>
       <r>   -38.9233     0.0000     8.0000 </r>
       <r>   -38.7389     0.0000     8.0000 </r>
       <r>   -38.5545     0.0000     8.0000 </r>
       <r>   -38.3701     0.0000     8.0000 </r>
       <r>   -38.1856     0.0000     8.0000 </r>
       <r>   -38.0012     0.0000     8.0000 </r>
       <r>   -37.8168     0.0000     8.0000 </r>
       <r>   -37.6324     0.0000     8.0000 </r>
       <r>   -37.4479     0.0000     8.0000 </r>
       <r>   -37.2635     0.0000     8.0000 </r>
       <r>   -37.0791     0.0000     8.0000 </r>
       <r>   -36.8946     0.0000     8.0000 </r>
       <r>   -36.7102     0.0000     8.0000 </r>
       <r>   -36.5258     0.0000     8.0000 </r>
       <r>   -36.3414     0.0000     8.0000 </r>
       <r>   -36.1569     0.0000     8.0000 </r>
       <r>   -35.9725     0.0000     8.0000 </r>
       <r>   -35.7881     0.0000     8.0000 </r>
       <r>   -35.6036     0.0000     8.0000 </r>
       <r>   -35.4192     0.0000     8.0000 </r>
       <r>   -35.2348     0.0000     8.0000 </r>
       <r>   -35.0504     0.0000     8.0000 </r>
       <r>   -34.8659     0.0000     8.0000 </r>
       <r>   -34.6815     0.0000     8.0000 </r>
       <r>   -34.4971     0.0000     8.0000 </r>
       <r>   -34.3127     0.0000     8.0000 </r>
       <r>   -34.1282     0.0000     8.0000 </r>
       <r>   -33.9438     0.0000     8.0000 </r>
       <r>   -33.7594     0.0000     8.0000 </r>
       <r>   -33.5749     0.0000     8.0000 </r>
       <r>   -33.3905     0.0000     8.0000 </r>
       <r>   -33.2061     0.0000     8.0000 </r>
       <r>   -33.0217     0.0000     8.0000 </r>
       <r>   -32.8372     0.0000     8.0000 </r>
       <r>   -32.6528     0.0000     8.0000 </r>
       <r>   -32.4684     0.0000     8.0000 </r>
       <r>   -32.2839     0.0000     8.0000 </r>
       <r>   -32.0995     0.0000     8.0000 </r>
       <r>   -31.9151     0.0000     8.0000 </r>
       <r>   -31.7307     0.0000     8.0000 </r>
       <r>   -31.5462     0.0000     8.0000 </r>
       <r>   -31.3618     0.0000     8.0000 </r>
       <r>   -31.1774     0.0000     8.0000 </r>
       <r>   -30.9930     0.0000     8.0000 </r>
       <r>   -30.8085     0.0000     8.0000 </r>
       <r>   -30.6241     0.0000     8.0000 </r>
       <r>   -30.4397     0.0000     8.0000 </r>
       <r>   -30.2552     0.0000     8.0000 </r>
       <r>   -30.0708     0.0000     8.0000 </r>
       <r>   -29.8864     0.0000     8.0000 </r>
       <r>   -29.7020     0.0000     8.0000 </r>
       <r>   -29.5175     0.0000     8.0000 </r>
       <r>   -29.3331     0.0000     8.0000 </r>
       <r>   -29.1487     0.0000     8.0000 </r>
       <r>   -28.9642     0.0000     8.0000 </r>
       <r>   -28.7798     0.0000     8.0000 </r>
       <r>   -28.5954     0.0000     8.0000 </r>
       <r>   -28.4110     0.0000     8.0000 </r>
       <r>   -28.2265     0.0000     8.0000 </r>
       <r>   -28.0421     0.0000     8.0000 </r>
       <r>   -27.8577     0.0000     8.0000 </r>
       <r>   -27.6733     0.0000     8.0000 </r>
       <r>   -27.4888     0.0000     8.0000 </r>
       <r>   -27.3044     0.0000     8.0000 </r>
       <r>   -27.1200     0.0000     8.0000 </r>
       <r>   -26.9355     0.0000     8.0000 </r>
       <r>   -26.7511     0.0000     8.0000 </r>
       <r>   -26.5667     0.0000     8.0000 </r>
       <r>   -26.3823     0.0000     8.0000 </r>
       <r>   -26.1978     0.0000     8.0000 </r>
       <r>   -26.0134     0.0000     8.0000 </r>
       <r>   -25.8290     0.0000     8.0000 </r>
       <r>   -25.6445     0.0000     8.0000 </r>
       <r>   -25.4601     0.0000     8.0000 </r>
       <r>   -25.2757     0.0000     8.0000 </r>
       <r>   -25.0913     0.0000     8.0000 </r>
       <r>   -24.9068     0.0000     8.0000 </r>
       <r>   -24.7224     0.0000     8.0000 </r>
       <r>   -24.5380     0.0000     8.0000 </r>
       <r>   -24.3536     0.0000     8.0000 </r>
       <r>   -24.1691     0.0000     8.0000 </r>
       <r>   -23.9847     0.0000     8.0000 </r>
       <r>   -23.8003     0.0000     8.0000 </r>
       <r>   -23.6158     0.0000     8.0000 </r>
       <r>   -23.4314     0.0000     8.0000 </r>
       <r>   -23.2470     0.0000     8.0000 </r>
       <r>   -23.0626     0.0000     8.0000 </r>
       <r>   -22.8781     0.0000     8.0000 </r>
       <r>   -22.6937     0.0000     8.0000 </r>
       <r>   -22.5093     0.0000     8.0000 </r>
       <r>   -22.3249     0.0000     8.0000 </r>
       <r>   -22.1404     0.0000     8.0000 </r>
       <r>   -21.9560     0.0000     8.0000 </r>
       <r>   -21.7716     0.0000     8.0000 </r>
       <r>   -21.5871     0.0000     8.0000 </r>
       <r>   -21.4027     0.0000     8.0000 </r>
       <r>   -21.2183     0.0000     8.0000 </r>
       <r>   -21.0339     0.0000     8.0000 </r>
       <r>   -20.8494     0.0000     8.0000 </r>
       <r>   -20.6650     0.0000     8.0000 </r>
       <r>   -20.4806     0.0000     8.0000 </r>
       <r>   -20.2961     0.0000     8.0000 </r>
       <r>   -20.1117     0.0000     8.0000 </r>
       <r>   -19.9273     0.0000     8.0000 </r>
       <r>   -19.7429     0.0000     8.0000 </r>
       <r>   -19.5584     0.0000     8.0000 </r>
       <r>   -19.3740     0.0000     8.0000 </r>
       <r>   -19.1896     0.0000     8.0000 </r>
       <r>   -19.0052     0.0000    14.0000 </r>
       <r>   -18.8207     0.0000    66.0000 </r>
       <r>   -18.6363     0.0000   124.0000 </r>
       <r>   -18.4519     0.0000   160.0000 </r>
       <r>   -18.2674     0.0000   168.0000 </r>
       <r>   -18.0830     0.0000   168.0000 </r>
       <r>   -17.8986     0.0000   168.0000 </r>
       <r>   -17.7142     0.0000   168.0000 </r>
       <r>   -17.5297     0.0000   168.0000 </r>
       <r>   -17.3453     0.0000   168.0000 </r>
       <r>   -17.1609     0.0000   168.0000 </r>
       <r>   -16.9764     0.0000   168.0000 </r>
       <r>   -16.7920     0.0000   168.0000 </r>
       <r>   -16.6076     0.0000   168.0000 </r>
       <r>   -16.4232     0.0000   168.0000 </r>
       <r>   -16.2387     0.0000   168.0000 </r>
       <r>   -16.0543     0.0000   168.0000 </r>
       <r>   -15.8699     0.0000   168.0000 </r>
       <r>   -15.6855     0.0000   168.0000 </r>
       <r>   -15.5010     0.0000   168.0000 </r>
       <r>   -15.3166     0.0000   168.0000 </r>
       <r>   -15.1322     0.0000   168.0000 </r>
       <r>   -14.9477     0.0000   168.0000 </r>
       <r>   -14.7633     0.0000   168.0000 </r>
       <r>   -14.5789     0.0000   168.0000 </r>
       <r>   -14.3945     0.0000   168.0000 </r>
       <r>   -14.2100     0.0000   168.0000 </r>
       <r>   -14.0256     0.0000   168.0000 </r>
       <r>   -13.8412     0.0000   168.0000 </r>
       <r>   -13.6567     0.0000   168.0000 </r>
       <r>   -13.4723     0.0000   170.0000 </r>
       <r>   -13.2879     0.0000   174.0000 </r>
       <r>   -13.1035     0.0000   180.0000 </r>
       <r>   -12.9190     0.0000   184.0000 </r>
       <r>   -12.7346     0.0000   190.0000 </r>
       <r>   -12.5502     0.0000   196.0000 </r>
       <r>   -12.3658     0.0000   200.0000 </r>
       <r>   -12.1813     0.0000   200.0000 </r>
       <r>   -11.9969     0.0000   200.0000 </r>
       <r>   -11.8125     0.0000   200.0000 </r>
       <r>   -11.6280     0.0000   200.0000 </r>
       <r>   -11.4436     0.0000   200.0000 </r>
       <r>   -11.2592     0.0000   200.0000 </r>
       <r>   -11.0748     0.0000   200.0000 </r>
       <r>   -10.8903     0.0000   200.0000 </r>
       <r>   -10.7059     0.0000   200.0000 </r>
       <r>   -10.5215     0.0000   200.0000 </r>
       <r>   -10.3370     0.0000   200.0000 </r>
       <r>   -10.1526     0.0000   200.0000 </r>
       <r>    -9.9682     0.0000   200.0000 </r>
       <r>    -9.7838     0.0000   200.0000 </r>
       <r>    -9.5993     7.3973   200.1759 </r>
       <r>    -9.4149     0.2909   201.9992 </r>
       <r>    -9.2305    13.6996   202.8775 </r>
       <r>    -9.0461     2.8151   204.0576 </r>
       <r>    -8.8616    25.7685   206.2955 </r>
       <r>    -8.6772    24.0948   210.7994 </r>
       <r>    -8.4928    23.4535   213.3611 </r>
       <r>    -8.3083     0.0000   216.0000 </r>
       <r>    -8.1239    47.4601   221.1667 </r>
       <r>    -7.9395    17.6746   226.7877 </r>
       <r>    -7.7551    22.3128   229.0164 </r>
       <r>    -7.5706     0.0000   232.0000 </r>
       <r>    -7.3862     0.0000   232.0000 </r>
       <r>    -7.2018     0.0000   232.0000 </r>
       <r>    -7.0173     0.0000   232.0000 </r>
       <r>    -6.8329     0.0000   232.0000 </r>
       <r>    -6.6485     0.0000   232.0000 </r>
       <r>    -6.4641     8.7447   232.2255 </r>
       <r>    -6.2796    17.6619   236.9121 </r>
       <r>    -6.0952     9.9158   239.7136 </r>
       <r>    -5.9108    16.9262   242.8552 </r>
       <r>    -5.7264    26.6247   247.7092 </r>
       <r>    -5.5419    15.0202   251.4010 </r>
       <r>    -5.3575    13.1722   254.5042 </r>
       <r>    -5.1731     2.6876   256.0020 </r>
       <r>    -4.9886    14.4049   257.5492 </r>
       <r>    -4.8042     7.1754   259.4193 </r>
       <r>    -4.6198     4.7662   260.6172 </r>
       <r>    -4.4354     8.8325   261.8351 </r>
       <r>    -4.2509     4.0502   263.2752 </r>
       <r>    -4.0665     1.9020   263.7790 </r>
       <r>    -3.8821     0.3696   263.9874 </r>
       <r>    -3.6977     0.0000   264.0000 </r>
       <r>    -3.5132     0.0000   264.0000 </r>
       <r>    -3.3288     0.0000   264.0000 </r>
       <r>    -3.1444     0.0000   264.0000 </r>
       <r>    -2.9599     0.0000   264.0000 </r>
       <r>    -2.7755     0.0000   264.0000 </r>
       <r>    -2.5911     0.0000   264.0000 </r>
       <r>    -2.4067     0.0000   264.0000 </r>
       <r>    -2.2222     0.0000   264.0000 </r>
       <r>    -2.0378     0.0000   264.0000 </r>
       <r>    -1.8534     0.0000   264.0000 </r>
       <r>    -1.6689     0.0000   264.0000 </r>
       <r>    -1.4845     2.3061   264.0686 </r>
       <r>    -1.3001     7.0435   265.1248 </r>
       <r>    -1.1157     6.8070   266.5179 </r>
       <r>    -0.9312    12.7860   268.1477 </r>
       <r>    -0.7468    12.2870   270.7818 </r>
       <r>    -0.5624    28.1677   274.1402 </r>
       <r>    -0.3780    33.9965   279.7607 </r>
       <r>    -0.1935    33.2098   285.8354 </r>
       <r>    -0.0091    37.4729   292.2407 </r>
       <r>     0.1753    35.8142   298.9580 </r>
       <r>     0.3598    37.2292   306.3469 </r>
       <r>     0.5442    30.2217   312.5226 </r>
       <r>     0.7286    45.8951   320.5165 </r>
       <r>     0.9130    55.4873   328.1377 </r>
       <r>     1.0975    40.9329   336.0179 </r>
       <r>     1.2819    49.3792   345.0509 </r>
       <r>     1.4663    41.6642   353.8775 </r>
       <r>     1.6508    32.4432   361.0494 </r>
       <r>     1.8352    39.4894   368.8620 </r>
       <r>     2.0196    48.6860   376.9582 </r>
       <r>     2.2040    65.7008   387.1131 </r>
       <r>     2.3885    53.7329   398.2784 </r>
       <r>     2.5729    40.6693   406.7924 </r>
       <r>     2.7573    65.3843   418.1391 </r>
       <r>     2.9417    50.3807   430.3455 </r>
       <r>     3.1262    31.9411   438.8928 </r>
       <r>     3.3106    49.4117   445.3126 </r>
       <r>     3.4950    20.2100   450.8619 </r>
       <r>     3.6795    12.4876   454.0001 </r>
       <r>     3.8639     5.1063   455.6225 </r>
       <r>     4.0483     0.0260   455.9999 </r>
       <r>     4.2327     0.0000   456.0000 </r>
       <r>     4.4172     0.0000   456.0000 </r>
       <r>     4.6016     0.0000   456.0000 </r>
       <r>     4.7860     0.0000   456.0000 </r>
       <r>     4.9705     0.1322   456.0011 </r>
       <r>     5.1549     4.2008   456.3629 </r>
       <r>     5.3393     9.4513   457.7358 </r>
       <r>     5.5237    13.7066   459.6892 </r>
       <r>     5.7082    18.8354   462.9841 </r>
       <r>     5.8926    14.3122   466.3940 </r>
       <r>     6.0770    13.4785   468.9081 </r>
       <r>     6.2614    14.6575   471.4860 </r>
       <r>     6.4459    16.4235   474.3523 </r>
       <r>     6.6303    18.8217   477.5897 </r>
       <r>     6.8147    21.3478   481.2851 </r>
       <r>     6.9992    20.9467   485.2657 </r>
       <r>     7.1836    28.5427   489.4929 </r>
       <r>     7.3680    31.7377   495.3138 </r>
       <r>     7.5524    32.5501   500.5945 </r>
       <r>     7.7369    29.5189   506.8674 </r>
       <r>     7.9213    38.7079   512.9493 </r>
       <r>     8.1057    31.2189   519.3341 </r>
       <r>     8.2902    23.1460   524.5046 </r>
       <r>     8.4746    26.3969   528.5836 </r>
       <r>     8.6590    26.3647   533.7340 </r>
       <r>     8.8434    32.4319   540.5438 </r>
       <r>     9.0279    28.8563   546.3401 </r>
       <r>     9.2123    14.4792   550.3467 </r>
       <r>     9.3967     2.0054   551.9824 </r>
       <r>     9.5811    10.2418   553.4878 </r>
       <r>     9.7656     9.0583   555.4282 </r>
       <r>     9.9500    10.5949   557.1694 </r>
       <r>    10.1344     8.7104   559.6369 </r>
       <r>    10.3189     0.0000   560.0000 </r>
       <r>    10.5033     0.0000   560.0000 </r>
       <r>    10.6877     0.0000   560.0000 </r>
       <r>    10.8721     0.0000   560.0000 </r>
       <r>    11.0566     0.0000   560.0000 </r>
       <r>    11.2410     0.0000   560.0000 </r>
       <r>    11.4254     0.0000   560.0000 </r>
       <r>    11.6099     0.0000   560.0000 </r>
       <r>    11.7943     0.0000   560.0000 </r>
       <r>    11.9787     0.0000   560.0000 </r>
       <r>    12.1631     0.0000   560.0000 </r>
       <r>    12.3476     0.0000   560.0000 </r>
       <r>    12.5320     0.0000   560.0000 </r>
       <r>    12.7164     0.0000   560.0000 </r>
      </set>
     </set>
    </array>
   </total>
  </dos>
 </calculation>
 <structure name="finalpos" >
  <crystal>
   <varray name="basis" >
    <v>      11.25914340       0.00178108      -0.07689665 </v>
    <v>       0.00197439       9.63370225      -0.01734213 </v>
    <v>      -0.07661679      -0.01889215      11.17970546 </v>
   </varray>
   <i name="volume">   1212.57126100 </i>
   <varray name="rec_basis" >
    <v>       0.08882086      -0.00001711       0.00060868 </v>
    <v>      -0.00001522       0.10380257       0.00017531 </v>
    <v>       0.00061091       0.00016090       0.08945225 </v>
   </varray>
  </crystal>
  <varray name="positions" >
   <v>       0.35626240       0.02000741       0.47745351 </v>
   <v>       0.61133917       0.03031119       0.24797295 </v>
   <v>       0.17132543       0.96283627       0.90936952 </v>
   <v>       0.12936059       0.01416271       0.64231089 </v>
   <v>       0.37505900      -0.00097498       0.17375990 </v>
   <v>       0.86269555       0.00360799       0.45167543 </v>
   <v>       0.86814678       0.00470497       0.18194235 </v>
   <v>       0.61806916       0.00161314       0.95573522 </v>
   <v>       0.87829893       0.00585636       0.91624632 </v>
   <v>       0.63071443      -0.00048745       0.67909063 </v>
   <v>      -0.00072510       0.31462319       0.06210299 </v>
   <v>       0.25455265       0.69267246       0.06258119 </v>
   <v>       0.25885140       0.29620867       0.31266420 </v>
   <v>       0.49629004       0.69026678       0.30816819 </v>
   <v>       0.49762812       0.31360535       0.06578900 </v>
   <v>       0.75300637       0.68418177       0.06009823 </v>
   <v>       0.75508168       0.32149019       0.31475411 </v>
   <v>      -0.00339825       0.69662363       0.31797389 </v>
   <v>       0.00058417       0.30520476       0.56046951 </v>
   <v>       0.24890639       0.70469585       0.56009924 </v>
   <v>       0.24367405       0.28586591       0.80611427 </v>
   <v>       0.50032949       0.69336534       0.80862007 </v>
   <v>       0.49981960       0.30305348       0.56607612 </v>
   <v>       0.74913352       0.69406870       0.56216097 </v>
   <v>       0.74677276       0.31920701       0.81474406 </v>
   <v>       0.00391385       0.68757381       0.81671412 </v>
   <v>       0.25277826       0.30663190       0.06200060 </v>
   <v>      -0.00535530       0.64783348       0.06775565 </v>
   <v>       0.50368900       0.35336685       0.31074897 </v>
   <v>       0.25286773       0.65271884       0.31038821 </v>
   <v>       0.74954733       0.36587310       0.06282163 </v>
   <v>       0.49930554       0.64105097       0.06071414 </v>
   <v>       0.99743087       0.35007092       0.31379566 </v>
   <v>       0.75148164       0.64497624       0.31372782 </v>
   <v>       0.25217707       0.33990708       0.56019998 </v>
   <v>      -0.00445897       0.66164777       0.56420288 </v>
   <v>       0.50316696       0.34359532       0.81352404 </v>
   <v>       0.24695911       0.66205205       0.81435163 </v>
   <v>       0.75116679       0.34292924       0.56323165 </v>
   <v>       0.50146974       0.66727916       0.56522614 </v>
   <v>       0.99629933       0.34472454       0.81704099 </v>
   <v>       0.74811355       0.63870612       0.81467239 </v>
   <v>       0.52054100       0.09135693       0.08350145 </v>
   <v>       0.26750773       0.90487836       0.05670304 </v>
   <v>       0.30399347       0.09168035       0.31500995 </v>
   <v>      -0.05662666       0.90387821       0.31540205 </v>
   <v>       0.95156650       0.10422590       0.05551716 </v>
   <v>       0.76303572       0.91496362       0.04513266 </v>
   <v>       0.76588746       0.09693026       0.30686566 </v>
   <v>       0.49466318       0.89903831       0.27501130 </v>
   <v>       0.50935732       0.09127151       0.57444762 </v>
   <v>       0.24273806       0.91162416       0.55448704 </v>
   <v>       0.20944399       0.08388881       0.78702112 </v>
   <v>       0.00537032       0.89908338       0.84544759 </v>
   <v>       0.98732719       0.09381955       0.55186207 </v>
   <v>       0.74872803       0.91254466       0.56606189 </v>
   <v>       0.73297654       0.09118500       0.83124601 </v>
   <v>       0.55115930       0.90197290       0.81605408 </v>
  </varray>
 </structure>
</modeling>
