<?xml version="1.0" encoding="ISO-8859-1"?>
<modeling>
 <generator>
  <i name="program" type="string">vasp </i>
  <i name="version" type="string">5.4.4.18Apr17-6-g9f103f2a35  </i>
  <i name="subversion" type="string">(build Jul 31 2017 11:33:29) complex            parallel </i>
  <i name="platform" type="string">LinuxIFC </i>
  <i name="date" type="string">2021 09 29 </i>
  <i name="time" type="string">14:19:18 </i>
 </generator>
 <incar>
  <i type="string" name="SYSTEM"> La2O2S</i>
  <i type="string" name="PREC">normal</i>
  <i type="int" name="NELMIN">     4</i>
  <i type="int" name="IBRION">     2</i>
  <i type="int" name="NFREE">    10</i>
  <i name="EDIFF">      0.00000100</i>
  <i name="EDIFFG">     -0.01000000</i>
  <i type="int" name="NSW">     1</i>
  <i type="int" name="ISIF">     2</i>
  <i name="ENCUT">    600.00000000</i>
  <i name="ENAUG">    900.00000000</i>
  <i type="int" name="ISMEAR">    -5</i>
  <i type="logical" name="LWAVE"> F  </i>
  <i type="logical" name="LCHARG"> F  </i>
  <v type="int" name="KPOINT_BSE">    -1     0     0     0</v>
 </incar>
 <structure name="primitive_cell" >
  <crystal>
   <varray name="basis" >
    <v>      11.17850000       0.00000000       0.00000000 </v>
    <v>       0.00000000       9.57460000       0.00000000 </v>
    <v>       0.00000000       0.00000000      11.18240000 </v>
   </varray>
   <i name="volume">   1196.84853820 </i>
   <varray name="rec_basis" >
    <v>       0.08945744       0.00000000       0.00000000 </v>
    <v>       0.00000000       0.10444301       0.00000000 </v>
    <v>       0.00000000       0.00000000       0.08942624 </v>
   </varray>
  </crystal>
  <varray name="positions" >
   <v>       0.12461000      -0.00016000       0.18687000 </v>
   <v>      -0.00013000       0.07798000       0.06246000 </v>
   <v>       0.24987000      -0.07798000       0.06246000 </v>
   <v>       0.00013000      -0.07798000       0.31246000 </v>
   <v>       0.25013000       0.07798000       0.31246000 </v>
   <v>      -0.12539000       0.00017000       0.18687000 </v>
   <v>       0.37461000       0.00017000       0.18687000 </v>
   <v>       0.12539000      -0.00016000      -0.06313000 </v>
   <v>       0.00013000       0.29519000       0.06281000 </v>
   <v>       0.25013000      -0.29519000       0.06281000 </v>
   <v>      -0.00013000      -0.29519000       0.31282000 </v>
   <v>       0.24987000       0.29519000       0.31282000 </v>
   <v>       0.00005000      -0.32677000       0.06286000 </v>
   <v>       0.25005000       0.32677000       0.06286000 </v>
   <v>      -0.00005000       0.32677000       0.31286000 </v>
   <v>       0.24995000      -0.32677000       0.31286000 </v>
   <v>      -0.12461000       0.00017000      -0.06313000 </v>
   <v>      -0.12461000       0.00017000       0.43687000 </v>
   <v>       0.00013000      -0.07798000      -0.18754000 </v>
   <v>      -0.25013000      -0.07798000       0.06246000 </v>
   <v>      -0.24987000       0.07798000       0.31246000 </v>
   <v>       0.25013000       0.07798000      -0.18754000 </v>
   <v>       0.49987000       0.07798000       0.06246000 </v>
   <v>      -0.00013000       0.07798000      -0.43754000 </v>
   <v>      -0.49987000      -0.07798000       0.31246000 </v>
   <v>       0.24987000      -0.07798000      -0.43754000 </v>
   <v>      -0.00013000      -0.29519000      -0.18718000 </v>
   <v>      -0.24987000      -0.29519000       0.06281000 </v>
   <v>       0.24987000       0.29519000      -0.18718000 </v>
   <v>      -0.25013000       0.29519000       0.31282000 </v>
   <v>      -0.49987000       0.29519000       0.06281000 </v>
   <v>       0.49987000      -0.29519000       0.31282000 </v>
   <v>       0.00013000       0.29519000      -0.43719000 </v>
   <v>       0.25013000      -0.29519000      -0.43719000 </v>
   <v>      -0.00005000       0.32677000      -0.18714000 </v>
   <v>       0.24995000      -0.32677000      -0.18714000 </v>
   <v>      -0.24995000       0.32677000       0.06286000 </v>
   <v>      -0.25005000      -0.32677000       0.31286000 </v>
   <v>      -0.49995000      -0.32677000       0.06286000 </v>
   <v>       0.49995000       0.32677000       0.31286000 </v>
   <v>       0.00005000      -0.32677000      -0.43714000 </v>
   <v>       0.25005000       0.32677000      -0.43714000 </v>
   <v>       0.12461000      -0.00016000      -0.31313000 </v>
   <v>      -0.24987000       0.07798000      -0.18754000 </v>
   <v>      -0.49987000      -0.07798000      -0.18754000 </v>
   <v>      -0.25013000      -0.07798000      -0.43754000 </v>
   <v>       0.49987000       0.07798000      -0.43754000 </v>
   <v>      -0.37461000      -0.00016000       0.43687000 </v>
   <v>      -0.37461000      -0.00016000      -0.06313000 </v>
   <v>      -0.12539000       0.00017000      -0.31313000 </v>
   <v>       0.37461000       0.00017000      -0.31313000 </v>
   <v>      -0.25013000       0.29519000      -0.18718000 </v>
   <v>       0.49987000      -0.29519000      -0.18718000 </v>
   <v>      -0.24987000      -0.29519000      -0.43719000 </v>
   <v>      -0.49987000       0.29519000      -0.43719000 </v>
   <v>      -0.25005000      -0.32677000      -0.18714000 </v>
   <v>       0.49995000       0.32677000      -0.18714000 </v>
   <v>      -0.24995000       0.32677000      -0.43714000 </v>
   <v>      -0.49995000      -0.32677000      -0.43714000 </v>
  </varray>
 </structure>
 <varray name="primitive_index" >
  <v type="int" >        1 </v>
  <v type="int" >       48 </v>
  <v type="int" >       45 </v>
  <v type="int" >       47 </v>
  <v type="int" >       46 </v>
  <v type="int" >        2 </v>
  <v type="int" >        7 </v>
  <v type="int" >        3 </v>
  <v type="int" >       12 </v>
  <v type="int" >       13 </v>
  <v type="int" >       19 </v>
  <v type="int" >       14 </v>
  <v type="int" >       29 </v>
  <v type="int" >       28 </v>
  <v type="int" >       34 </v>
  <v type="int" >       31 </v>
  <v type="int" >        5 </v>
  <v type="int" >        9 </v>
  <v type="int" >       55 </v>
  <v type="int" >       49 </v>
  <v type="int" >       50 </v>
  <v type="int" >       54 </v>
  <v type="int" >       44 </v>
  <v type="int" >       56 </v>
  <v type="int" >       51 </v>
  <v type="int" >       53 </v>
  <v type="int" >       27 </v>
  <v type="int" >       17 </v>
  <v type="int" >       22 </v>
  <v type="int" >       18 </v>
  <v type="int" >       16 </v>
  <v type="int" >       15 </v>
  <v type="int" >       20 </v>
  <v type="int" >       21 </v>
  <v type="int" >       42 </v>
  <v type="int" >       39 </v>
  <v type="int" >       32 </v>
  <v type="int" >       35 </v>
  <v type="int" >       33 </v>
  <v type="int" >       30 </v>
  <v type="int" >       37 </v>
  <v type="int" >       36 </v>
  <v type="int" >        4 </v>
  <v type="int" >       58 </v>
  <v type="int" >       59 </v>
  <v type="int" >       57 </v>
  <v type="int" >       52 </v>
  <v type="int" >        8 </v>
  <v type="int" >       11 </v>
  <v type="int" >        6 </v>
  <v type="int" >       10 </v>
  <v type="int" >       26 </v>
  <v type="int" >       23 </v>
  <v type="int" >       25 </v>
  <v type="int" >       24 </v>
  <v type="int" >       43 </v>
  <v type="int" >       38 </v>
  <v type="int" >       40 </v>
  <v type="int" >       41 </v>
 </varray>
 <kpoints>
  <generation param="Gamma">
   <v type="int" name="divisions">       2        2        2 </v>
   <v name="usershift">      0.00000000       0.00000000       0.00000000 </v>
   <v name="genvec1">      0.50000000       0.00000000       0.00000000 </v>
   <v name="genvec2">      0.00000000       0.50000000       0.00000000 </v>
   <v name="genvec3">      0.00000000       0.00000000       0.50000000 </v>
   <v name="shift">      0.00000000       0.00000000       0.00000000 </v>
  </generation>
  <varray name="kpointlist" >
   <v>       0.00000000       0.00000000       0.00000000 </v>
   <v>       0.50000000       0.00000000       0.00000000 </v>
   <v>       0.00000000       0.50000000       0.00000000 </v>
   <v>       0.50000000       0.50000000       0.00000000 </v>
   <v>       0.00000000       0.00000000       0.50000000 </v>
   <v>       0.50000000       0.00000000       0.50000000 </v>
   <v>       0.00000000       0.50000000       0.50000000 </v>
   <v>       0.50000000       0.50000000       0.50000000 </v>
  </varray>
  <varray name="weights" >
   <v>       0.12500000 </v>
   <v>       0.12500000 </v>
   <v>       0.12500000 </v>
   <v>       0.12500000 </v>
   <v>       0.12500000 </v>
   <v>       0.12500000 </v>
   <v>       0.12500000 </v>
   <v>       0.12500000 </v>
  </varray>
  <varray name="tetrahedronlist"  type="int" >
   <v type="int" >        2        1        2        4        5 </v>
   <v type="int" >        2        1        3        4        5 </v>
   <v type="int" >        2        3        4        5        7 </v>
   <v type="int" >        2        2        4        5        6 </v>
   <v type="int" >        2        4        5        6        8 </v>
   <v type="int" >        2        4        5        7        8 </v>
   <v type="int" >        2        1        2        3        6 </v>
   <v type="int" >        2        2        3        4        6 </v>
   <v type="int" >        2        3        4        6        8 </v>
   <v type="int" >        2        1        3        5        6 </v>
   <v type="int" >        2        3        5        6        7 </v>
   <v type="int" >        2        3        6        7        8 </v>
   <v type="int" >        2        2        3        4        7 </v>
   <v type="int" >        2        1        2        3        7 </v>
   <v type="int" >        2        1        2        5        7 </v>
   <v type="int" >        2        2        4        7        8 </v>
   <v type="int" >        2        2        6        7        8 </v>
   <v type="int" >        2        2        5        6        7 </v>
   <v type="int" >        2        1        3        4        8 </v>
   <v type="int" >        2        1        2        4        8 </v>
   <v type="int" >        2        1        2        6        8 </v>
   <v type="int" >        2        1        3        7        8 </v>
   <v type="int" >        2        1        5        7        8 </v>
   <v type="int" >        2        1        5        6        8 </v>
  </varray>
  <i name="volumeweight">      0.02083333 </i>
 </kpoints>
 <parameters>
  <separator name="general" >
   <i type="string" name="SYSTEM">La2O2S</i>
   <i type="logical" name="LCOMPAT"> F  </i>
  </separator>
  <separator name="electronic" >
   <i type="string" name="PREC">normal</i>
   <i name="ENMAX">    600.00000000</i>
   <i name="ENAUG">    900.00000000</i>
   <i name="EDIFF">      0.00000100</i>
   <i type="int" name="IALGO">    38</i>
   <i type="int" name="IWAVPR">    11</i>
   <i type="int" name="NBANDS">   280</i>
   <i name="NELECT">    460.00000000</i>
   <i type="int" name="TURBO">     0</i>
   <i type="int" name="IRESTART">     0</i>
   <i type="int" name="NREBOOT">     0</i>
   <i type="int" name="NMIN">     0</i>
   <i name="EREF">      0.00000000</i>
   <separator name="electronic smearing" >
    <i type="int" name="ISMEAR">    -5</i>
    <i name="SIGMA">      0.20000000</i>
    <i name="KSPACING">      0.50000000</i>
    <i type="logical" name="KGAMMA"> T  </i>
   </separator>
   <separator name="electronic projectors" >
    <i type="logical" name="LREAL"> F  </i>
    <v name="ROPT">      0.00000000      0.00000000      0.00000000      0.00000000      0.00000000</v>
    <i type="int" name="LMAXPAW">  -100</i>
    <i type="int" name="LMAXMIX">     2</i>
    <i type="logical" name="NLSPLINE"> F  </i>
   </separator>
   <separator name="electronic startup" >
    <i type="int" name="ISTART">     0</i>
    <i type="int" name="ICHARG">     2</i>
    <i type="int" name="INIWAV">     1</i>
   </separator>
   <separator name="electronic spin" >
    <i type="int" name="ISPIN">     1</i>
    <i type="logical" name="LNONCOLLINEAR"> F  </i>
    <v name="MAGMOM">      1.00000000      1.00000000      1.00000000      1.00000000      1.00000000      1.00000000      1.00000000      1.00000000      1.00000000      1.00000000      1.00000000      1.00000000      1.00000000      1.00000000      1.00000000      1.00000000      1.00000000      1.00000000      1.00000000      1.00000000
      1.00000000      1.00000000      1.00000000      1.00000000      1.00000000      1.00000000      1.00000000      1.00000000      1.00000000      1.00000000      1.00000000      1.00000000      1.00000000      1.00000000      1.00000000      1.00000000      1.00000000      1.00000000      1.00000000      1.00000000
      1.00000000      1.00000000      1.00000000      1.00000000      1.00000000      1.00000000      1.00000000      1.00000000      1.00000000      1.00000000      1.00000000      1.00000000      1.00000000      1.00000000      1.00000000      1.00000000      1.00000000      1.00000000      1.00000000</v>
    <i name="NUPDOWN">     -1.00000000</i>
    <i type="logical" name="LSORBIT"> F  </i>
    <v name="SAXIS">      0.00000000      0.00000000      1.00000000</v>
    <i type="logical" name="LSPIRAL"> F  </i>
    <v name="QSPIRAL">      0.00000000      0.00000000      0.00000000</v>
    <i type="logical" name="LZEROZ"> F  </i>
   </separator>
   <separator name="electronic exchange-correlation" >
    <i type="logical" name="LASPH"> F  </i>
    <i type="logical" name="LMETAGGA"> F  </i>
   </separator>
   <separator name="electronic convergence" >
    <i type="int" name="NELM">    60</i>
    <i type="int" name="NELMDL">    -5</i>
    <i type="int" name="NELMIN">     4</i>
    <i name="ENINI">    600.00000000</i>
    <separator name="electronic convergence detail" >
     <i type="logical" name="LDIAG"> T  </i>
     <i type="logical" name="LSUBROT"> F  </i>
     <i name="WEIMIN">      0.00100000</i>
     <i name="EBREAK">      0.00000000</i>
     <i name="DEPER">      0.30000000</i>
     <i type="int" name="NRMM">     4</i>
     <i name="TIME">      0.40000000</i>
    </separator>
   </separator>
   <separator name="electronic mixer" >
    <i name="AMIX">      0.40000000</i>
    <i name="BMIX">      1.00000000</i>
    <i name="AMIN">      0.10000000</i>
    <i name="AMIX_MAG">      1.60000000</i>
    <i name="BMIX_MAG">      1.00000000</i>
    <separator name="electronic mixer details" >
     <i type="int" name="IMIX">     4</i>
     <i type="logical" name="MIXFIRST"> F  </i>
     <i type="int" name="MAXMIX">   -45</i>
     <i name="WC">    100.00000000</i>
     <i type="int" name="INIMIX">     1</i>
     <i type="int" name="MIXPRE">     1</i>
     <i type="int" name="MREMOVE">     5</i>
    </separator>
   </separator>
   <separator name="electronic dipolcorrection" >
    <i type="logical" name="LDIPOL"> F  </i>
    <i type="logical" name="LMONO"> F  </i>
    <i type="int" name="IDIPOL">     0</i>
    <i name="EPSILON">      1.00000000</i>
    <v name="DIPOL">   -100.00000000   -100.00000000   -100.00000000</v>
    <i name="EFIELD">      0.00000000</i>
   </separator>
  </separator>
  <separator name="grids" >
   <i type="int" name="NGX">    70</i>
   <i type="int" name="NGY">    60</i>
   <i type="int" name="NGZ">    70</i>
   <i type="int" name="NGXF">   140</i>
   <i type="int" name="NGYF">   120</i>
   <i type="int" name="NGZF">   140</i>
   <i type="logical" name="ADDGRID"> F  </i>
  </separator>
  <separator name="ionic" >
   <i type="int" name="NSW">     1</i>
   <i type="int" name="IBRION">     2</i>
   <i type="int" name="MDALGO">     0</i>
   <i type="int" name="ISIF">     2</i>
   <i name="PSTRESS">      0.00000000</i>
   <i name="EDIFFG">     -0.01000000</i>
   <i type="int" name="NFREE">    10</i>
   <i name="POTIM">      0.50000000</i>
   <i name="SMASS">     -3.00000000</i>
   <i name="SCALEE">      1.00000000</i>
  </separator>
  <separator name="ionic md" >
   <i name="TEBEG">      0.00010000</i>
   <i name="TEEND">      0.00010000</i>
   <i type="int" name="NBLOCK">     1</i>
   <i type="int" name="KBLOCK">     1</i>
   <i type="int" name="NPACO">   256</i>
   <i name="APACO">     16.00000000</i>
  </separator>
  <separator name="symmetry" >
   <i type="int" name="ISYM">     2</i>
   <i name="SYMPREC">      0.00001000</i>
  </separator>
  <separator name="dos" >
   <i type="int" name="LORBIT">     0</i>
   <v name="RWIGS">     -1.00000000     -1.00000000     -1.00000000     -1.00000000     -1.00000000</v>
   <i type="int" name="NEDOS">   301</i>
   <i name="EMIN">     10.00000000</i>
   <i name="EMAX">    -10.00000000</i>
   <i name="EFERMI">      0.00000000</i>
  </separator>
  <separator name="writing" >
   <i type="int" name="NWRITE">     2</i>
   <i type="logical" name="LWAVE"> F  </i>
   <i type="logical" name="LDOWNSAMPLE"> F  </i>
   <i type="logical" name="LCHARG"> F  </i>
   <i type="logical" name="LPARD"> F  </i>
   <i type="logical" name="LVTOT"> F  </i>
   <i type="logical" name="LVHAR"> F  </i>
   <i type="logical" name="LELF"> F  </i>
   <i type="logical" name="LOPTICS"> F  </i>
   <v name="STM">      0.00000000      0.00000000      0.00000000      0.00000000      0.00000000      0.00000000      0.00000000</v>
  </separator>
  <separator name="performance" >
   <i type="int" name="NPAR">    28</i>
   <i type="int" name="NSIM">     4</i>
   <i type="int" name="NBLK">    -1</i>
   <i type="logical" name="LPLANE"> T  </i>
   <i type="logical" name="LSCALAPACK"> T  </i>
   <i type="logical" name="LSCAAWARE"> F  </i>
   <i type="logical" name="LSCALU"> F  </i>
   <i type="logical" name="LASYNC"> F  </i>
   <i type="logical" name="LORBITALREAL"> F  </i>
  </separator>
  <separator name="miscellaneous" >
   <i type="int" name="IDIOT">     3</i>
   <i type="int" name="ISPECIAL">     0</i>
   <i type="logical" name="LMUSIC"> F  </i>
   <v name="POMASS">      7.01000000     24.30500000    208.98000000     32.06600000     16.00000000</v>
   <v name="DARWINR">      0.00000000      0.00000000      0.00000000      0.00000000      0.00000000</v>
   <v name="DARWINV">      1.00000000      1.00000000      1.00000000      1.00000000      1.00000000</v>
   <i type="logical" name="LCORR"> T  </i>
  </separator>
  <i type="logical" name="GGA_COMPAT"> T  </i>
  <i type="logical" name="LBERRY"> F  </i>
  <i type="int" name="ICORELEVEL">     0</i>
  <i type="logical" name="LDAU"> F  </i>
  <i type="int" name="I_CONSTRAINED_M">     0</i>
  <separator name="electronic exchange-correlation" >
   <i type="string" name="GGA">--</i>
   <i type="int" name="VOSKOWN">     0</i>
   <i type="logical" name="LHFCALC"> F  </i>
   <i type="string" name="PRECFOCK"></i>
   <i type="logical" name="LSYMGRAD"> F  </i>
   <i type="logical" name="LHFONE"> F  </i>
   <i type="logical" name="LRHFCALC"> F  </i>
   <i type="logical" name="LTHOMAS"> F  </i>
   <i type="logical" name="LMODELHF"> F  </i>
   <i name="ENCUT4O">     -1.00000000</i>
   <i type="int" name="EXXOEP">     0</i>
   <i type="int" name="FOURORBIT">     0</i>
   <i name="AEXX">      0.00000000</i>
   <i name="HFALPHA">      0.00000000</i>
   <i name="MCALPHA">      0.00000000</i>
   <i name="ALDAX">      1.00000000</i>
   <i name="AGGAX">      1.00000000</i>
   <i name="ALDAC">      1.00000000</i>
   <i name="AGGAC">      1.00000000</i>
   <i type="int" name="NKREDX">     1</i>
   <i type="int" name="NKREDY">     1</i>
   <i type="int" name="NKREDZ">     1</i>
   <i type="logical" name="SHIFTRED"> F  </i>
   <i type="logical" name="ODDONLY"> F  </i>
   <i type="logical" name="EVENONLY"> F  </i>
   <i type="int" name="LMAXFOCK">     0</i>
   <i type="int" name="NMAXFOCKAE">     0</i>
   <i type="logical" name="LFOCKAEDFT"> F  </i>
   <i name="HFSCREEN">      0.00000000</i>
   <i name="HFSCREENC">      0.00000000</i>
   <i type="int" name="NBANDSGWLOW">     0</i>
  </separator>
  <separator name="vdW DFT" >
   <i type="logical" name="LUSE_VDW"> F  </i>
   <i name="Zab_VDW">     -0.84910000</i>
   <i name="PARAM1">      0.12340000</i>
   <i name="PARAM2">      1.00000000</i>
   <i name="PARAM3">      0.00000000</i>
  </separator>
  <separator name="model GW" >
   <i type="int" name="MODEL_GW">     0</i>
   <i name="MODEL_EPS0">     12.17134107</i>
   <i name="MODEL_ALPHA">      1.00000000</i>
  </separator>
  <separator name="linear response parameters" >
   <i type="logical" name="LEPSILON"> F  </i>
   <i type="logical" name="LRPA"> F  </i>
   <i type="logical" name="LNABLA"> F  </i>
   <i type="logical" name="LVEL"> F  </i>
   <i type="int" name="KINTER">     0</i>
   <i name="CSHIFT">      0.10000000</i>
   <i name="OMEGAMAX">     -1.00000000</i>
   <i name="DEG_THRESHOLD">      0.00200000</i>
   <i name="RTIME">     -0.10000000</i>
   <i name="WPLASMAI">      0.00000000</i>
   <v name="DFIELD">      0.00000000      0.00000000      0.00000000</v>
   <v name="WPLASMA">      0.00000000      0.00000000      0.00000000      0.00000000      0.00000000      0.00000000      0.00000000      0.00000000      0.00000000</v>
  </separator>
  <separator name="orbital magnetization" >
   <i type="logical" name="NUCIND"> F  </i>
   <v name="MAGPOS">      0.00000000      0.00000000      0.00000000</v>
   <i type="logical" name="LNICSALL"> T  </i>
   <i type="logical" name="ORBITALMAG"> F  </i>
   <i type="logical" name="LMAGBLOCH"> F  </i>
   <i type="logical" name="LCHIMAG"> F  </i>
   <i type="logical" name="LGAUGE"> T  </i>
   <i type="int" name="MAGATOM">     0</i>
   <v name="MAGDIPOL">      0.00000000      0.00000000      0.00000000</v>
   <v name="AVECCONST">      0.00000000      0.00000000      0.00000000</v>
  </separator>
  <separator name="response functions" >
   <i type="logical" name="LADDER"> F  </i>
   <i type="logical" name="LRPAFORCE"> F  </i>
   <i type="logical" name="LFXC"> F  </i>
   <i type="logical" name="LHARTREE"> T  </i>
   <i type="int" name="IBSE">     0</i>
   <v type="int" name="KPOINT">    -1     0     0     0</v>
   <i type="logical" name="LTCTE"> F  </i>
   <i type="logical" name="LTETE"> F  </i>
   <i type="logical" name="LTRIPLET"> F  </i>
   <i type="logical" name="LFXCEPS"> F  </i>
   <i type="logical" name="LFXHEG"> F  </i>
   <i type="int" name="NATURALO">     2</i>
   <i type="logical" name="L2ORDER"> F  </i>
   <i type="logical" name="LMP2LT"> F  </i>
   <i type="logical" name="LUSEW"> F  </i>
   <i name="ENCUTGW">     -2.00000000</i>
   <i name="ENCUTGWSOFT">     -2.00000000</i>
   <i name="ENCUTLF">     -1.00000000</i>
   <i type="int" name="LMAXMP2">    -1</i>
   <i name="SCISSOR">      0.00000000</i>
   <i type="int" name="NOMEGA">     0</i>
   <i type="int" name="NOMEGAR">     0</i>
   <i type="int" name="NBANDSGW">    -1</i>
   <i type="int" name="NBANDSO">    -1</i>
   <i type="int" name="NBANDSV">    -1</i>
   <i type="int" name="NELM">     1</i>
   <i type="int" name="NELMHF">     1</i>
   <i type="int" name="DIM">     3</i>
   <i type="int" name="ANTIRES">     0</i>
   <i name="OMEGAMAX">    -30.00000000</i>
   <i name="OMEGAMIN">    -30.00000000</i>
   <i name="OMEGATL">   -200.00000000</i>
   <i type="int" name="OMEGAGRID">   140</i>
   <i name="CSHIFT">     -0.10000000</i>
   <i type="logical" name="SELFENERGY"> F  </i>
   <i type="logical" name="LSPECTRAL"> F  </i>
   <i type="logical" name="LSPECTRALGW"> F  </i>
   <i type="logical" name="LSINGLES"> F  </i>
   <i type="logical" name="LFERMIGW"> F  </i>
   <i type="logical" name="ODDONLYGW"> F  </i>
   <i type="logical" name="EVENONLYGW"> F  </i>
   <i type="int" name="NKREDLFX">     1</i>
   <i type="int" name="NKREDLFY">     1</i>
   <i type="int" name="NKREDLFZ">     1</i>
   <i type="int" name="MAXMEM">  2800</i>
   <i type="int" name="TELESCOPE">     0</i>
   <i type="int" name="TAUPAR">     1</i>
   <i type="int" name="OMEGAPAR">    -1</i>
   <i name="LAMBDA">      1.00000000</i>
  </separator>
  <separator name="External order field" >
   <i name="OFIELD_KAPPA">      0.00000000</i>
   <v name="OFIELD_K">      0.00000000      0.00000000      0.00000000</v>
   <i name="OFIELD_Q6_NEAR">      0.00000000</i>
   <i name="OFIELD_Q6_FAR">      0.00000000</i>
   <i name="OFIELD_A">      0.00000000</i>
  </separator>
 </parameters>
 <atominfo>
  <atoms>      59 </atoms>
  <types>       5 </types>
  <array name="atoms" >
   <dimension dim="1">ion</dimension>
   <field type="string">element</field>
   <field type="int">atomtype</field>
   <set>
    <rc><c>Li</c><c>   1</c></rc>
    <rc><c>Li</c><c>   1</c></rc>
    <rc><c>Li</c><c>   1</c></rc>
    <rc><c>Li</c><c>   1</c></rc>
    <rc><c>Li</c><c>   1</c></rc>
    <rc><c>Li</c><c>   1</c></rc>
    <rc><c>Mg</c><c>   2</c></rc>
    <rc><c>Mg</c><c>   2</c></rc>
    <rc><c>Mg</c><c>   2</c></rc>
    <rc><c>Mg</c><c>   2</c></rc>
    <rc><c>Mg</c><c>   2</c></rc>
    <rc><c>Bi</c><c>   3</c></rc>
    <rc><c>Bi</c><c>   3</c></rc>
    <rc><c>Bi</c><c>   3</c></rc>
    <rc><c>Bi</c><c>   3</c></rc>
    <rc><c>Bi</c><c>   3</c></rc>
    <rc><c>Bi</c><c>   3</c></rc>
    <rc><c>Bi</c><c>   3</c></rc>
    <rc><c>Bi</c><c>   3</c></rc>
    <rc><c>Bi</c><c>   3</c></rc>
    <rc><c>Bi</c><c>   3</c></rc>
    <rc><c>Bi</c><c>   3</c></rc>
    <rc><c>Bi</c><c>   3</c></rc>
    <rc><c>Bi</c><c>   3</c></rc>
    <rc><c>Bi</c><c>   3</c></rc>
    <rc><c>Bi</c><c>   3</c></rc>
    <rc><c>Bi</c><c>   3</c></rc>
    <rc><c>S </c><c>   4</c></rc>
    <rc><c>S </c><c>   4</c></rc>
    <rc><c>S </c><c>   4</c></rc>
    <rc><c>S </c><c>   4</c></rc>
    <rc><c>S </c><c>   4</c></rc>
    <rc><c>S </c><c>   4</c></rc>
    <rc><c>S </c><c>   4</c></rc>
    <rc><c>S </c><c>   4</c></rc>
    <rc><c>S </c><c>   4</c></rc>
    <rc><c>S </c><c>   4</c></rc>
    <rc><c>S </c><c>   4</c></rc>
    <rc><c>S </c><c>   4</c></rc>
    <rc><c>S </c><c>   4</c></rc>
    <rc><c>S </c><c>   4</c></rc>
    <rc><c>S </c><c>   4</c></rc>
    <rc><c>S </c><c>   4</c></rc>
    <rc><c>O </c><c>   5</c></rc>
    <rc><c>O </c><c>   5</c></rc>
    <rc><c>O </c><c>   5</c></rc>
    <rc><c>O </c><c>   5</c></rc>
    <rc><c>O </c><c>   5</c></rc>
    <rc><c>O </c><c>   5</c></rc>
    <rc><c>O </c><c>   5</c></rc>
    <rc><c>O </c><c>   5</c></rc>
    <rc><c>O </c><c>   5</c></rc>
    <rc><c>O </c><c>   5</c></rc>
    <rc><c>O </c><c>   5</c></rc>
    <rc><c>O </c><c>   5</c></rc>
    <rc><c>O </c><c>   5</c></rc>
    <rc><c>O </c><c>   5</c></rc>
    <rc><c>O </c><c>   5</c></rc>
    <rc><c>O </c><c>   5</c></rc>
   </set>
  </array>
  <array name="atomtypes" >
   <dimension dim="1">type</dimension>
   <field type="int">atomspertype</field>
   <field type="string">element</field>
   <field>mass</field>
   <field>valence</field>
   <field type="string">pseudopotential</field>
   <set>
    <rc><c>   6</c><c>Li</c><c>      7.01000000</c><c>      3.00000000</c><c>  PAW_PBE Li_sv 10Sep2004               </c></rc>
    <rc><c>   5</c><c>Mg</c><c>     24.30500000</c><c>      2.00000000</c><c>  PAW_PBE Mg 13Apr2007                  </c></rc>
    <rc><c>  16</c><c>Bi</c><c>    208.98000000</c><c>     15.00000000</c><c>  PAW_PBE Bi_d 06Sep2000                </c></rc>
    <rc><c>  16</c><c>S </c><c>     32.06600000</c><c>      6.00000000</c><c>  PAW_PBE S 06Sep2000                   </c></rc>
    <rc><c>  16</c><c>O </c><c>     16.00000000</c><c>      6.00000000</c><c>  PAW_PBE O 08Apr2002                   </c></rc>
   </set>
  </array>
 </atominfo>
 <structure name="initialpos" >
  <crystal>
   <varray name="basis" >
    <v>      11.17850000       0.00000000       0.00000000 </v>
    <v>       0.00000000       9.57460000       0.00000000 </v>
    <v>       0.00000000       0.00000000      11.18240000 </v>
   </varray>
   <i name="volume">   1196.84853820 </i>
   <varray name="rec_basis" >
    <v>       0.08945744       0.00000000       0.00000000 </v>
    <v>       0.00000000       0.10444301       0.00000000 </v>
    <v>       0.00000000       0.00000000       0.08942624 </v>
   </varray>
  </crystal>
  <varray name="positions" >
   <v>       0.12461000       0.99984000       0.18687000 </v>
   <v>       0.87461000       0.00017000       0.18687000 </v>
   <v>       0.12539000       0.99984000       0.93687000 </v>
   <v>       0.12461000       0.99984000       0.68687000 </v>
   <v>       0.87539000       0.00017000       0.93687000 </v>
   <v>       0.87461000       0.00017000       0.68687000 </v>
   <v>       0.37461000       0.00017000       0.18687000 </v>
   <v>       0.62539000       0.99984000       0.43687000 </v>
   <v>       0.87539000       0.00017000       0.43687000 </v>
   <v>       0.37461000       0.00017000       0.68687000 </v>
   <v>       0.62539000       0.99984000       0.93687000 </v>
   <v>       0.00013000       0.29519000       0.06281000 </v>
   <v>       0.25013000       0.70481000       0.06281000 </v>
   <v>       0.24987000       0.29519000       0.31282000 </v>
   <v>       0.49987000       0.70481000       0.31282000 </v>
   <v>       0.50013000       0.29519000       0.06281000 </v>
   <v>       0.75013000       0.70481000       0.06281000 </v>
   <v>       0.74987000       0.29519000       0.31282000 </v>
   <v>       0.99987000       0.70481000       0.31282000 </v>
   <v>       0.00013000       0.29519000       0.56281000 </v>
   <v>       0.25013000       0.70481000       0.56281000 </v>
   <v>       0.24987000       0.29519000       0.81282000 </v>
   <v>       0.49987000       0.70481000       0.81282000 </v>
   <v>       0.50013000       0.29519000       0.56281000 </v>
   <v>       0.75013000       0.70481000       0.56281000 </v>
   <v>       0.74987000       0.29519000       0.81282000 </v>
   <v>       0.99987000       0.70481000       0.81282000 </v>
   <v>       0.25005000       0.32677000       0.06286000 </v>
   <v>       0.00005000       0.67323000       0.06286000 </v>
   <v>       0.49995000       0.32677000       0.31286000 </v>
   <v>       0.24995000       0.67323000       0.31286000 </v>
   <v>       0.75005000       0.32677000       0.06286000 </v>
   <v>       0.50005000       0.67323000       0.06286000 </v>
   <v>       0.99995000       0.32677000       0.31286000 </v>
   <v>       0.74995000       0.67323000       0.31286000 </v>
   <v>       0.25005000       0.32677000       0.56286000 </v>
   <v>       0.00005000       0.67323000       0.56286000 </v>
   <v>       0.49995000       0.32677000       0.81286000 </v>
   <v>       0.24995000       0.67323000       0.81286000 </v>
   <v>       0.75005000       0.32677000       0.56286000 </v>
   <v>       0.50005000       0.67323000       0.56286000 </v>
   <v>       0.99995000       0.32677000       0.81286000 </v>
   <v>       0.74995000       0.67323000       0.81286000 </v>
   <v>       0.49987000       0.07798000       0.06246000 </v>
   <v>       0.24987000       0.92202000       0.06246000 </v>
   <v>       0.25013000       0.07798000       0.31246000 </v>
   <v>       0.00013000       0.92202000       0.31246000 </v>
   <v>       0.99987000       0.07798000       0.06246000 </v>
   <v>       0.74987000       0.92202000       0.06246000 </v>
   <v>       0.75013000       0.07798000       0.31246000 </v>
   <v>       0.50013000       0.92202000       0.31246000 </v>
   <v>       0.49987000       0.07798000       0.56246000 </v>
   <v>       0.24987000       0.92202000       0.56246000 </v>
   <v>       0.25013000       0.07798000       0.81246000 </v>
   <v>       0.00013000       0.92202000       0.81246000 </v>
   <v>       0.99987000       0.07798000       0.56246000 </v>
   <v>       0.74987000       0.92202000       0.56246000 </v>
   <v>       0.75013000       0.07798000       0.81246000 </v>
   <v>       0.50013000       0.92202000       0.81246000 </v>
  </varray>
 </structure>
 <calculation>
  <scstep>
   <time name="dav">   61.11   61.11</time>
   <time name="total">   61.19   61.20</time>
   <energy>
    <i name="alphaZ">   1060.66890660 </i>
    <i name="ewald"> -30391.43988702 </i>
    <i name="hartreedc"> -12726.33440605 </i>
    <i name="XCdc">   1247.19557870 </i>
    <i name="pawpsdc">  36635.26894311 </i>
    <i name="pawaedc"> -35972.74895369 </i>
    <i name="eentropy">      0.00000000 </i>
    <i name="bandstr">   1868.98395141 </i>
    <i name="atom">  44026.03258983 </i>
    <i name="e_fr_energy">   5747.62672288 </i>
    <i name="e_wo_entrp">   5747.62672288 </i>
    <i name="e_0_energy">   5747.62672288 </i>
   </energy>
  </scstep>
  <scstep>
   <time name="dav">   61.64   61.69</time>
   <time name="total">   61.65   61.70</time>
   <energy>
    <i name="e_fr_energy">    756.74449126 </i>
    <i name="e_wo_entrp">    756.74449126 </i>
    <i name="e_0_energy">    756.74449126 </i>
   </energy>
  </scstep>
  <scstep>
   <time name="dav">   70.51   70.52</time>
   <time name="total">   70.51   70.52</time>
   <energy>
    <i name="e_fr_energy">   -243.96574629 </i>
    <i name="e_wo_entrp">   -243.96574629 </i>
    <i name="e_0_energy">   -243.96574629 </i>
   </energy>
  </scstep>
  <scstep>
   <time name="dav">   72.94   72.97</time>
   <time name="total">   72.94   72.97</time>
   <energy>
    <i name="e_fr_energy">   -336.59328472 </i>
    <i name="e_wo_entrp">   -336.59328472 </i>
    <i name="e_0_energy">   -336.59328472 </i>
   </energy>
  </scstep>
  <scstep>
   <time name="dav">   94.80   94.85</time>
   <time name="total">   95.53   95.58</time>
   <energy>
    <i name="e_fr_energy">   -343.93125192 </i>
    <i name="e_wo_entrp">   -343.93125192 </i>
    <i name="e_0_energy">   -343.93125192 </i>
   </energy>
  </scstep>
  <scstep>
   <time name="dav">   87.04   87.17</time>
   <time name="total">   87.86   87.98</time>
   <energy>
    <i name="e_fr_energy">   -288.48682686 </i>
    <i name="e_wo_entrp">   -288.48682686 </i>
    <i name="e_0_energy">   -288.48682686 </i>
   </energy>
  </scstep>
  <scstep>
   <time name="dav">   66.29   66.50</time>
   <time name="total">   67.10   67.31</time>
   <energy>
    <i name="e_fr_energy">   -290.90270631 </i>
    <i name="e_wo_entrp">   -290.90270631 </i>
    <i name="e_0_energy">   -290.90270631 </i>
   </energy>
  </scstep>
  <scstep>
   <time name="dav">   79.20   79.27</time>
   <time name="total">   80.01   80.08</time>
   <energy>
    <i name="e_fr_energy">   -289.90567167 </i>
    <i name="e_wo_entrp">   -289.90567167 </i>
    <i name="e_0_energy">   -289.90567167 </i>
   </energy>
  </scstep>
  <scstep>
   <time name="dav">   76.83   76.84</time>
   <time name="total">   77.64   77.65</time>
   <energy>
    <i name="e_fr_energy">   -289.38965161 </i>
    <i name="e_wo_entrp">   -289.38965161 </i>
    <i name="e_0_energy">   -289.38965161 </i>
   </energy>
  </scstep>
  <scstep>
   <time name="dav">   72.37   72.37</time>
   <time name="total">   73.17   73.18</time>
   <energy>
    <i name="e_fr_energy">   -289.40737747 </i>
    <i name="e_wo_entrp">   -289.40737747 </i>
    <i name="e_0_energy">   -289.40737747 </i>
   </energy>
  </scstep>
  <scstep>
   <time name="dav">   84.01   84.04</time>
   <time name="total">   84.82   84.84</time>
   <energy>
    <i name="e_fr_energy">   -289.41520375 </i>
    <i name="e_wo_entrp">   -289.41520375 </i>
    <i name="e_0_energy">   -289.41520375 </i>
   </energy>
  </scstep>
  <scstep>
   <time name="dav">   77.25   77.26</time>
   <time name="total">   78.06   78.07</time>
   <energy>
    <i name="e_fr_energy">   -289.41809033 </i>
    <i name="e_wo_entrp">   -289.41809033 </i>
    <i name="e_0_energy">   -289.41809033 </i>
   </energy>
  </scstep>
  <scstep>
   <time name="dav">   76.36   76.37</time>
   <time name="total">   77.17   77.20</time>
   <energy>
    <i name="e_fr_energy">   -289.41922053 </i>
    <i name="e_wo_entrp">   -289.41922053 </i>
    <i name="e_0_energy">   -289.41922053 </i>
   </energy>
  </scstep>
  <scstep>
   <time name="dav">   79.32   79.31</time>
   <time name="total">   80.13   80.13</time>
   <energy>
    <i name="e_fr_energy">   -289.41936576 </i>
    <i name="e_wo_entrp">   -289.41936576 </i>
    <i name="e_0_energy">   -289.41936576 </i>
   </energy>
  </scstep>
  <scstep>
   <time name="dav">   87.29   87.31</time>
   <time name="total">   88.11   88.13</time>
   <energy>
    <i name="e_fr_energy">   -289.41939954 </i>
    <i name="e_wo_entrp">   -289.41939954 </i>
    <i name="e_0_energy">   -289.41939954 </i>
   </energy>
  </scstep>
  <scstep>
   <time name="dav">   63.94   63.96</time>
   <time name="total">   64.75   64.78</time>
   <energy>
    <i name="e_fr_energy">   -289.41941751 </i>
    <i name="e_wo_entrp">   -289.41941751 </i>
    <i name="e_0_energy">   -289.41941751 </i>
   </energy>
  </scstep>
  <scstep>
   <time name="dav">   68.67   68.70</time>
   <time name="total">   69.48   69.52</time>
   <energy>
    <i name="e_fr_energy">   -289.41942036 </i>
    <i name="e_wo_entrp">   -289.41942036 </i>
    <i name="e_0_energy">   -289.41942036 </i>
   </energy>
  </scstep>
  <scstep>
   <time name="dav">   59.30   59.31</time>
   <time name="total">   59.37   59.38</time>
   <energy>
    <i name="alphaZ">   1060.66890660 </i>
    <i name="ewald"> -30391.43988702 </i>
    <i name="hartreedc"> -12966.41144397 </i>
    <i name="XCdc">   1271.97144295 </i>
    <i name="pawpsdc">  43656.68059317 </i>
    <i name="pawaedc"> -42967.27986228 </i>
    <i name="eentropy">      0.00000000 </i>
    <i name="bandstr">  -3979.64176005 </i>
    <i name="atom">  44026.03258983 </i>
    <i name="e_fr_energy">   -289.41942079 </i>
    <i name="e_wo_entrp">   -289.41942079 </i>
    <i name="e_0_energy">   -289.41942079 </i>
   </energy>
  </scstep>
  <structure>
   <crystal>
    <varray name="basis" >
     <v>      11.17850000       0.00000000       0.00000000 </v>
     <v>       0.00000000       9.57460000       0.00000000 </v>
     <v>       0.00000000       0.00000000      11.18240000 </v>
    </varray>
    <i name="volume">   1196.84853820 </i>
    <varray name="rec_basis" >
     <v>       0.08945744       0.00000000       0.00000000 </v>
     <v>       0.00000000       0.10444301       0.00000000 </v>
     <v>       0.00000000       0.00000000       0.08942624 </v>
    </varray>
   </crystal>
   <varray name="positions" >
    <v>       0.12461000       0.99984000       0.18687000 </v>
    <v>       0.87461000       0.00017000       0.18687000 </v>
    <v>       0.12539000       0.99984000       0.93687000 </v>
    <v>       0.12461000       0.99984000       0.68687000 </v>
    <v>       0.87539000       0.00017000       0.93687000 </v>
    <v>       0.87461000       0.00017000       0.68687000 </v>
    <v>       0.37461000       0.00017000       0.18687000 </v>
    <v>       0.62539000       0.99984000       0.43687000 </v>
    <v>       0.87539000       0.00017000       0.43687000 </v>
    <v>       0.37461000       0.00017000       0.68687000 </v>
    <v>       0.62539000       0.99984000       0.93687000 </v>
    <v>       0.00013000       0.29519000       0.06281000 </v>
    <v>       0.25013000       0.70481000       0.06281000 </v>
    <v>       0.24987000       0.29519000       0.31282000 </v>
    <v>       0.49987000       0.70481000       0.31282000 </v>
    <v>       0.50013000       0.29519000       0.06281000 </v>
    <v>       0.75013000       0.70481000       0.06281000 </v>
    <v>       0.74987000       0.29519000       0.31282000 </v>
    <v>       0.99987000       0.70481000       0.31282000 </v>
    <v>       0.00013000       0.29519000       0.56281000 </v>
    <v>       0.25013000       0.70481000       0.56281000 </v>
    <v>       0.24987000       0.29519000       0.81282000 </v>
    <v>       0.49987000       0.70481000       0.81282000 </v>
    <v>       0.50013000       0.29519000       0.56281000 </v>
    <v>       0.75013000       0.70481000       0.56281000 </v>
    <v>       0.74987000       0.29519000       0.81282000 </v>
    <v>       0.99987000       0.70481000       0.81282000 </v>
    <v>       0.25005000       0.32677000       0.06286000 </v>
    <v>       0.00005000       0.67323000       0.06286000 </v>
    <v>       0.49995000       0.32677000       0.31286000 </v>
    <v>       0.24995000       0.67323000       0.31286000 </v>
    <v>       0.75005000       0.32677000       0.06286000 </v>
    <v>       0.50005000       0.67323000       0.06286000 </v>
    <v>       0.99995000       0.32677000       0.31286000 </v>
    <v>       0.74995000       0.67323000       0.31286000 </v>
    <v>       0.25005000       0.32677000       0.56286000 </v>
    <v>       0.00005000       0.67323000       0.56286000 </v>
    <v>       0.49995000       0.32677000       0.81286000 </v>
    <v>       0.24995000       0.67323000       0.81286000 </v>
    <v>       0.75005000       0.32677000       0.56286000 </v>
    <v>       0.50005000       0.67323000       0.56286000 </v>
    <v>       0.99995000       0.32677000       0.81286000 </v>
    <v>       0.74995000       0.67323000       0.81286000 </v>
    <v>       0.49987000       0.07798000       0.06246000 </v>
    <v>       0.24987000       0.92202000       0.06246000 </v>
    <v>       0.25013000       0.07798000       0.31246000 </v>
    <v>       0.00013000       0.92202000       0.31246000 </v>
    <v>       0.99987000       0.07798000       0.06246000 </v>
    <v>       0.74987000       0.92202000       0.06246000 </v>
    <v>       0.75013000       0.07798000       0.31246000 </v>
    <v>       0.50013000       0.92202000       0.31246000 </v>
    <v>       0.49987000       0.07798000       0.56246000 </v>
    <v>       0.24987000       0.92202000       0.56246000 </v>
    <v>       0.25013000       0.07798000       0.81246000 </v>
    <v>       0.00013000       0.92202000       0.81246000 </v>
    <v>       0.99987000       0.07798000       0.56246000 </v>
    <v>       0.74987000       0.92202000       0.56246000 </v>
    <v>       0.75013000       0.07798000       0.81246000 </v>
    <v>       0.50013000       0.92202000       0.81246000 </v>
   </varray>
  </structure>
  <varray name="forces" >
   <v>      -0.02615694       0.06377568       0.41525956 </v>
   <v>      -0.12906653      -0.06753857      -0.32710603 </v>
   <v>       0.37450938       0.00086075       0.00434613 </v>
   <v>      -0.02598836      -0.06228471      -0.40149868 </v>
   <v>       0.17100489      -0.00125086       0.00733872 </v>
   <v>      -0.12976791       0.06386137       0.33574470 </v>
   <v>       0.37470555       0.11060401       0.22585788 </v>
   <v>      -1.73766653       0.00041841       0.03060141 </v>
   <v>       1.59377056      -0.00817724       0.03519727 </v>
   <v>       0.37492416      -0.11784747      -0.16489978 </v>
   <v>      -0.73407166       0.00285513       0.03011462 </v>
   <v>       0.13826929       0.03357672      -0.03005433 </v>
   <v>       0.00397100       0.00339817      -0.16582159 </v>
   <v>      -0.06947271      -1.00290818       0.31746595 </v>
   <v>      -0.25446782       0.08132187      -0.00659090 </v>
   <v>      -0.15623104      -0.11340287      -0.00758895 </v>
   <v>      -0.01296368      -0.01401366       0.11428339 </v>
   <v>      -0.10386650       1.08784423      -0.36481922 </v>
   <v>       0.45098753      -0.01312428       0.01801116 </v>
   <v>       0.43258720       0.01696780      -0.02642470 </v>
   <v>      -0.08667029       0.97731333      -0.33015443 </v>
   <v>       0.02078766      -0.02150612       0.15745442 </v>
   <v>      -0.15227291       0.11328007      -0.00226524 </v>
   <v>      -0.25592114      -0.08145468      -0.00283403 </v>
   <v>      -0.11424738      -1.05690281       0.35608184 </v>
   <v>       0.00303552       0.03265087      -0.12471960 </v>
   <v>       0.15015324      -0.03319754       0.02152027 </v>
   <v>      -0.00345439       0.19936985      -0.05038174 </v>
   <v>      -0.07586384      -0.19590230      -0.00243752 </v>
   <v>       0.26571429       0.10180477       0.01512725 </v>
   <v>       0.02557207      -0.15461790      -0.16591814 </v>
   <v>       0.00184994       0.12134958       0.01847803 </v>
   <v>       0.07647094      -0.09509937      -0.00072555 </v>
   <v>      -0.31981586       0.12404300       0.03360277 </v>
   <v>       0.03224002      -0.05731028       0.19325856 </v>
   <v>       0.02421293       0.15235669       0.16514190 </v>
   <v>      -0.31426343      -0.12620860      -0.03287790 </v>
   <v>       0.08407817       0.09477652      -0.00085097 </v>
   <v>      -0.00320481      -0.19979824       0.04804499 </v>
   <v>       0.03304515       0.05934408      -0.19355563 </v>
   <v>       0.25635940      -0.10277146      -0.01618461 </v>
   <v>      -0.07843907       0.19539434       0.00139276 </v>
   <v>       0.00141925      -0.12063037      -0.01771858 </v>
   <v>       0.10288145       0.29728475      -0.03936039 </v>
   <v>      -0.15669328      -0.12236914       1.00061190 </v>
   <v>       0.43471640       0.78030656      -1.66285697 </v>
   <v>      -1.32003394       0.00248216      -0.12084400 </v>
   <v>      -0.08342147      -0.02230530      -0.00158596 </v>
   <v>       0.16558591      -0.00880419      -1.04542446 </v>
   <v>       0.58294982      -0.86057169       1.59433090 </v>
   <v>       0.21870276      -0.28211492       0.04386392 </v>
   <v>       0.24542590       0.28366042      -0.06624705 </v>
   <v>       0.43999146      -0.77392662       1.65785423 </v>
   <v>      -0.16362472       0.12516935      -1.01036275 </v>
   <v>      -0.09537916       0.02292913      -0.00118118 </v>
   <v>      -1.31088386      -0.00517934       0.11225916 </v>
   <v>       0.60090135       0.86243066      -1.62309582 </v>
   <v>       0.15861601       0.00645428       1.03697551 </v>
   <v>       0.07447003      -0.29666583       0.01616751 </v>
  </varray>
  <varray name="stress" >
   <v>      -4.62526026       0.17994491       0.00800584 </v>
   <v>       0.17994509     -13.61330708      -0.44308613 </v>
   <v>       0.00800593      -0.44308639     -12.83298500 </v>
  </varray>
  <energy>
   <i name="e_fr_energy">   -302.00117169 </i>
   <i name="e_wo_entrp">   -302.00117169 </i>
   <i name="e_0_energy">      0.00000000 </i>
  </energy>
  <time name="totalsc"> 1459.51 1460.24</time>
  <eigenvalues>
   <array>
    <dimension dim="1">band</dimension>
    <dimension dim="2">kpoint</dimension>
    <dimension dim="3">spin</dimension>
    <field>eigene</field>
    <field>occ</field>
    <set>
     <set comment="spin 1">
      <set comment="kpoint 1">
       <r>  -40.0663    1.0000 </r>
       <r>  -40.0660    1.0000 </r>
       <r>  -39.9260    1.0000 </r>
       <r>  -39.7562    1.0000 </r>
       <r>  -39.6521    1.0000 </r>
       <r>  -39.6516    1.0000 </r>
       <r>  -18.9920    1.0000 </r>
       <r>  -18.9851    1.0000 </r>
       <r>  -18.9117    1.0000 </r>
       <r>  -18.9074    1.0000 </r>
       <r>  -18.9045    1.0000 </r>
       <r>  -18.9001    1.0000 </r>
       <r>  -18.8129    1.0000 </r>
       <r>  -18.8072    1.0000 </r>
       <r>  -18.7997    1.0000 </r>
       <r>  -18.7939    1.0000 </r>
       <r>  -18.7537    1.0000 </r>
       <r>  -18.7504    1.0000 </r>
       <r>  -18.7438    1.0000 </r>
       <r>  -18.7406    1.0000 </r>
       <r>  -18.7366    1.0000 </r>
       <r>  -18.7324    1.0000 </r>
       <r>  -18.6919    1.0000 </r>
       <r>  -18.6905    1.0000 </r>
       <r>  -18.6836    1.0000 </r>
       <r>  -18.6822    1.0000 </r>
       <r>  -18.6792    1.0000 </r>
       <r>  -18.6786    1.0000 </r>
       <r>  -18.6773    1.0000 </r>
       <r>  -18.6756    1.0000 </r>
       <r>  -18.6693    1.0000 </r>
       <r>  -18.6690    1.0000 </r>
       <r>  -18.6641    1.0000 </r>
       <r>  -18.6633    1.0000 </r>
       <r>  -18.6600    1.0000 </r>
       <r>  -18.6596    1.0000 </r>
       <r>  -18.6573    1.0000 </r>
       <r>  -18.6566    1.0000 </r>
       <r>  -18.6549    1.0000 </r>
       <r>  -18.6544    1.0000 </r>
       <r>  -18.6480    1.0000 </r>
       <r>  -18.6475    1.0000 </r>
       <r>  -18.6410    1.0000 </r>
       <r>  -18.6401    1.0000 </r>
       <r>  -18.6348    1.0000 </r>
       <r>  -18.6342    1.0000 </r>
       <r>  -18.6036    1.0000 </r>
       <r>  -18.6011    1.0000 </r>
       <r>  -18.5976    1.0000 </r>
       <r>  -18.5935    1.0000 </r>
       <r>  -18.5902    1.0000 </r>
       <r>  -18.5878    1.0000 </r>
       <r>  -18.5800    1.0000 </r>
       <r>  -18.5800    1.0000 </r>
       <r>  -18.5764    1.0000 </r>
       <r>  -18.5759    1.0000 </r>
       <r>  -18.5372    1.0000 </r>
       <r>  -18.5354    1.0000 </r>
       <r>  -18.5243    1.0000 </r>
       <r>  -18.5224    1.0000 </r>
       <r>  -18.5157    1.0000 </r>
       <r>  -18.5145    1.0000 </r>
       <r>  -18.5129    1.0000 </r>
       <r>  -18.5125    1.0000 </r>
       <r>  -18.5123    1.0000 </r>
       <r>  -18.5112    1.0000 </r>
       <r>  -18.5037    1.0000 </r>
       <r>  -18.5028    1.0000 </r>
       <r>  -18.4835    1.0000 </r>
       <r>  -18.4824    1.0000 </r>
       <r>  -18.4763    1.0000 </r>
       <r>  -18.4753    1.0000 </r>
       <r>  -18.4526    1.0000 </r>
       <r>  -18.4485    1.0000 </r>
       <r>  -18.4471    1.0000 </r>
       <r>  -18.4437    1.0000 </r>
       <r>  -18.4393    1.0000 </r>
       <r>  -18.4352    1.0000 </r>
       <r>  -18.4288    1.0000 </r>
       <r>  -18.4252    1.0000 </r>
       <r>  -18.3699    1.0000 </r>
       <r>  -18.3641    1.0000 </r>
       <r>  -18.2506    1.0000 </r>
       <r>  -18.2453    1.0000 </r>
       <r>  -18.2372    1.0000 </r>
       <r>  -18.2319    1.0000 </r>
       <r>  -13.7192    1.0000 </r>
       <r>  -13.5705    1.0000 </r>
       <r>  -12.9439    1.0000 </r>
       <r>  -12.8324    1.0000 </r>
       <r>  -12.8054    1.0000 </r>
       <r>  -12.7952    1.0000 </r>
       <r>  -12.7399    1.0000 </r>
       <r>  -12.7292    1.0000 </r>
       <r>  -12.7073    1.0000 </r>
       <r>  -12.6952    1.0000 </r>
       <r>  -12.6615    1.0000 </r>
       <r>  -12.6177    1.0000 </r>
       <r>  -12.6170    1.0000 </r>
       <r>  -12.5975    1.0000 </r>
       <r>  -12.0943    1.0000 </r>
       <r>  -12.0470    1.0000 </r>
       <r>   -9.3658    1.0000 </r>
       <r>   -9.0701    1.0000 </r>
       <r>   -8.5720    1.0000 </r>
       <r>   -8.5338    1.0000 </r>
       <r>   -8.5186    1.0000 </r>
       <r>   -8.4809    1.0000 </r>
       <r>   -8.3503    1.0000 </r>
       <r>   -8.3133    1.0000 </r>
       <r>   -8.2921    1.0000 </r>
       <r>   -8.2563    1.0000 </r>
       <r>   -8.0640    1.0000 </r>
       <r>   -8.0633    1.0000 </r>
       <r>   -8.0278    1.0000 </r>
       <r>   -8.0254    1.0000 </r>
       <r>   -7.3918    1.0000 </r>
       <r>   -7.3910    1.0000 </r>
       <r>   -6.4182    1.0000 </r>
       <r>   -6.4143    1.0000 </r>
       <r>   -6.3684    1.0000 </r>
       <r>   -6.3672    1.0000 </r>
       <r>   -5.5663    1.0000 </r>
       <r>   -5.5307    1.0000 </r>
       <r>   -5.3960    1.0000 </r>
       <r>   -5.3697    1.0000 </r>
       <r>   -5.3665    1.0000 </r>
       <r>   -5.2838    1.0000 </r>
       <r>   -5.2452    1.0000 </r>
       <r>   -5.1988    1.0000 </r>
       <r>   -5.1654    1.0000 </r>
       <r>   -5.1043    1.0000 </r>
       <r>   -3.8451    1.0000 </r>
       <r>   -3.6967    1.0000 </r>
       <r>   -1.4889    1.0000 </r>
       <r>   -1.3734    1.0000 </r>
       <r>   -1.1355    1.0000 </r>
       <r>   -1.0413    1.0000 </r>
       <r>   -0.5904    1.0000 </r>
       <r>   -0.5683    1.0000 </r>
       <r>   -0.5282    1.0000 </r>
       <r>   -0.5036    1.0000 </r>
       <r>   -0.2191    1.0000 </r>
       <r>   -0.2057    1.0000 </r>
       <r>   -0.1967    1.0000 </r>
       <r>   -0.1877    1.0000 </r>
       <r>   -0.1703    1.0000 </r>
       <r>    0.2121    1.0000 </r>
       <r>    0.2674    1.0000 </r>
       <r>    0.3742    1.0000 </r>
       <r>    0.4578    1.0000 </r>
       <r>    0.5450    1.0000 </r>
       <r>    0.5514    1.0000 </r>
       <r>    0.5980    1.0000 </r>
       <r>    0.6508    1.0000 </r>
       <r>    0.6773    1.0000 </r>
       <r>    0.7082    1.0000 </r>
       <r>    0.7600    1.0000 </r>
       <r>    0.7634    1.0000 </r>
       <r>    0.8110    1.0000 </r>
       <r>    0.8425    1.0000 </r>
       <r>    0.9029    1.0000 </r>
       <r>    0.9084    1.0000 </r>
       <r>    0.9561    1.0000 </r>
       <r>    1.0132    1.0000 </r>
       <r>    1.0328    1.0000 </r>
       <r>    1.0583    1.0000 </r>
       <r>    1.0606    1.0000 </r>
       <r>    1.1087    1.0000 </r>
       <r>    1.2125    1.0000 </r>
       <r>    1.2354    1.0000 </r>
       <r>    1.3277    1.0000 </r>
       <r>    1.3645    1.0000 </r>
       <r>    1.4187    1.0000 </r>
       <r>    1.4560    1.0000 </r>
       <r>    1.4888    1.0000 </r>
       <r>    1.5549    1.0000 </r>
       <r>    1.6169    1.0000 </r>
       <r>    1.6809    1.0000 </r>
       <r>    1.6926    1.0000 </r>
       <r>    1.7228    1.0000 </r>
       <r>    1.7948    1.0000 </r>
       <r>    1.8170    1.0000 </r>
       <r>    1.8400    1.0000 </r>
       <r>    1.8880    1.0000 </r>
       <r>    1.9572    1.0000 </r>
       <r>    1.9693    1.0000 </r>
       <r>    2.0338    1.0000 </r>
       <r>    2.2113    1.0000 </r>
       <r>    2.2424    1.0000 </r>
       <r>    2.3262    1.0000 </r>
       <r>    2.3986    1.0000 </r>
       <r>    2.5262    1.0000 </r>
       <r>    2.5282    1.0000 </r>
       <r>    2.5329    1.0000 </r>
       <r>    2.5478    1.0000 </r>
       <r>    2.5679    1.0000 </r>
       <r>    2.5804    1.0000 </r>
       <r>    2.5995    1.0000 </r>
       <r>    2.6238    1.0000 </r>
       <r>    2.6473    1.0000 </r>
       <r>    2.6935    1.0000 </r>
       <r>    2.7171    1.0000 </r>
       <r>    2.7550    1.0000 </r>
       <r>    2.7814    1.0000 </r>
       <r>    2.8456    1.0000 </r>
       <r>    2.8519    1.0000 </r>
       <r>    2.8532    1.0000 </r>
       <r>    2.9316    1.0000 </r>
       <r>    2.9626    1.0000 </r>
       <r>    3.0166    1.0000 </r>
       <r>    3.0262    1.0000 </r>
       <r>    3.0414    1.0000 </r>
       <r>    3.0717    1.0000 </r>
       <r>    3.1077    1.0000 </r>
       <r>    3.1167    1.0000 </r>
       <r>    3.1349    1.0000 </r>
       <r>    3.1468    1.0000 </r>
       <r>    3.1908    1.0000 </r>
       <r>    3.1950    1.0000 </r>
       <r>    3.2336    1.0000 </r>
       <r>    3.2916    1.0000 </r>
       <r>    3.4014    1.0000 </r>
       <r>    3.4127    1.0000 </r>
       <r>    3.4413    1.0000 </r>
       <r>    3.5190    1.0000 </r>
       <r>    4.1481    1.0000 </r>
       <r>    4.1582    1.0000 </r>
       <r>    4.1875    1.0000 </r>
       <r>    4.1972    1.0000 </r>
       <r>    5.0112    0.0000 </r>
       <r>    5.0134    0.0000 </r>
       <r>    5.1228    0.0000 </r>
       <r>    5.1278    0.0000 </r>
       <r>    5.7096    0.0000 </r>
       <r>    5.7185    0.0000 </r>
       <r>    5.7858    0.0000 </r>
       <r>    5.7895    0.0000 </r>
       <r>    6.0725    0.0000 </r>
       <r>    6.0803    0.0000 </r>
       <r>    6.1128    0.0000 </r>
       <r>    6.1263    0.0000 </r>
       <r>    6.1985    0.0000 </r>
       <r>    6.2033    0.0000 </r>
       <r>    6.2305    0.0000 </r>
       <r>    6.2339    0.0000 </r>
       <r>    7.0325    0.0000 </r>
       <r>    7.1116    0.0000 </r>
       <r>    7.2167    0.0000 </r>
       <r>    7.2743    0.0000 </r>
       <r>    7.7707    0.0000 </r>
       <r>    7.8054    0.0000 </r>
       <r>    7.8927    0.0000 </r>
       <r>    7.8968    0.0000 </r>
       <r>    7.9283    0.0000 </r>
       <r>    7.9722    0.0000 </r>
       <r>    8.0789    0.0000 </r>
       <r>    8.1310    0.0000 </r>
       <r>    8.2820    0.0000 </r>
       <r>    8.5003    0.0000 </r>
       <r>    8.6248    0.0000 </r>
       <r>    8.7397    0.0000 </r>
       <r>    8.7583    0.0000 </r>
       <r>    8.8211    0.0000 </r>
       <r>    8.8761    0.0000 </r>
       <r>    8.9677    0.0000 </r>
       <r>    8.9783    0.0000 </r>
       <r>    9.0132    0.0000 </r>
       <r>    9.0256    0.0000 </r>
       <r>    9.0662    0.0000 </r>
       <r>    9.1055    0.0000 </r>
       <r>    9.1292    0.0000 </r>
       <r>    9.1849    0.0000 </r>
       <r>    9.2194    0.0000 </r>
       <r>    9.3599    0.0000 </r>
       <r>    9.4708    0.0000 </r>
       <r>    9.4795    0.0000 </r>
       <r>    9.5150    0.0000 </r>
       <r>    9.7159    0.0000 </r>
       <r>    9.7416    0.0000 </r>
      </set>
      <set comment="kpoint 2">
       <r>  -40.0663    1.0000 </r>
       <r>  -40.0660    1.0000 </r>
       <r>  -39.9260    1.0000 </r>
       <r>  -39.7562    1.0000 </r>
       <r>  -39.6521    1.0000 </r>
       <r>  -39.6516    1.0000 </r>
       <r>  -18.9920    1.0000 </r>
       <r>  -18.9851    1.0000 </r>
       <r>  -18.9116    1.0000 </r>
       <r>  -18.9074    1.0000 </r>
       <r>  -18.9044    1.0000 </r>
       <r>  -18.9001    1.0000 </r>
       <r>  -18.8129    1.0000 </r>
       <r>  -18.8072    1.0000 </r>
       <r>  -18.7997    1.0000 </r>
       <r>  -18.7939    1.0000 </r>
       <r>  -18.7535    1.0000 </r>
       <r>  -18.7502    1.0000 </r>
       <r>  -18.7438    1.0000 </r>
       <r>  -18.7405    1.0000 </r>
       <r>  -18.7365    1.0000 </r>
       <r>  -18.7323    1.0000 </r>
       <r>  -18.6921    1.0000 </r>
       <r>  -18.6908    1.0000 </r>
       <r>  -18.6838    1.0000 </r>
       <r>  -18.6823    1.0000 </r>
       <r>  -18.6793    1.0000 </r>
       <r>  -18.6787    1.0000 </r>
       <r>  -18.6774    1.0000 </r>
       <r>  -18.6757    1.0000 </r>
       <r>  -18.6699    1.0000 </r>
       <r>  -18.6696    1.0000 </r>
       <r>  -18.6640    1.0000 </r>
       <r>  -18.6632    1.0000 </r>
       <r>  -18.6596    1.0000 </r>
       <r>  -18.6592    1.0000 </r>
       <r>  -18.6568    1.0000 </r>
       <r>  -18.6562    1.0000 </r>
       <r>  -18.6554    1.0000 </r>
       <r>  -18.6548    1.0000 </r>
       <r>  -18.6477    1.0000 </r>
       <r>  -18.6472    1.0000 </r>
       <r>  -18.6409    1.0000 </r>
       <r>  -18.6400    1.0000 </r>
       <r>  -18.6347    1.0000 </r>
       <r>  -18.6341    1.0000 </r>
       <r>  -18.6036    1.0000 </r>
       <r>  -18.6010    1.0000 </r>
       <r>  -18.5976    1.0000 </r>
       <r>  -18.5935    1.0000 </r>
       <r>  -18.5904    1.0000 </r>
       <r>  -18.5879    1.0000 </r>
       <r>  -18.5800    1.0000 </r>
       <r>  -18.5800    1.0000 </r>
       <r>  -18.5764    1.0000 </r>
       <r>  -18.5759    1.0000 </r>
       <r>  -18.5372    1.0000 </r>
       <r>  -18.5354    1.0000 </r>
       <r>  -18.5243    1.0000 </r>
       <r>  -18.5224    1.0000 </r>
       <r>  -18.5157    1.0000 </r>
       <r>  -18.5145    1.0000 </r>
       <r>  -18.5129    1.0000 </r>
       <r>  -18.5125    1.0000 </r>
       <r>  -18.5123    1.0000 </r>
       <r>  -18.5112    1.0000 </r>
       <r>  -18.5037    1.0000 </r>
       <r>  -18.5028    1.0000 </r>
       <r>  -18.4835    1.0000 </r>
       <r>  -18.4824    1.0000 </r>
       <r>  -18.4763    1.0000 </r>
       <r>  -18.4753    1.0000 </r>
       <r>  -18.4526    1.0000 </r>
       <r>  -18.4485    1.0000 </r>
       <r>  -18.4471    1.0000 </r>
       <r>  -18.4437    1.0000 </r>
       <r>  -18.4393    1.0000 </r>
       <r>  -18.4352    1.0000 </r>
       <r>  -18.4288    1.0000 </r>
       <r>  -18.4252    1.0000 </r>
       <r>  -18.3699    1.0000 </r>
       <r>  -18.3641    1.0000 </r>
       <r>  -18.2506    1.0000 </r>
       <r>  -18.2453    1.0000 </r>
       <r>  -18.2372    1.0000 </r>
       <r>  -18.2319    1.0000 </r>
       <r>  -13.7191    1.0000 </r>
       <r>  -13.5704    1.0000 </r>
       <r>  -12.9339    1.0000 </r>
       <r>  -12.8570    1.0000 </r>
       <r>  -12.8004    1.0000 </r>
       <r>  -12.7893    1.0000 </r>
       <r>  -12.7468    1.0000 </r>
       <r>  -12.7273    1.0000 </r>
       <r>  -12.7064    1.0000 </r>
       <r>  -12.6839    1.0000 </r>
       <r>  -12.6589    1.0000 </r>
       <r>  -12.6223    1.0000 </r>
       <r>  -12.6191    1.0000 </r>
       <r>  -12.5971    1.0000 </r>
       <r>  -12.0942    1.0000 </r>
       <r>  -12.0470    1.0000 </r>
       <r>   -9.2215    1.0000 </r>
       <r>   -9.0618    1.0000 </r>
       <r>   -8.9457    1.0000 </r>
       <r>   -8.7827    1.0000 </r>
       <r>   -8.4378    1.0000 </r>
       <r>   -8.4263    1.0000 </r>
       <r>   -8.3011    1.0000 </r>
       <r>   -8.2911    1.0000 </r>
       <r>   -8.2369    1.0000 </r>
       <r>   -8.2261    1.0000 </r>
       <r>   -8.0965    1.0000 </r>
       <r>   -8.0866    1.0000 </r>
       <r>   -7.7863    1.0000 </r>
       <r>   -7.6739    1.0000 </r>
       <r>   -7.6697    1.0000 </r>
       <r>   -7.5563    1.0000 </r>
       <r>   -6.0670    1.0000 </r>
       <r>   -6.0612    1.0000 </r>
       <r>   -5.8726    1.0000 </r>
       <r>   -5.8659    1.0000 </r>
       <r>   -5.8311    1.0000 </r>
       <r>   -5.8289    1.0000 </r>
       <r>   -5.7642    1.0000 </r>
       <r>   -5.7003    1.0000 </r>
       <r>   -5.6891    1.0000 </r>
       <r>   -5.6791    1.0000 </r>
       <r>   -5.5771    1.0000 </r>
       <r>   -5.4966    1.0000 </r>
       <r>   -4.5426    1.0000 </r>
       <r>   -4.3847    1.0000 </r>
       <r>   -4.3835    1.0000 </r>
       <r>   -4.2144    1.0000 </r>
       <r>   -1.2970    1.0000 </r>
       <r>   -1.0900    1.0000 </r>
       <r>   -0.9324    1.0000 </r>
       <r>   -0.7567    1.0000 </r>
       <r>   -0.4850    1.0000 </r>
       <r>   -0.3693    1.0000 </r>
       <r>   -0.1977    1.0000 </r>
       <r>   -0.0102    1.0000 </r>
       <r>    0.0029    1.0000 </r>
       <r>    0.0370    1.0000 </r>
       <r>    0.1260    1.0000 </r>
       <r>    0.1550    1.0000 </r>
       <r>    0.1920    1.0000 </r>
       <r>    0.2272    1.0000 </r>
       <r>    0.3354    1.0000 </r>
       <r>    0.3382    1.0000 </r>
       <r>    0.3765    1.0000 </r>
       <r>    0.4762    1.0000 </r>
       <r>    0.4878    1.0000 </r>
       <r>    0.5492    1.0000 </r>
       <r>    0.5742    1.0000 </r>
       <r>    0.5796    1.0000 </r>
       <r>    0.5933    1.0000 </r>
       <r>    0.6067    1.0000 </r>
       <r>    0.6779    1.0000 </r>
       <r>    0.8010    1.0000 </r>
       <r>    0.8392    1.0000 </r>
       <r>    0.9458    1.0000 </r>
       <r>    0.9763    1.0000 </r>
       <r>    1.0012    1.0000 </r>
       <r>    1.1045    1.0000 </r>
       <r>    1.1103    1.0000 </r>
       <r>    1.1291    1.0000 </r>
       <r>    1.1513    1.0000 </r>
       <r>    1.1689    1.0000 </r>
       <r>    1.2152    1.0000 </r>
       <r>    1.2235    1.0000 </r>
       <r>    1.2683    1.0000 </r>
       <r>    1.3327    1.0000 </r>
       <r>    1.3529    1.0000 </r>
       <r>    1.4012    1.0000 </r>
       <r>    1.4499    1.0000 </r>
       <r>    1.4583    1.0000 </r>
       <r>    1.5274    1.0000 </r>
       <r>    1.5384    1.0000 </r>
       <r>    1.5624    1.0000 </r>
       <r>    1.7088    1.0000 </r>
       <r>    1.7300    1.0000 </r>
       <r>    1.7727    1.0000 </r>
       <r>    1.7901    1.0000 </r>
       <r>    1.8352    1.0000 </r>
       <r>    1.9139    1.0000 </r>
       <r>    1.9155    1.0000 </r>
       <r>    1.9370    1.0000 </r>
       <r>    2.0315    1.0000 </r>
       <r>    2.0381    1.0000 </r>
       <r>    2.0739    1.0000 </r>
       <r>    2.1602    1.0000 </r>
       <r>    2.2011    1.0000 </r>
       <r>    2.2449    1.0000 </r>
       <r>    2.2933    1.0000 </r>
       <r>    2.2940    1.0000 </r>
       <r>    2.3975    1.0000 </r>
       <r>    2.4402    1.0000 </r>
       <r>    2.4455    1.0000 </r>
       <r>    2.4886    1.0000 </r>
       <r>    2.5643    1.0000 </r>
       <r>    2.5851    1.0000 </r>
       <r>    2.5917    1.0000 </r>
       <r>    2.6209    1.0000 </r>
       <r>    2.7092    1.0000 </r>
       <r>    2.7402    1.0000 </r>
       <r>    2.7522    1.0000 </r>
       <r>    2.7821    1.0000 </r>
       <r>    2.7937    1.0000 </r>
       <r>    2.8530    1.0000 </r>
       <r>    2.8776    1.0000 </r>
       <r>    2.8801    1.0000 </r>
       <r>    2.9685    1.0000 </r>
       <r>    2.9709    1.0000 </r>
       <r>    3.0023    1.0000 </r>
       <r>    3.0772    1.0000 </r>
       <r>    3.1076    1.0000 </r>
       <r>    3.1265    1.0000 </r>
       <r>    3.1639    1.0000 </r>
       <r>    3.3058    1.0000 </r>
       <r>    3.3187    1.0000 </r>
       <r>    3.3550    1.0000 </r>
       <r>    3.3942    1.0000 </r>
       <r>    3.4317    1.0000 </r>
       <r>    3.4986    1.0000 </r>
       <r>    3.5027    1.0000 </r>
       <r>    3.5424    1.0000 </r>
       <r>    3.5503    1.0000 </r>
       <r>    3.6137    1.0000 </r>
       <r>    3.7184    1.0000 </r>
       <r>    5.5244    0.0000 </r>
       <r>    5.5288    0.0000 </r>
       <r>    5.6748    0.0000 </r>
       <r>    5.6934    0.0000 </r>
       <r>    5.6996    0.0000 </r>
       <r>    5.7340    0.0000 </r>
       <r>    5.8526    0.0000 </r>
       <r>    5.8859    0.0000 </r>
       <r>    7.1072    0.0000 </r>
       <r>    7.1852    0.0000 </r>
       <r>    7.2223    0.0000 </r>
       <r>    7.3111    0.0000 </r>
       <r>    7.3481    0.0000 </r>
       <r>    7.3744    0.0000 </r>
       <r>    7.4112    0.0000 </r>
       <r>    7.4451    0.0000 </r>
       <r>    7.4522    0.0000 </r>
       <r>    7.4869    0.0000 </r>
       <r>    7.5454    0.0000 </r>
       <r>    7.6113    0.0000 </r>
       <r>    7.7618    0.0000 </r>
       <r>    7.7935    0.0000 </r>
       <r>    7.7953    0.0000 </r>
       <r>    7.8269    0.0000 </r>
       <r>    7.8688    0.0000 </r>
       <r>    7.8894    0.0000 </r>
       <r>    7.9036    0.0000 </r>
       <r>    7.9360    0.0000 </r>
       <r>    7.9422    0.0000 </r>
       <r>    7.9814    0.0000 </r>
       <r>    7.9933    0.0000 </r>
       <r>    8.0189    0.0000 </r>
       <r>    8.1263    0.0000 </r>
       <r>    8.1968    0.0000 </r>
       <r>    8.3861    0.0000 </r>
       <r>    8.5013    0.0000 </r>
       <r>    8.5942    0.0000 </r>
       <r>    8.6748    0.0000 </r>
       <r>    8.7105    0.0000 </r>
       <r>    8.7371    0.0000 </r>
       <r>    8.7414    0.0000 </r>
       <r>    8.8217    0.0000 </r>
       <r>    8.8851    0.0000 </r>
       <r>    8.9029    0.0000 </r>
       <r>    9.0290    0.0000 </r>
       <r>    9.2758    0.0000 </r>
       <r>    9.3153    0.0000 </r>
       <r>    9.3182    0.0000 </r>
       <r>    9.5517    0.0000 </r>
       <r>    9.6151    0.0000 </r>
      </set>
      <set comment="kpoint 3">
       <r>  -40.0663    1.0000 </r>
       <r>  -40.0660    1.0000 </r>
       <r>  -39.9260    1.0000 </r>
       <r>  -39.7562    1.0000 </r>
       <r>  -39.6521    1.0000 </r>
       <r>  -39.6516    1.0000 </r>
       <r>  -18.9921    1.0000 </r>
       <r>  -18.9850    1.0000 </r>
       <r>  -18.9117    1.0000 </r>
       <r>  -18.9074    1.0000 </r>
       <r>  -18.9045    1.0000 </r>
       <r>  -18.9001    1.0000 </r>
       <r>  -18.8129    1.0000 </r>
       <r>  -18.8072    1.0000 </r>
       <r>  -18.7997    1.0000 </r>
       <r>  -18.7939    1.0000 </r>
       <r>  -18.7537    1.0000 </r>
       <r>  -18.7504    1.0000 </r>
       <r>  -18.7438    1.0000 </r>
       <r>  -18.7406    1.0000 </r>
       <r>  -18.7366    1.0000 </r>
       <r>  -18.7324    1.0000 </r>
       <r>  -18.6919    1.0000 </r>
       <r>  -18.6905    1.0000 </r>
       <r>  -18.6837    1.0000 </r>
       <r>  -18.6822    1.0000 </r>
       <r>  -18.6792    1.0000 </r>
       <r>  -18.6786    1.0000 </r>
       <r>  -18.6772    1.0000 </r>
       <r>  -18.6757    1.0000 </r>
       <r>  -18.6693    1.0000 </r>
       <r>  -18.6690    1.0000 </r>
       <r>  -18.6641    1.0000 </r>
       <r>  -18.6633    1.0000 </r>
       <r>  -18.6602    1.0000 </r>
       <r>  -18.6595    1.0000 </r>
       <r>  -18.6573    1.0000 </r>
       <r>  -18.6566    1.0000 </r>
       <r>  -18.6549    1.0000 </r>
       <r>  -18.6544    1.0000 </r>
       <r>  -18.6480    1.0000 </r>
       <r>  -18.6475    1.0000 </r>
       <r>  -18.6412    1.0000 </r>
       <r>  -18.6399    1.0000 </r>
       <r>  -18.6350    1.0000 </r>
       <r>  -18.6339    1.0000 </r>
       <r>  -18.6036    1.0000 </r>
       <r>  -18.6011    1.0000 </r>
       <r>  -18.5976    1.0000 </r>
       <r>  -18.5935    1.0000 </r>
       <r>  -18.5902    1.0000 </r>
       <r>  -18.5878    1.0000 </r>
       <r>  -18.5801    1.0000 </r>
       <r>  -18.5800    1.0000 </r>
       <r>  -18.5764    1.0000 </r>
       <r>  -18.5759    1.0000 </r>
       <r>  -18.5372    1.0000 </r>
       <r>  -18.5354    1.0000 </r>
       <r>  -18.5243    1.0000 </r>
       <r>  -18.5225    1.0000 </r>
       <r>  -18.5156    1.0000 </r>
       <r>  -18.5145    1.0000 </r>
       <r>  -18.5129    1.0000 </r>
       <r>  -18.5124    1.0000 </r>
       <r>  -18.5122    1.0000 </r>
       <r>  -18.5112    1.0000 </r>
       <r>  -18.5037    1.0000 </r>
       <r>  -18.5028    1.0000 </r>
       <r>  -18.4834    1.0000 </r>
       <r>  -18.4824    1.0000 </r>
       <r>  -18.4763    1.0000 </r>
       <r>  -18.4753    1.0000 </r>
       <r>  -18.4526    1.0000 </r>
       <r>  -18.4485    1.0000 </r>
       <r>  -18.4471    1.0000 </r>
       <r>  -18.4437    1.0000 </r>
       <r>  -18.4393    1.0000 </r>
       <r>  -18.4352    1.0000 </r>
       <r>  -18.4288    1.0000 </r>
       <r>  -18.4252    1.0000 </r>
       <r>  -18.3699    1.0000 </r>
       <r>  -18.3640    1.0000 </r>
       <r>  -18.2506    1.0000 </r>
       <r>  -18.2453    1.0000 </r>
       <r>  -18.2372    1.0000 </r>
       <r>  -18.2319    1.0000 </r>
       <r>  -13.7190    1.0000 </r>
       <r>  -13.5706    1.0000 </r>
       <r>  -12.9423    1.0000 </r>
       <r>  -12.8318    1.0000 </r>
       <r>  -12.8057    1.0000 </r>
       <r>  -12.7946    1.0000 </r>
       <r>  -12.7401    1.0000 </r>
       <r>  -12.7289    1.0000 </r>
       <r>  -12.7074    1.0000 </r>
       <r>  -12.6951    1.0000 </r>
       <r>  -12.6627    1.0000 </r>
       <r>  -12.6190    1.0000 </r>
       <r>  -12.6172    1.0000 </r>
       <r>  -12.5983    1.0000 </r>
       <r>  -12.0937    1.0000 </r>
       <r>  -12.0483    1.0000 </r>
       <r>   -9.3549    1.0000 </r>
       <r>   -9.0779    1.0000 </r>
       <r>   -8.5898    1.0000 </r>
       <r>   -8.5515    1.0000 </r>
       <r>   -8.5363    1.0000 </r>
       <r>   -8.4976    1.0000 </r>
       <r>   -8.3303    1.0000 </r>
       <r>   -8.2941    1.0000 </r>
       <r>   -8.2718    1.0000 </r>
       <r>   -8.2377    1.0000 </r>
       <r>   -8.0680    1.0000 </r>
       <r>   -8.0672    1.0000 </r>
       <r>   -8.0303    1.0000 </r>
       <r>   -8.0290    1.0000 </r>
       <r>   -7.3948    1.0000 </r>
       <r>   -7.3935    1.0000 </r>
       <r>   -6.4085    1.0000 </r>
       <r>   -6.4045    1.0000 </r>
       <r>   -6.3590    1.0000 </r>
       <r>   -6.3571    1.0000 </r>
       <r>   -5.5856    1.0000 </r>
       <r>   -5.5147    1.0000 </r>
       <r>   -5.4343    1.0000 </r>
       <r>   -5.4122    1.0000 </r>
       <r>   -5.4117    1.0000 </r>
       <r>   -5.3089    1.0000 </r>
       <r>   -5.1887    1.0000 </r>
       <r>   -5.1419    1.0000 </r>
       <r>   -5.1184    1.0000 </r>
       <r>   -5.0543    1.0000 </r>
       <r>   -3.9218    1.0000 </r>
       <r>   -3.6078    1.0000 </r>
       <r>   -1.3922    1.0000 </r>
       <r>   -1.3092    1.0000 </r>
       <r>   -1.2666    1.0000 </r>
       <r>   -1.1322    1.0000 </r>
       <r>   -0.4762    1.0000 </r>
       <r>   -0.4600    1.0000 </r>
       <r>   -0.4429    1.0000 </r>
       <r>   -0.4293    1.0000 </r>
       <r>   -0.4185    1.0000 </r>
       <r>   -0.3951    1.0000 </r>
       <r>   -0.3158    1.0000 </r>
       <r>   -0.2860    1.0000 </r>
       <r>   -0.2030    1.0000 </r>
       <r>   -0.1560    1.0000 </r>
       <r>    0.1543    1.0000 </r>
       <r>    0.2504    1.0000 </r>
       <r>    0.2597    1.0000 </r>
       <r>    0.2773    1.0000 </r>
       <r>    0.3611    1.0000 </r>
       <r>    0.3795    1.0000 </r>
       <r>    0.5152    1.0000 </r>
       <r>    0.5269    1.0000 </r>
       <r>    0.6618    1.0000 </r>
       <r>    0.7137    1.0000 </r>
       <r>    0.7461    1.0000 </r>
       <r>    0.7814    1.0000 </r>
       <r>    0.7827    1.0000 </r>
       <r>    0.8021    1.0000 </r>
       <r>    0.9130    1.0000 </r>
       <r>    0.9767    1.0000 </r>
       <r>    1.0660    1.0000 </r>
       <r>    1.1254    1.0000 </r>
       <r>    1.1972    1.0000 </r>
       <r>    1.2001    1.0000 </r>
       <r>    1.2655    1.0000 </r>
       <r>    1.3052    1.0000 </r>
       <r>    1.3461    1.0000 </r>
       <r>    1.4597    1.0000 </r>
       <r>    1.5298    1.0000 </r>
       <r>    1.5841    1.0000 </r>
       <r>    1.5881    1.0000 </r>
       <r>    1.6196    1.0000 </r>
       <r>    1.7031    1.0000 </r>
       <r>    1.7068    1.0000 </r>
       <r>    1.7288    1.0000 </r>
       <r>    1.7620    1.0000 </r>
       <r>    1.8611    1.0000 </r>
       <r>    1.8622    1.0000 </r>
       <r>    1.9496    1.0000 </r>
       <r>    2.0313    1.0000 </r>
       <r>    2.0405    1.0000 </r>
       <r>    2.0976    1.0000 </r>
       <r>    2.1718    1.0000 </r>
       <r>    2.1974    1.0000 </r>
       <r>    2.2486    1.0000 </r>
       <r>    2.3399    1.0000 </r>
       <r>    2.3478    1.0000 </r>
       <r>    2.4163    1.0000 </r>
       <r>    2.4699    1.0000 </r>
       <r>    2.4824    1.0000 </r>
       <r>    2.4858    1.0000 </r>
       <r>    2.5325    1.0000 </r>
       <r>    2.5423    1.0000 </r>
       <r>    2.5553    1.0000 </r>
       <r>    2.5588    1.0000 </r>
       <r>    2.6133    1.0000 </r>
       <r>    2.6788    1.0000 </r>
       <r>    2.7192    1.0000 </r>
       <r>    2.7362    1.0000 </r>
       <r>    2.7506    1.0000 </r>
       <r>    2.7792    1.0000 </r>
       <r>    2.8217    1.0000 </r>
       <r>    2.8290    1.0000 </r>
       <r>    2.8704    1.0000 </r>
       <r>    2.9178    1.0000 </r>
       <r>    2.9223    1.0000 </r>
       <r>    2.9494    1.0000 </r>
       <r>    2.9806    1.0000 </r>
       <r>    2.9964    1.0000 </r>
       <r>    3.0355    1.0000 </r>
       <r>    3.0394    1.0000 </r>
       <r>    3.1106    1.0000 </r>
       <r>    3.1816    1.0000 </r>
       <r>    3.2471    1.0000 </r>
       <r>    3.3056    1.0000 </r>
       <r>    3.3461    1.0000 </r>
       <r>    3.3674    1.0000 </r>
       <r>    3.3856    1.0000 </r>
       <r>    3.3900    1.0000 </r>
       <r>    3.4334    1.0000 </r>
       <r>    3.4549    1.0000 </r>
       <r>    3.5509    1.0000 </r>
       <r>    4.2006    1.0000 </r>
       <r>    4.2043    1.0000 </r>
       <r>    4.2412    1.0000 </r>
       <r>    4.2416    1.0000 </r>
       <r>    5.0862    0.0000 </r>
       <r>    5.0892    0.0000 </r>
       <r>    5.1875    0.0000 </r>
       <r>    5.1923    0.0000 </r>
       <r>    5.7195    0.0000 </r>
       <r>    5.7251    0.0000 </r>
       <r>    5.7938    0.0000 </r>
       <r>    5.7967    0.0000 </r>
       <r>    6.1265    0.0000 </r>
       <r>    6.1300    0.0000 </r>
       <r>    6.1606    0.0000 </r>
       <r>    6.1631    0.0000 </r>
       <r>    6.2116    0.0000 </r>
       <r>    6.2195    0.0000 </r>
       <r>    6.2447    0.0000 </r>
       <r>    6.2587    0.0000 </r>
       <r>    6.6170    0.0000 </r>
       <r>    6.8839    0.0000 </r>
       <r>    6.9334    0.0000 </r>
       <r>    7.0442    0.0000 </r>
       <r>    7.1699    0.0000 </r>
       <r>    7.2796    0.0000 </r>
       <r>    7.3490    0.0000 </r>
       <r>    7.4792    0.0000 </r>
       <r>    7.6255    0.0000 </r>
       <r>    7.7944    0.0000 </r>
       <r>    7.9013    0.0000 </r>
       <r>    7.9559    0.0000 </r>
       <r>    7.9619    0.0000 </r>
       <r>    8.2814    0.0000 </r>
       <r>    8.3220    0.0000 </r>
       <r>    8.4310    0.0000 </r>
       <r>    8.6277    0.0000 </r>
       <r>    8.6952    0.0000 </r>
       <r>    8.8768    0.0000 </r>
       <r>    8.8873    0.0000 </r>
       <r>    8.9957    0.0000 </r>
       <r>    9.0294    0.0000 </r>
       <r>    9.0496    0.0000 </r>
       <r>    9.0565    0.0000 </r>
       <r>    9.0712    0.0000 </r>
       <r>    9.0909    0.0000 </r>
       <r>    9.1234    0.0000 </r>
       <r>    9.1825    0.0000 </r>
       <r>    9.4451    0.0000 </r>
       <r>    9.4519    0.0000 </r>
       <r>    9.6380    0.0000 </r>
       <r>    9.6855    0.0000 </r>
       <r>    9.7149    0.0000 </r>
       <r>    9.7586    0.0000 </r>
      </set>
      <set comment="kpoint 4">
       <r>  -40.0663    1.0000 </r>
       <r>  -40.0660    1.0000 </r>
       <r>  -39.9260    1.0000 </r>
       <r>  -39.7562    1.0000 </r>
       <r>  -39.6521    1.0000 </r>
       <r>  -39.6516    1.0000 </r>
       <r>  -18.9921    1.0000 </r>
       <r>  -18.9850    1.0000 </r>
       <r>  -18.9116    1.0000 </r>
       <r>  -18.9074    1.0000 </r>
       <r>  -18.9044    1.0000 </r>
       <r>  -18.9001    1.0000 </r>
       <r>  -18.8129    1.0000 </r>
       <r>  -18.8072    1.0000 </r>
       <r>  -18.7997    1.0000 </r>
       <r>  -18.7939    1.0000 </r>
       <r>  -18.7535    1.0000 </r>
       <r>  -18.7502    1.0000 </r>
       <r>  -18.7437    1.0000 </r>
       <r>  -18.7405    1.0000 </r>
       <r>  -18.7365    1.0000 </r>
       <r>  -18.7323    1.0000 </r>
       <r>  -18.6921    1.0000 </r>
       <r>  -18.6908    1.0000 </r>
       <r>  -18.6838    1.0000 </r>
       <r>  -18.6823    1.0000 </r>
       <r>  -18.6793    1.0000 </r>
       <r>  -18.6787    1.0000 </r>
       <r>  -18.6772    1.0000 </r>
       <r>  -18.6758    1.0000 </r>
       <r>  -18.6699    1.0000 </r>
       <r>  -18.6697    1.0000 </r>
       <r>  -18.6640    1.0000 </r>
       <r>  -18.6632    1.0000 </r>
       <r>  -18.6598    1.0000 </r>
       <r>  -18.6590    1.0000 </r>
       <r>  -18.6568    1.0000 </r>
       <r>  -18.6562    1.0000 </r>
       <r>  -18.6554    1.0000 </r>
       <r>  -18.6548    1.0000 </r>
       <r>  -18.6477    1.0000 </r>
       <r>  -18.6472    1.0000 </r>
       <r>  -18.6411    1.0000 </r>
       <r>  -18.6399    1.0000 </r>
       <r>  -18.6350    1.0000 </r>
       <r>  -18.6339    1.0000 </r>
       <r>  -18.6036    1.0000 </r>
       <r>  -18.6010    1.0000 </r>
       <r>  -18.5976    1.0000 </r>
       <r>  -18.5935    1.0000 </r>
       <r>  -18.5904    1.0000 </r>
       <r>  -18.5879    1.0000 </r>
       <r>  -18.5801    1.0000 </r>
       <r>  -18.5800    1.0000 </r>
       <r>  -18.5764    1.0000 </r>
       <r>  -18.5759    1.0000 </r>
       <r>  -18.5372    1.0000 </r>
       <r>  -18.5354    1.0000 </r>
       <r>  -18.5243    1.0000 </r>
       <r>  -18.5225    1.0000 </r>
       <r>  -18.5157    1.0000 </r>
       <r>  -18.5145    1.0000 </r>
       <r>  -18.5129    1.0000 </r>
       <r>  -18.5124    1.0000 </r>
       <r>  -18.5122    1.0000 </r>
       <r>  -18.5112    1.0000 </r>
       <r>  -18.5037    1.0000 </r>
       <r>  -18.5028    1.0000 </r>
       <r>  -18.4834    1.0000 </r>
       <r>  -18.4824    1.0000 </r>
       <r>  -18.4763    1.0000 </r>
       <r>  -18.4753    1.0000 </r>
       <r>  -18.4526    1.0000 </r>
       <r>  -18.4485    1.0000 </r>
       <r>  -18.4471    1.0000 </r>
       <r>  -18.4437    1.0000 </r>
       <r>  -18.4393    1.0000 </r>
       <r>  -18.4352    1.0000 </r>
       <r>  -18.4287    1.0000 </r>
       <r>  -18.4252    1.0000 </r>
       <r>  -18.3699    1.0000 </r>
       <r>  -18.3640    1.0000 </r>
       <r>  -18.2506    1.0000 </r>
       <r>  -18.2453    1.0000 </r>
       <r>  -18.2372    1.0000 </r>
       <r>  -18.2319    1.0000 </r>
       <r>  -13.7189    1.0000 </r>
       <r>  -13.5706    1.0000 </r>
       <r>  -12.9328    1.0000 </r>
[...]
       <r>    8.8073    0.0000 </r>
       <r>    8.8409    0.0000 </r>
       <r>    8.8487    0.0000 </r>
       <r>    8.8615    0.0000 </r>
       <r>    8.8756    0.0000 </r>
       <r>    8.9062    0.0000 </r>
       <r>    8.9154    0.0000 </r>
       <r>    9.4911    0.0000 </r>
       <r>    9.8842    0.0000 </r>
      </set>
     </set>
    </set>
   </array>
  </eigenvalues>
  <separator name="orbital magnetization" >
   <v name="MAGDIPOLOUT">      0.00000000      0.00000000      0.00000000</v>
  </separator>
  <dos>
   <i name="efermi">      4.26186910 </i>
   <total>
    <array>
     <dimension dim="1">gridpoints</dimension>
     <dimension dim="2">spin</dimension>
     <field>energy</field>
     <field>total</field>
     <field>integrated</field>
     <set>
      <set comment="spin 1">
       <r>   -42.5786     0.0000     0.0000 </r>
       <r>   -42.3943     0.0000     0.0000 </r>
       <r>   -42.2101     0.0000     0.0000 </r>
       <r>   -42.0259     0.0000     0.0000 </r>
       <r>   -41.8416     0.0000     0.0000 </r>
       <r>   -41.6574     0.0000     0.0000 </r>
       <r>   -41.4732     0.0000     0.0000 </r>
       <r>   -41.2889     0.0000     0.0000 </r>
       <r>   -41.1047     0.0000     0.0000 </r>
       <r>   -40.9205     0.0000     0.0000 </r>
       <r>   -40.7363     0.0000     0.0000 </r>
       <r>   -40.5520     0.0000     0.0000 </r>
       <r>   -40.3678     0.0000     0.0000 </r>
       <r>   -40.1836     0.0000     0.0000 </r>
       <r>   -39.9993     0.0000     4.0000 </r>
       <r>   -39.8151     0.0000     6.0000 </r>
       <r>   -39.6309     0.0000    12.0000 </r>
       <r>   -39.4466     0.0000    12.0000 </r>
       <r>   -39.2624     0.0000    12.0000 </r>
       <r>   -39.0782     0.0000    12.0000 </r>
       <r>   -38.8940     0.0000    12.0000 </r>
       <r>   -38.7097     0.0000    12.0000 </r>
       <r>   -38.5255     0.0000    12.0000 </r>
       <r>   -38.3413     0.0000    12.0000 </r>
       <r>   -38.1570     0.0000    12.0000 </r>
       <r>   -37.9728     0.0000    12.0000 </r>
       <r>   -37.7886     0.0000    12.0000 </r>
       <r>   -37.6044     0.0000    12.0000 </r>
       <r>   -37.4201     0.0000    12.0000 </r>
       <r>   -37.2359     0.0000    12.0000 </r>
       <r>   -37.0517     0.0000    12.0000 </r>
       <r>   -36.8674     0.0000    12.0000 </r>
       <r>   -36.6832     0.0000    12.0000 </r>
       <r>   -36.4990     0.0000    12.0000 </r>
       <r>   -36.3147     0.0000    12.0000 </r>
       <r>   -36.1305     0.0000    12.0000 </r>
       <r>   -35.9463     0.0000    12.0000 </r>
       <r>   -35.7621     0.0000    12.0000 </r>
       <r>   -35.5778     0.0000    12.0000 </r>
       <r>   -35.3936     0.0000    12.0000 </r>
       <r>   -35.2094     0.0000    12.0000 </r>
       <r>   -35.0251     0.0000    12.0000 </r>
       <r>   -34.8409     0.0000    12.0000 </r>
       <r>   -34.6567     0.0000    12.0000 </r>
       <r>   -34.4724     0.0000    12.0000 </r>
       <r>   -34.2882     0.0000    12.0000 </r>
       <r>   -34.1040     0.0000    12.0000 </r>
       <r>   -33.9198     0.0000    12.0000 </r>
       <r>   -33.7355     0.0000    12.0000 </r>
       <r>   -33.5513     0.0000    12.0000 </r>
       <r>   -33.3671     0.0000    12.0000 </r>
       <r>   -33.1828     0.0000    12.0000 </r>
       <r>   -32.9986     0.0000    12.0000 </r>
       <r>   -32.8144     0.0000    12.0000 </r>
       <r>   -32.6301     0.0000    12.0000 </r>
       <r>   -32.4459     0.0000    12.0000 </r>
       <r>   -32.2617     0.0000    12.0000 </r>
       <r>   -32.0775     0.0000    12.0000 </r>
       <r>   -31.8932     0.0000    12.0000 </r>
       <r>   -31.7090     0.0000    12.0000 </r>
       <r>   -31.5248     0.0000    12.0000 </r>
       <r>   -31.3405     0.0000    12.0000 </r>
       <r>   -31.1563     0.0000    12.0000 </r>
       <r>   -30.9721     0.0000    12.0000 </r>
       <r>   -30.7878     0.0000    12.0000 </r>
       <r>   -30.6036     0.0000    12.0000 </r>
       <r>   -30.4194     0.0000    12.0000 </r>
       <r>   -30.2352     0.0000    12.0000 </r>
       <r>   -30.0509     0.0000    12.0000 </r>
       <r>   -29.8667     0.0000    12.0000 </r>
       <r>   -29.6825     0.0000    12.0000 </r>
       <r>   -29.4982     0.0000    12.0000 </r>
       <r>   -29.3140     0.0000    12.0000 </r>
       <r>   -29.1298     0.0000    12.0000 </r>
       <r>   -28.9456     0.0000    12.0000 </r>
       <r>   -28.7613     0.0000    12.0000 </r>
       <r>   -28.5771     0.0000    12.0000 </r>
       <r>   -28.3929     0.0000    12.0000 </r>
       <r>   -28.2086     0.0000    12.0000 </r>
       <r>   -28.0244     0.0000    12.0000 </r>
       <r>   -27.8402     0.0000    12.0000 </r>
       <r>   -27.6559     0.0000    12.0000 </r>
       <r>   -27.4717     0.0000    12.0000 </r>
       <r>   -27.2875     0.0000    12.0000 </r>
       <r>   -27.1033     0.0000    12.0000 </r>
       <r>   -26.9190     0.0000    12.0000 </r>
       <r>   -26.7348     0.0000    12.0000 </r>
       <r>   -26.5506     0.0000    12.0000 </r>
       <r>   -26.3663     0.0000    12.0000 </r>
       <r>   -26.1821     0.0000    12.0000 </r>
       <r>   -25.9979     0.0000    12.0000 </r>
       <r>   -25.8136     0.0000    12.0000 </r>
       <r>   -25.6294     0.0000    12.0000 </r>
       <r>   -25.4452     0.0000    12.0000 </r>
       <r>   -25.2610     0.0000    12.0000 </r>
       <r>   -25.0767     0.0000    12.0000 </r>
       <r>   -24.8925     0.0000    12.0000 </r>
       <r>   -24.7083     0.0000    12.0000 </r>
       <r>   -24.5240     0.0000    12.0000 </r>
       <r>   -24.3398     0.0000    12.0000 </r>
       <r>   -24.1556     0.0000    12.0000 </r>
       <r>   -23.9713     0.0000    12.0000 </r>
       <r>   -23.7871     0.0000    12.0000 </r>
       <r>   -23.6029     0.0000    12.0000 </r>
       <r>   -23.4187     0.0000    12.0000 </r>
       <r>   -23.2344     0.0000    12.0000 </r>
       <r>   -23.0502     0.0000    12.0000 </r>
       <r>   -22.8660     0.0000    12.0000 </r>
       <r>   -22.6817     0.0000    12.0000 </r>
       <r>   -22.4975     0.0000    12.0000 </r>
       <r>   -22.3133     0.0000    12.0000 </r>
       <r>   -22.1290     0.0000    12.0000 </r>
       <r>   -21.9448     0.0000    12.0000 </r>
       <r>   -21.7606     0.0000    12.0000 </r>
       <r>   -21.5764     0.0000    12.0000 </r>
       <r>   -21.3921     0.0000    12.0000 </r>
       <r>   -21.2079     0.0000    12.0000 </r>
       <r>   -21.0237     0.0000    12.0000 </r>
       <r>   -20.8394     0.0000    12.0000 </r>
       <r>   -20.6552     0.0000    12.0000 </r>
       <r>   -20.4710     0.0000    12.0000 </r>
       <r>   -20.2868     0.0000    12.0000 </r>
       <r>   -20.1025     0.0000    12.0000 </r>
       <r>   -19.9183     0.0000    12.0000 </r>
       <r>   -19.7341     0.0000    12.0000 </r>
       <r>   -19.5498     0.0000    12.0000 </r>
       <r>   -19.3656     0.0000    12.0000 </r>
       <r>   -19.1814     0.0000    12.0000 </r>
       <r>   -18.9971     0.0000    12.0000 </r>
       <r>   -18.8129 63451.0133    24.0318 </r>
       <r>   -18.6287     0.0000    92.0000 </r>
       <r>   -18.4445     0.0000   150.0000 </r>
       <r>   -18.2602     0.0000   164.0000 </r>
       <r>   -18.0760     0.0000   172.0000 </r>
       <r>   -17.8918     0.0000   172.0000 </r>
       <r>   -17.7075     0.0000   172.0000 </r>
       <r>   -17.5233     0.0000   172.0000 </r>
       <r>   -17.3391     0.0000   172.0000 </r>
       <r>   -17.1548     0.0000   172.0000 </r>
       <r>   -16.9706     0.0000   172.0000 </r>
       <r>   -16.7864     0.0000   172.0000 </r>
       <r>   -16.6022     0.0000   172.0000 </r>
       <r>   -16.4179     0.0000   172.0000 </r>
       <r>   -16.2337     0.0000   172.0000 </r>
       <r>   -16.0495     0.0000   172.0000 </r>
       <r>   -15.8652     0.0000   172.0000 </r>
       <r>   -15.6810     0.0000   172.0000 </r>
       <r>   -15.4968     0.0000   172.0000 </r>
       <r>   -15.3125     0.0000   172.0000 </r>
       <r>   -15.1283     0.0000   172.0000 </r>
       <r>   -14.9441     0.0000   172.0000 </r>
       <r>   -14.7599     0.0000   172.0000 </r>
       <r>   -14.5756     0.0000   172.0000 </r>
       <r>   -14.3914     0.0000   172.0000 </r>
       <r>   -14.2072     0.0000   172.0000 </r>
       <r>   -14.0229     0.0000   172.0000 </r>
       <r>   -13.8387     0.0000   172.0000 </r>
       <r>   -13.6545     0.0000   174.0000 </r>
       <r>   -13.4702     0.0000   176.0000 </r>
       <r>   -13.2860     0.0000   176.0000 </r>
       <r>   -13.1018     0.0000   176.0000 </r>
       <r>   -12.9176     0.0000   178.0000 </r>
       <r>   -12.7333   105.3973   187.2180 </r>
       <r>   -12.5491     0.0000   200.0000 </r>
       <r>   -12.3649     0.0000   200.0000 </r>
       <r>   -12.1806     0.0000   200.0000 </r>
       <r>   -11.9964     0.0000   204.0000 </r>
       <r>   -11.8122     0.0000   204.0000 </r>
       <r>   -11.6280     0.0000   204.0000 </r>
       <r>   -11.4437     0.0000   204.0000 </r>
       <r>   -11.2595     0.0000   204.0000 </r>
       <r>   -11.0753     0.0000   204.0000 </r>
       <r>   -10.8910     0.0000   204.0000 </r>
       <r>   -10.7068     0.0000   204.0000 </r>
       <r>   -10.5226     0.0000   204.0000 </r>
       <r>   -10.3383     0.0000   204.0000 </r>
       <r>   -10.1541     0.0000   204.0000 </r>
       <r>    -9.9699     0.0000   204.0000 </r>
       <r>    -9.7857     0.0000   204.0000 </r>
       <r>    -9.6014     0.0000   204.0000 </r>
       <r>    -9.4172     0.0000   204.0000 </r>
       <r>    -9.2330     9.8298   204.6258 </r>
       <r>    -9.0487    19.3626   207.3629 </r>
       <r>    -8.8645     8.2431   208.8321 </r>
       <r>    -8.6803    12.2861   211.6699 </r>
       <r>    -8.4960    25.1684   214.5076 </r>
       <r>    -8.3118    22.8908   219.8028 </r>
       <r>    -8.1276    23.8720   222.3261 </r>
       <r>    -7.9434    20.1901   227.2843 </r>
       <r>    -7.7591    21.4990   230.5294 </r>
       <r>    -7.5749    20.0056   234.1317 </r>
       <r>    -7.3907     0.0000   236.0000 </r>
       <r>    -7.2064     0.0000   236.0000 </r>
       <r>    -7.0222     0.0000   236.0000 </r>
       <r>    -6.8380     0.0000   236.0000 </r>
       <r>    -6.6537     0.0000   236.0000 </r>
       <r>    -6.4695     0.0000   236.0000 </r>
       <r>    -6.2853    10.7622   236.6103 </r>
       <r>    -6.1011    28.9624   240.2760 </r>
       <r>    -5.9168    21.8298   244.0161 </r>
       <r>    -5.7326    26.6427   248.5116 </r>
       <r>    -5.5484    20.8018   252.6650 </r>
       <r>    -5.3641    19.0085   256.5838 </r>
       <r>    -5.1799     9.2893   259.3238 </r>
       <r>    -4.9957     4.6984   260.2904 </r>
       <r>    -4.8114     7.6293   261.5716 </r>
       <r>    -4.6272    10.0672   263.1659 </r>
       <r>    -4.4430     6.4153   264.8429 </r>
       <r>    -4.2588     7.3844   266.0477 </r>
       <r>    -4.0745     4.8447   267.2198 </r>
       <r>    -3.8903     1.6767   267.8136 </r>
       <r>    -3.7061     0.3455   267.9886 </r>
       <r>    -3.5218     0.0000   268.0000 </r>
       <r>    -3.3376     0.0000   268.0000 </r>
       <r>    -3.1534     0.0000   268.0000 </r>
       <r>    -2.9692     0.0000   268.0000 </r>
       <r>    -2.7849     0.0000   268.0000 </r>
       <r>    -2.6007     0.0000   268.0000 </r>
       <r>    -2.4165     0.0000   268.0000 </r>
       <r>    -2.2322     0.0000   268.0000 </r>
       <r>    -2.0480     0.0000   268.0000 </r>
       <r>    -1.8638     0.0000   268.0000 </r>
       <r>    -1.6795     0.0000   268.0000 </r>
       <r>    -1.4953     0.0000   268.0000 </r>
       <r>    -1.3111     4.6335   268.2745 </r>
       <r>    -1.1269    11.1184   269.8359 </r>
       <r>    -0.9426    13.8795   272.0947 </r>
       <r>    -0.7584     9.0346   274.3032 </r>
       <r>    -0.5742     9.7341   275.6826 </r>
       <r>    -0.3899    20.6726   278.1600 </r>
       <r>    -0.2057    26.9254   282.3332 </r>
       <r>    -0.0215    40.8226   289.1033 </r>
       <r>     0.1628    22.1362   294.8225 </r>
       <r>     0.3470    33.3041   301.6243 </r>
       <r>     0.5312    54.3425   308.9862 </r>
       <r>     0.7154    28.0789   315.9016 </r>
       <r>     0.8997    44.6633   322.4282 </r>
       <r>     1.0839    53.0617   331.3501 </r>
       <r>     1.2681    66.1354   340.2964 </r>
       <r>     1.4524    46.6252   349.0097 </r>
       <r>     1.6366    44.5311   358.5485 </r>
       <r>     1.8208    47.2411   366.6341 </r>
       <r>     2.0051    38.0223   373.8389 </r>
       <r>     2.1893    45.6279   381.2190 </r>
       <r>     2.3735    54.6880   389.8525 </r>
       <r>     2.5577    52.4628   400.6763 </r>
       <r>     2.7420    64.6770   411.4169 </r>
       <r>     2.9262    72.0694   423.4932 </r>
       <r>     3.1104    55.3054   435.5882 </r>
       <r>     3.2947    36.2434   443.5879 </r>
       <r>     3.4789    47.1085   450.8208 </r>
       <r>     3.6631    17.6879   455.4342 </r>
       <r>     3.8474    10.7107   458.1027 </r>
       <r>     4.0316     5.1160   459.5608 </r>
       <r>     4.2158     0.1160   459.9990 </r>
       <r>     4.4000     0.0000   460.0000 </r>
       <r>     4.5843     0.0000   460.0000 </r>
       <r>     4.7685     0.0000   460.0000 </r>
       <r>     4.9527     0.0000   460.0000 </r>
       <r>     5.1370     0.9221   460.0421 </r>
       <r>     5.3212     4.6476   460.5372 </r>
       <r>     5.5054     8.6222   461.7594 </r>
       <r>     5.6896     8.5757   463.4791 </r>
       <r>     5.8739    17.0398   467.5493 </r>
       <r>     6.0581    12.2543   470.0613 </r>
       <r>     6.2423    11.7452   472.2107 </r>
       <r>     6.4266    13.6778   474.5520 </r>
       <r>     6.6108    15.5251   477.2463 </r>
       <r>     6.7950    17.3174   480.2667 </r>
       <r>     6.9793    20.5315   483.6820 </r>
       <r>     7.1635    28.7422   488.1650 </r>
       <r>     7.3477    43.5152   494.6078 </r>
       <r>     7.5319    26.0046   501.3677 </r>
       <r>     7.7162    42.7412   507.0177 </r>
       <r>     7.9004    50.9010   515.6965 </r>
       <r>     8.0846    24.6440   522.6274 </r>
       <r>     8.2689    18.8843   526.4678 </r>
       <r>     8.4531    21.6115   530.1127 </r>
       <r>     8.6373    25.0085   534.4954 </r>
       <r>     8.8216    46.9011   540.6697 </r>
       <r>     9.0058    28.0487   547.8698 </r>
       <r>     9.1900    15.3112   551.5272 </r>
       <r>     9.3742    14.0707   554.2009 </r>
       <r>     9.5585    13.7445   556.6962 </r>
       <r>     9.7427     5.7021   558.8774 </r>
       <r>     9.9269     2.5630   559.7899 </r>
       <r>    10.1112     0.1781   559.9960 </r>
       <r>    10.2954     0.0000   560.0000 </r>
       <r>    10.4796     0.0000   560.0000 </r>
       <r>    10.6639     0.0000   560.0000 </r>
       <r>    10.8481     0.0000   560.0000 </r>
       <r>    11.0323     0.0000   560.0000 </r>
       <r>    11.2165     0.0000   560.0000 </r>
       <r>    11.4008     0.0000   560.0000 </r>
       <r>    11.5850     0.0000   560.0000 </r>
       <r>    11.7692     0.0000   560.0000 </r>
       <r>    11.9535     0.0000   560.0000 </r>
       <r>    12.1377     0.0000   560.0000 </r>
       <r>    12.3219     0.0000   560.0000 </r>
       <r>    12.5062     0.0000   560.0000 </r>
       <r>    12.6904     0.0000   560.0000 </r>
      </set>
     </set>
    </array>
   </total>
  </dos>
 </calculation>
 <structure name="finalpos" >
  <crystal>
   <varray name="basis" >
    <v>      11.17850000       0.00000000       0.00000000 </v>
    <v>       0.00000000       9.57460000       0.00000000 </v>
    <v>       0.00000000       0.00000000      11.18240000 </v>
   </varray>
   <i name="volume">   1196.84853820 </i>
   <varray name="rec_basis" >
    <v>       0.08945744       0.00000000       0.00000000 </v>
    <v>       0.00000000       0.10444301       0.00000000 </v>
    <v>       0.00000000       0.00000000       0.08942624 </v>
   </varray>
  </crystal>
  <varray name="positions" >
   <v>       0.12461000       0.99984000       0.18687000 </v>
   <v>       0.87461000       0.00017000       0.18687000 </v>
   <v>       0.12539000       0.99984000       0.93687000 </v>
   <v>       0.12461000       0.99984000       0.68687000 </v>
   <v>       0.87539000       0.00017000       0.93687000 </v>
   <v>       0.87461000       0.00017000       0.68687000 </v>
   <v>       0.37461000       0.00017000       0.18687000 </v>
   <v>       0.62539000       0.99984000       0.43687000 </v>
   <v>       0.87539000       0.00017000       0.43687000 </v>
   <v>       0.37461000       0.00017000       0.68687000 </v>
   <v>       0.62539000       0.99984000       0.93687000 </v>
   <v>       0.00013000       0.29519000       0.06281000 </v>
   <v>       0.25013000       0.70481000       0.06281000 </v>
   <v>       0.24987000       0.29519000       0.31282000 </v>
   <v>       0.49987000       0.70481000       0.31282000 </v>
   <v>       0.50013000       0.29519000       0.06281000 </v>
   <v>       0.75013000       0.70481000       0.06281000 </v>
   <v>       0.74987000       0.29519000       0.31282000 </v>
   <v>       0.99987000       0.70481000       0.31282000 </v>
   <v>       0.00013000       0.29519000       0.56281000 </v>
   <v>       0.25013000       0.70481000       0.56281000 </v>
   <v>       0.24987000       0.29519000       0.81282000 </v>
   <v>       0.49987000       0.70481000       0.81282000 </v>
   <v>       0.50013000       0.29519000       0.56281000 </v>
   <v>       0.75013000       0.70481000       0.56281000 </v>
   <v>       0.74987000       0.29519000       0.81282000 </v>
   <v>       0.99987000       0.70481000       0.81282000 </v>
   <v>       0.25005000       0.32677000       0.06286000 </v>
   <v>       0.00005000       0.67323000       0.06286000 </v>
   <v>       0.49995000       0.32677000       0.31286000 </v>
   <v>       0.24995000       0.67323000       0.31286000 </v>
   <v>       0.75005000       0.32677000       0.06286000 </v>
   <v>       0.50005000       0.67323000       0.06286000 </v>
   <v>       0.99995000       0.32677000       0.31286000 </v>
   <v>       0.74995000       0.67323000       0.31286000 </v>
   <v>       0.25005000       0.32677000       0.56286000 </v>
   <v>       0.00005000       0.67323000       0.56286000 </v>
   <v>       0.49995000       0.32677000       0.81286000 </v>
   <v>       0.24995000       0.67323000       0.81286000 </v>
   <v>       0.75005000       0.32677000       0.56286000 </v>
   <v>       0.50005000       0.67323000       0.56286000 </v>
   <v>       0.99995000       0.32677000       0.81286000 </v>
   <v>       0.74995000       0.67323000       0.81286000 </v>
   <v>       0.49987000       0.07798000       0.06246000 </v>
   <v>       0.24987000       0.92202000       0.06246000 </v>
   <v>       0.25013000       0.07798000       0.31246000 </v>
   <v>       0.00013000       0.92202000       0.31246000 </v>
   <v>       0.99987000       0.07798000       0.06246000 </v>
   <v>       0.74987000       0.92202000       0.06246000 </v>
   <v>       0.75013000       0.07798000       0.31246000 </v>
   <v>       0.50013000       0.92202000       0.31246000 </v>
   <v>       0.49987000       0.07798000       0.56246000 </v>
   <v>       0.24987000       0.92202000       0.56246000 </v>
   <v>       0.25013000       0.07798000       0.81246000 </v>
   <v>       0.00013000       0.92202000       0.81246000 </v>
   <v>       0.99987000       0.07798000       0.56246000 </v>
   <v>       0.74987000       0.92202000       0.56246000 </v>
   <v>       0.75013000       0.07798000       0.81246000 </v>
   <v>       0.50013000       0.92202000       0.81246000 </v>
  </varray>
 </structure>
</modeling>
