<?xml version="1.0" encoding="ISO-8859-1"?>
<modeling>
 <generator>
  <i name="program" type="string">vasp </i>
  <i name="version" type="string">5.4.4.18Apr17-6-g9f103f2a35  </i>
  <i name="subversion" type="string">(build Jul 31 2017 11:33:29) complex            parallel </i>
  <i name="platform" type="string">LinuxIFC </i>
  <i name="date" type="string">2021 09 29 </i>
  <i name="time" type="string">12:40:11 </i>
 </generator>
 <incar>
  <i type="string" name="SYSTEM"> La2O2S</i>
  <i type="string" name="PREC">normal</i>
  <i type="int" name="NELMIN">     4</i>
  <i type="int" name="IBRION">     2</i>
  <i type="int" name="NFREE">    10</i>
  <i name="EDIFF">      0.00000100</i>
  <i name="EDIFFG">     -0.01000000</i>
  <i type="int" name="NSW">     1</i>
  <i type="int" name="ISIF">     2</i>
  <i name="ENCUT">    600.00000000</i>
  <i name="ENAUG">    900.00000000</i>
  <i type="int" name="ISMEAR">    -5</i>
  <i type="logical" name="LWAVE"> F  </i>
  <i type="logical" name="LCHARG"> F  </i>
  <v type="int" name="KPOINT_BSE">    -1     0     0     0</v>
 </incar>
 <structure name="primitive_cell" >
  <crystal>
   <varray name="basis" >
    <v>      11.17850000       0.00000000       0.00000000 </v>
    <v>       0.00000000       9.57460000       0.00000000 </v>
    <v>       0.00000000       0.00000000      11.18240000 </v>
   </varray>
   <i name="volume">   1196.84853820 </i>
   <varray name="rec_basis" >
    <v>       0.08945744       0.00000000       0.00000000 </v>
    <v>       0.00000000       0.10444301       0.00000000 </v>
    <v>       0.00000000       0.00000000       0.08942624 </v>
   </varray>
  </crystal>
  <varray name="positions" >
   <v>       0.37539000       0.00017000       0.43687000 </v>
   <v>      -0.49987000      -0.07798000       0.31246000 </v>
   <v>       0.25013000       0.07798000       0.31246000 </v>
   <v>       0.49987000       0.07798000      -0.43754000 </v>
   <v>       0.24987000      -0.07798000      -0.43754000 </v>
   <v>       0.37461000       0.00017000      -0.31313000 </v>
   <v>       0.49987000      -0.29519000       0.31282000 </v>
   <v>       0.24987000       0.29519000       0.31282000 </v>
   <v>      -0.49987000       0.29519000      -0.43719000 </v>
   <v>       0.25013000      -0.29519000      -0.43719000 </v>
   <v>       0.49995000       0.32677000       0.31286000 </v>
   <v>       0.24995000      -0.32677000       0.31286000 </v>
   <v>      -0.49995000      -0.32677000      -0.43714000 </v>
   <v>       0.25005000       0.32677000      -0.43714000 </v>
   <v>      -0.37539000      -0.00016000       0.18687000 </v>
   <v>      -0.37539000      -0.00016000      -0.31313000 </v>
   <v>       0.12461000      -0.00016000      -0.31313000 </v>
   <v>       0.12461000      -0.00016000       0.18687000 </v>
   <v>       0.49987000       0.07798000       0.06246000 </v>
   <v>      -0.24987000       0.07798000       0.31246000 </v>
   <v>      -0.25013000      -0.07798000      -0.43754000 </v>
   <v>       0.24987000      -0.07798000       0.06246000 </v>
   <v>       0.00013000      -0.07798000       0.31246000 </v>
   <v>      -0.49987000      -0.07798000      -0.18754000 </v>
   <v>      -0.00013000       0.07798000      -0.43754000 </v>
   <v>       0.25013000       0.07798000      -0.18754000 </v>
   <v>      -0.49987000       0.29519000       0.06281000 </v>
   <v>      -0.25013000       0.29519000       0.31282000 </v>
   <v>       0.25013000      -0.29519000       0.06281000 </v>
   <v>      -0.24987000      -0.29519000      -0.43719000 </v>
   <v>      -0.00013000      -0.29519000       0.31282000 </v>
   <v>       0.00013000       0.29519000      -0.43719000 </v>
   <v>       0.49987000      -0.29519000      -0.18718000 </v>
   <v>       0.24987000       0.29519000      -0.18718000 </v>
   <v>      -0.49995000      -0.32677000       0.06286000 </v>
   <v>       0.25005000       0.32677000       0.06286000 </v>
   <v>      -0.25005000      -0.32677000       0.31286000 </v>
   <v>      -0.24995000       0.32677000      -0.43714000 </v>
   <v>      -0.00005000       0.32677000       0.31286000 </v>
   <v>       0.00005000      -0.32677000      -0.43714000 </v>
   <v>       0.49995000       0.32677000      -0.18714000 </v>
   <v>       0.24995000      -0.32677000      -0.18714000 </v>
   <v>      -0.12461000       0.00017000       0.43687000 </v>
   <v>       0.37539000       0.00017000      -0.06313000 </v>
   <v>      -0.25013000      -0.07798000       0.06246000 </v>
   <v>      -0.00013000       0.07798000       0.06246000 </v>
   <v>      -0.24987000       0.07798000      -0.18754000 </v>
   <v>       0.00013000      -0.07798000      -0.18754000 </v>
   <v>      -0.12539000       0.00017000      -0.31313000 </v>
   <v>      -0.24987000      -0.29519000       0.06281000 </v>
   <v>       0.00013000       0.29519000       0.06281000 </v>
   <v>      -0.25013000       0.29519000      -0.18718000 </v>
   <v>      -0.00013000      -0.29519000      -0.18718000 </v>
   <v>      -0.24995000       0.32677000       0.06286000 </v>
   <v>       0.00005000      -0.32677000       0.06286000 </v>
   <v>      -0.25005000      -0.32677000      -0.18714000 </v>
   <v>      -0.00005000       0.32677000      -0.18714000 </v>
   <v>      -0.12461000       0.00017000      -0.06313000 </v>
  </varray>
 </structure>
 <varray name="primitive_index" >
  <v type="int" >        1 </v>
  <v type="int" >       50 </v>
  <v type="int" >       45 </v>
  <v type="int" >       51 </v>
  <v type="int" >       52 </v>
  <v type="int" >        3 </v>
  <v type="int" >       14 </v>
  <v type="int" >       13 </v>
  <v type="int" >       23 </v>
  <v type="int" >       20 </v>
  <v type="int" >       29 </v>
  <v type="int" >       30 </v>
  <v type="int" >       40 </v>
  <v type="int" >       35 </v>
  <v type="int" >        7 </v>
  <v type="int" >       10 </v>
  <v type="int" >        2 </v>
  <v type="int" >        5 </v>
  <v type="int" >       43 </v>
  <v type="int" >       49 </v>
  <v type="int" >       56 </v>
  <v type="int" >       44 </v>
  <v type="int" >       46 </v>
  <v type="int" >       58 </v>
  <v type="int" >       55 </v>
  <v type="int" >       53 </v>
  <v type="int" >       15 </v>
  <v type="int" >       17 </v>
  <v type="int" >       12 </v>
  <v type="int" >       24 </v>
  <v type="int" >       18 </v>
  <v type="int" >       19 </v>
  <v type="int" >       22 </v>
  <v type="int" >       21 </v>
  <v type="int" >       32 </v>
  <v type="int" >       27 </v>
  <v type="int" >       34 </v>
  <v type="int" >       39 </v>
  <v type="int" >       33 </v>
  <v type="int" >       36 </v>
  <v type="int" >       37 </v>
  <v type="int" >       38 </v>
  <v type="int" >        6 </v>
  <v type="int" >        8 </v>
  <v type="int" >       48 </v>
  <v type="int" >       47 </v>
  <v type="int" >       57 </v>
  <v type="int" >       54 </v>
  <v type="int" >        4 </v>
  <v type="int" >       16 </v>
  <v type="int" >       11 </v>
  <v type="int" >       25 </v>
  <v type="int" >       26 </v>
  <v type="int" >       31 </v>
  <v type="int" >       28 </v>
  <v type="int" >       42 </v>
  <v type="int" >       41 </v>
  <v type="int" >        9 </v>
 </varray>
 <kpoints>
  <generation param="Gamma">
   <v type="int" name="divisions">       2        2        2 </v>
   <v name="usershift">      0.00000000       0.00000000       0.00000000 </v>
   <v name="genvec1">      0.50000000       0.00000000       0.00000000 </v>
   <v name="genvec2">      0.00000000       0.50000000       0.00000000 </v>
   <v name="genvec3">      0.00000000       0.00000000       0.50000000 </v>
   <v name="shift">      0.00000000       0.00000000       0.00000000 </v>
  </generation>
  <varray name="kpointlist" >
   <v>       0.00000000       0.00000000       0.00000000 </v>
   <v>       0.50000000       0.00000000       0.00000000 </v>
   <v>       0.00000000       0.50000000       0.00000000 </v>
   <v>       0.50000000       0.50000000       0.00000000 </v>
   <v>       0.00000000       0.00000000       0.50000000 </v>
   <v>       0.50000000       0.00000000       0.50000000 </v>
   <v>       0.00000000       0.50000000       0.50000000 </v>
   <v>       0.50000000       0.50000000       0.50000000 </v>
  </varray>
  <varray name="weights" >
   <v>       0.12500000 </v>
   <v>       0.12500000 </v>
   <v>       0.12500000 </v>
   <v>       0.12500000 </v>
   <v>       0.12500000 </v>
   <v>       0.12500000 </v>
   <v>       0.12500000 </v>
   <v>       0.12500000 </v>
  </varray>
  <varray name="tetrahedronlist"  type="int" >
   <v type="int" >        2        1        2        4        5 </v>
   <v type="int" >        2        1        3        4        5 </v>
   <v type="int" >        2        3        4        5        7 </v>
   <v type="int" >        2        2        4        5        6 </v>
   <v type="int" >        2        4        5        6        8 </v>
   <v type="int" >        2        4        5        7        8 </v>
   <v type="int" >        2        1        2        3        6 </v>
   <v type="int" >        2        2        3        4        6 </v>
   <v type="int" >        2        3        4        6        8 </v>
   <v type="int" >        2        1        3        5        6 </v>
   <v type="int" >        2        3        5        6        7 </v>
   <v type="int" >        2        3        6        7        8 </v>
   <v type="int" >        2        2        3        4        7 </v>
   <v type="int" >        2        1        2        3        7 </v>
   <v type="int" >        2        1        2        5        7 </v>
   <v type="int" >        2        2        4        7        8 </v>
   <v type="int" >        2        2        6        7        8 </v>
   <v type="int" >        2        2        5        6        7 </v>
   <v type="int" >        2        1        3        4        8 </v>
   <v type="int" >        2        1        2        4        8 </v>
   <v type="int" >        2        1        2        6        8 </v>
   <v type="int" >        2        1        3        7        8 </v>
   <v type="int" >        2        1        5        7        8 </v>
   <v type="int" >        2        1        5        6        8 </v>
  </varray>
  <i name="volumeweight">      0.02083333 </i>
 </kpoints>
 <parameters>
  <separator name="general" >
   <i type="string" name="SYSTEM">La2O2S</i>
   <i type="logical" name="LCOMPAT"> F  </i>
  </separator>
  <separator name="electronic" >
   <i type="string" name="PREC">normal</i>
   <i name="ENMAX">    600.00000000</i>
   <i name="ENAUG">    900.00000000</i>
   <i name="EDIFF">      0.00000100</i>
   <i type="int" name="IALGO">    38</i>
   <i type="int" name="IWAVPR">    11</i>
   <i type="int" name="NBANDS">   280</i>
   <i name="NELECT">    456.00000000</i>
   <i type="int" name="TURBO">     0</i>
   <i type="int" name="IRESTART">     0</i>
   <i type="int" name="NREBOOT">     0</i>
   <i type="int" name="NMIN">     0</i>
   <i name="EREF">      0.00000000</i>
   <separator name="electronic smearing" >
    <i type="int" name="ISMEAR">    -5</i>
    <i name="SIGMA">      0.20000000</i>
    <i name="KSPACING">      0.50000000</i>
    <i type="logical" name="KGAMMA"> T  </i>
   </separator>
   <separator name="electronic projectors" >
    <i type="logical" name="LREAL"> F  </i>
    <v name="ROPT">      0.00000000      0.00000000      0.00000000      0.00000000      0.00000000</v>
    <i type="int" name="LMAXPAW">  -100</i>
    <i type="int" name="LMAXMIX">     2</i>
    <i type="logical" name="NLSPLINE"> F  </i>
   </separator>
   <separator name="electronic startup" >
    <i type="int" name="ISTART">     0</i>
    <i type="int" name="ICHARG">     2</i>
    <i type="int" name="INIWAV">     1</i>
   </separator>
   <separator name="electronic spin" >
    <i type="int" name="ISPIN">     1</i>
    <i type="logical" name="LNONCOLLINEAR"> F  </i>
    <v name="MAGMOM">      1.00000000      1.00000000      1.00000000      1.00000000      1.00000000      1.00000000      1.00000000      1.00000000      1.00000000      1.00000000      1.00000000      1.00000000      1.00000000      1.00000000      1.00000000      1.00000000      1.00000000      1.00000000      1.00000000      1.00000000
      1.00000000      1.00000000      1.00000000      1.00000000      1.00000000      1.00000000      1.00000000      1.00000000      1.00000000      1.00000000      1.00000000      1.00000000      1.00000000      1.00000000      1.00000000      1.00000000      1.00000000      1.00000000      1.00000000      1.00000000
      1.00000000      1.00000000      1.00000000      1.00000000      1.00000000      1.00000000      1.00000000      1.00000000      1.00000000      1.00000000      1.00000000      1.00000000      1.00000000      1.00000000      1.00000000      1.00000000      1.00000000      1.00000000</v>
    <i name="NUPDOWN">     -1.00000000</i>
    <i type="logical" name="LSORBIT"> F  </i>
    <v name="SAXIS">      0.00000000      0.00000000      1.00000000</v>
    <i type="logical" name="LSPIRAL"> F  </i>
    <v name="QSPIRAL">      0.00000000      0.00000000      0.00000000</v>
    <i type="logical" name="LZEROZ"> F  </i>
   </separator>
   <separator name="electronic exchange-correlation" >
    <i type="logical" name="LASPH"> F  </i>
    <i type="logical" name="LMETAGGA"> F  </i>
   </separator>
   <separator name="electronic convergence" >
    <i type="int" name="NELM">    60</i>
    <i type="int" name="NELMDL">    -5</i>
    <i type="int" name="NELMIN">     4</i>
    <i name="ENINI">    600.00000000</i>
    <separator name="electronic convergence detail" >
     <i type="logical" name="LDIAG"> T  </i>
     <i type="logical" name="LSUBROT"> F  </i>
     <i name="WEIMIN">      0.00100000</i>
     <i name="EBREAK">      0.00000000</i>
     <i name="DEPER">      0.30000000</i>
     <i type="int" name="NRMM">     4</i>
     <i name="TIME">      0.40000000</i>
    </separator>
   </separator>
   <separator name="electronic mixer" >
    <i name="AMIX">      0.40000000</i>
    <i name="BMIX">      1.00000000</i>
    <i name="AMIN">      0.10000000</i>
    <i name="AMIX_MAG">      1.60000000</i>
    <i name="BMIX_MAG">      1.00000000</i>
    <separator name="electronic mixer details" >
     <i type="int" name="IMIX">     4</i>
     <i type="logical" name="MIXFIRST"> F  </i>
     <i type="int" name="MAXMIX">   -45</i>
     <i name="WC">    100.00000000</i>
     <i type="int" name="INIMIX">     1</i>
     <i type="int" name="MIXPRE">     1</i>
     <i type="int" name="MREMOVE">     5</i>
    </separator>
   </separator>
   <separator name="electronic dipolcorrection" >
    <i type="logical" name="LDIPOL"> F  </i>
    <i type="logical" name="LMONO"> F  </i>
    <i type="int" name="IDIPOL">     0</i>
    <i name="EPSILON">      1.00000000</i>
    <v name="DIPOL">   -100.00000000   -100.00000000   -100.00000000</v>
    <i name="EFIELD">      0.00000000</i>
   </separator>
  </separator>
  <separator name="grids" >
   <i type="int" name="NGX">    70</i>
   <i type="int" name="NGY">    60</i>
   <i type="int" name="NGZ">    70</i>
   <i type="int" name="NGXF">   140</i>
   <i type="int" name="NGYF">   120</i>
   <i type="int" name="NGZF">   140</i>
   <i type="logical" name="ADDGRID"> F  </i>
  </separator>
  <separator name="ionic" >
   <i type="int" name="NSW">     1</i>
   <i type="int" name="IBRION">     2</i>
   <i type="int" name="MDALGO">     0</i>
   <i type="int" name="ISIF">     2</i>
   <i name="PSTRESS">      0.00000000</i>
   <i name="EDIFFG">     -0.01000000</i>
   <i type="int" name="NFREE">    10</i>
   <i name="POTIM">      0.50000000</i>
   <i name="SMASS">     -3.00000000</i>
   <i name="SCALEE">      1.00000000</i>
  </separator>
  <separator name="ionic md" >
   <i name="TEBEG">      0.00010000</i>
   <i name="TEEND">      0.00010000</i>
   <i type="int" name="NBLOCK">     1</i>
   <i type="int" name="KBLOCK">     1</i>
   <i type="int" name="NPACO">   256</i>
   <i name="APACO">     16.00000000</i>
  </separator>
  <separator name="symmetry" >
   <i type="int" name="ISYM">     2</i>
   <i name="SYMPREC">      0.00001000</i>
  </separator>
  <separator name="dos" >
   <i type="int" name="LORBIT">     0</i>
   <v name="RWIGS">     -1.00000000     -1.00000000     -1.00000000     -1.00000000     -1.00000000</v>
   <i type="int" name="NEDOS">   301</i>
   <i name="EMIN">     10.00000000</i>
   <i name="EMAX">    -10.00000000</i>
   <i name="EFERMI">      0.00000000</i>
  </separator>
  <separator name="writing" >
   <i type="int" name="NWRITE">     2</i>
   <i type="logical" name="LWAVE"> F  </i>
   <i type="logical" name="LDOWNSAMPLE"> F  </i>
   <i type="logical" name="LCHARG"> F  </i>
   <i type="logical" name="LPARD"> F  </i>
   <i type="logical" name="LVTOT"> F  </i>
   <i type="logical" name="LVHAR"> F  </i>
   <i type="logical" name="LELF"> F  </i>
   <i type="logical" name="LOPTICS"> F  </i>
   <v name="STM">      0.00000000      0.00000000      0.00000000      0.00000000      0.00000000      0.00000000      0.00000000</v>
  </separator>
  <separator name="performance" >
   <i type="int" name="NPAR">    28</i>
   <i type="int" name="NSIM">     4</i>
   <i type="int" name="NBLK">    -1</i>
   <i type="logical" name="LPLANE"> T  </i>
   <i type="logical" name="LSCALAPACK"> T  </i>
   <i type="logical" name="LSCAAWARE"> F  </i>
   <i type="logical" name="LSCALU"> F  </i>
   <i type="logical" name="LASYNC"> F  </i>
   <i type="logical" name="LORBITALREAL"> F  </i>
  </separator>
  <separator name="miscellaneous" >
   <i type="int" name="IDIOT">     3</i>
   <i type="int" name="ISPECIAL">     0</i>
   <i type="logical" name="LMUSIC"> F  </i>
   <v name="POMASS">      7.01000000     24.30500000    208.98000000     32.06600000     16.00000000</v>
   <v name="DARWINR">      0.00000000      0.00000000      0.00000000      0.00000000      0.00000000</v>
   <v name="DARWINV">      1.00000000      1.00000000      1.00000000      1.00000000      1.00000000</v>
   <i type="logical" name="LCORR"> T  </i>
  </separator>
  <i type="logical" name="GGA_COMPAT"> T  </i>
  <i type="logical" name="LBERRY"> F  </i>
  <i type="int" name="ICORELEVEL">     0</i>
  <i type="logical" name="LDAU"> F  </i>
  <i type="int" name="I_CONSTRAINED_M">     0</i>
  <separator name="electronic exchange-correlation" >
   <i type="string" name="GGA">--</i>
   <i type="int" name="VOSKOWN">     0</i>
   <i type="logical" name="LHFCALC"> F  </i>
   <i type="string" name="PRECFOCK"></i>
   <i type="logical" name="LSYMGRAD"> F  </i>
   <i type="logical" name="LHFONE"> F  </i>
   <i type="logical" name="LRHFCALC"> F  </i>
   <i type="logical" name="LTHOMAS"> F  </i>
   <i type="logical" name="LMODELHF"> F  </i>
   <i name="ENCUT4O">     -1.00000000</i>
   <i type="int" name="EXXOEP">     0</i>
   <i type="int" name="FOURORBIT">     0</i>
   <i name="AEXX">      0.00000000</i>
   <i name="HFALPHA">      0.00000000</i>
   <i name="MCALPHA">      0.00000000</i>
   <i name="ALDAX">      1.00000000</i>
   <i name="AGGAX">      1.00000000</i>
   <i name="ALDAC">      1.00000000</i>
   <i name="AGGAC">      1.00000000</i>
   <i type="int" name="NKREDX">     1</i>
   <i type="int" name="NKREDY">     1</i>
   <i type="int" name="NKREDZ">     1</i>
   <i type="logical" name="SHIFTRED"> F  </i>
   <i type="logical" name="ODDONLY"> F  </i>
   <i type="logical" name="EVENONLY"> F  </i>
   <i type="int" name="LMAXFOCK">     0</i>
   <i type="int" name="NMAXFOCKAE">     0</i>
   <i type="logical" name="LFOCKAEDFT"> F  </i>
   <i name="HFSCREEN">      0.00000000</i>
   <i name="HFSCREENC">      0.00000000</i>
   <i type="int" name="NBANDSGWLOW">     0</i>
  </separator>
  <separator name="vdW DFT" >
   <i type="logical" name="LUSE_VDW"> F  </i>
   <i name="Zab_VDW">     -0.84910000</i>
   <i name="PARAM1">      0.12340000</i>
   <i name="PARAM2">      1.00000000</i>
   <i name="PARAM3">      0.00000000</i>
  </separator>
  <separator name="model GW" >
   <i type="int" name="MODEL_GW">     0</i>
   <i name="MODEL_EPS0">     12.38119177</i>
   <i name="MODEL_ALPHA">      1.00000000</i>
  </separator>
  <separator name="linear response parameters" >
   <i type="logical" name="LEPSILON"> F  </i>
   <i type="logical" name="LRPA"> F  </i>
   <i type="logical" name="LNABLA"> F  </i>
   <i type="logical" name="LVEL"> F  </i>
   <i type="int" name="KINTER">     0</i>
   <i name="CSHIFT">      0.10000000</i>
   <i name="OMEGAMAX">     -1.00000000</i>
   <i name="DEG_THRESHOLD">      0.00200000</i>
   <i name="RTIME">     -0.10000000</i>
   <i name="WPLASMAI">      0.00000000</i>
   <v name="DFIELD">      0.00000000      0.00000000      0.00000000</v>
   <v name="WPLASMA">      0.00000000      0.00000000      0.00000000      0.00000000      0.00000000      0.00000000      0.00000000      0.00000000      0.00000000</v>
  </separator>
  <separator name="orbital magnetization" >
   <i type="logical" name="NUCIND"> F  </i>
   <v name="MAGPOS">      0.00000000      0.00000000      0.00000000</v>
   <i type="logical" name="LNICSALL"> T  </i>
   <i type="logical" name="ORBITALMAG"> F  </i>
   <i type="logical" name="LMAGBLOCH"> F  </i>
   <i type="logical" name="LCHIMAG"> F  </i>
   <i type="logical" name="LGAUGE"> T  </i>
   <i type="int" name="MAGATOM">     0</i>
   <v name="MAGDIPOL">      0.00000000      0.00000000      0.00000000</v>
   <v name="AVECCONST">      0.00000000      0.00000000      0.00000000</v>
  </separator>
  <separator name="response functions" >
   <i type="logical" name="LADDER"> F  </i>
   <i type="logical" name="LRPAFORCE"> F  </i>
   <i type="logical" name="LFXC"> F  </i>
   <i type="logical" name="LHARTREE"> T  </i>
   <i type="int" name="IBSE">     0</i>
   <v type="int" name="KPOINT">    -1     0     0     0</v>
   <i type="logical" name="LTCTE"> F  </i>
   <i type="logical" name="LTETE"> F  </i>
   <i type="logical" name="LTRIPLET"> F  </i>
   <i type="logical" name="LFXCEPS"> F  </i>
   <i type="logical" name="LFXHEG"> F  </i>
   <i type="int" name="NATURALO">     2</i>
   <i type="logical" name="L2ORDER"> F  </i>
   <i type="logical" name="LMP2LT"> F  </i>
   <i type="logical" name="LUSEW"> F  </i>
   <i name="ENCUTGW">     -2.00000000</i>
   <i name="ENCUTGWSOFT">     -2.00000000</i>
   <i name="ENCUTLF">     -1.00000000</i>
   <i type="int" name="LMAXMP2">    -1</i>
   <i name="SCISSOR">      0.00000000</i>
   <i type="int" name="NOMEGA">     0</i>
   <i type="int" name="NOMEGAR">     0</i>
   <i type="int" name="NBANDSGW">    -1</i>
   <i type="int" name="NBANDSO">    -1</i>
   <i type="int" name="NBANDSV">    -1</i>
   <i type="int" name="NELM">     1</i>
   <i type="int" name="NELMHF">     1</i>
   <i type="int" name="DIM">     3</i>
   <i type="int" name="ANTIRES">     0</i>
   <i name="OMEGAMAX">    -30.00000000</i>
   <i name="OMEGAMIN">    -30.00000000</i>
   <i name="OMEGATL">   -200.00000000</i>
   <i type="int" name="OMEGAGRID">   140</i>
   <i name="CSHIFT">     -0.10000000</i>
   <i type="logical" name="SELFENERGY"> F  </i>
   <i type="logical" name="LSPECTRAL"> F  </i>
   <i type="logical" name="LSPECTRALGW"> F  </i>
   <i type="logical" name="LSINGLES"> F  </i>
   <i type="logical" name="LFERMIGW"> F  </i>
   <i type="logical" name="ODDONLYGW"> F  </i>
   <i type="logical" name="EVENONLYGW"> F  </i>
   <i type="int" name="NKREDLFX">     1</i>
   <i type="int" name="NKREDLFY">     1</i>
   <i type="int" name="NKREDLFZ">     1</i>
   <i type="int" name="MAXMEM">  2800</i>
   <i type="int" name="TELESCOPE">     0</i>
   <i type="int" name="TAUPAR">     1</i>
   <i type="int" name="OMEGAPAR">    -1</i>
   <i name="LAMBDA">      1.00000000</i>
  </separator>
  <separator name="External order field" >
   <i name="OFIELD_KAPPA">      0.00000000</i>
   <v name="OFIELD_K">      0.00000000      0.00000000      0.00000000</v>
   <i name="OFIELD_Q6_NEAR">      0.00000000</i>
   <i name="OFIELD_Q6_FAR">      0.00000000</i>
   <i name="OFIELD_A">      0.00000000</i>
  </separator>
 </parameters>
 <atominfo>
  <atoms>      58 </atoms>
  <types>       5 </types>
  <array name="atoms" >
   <dimension dim="1">ion</dimension>
   <field type="string">element</field>
   <field type="int">atomtype</field>
   <set>
    <rc><c>Li</c><c>   1</c></rc>
    <rc><c>Li</c><c>   1</c></rc>
    <rc><c>Li</c><c>   1</c></rc>
    <rc><c>Li</c><c>   1</c></rc>
    <rc><c>Mg</c><c>   2</c></rc>
    <rc><c>Mg</c><c>   2</c></rc>
    <rc><c>Mg</c><c>   2</c></rc>
    <rc><c>Mg</c><c>   2</c></rc>
    <rc><c>Mg</c><c>   2</c></rc>
    <rc><c>Mg</c><c>   2</c></rc>
    <rc><c>Bi</c><c>   3</c></rc>
    <rc><c>Bi</c><c>   3</c></rc>
    <rc><c>Bi</c><c>   3</c></rc>
    <rc><c>Bi</c><c>   3</c></rc>
    <rc><c>Bi</c><c>   3</c></rc>
    <rc><c>Bi</c><c>   3</c></rc>
    <rc><c>Bi</c><c>   3</c></rc>
    <rc><c>Bi</c><c>   3</c></rc>
    <rc><c>Bi</c><c>   3</c></rc>
    <rc><c>Bi</c><c>   3</c></rc>
    <rc><c>Bi</c><c>   3</c></rc>
    <rc><c>Bi</c><c>   3</c></rc>
    <rc><c>Bi</c><c>   3</c></rc>
    <rc><c>Bi</c><c>   3</c></rc>
    <rc><c>Bi</c><c>   3</c></rc>
    <rc><c>Bi</c><c>   3</c></rc>
    <rc><c>S </c><c>   4</c></rc>
    <rc><c>S </c><c>   4</c></rc>
    <rc><c>S </c><c>   4</c></rc>
    <rc><c>S </c><c>   4</c></rc>
    <rc><c>S </c><c>   4</c></rc>
    <rc><c>S </c><c>   4</c></rc>
    <rc><c>S </c><c>   4</c></rc>
    <rc><c>S </c><c>   4</c></rc>
    <rc><c>S </c><c>   4</c></rc>
    <rc><c>S </c><c>   4</c></rc>
    <rc><c>S </c><c>   4</c></rc>
    <rc><c>S </c><c>   4</c></rc>
    <rc><c>S </c><c>   4</c></rc>
    <rc><c>S </c><c>   4</c></rc>
    <rc><c>S </c><c>   4</c></rc>
    <rc><c>S </c><c>   4</c></rc>
    <rc><c>O </c><c>   5</c></rc>
    <rc><c>O </c><c>   5</c></rc>
    <rc><c>O </c><c>   5</c></rc>
    <rc><c>O </c><c>   5</c></rc>
    <rc><c>O </c><c>   5</c></rc>
    <rc><c>O </c><c>   5</c></rc>
    <rc><c>O </c><c>   5</c></rc>
    <rc><c>O </c><c>   5</c></rc>
    <rc><c>O </c><c>   5</c></rc>
    <rc><c>O </c><c>   5</c></rc>
    <rc><c>O </c><c>   5</c></rc>
    <rc><c>O </c><c>   5</c></rc>
    <rc><c>O </c><c>   5</c></rc>
    <rc><c>O </c><c>   5</c></rc>
    <rc><c>O </c><c>   5</c></rc>
    <rc><c>O </c><c>   5</c></rc>
   </set>
  </array>
  <array name="atomtypes" >
   <dimension dim="1">type</dimension>
   <field type="int">atomspertype</field>
   <field type="string">element</field>
   <field>mass</field>
   <field>valence</field>
   <field type="string">pseudopotential</field>
   <set>
    <rc><c>   4</c><c>Li</c><c>      7.01000000</c><c>      3.00000000</c><c>  PAW_PBE Li_sv 10Sep2004               </c></rc>
    <rc><c>   6</c><c>Mg</c><c>     24.30500000</c><c>      2.00000000</c><c>  PAW_PBE Mg 13Apr2007                  </c></rc>
    <rc><c>  16</c><c>Bi</c><c>    208.98000000</c><c>     15.00000000</c><c>  PAW_PBE Bi_d 06Sep2000                </c></rc>
    <rc><c>  16</c><c>S </c><c>     32.06600000</c><c>      6.00000000</c><c>  PAW_PBE S 06Sep2000                   </c></rc>
    <rc><c>  16</c><c>O </c><c>     16.00000000</c><c>      6.00000000</c><c>  PAW_PBE O 08Apr2002                   </c></rc>
   </set>
  </array>
 </atominfo>
 <structure name="initialpos" >
  <crystal>
   <varray name="basis" >
    <v>      11.17850000       0.00000000       0.00000000 </v>
    <v>       0.00000000       9.57460000       0.00000000 </v>
    <v>       0.00000000       0.00000000      11.18240000 </v>
   </varray>
   <i name="volume">   1196.84853820 </i>
   <varray name="rec_basis" >
    <v>       0.08945744       0.00000000       0.00000000 </v>
    <v>       0.00000000       0.10444301       0.00000000 </v>
    <v>       0.00000000       0.00000000       0.08942624 </v>
   </varray>
  </crystal>
  <varray name="positions" >
   <v>       0.37539000       0.00017000       0.43687000 </v>
   <v>       0.12461000       0.99984000       0.68687000 </v>
   <v>       0.37461000       0.00017000       0.68687000 </v>
   <v>       0.87461000       0.00017000       0.68687000 </v>
   <v>       0.12461000       0.99984000       0.18687000 </v>
   <v>       0.87539000       0.00017000       0.43687000 </v>
   <v>       0.62461000       0.99984000       0.18687000 </v>
   <v>       0.37539000       0.00017000       0.93687000 </v>
   <v>       0.87539000       0.00017000       0.93687000 </v>
   <v>       0.62461000       0.99984000       0.68687000 </v>
   <v>       0.00013000       0.29519000       0.06281000 </v>
   <v>       0.25013000       0.70481000       0.06281000 </v>
   <v>       0.24987000       0.29519000       0.31282000 </v>
   <v>       0.49987000       0.70481000       0.31282000 </v>
   <v>       0.50013000       0.29519000       0.06281000 </v>
   <v>       0.75013000       0.70481000       0.06281000 </v>
   <v>       0.74987000       0.29519000       0.31282000 </v>
   <v>       0.99987000       0.70481000       0.31282000 </v>
   <v>       0.00013000       0.29519000       0.56281000 </v>
   <v>       0.25013000       0.70481000       0.56281000 </v>
   <v>       0.24987000       0.29519000       0.81282000 </v>
   <v>       0.49987000       0.70481000       0.81282000 </v>
   <v>       0.50013000       0.29519000       0.56281000 </v>
   <v>       0.75013000       0.70481000       0.56281000 </v>
   <v>       0.74987000       0.29519000       0.81282000 </v>
   <v>       0.99987000       0.70481000       0.81282000 </v>
   <v>       0.25005000       0.32677000       0.06286000 </v>
   <v>       0.00005000       0.67323000       0.06286000 </v>
   <v>       0.49995000       0.32677000       0.31286000 </v>
   <v>       0.24995000       0.67323000       0.31286000 </v>
   <v>       0.75005000       0.32677000       0.06286000 </v>
   <v>       0.50005000       0.67323000       0.06286000 </v>
   <v>       0.99995000       0.32677000       0.31286000 </v>
   <v>       0.74995000       0.67323000       0.31286000 </v>
   <v>       0.25005000       0.32677000       0.56286000 </v>
   <v>       0.00005000       0.67323000       0.56286000 </v>
   <v>       0.49995000       0.32677000       0.81286000 </v>
   <v>       0.24995000       0.67323000       0.81286000 </v>
   <v>       0.75005000       0.32677000       0.56286000 </v>
   <v>       0.50005000       0.67323000       0.56286000 </v>
   <v>       0.99995000       0.32677000       0.81286000 </v>
   <v>       0.74995000       0.67323000       0.81286000 </v>
   <v>       0.49987000       0.07798000       0.06246000 </v>
   <v>       0.24987000       0.92202000       0.06246000 </v>
   <v>       0.25013000       0.07798000       0.31246000 </v>
   <v>       0.00013000       0.92202000       0.31246000 </v>
   <v>       0.99987000       0.07798000       0.06246000 </v>
   <v>       0.74987000       0.92202000       0.06246000 </v>
   <v>       0.75013000       0.07798000       0.31246000 </v>
   <v>       0.50013000       0.92202000       0.31246000 </v>
   <v>       0.49987000       0.07798000       0.56246000 </v>
   <v>       0.24987000       0.92202000       0.56246000 </v>
   <v>       0.25013000       0.07798000       0.81246000 </v>
   <v>       0.00013000       0.92202000       0.81246000 </v>
   <v>       0.99987000       0.07798000       0.56246000 </v>
   <v>       0.74987000       0.92202000       0.56246000 </v>
   <v>       0.75013000       0.07798000       0.81246000 </v>
   <v>       0.50013000       0.92202000       0.81246000 </v>
  </varray>
 </structure>
 <calculation>
  <scstep>
   <time name="dav">   60.69   61.00</time>
   <time name="total">   60.77   61.09</time>
   <energy>
    <i name="alphaZ">   1054.17224280 </i>
    <i name="ewald"> -30175.29302286 </i>
    <i name="hartreedc"> -12709.72864541 </i>
    <i name="XCdc">   1173.23386450 </i>
    <i name="pawpsdc">  36541.05238669 </i>
    <i name="pawaedc"> -35795.85877930 </i>
    <i name="eentropy">      0.00000000 </i>
    <i name="bandstr">   1909.77883551 </i>
    <i name="atom">  43643.51795008 </i>
    <i name="e_fr_energy">   5640.87483201 </i>
    <i name="e_wo_entrp">   5640.87483201 </i>
    <i name="e_0_energy">   5640.87483201 </i>
   </energy>
  </scstep>
  <scstep>
   <time name="dav">   61.64   61.99</time>
   <time name="total">   61.65   62.00</time>
   <energy>
    <i name="e_fr_energy">    738.83726151 </i>
    <i name="e_wo_entrp">    738.83726151 </i>
    <i name="e_0_energy">    738.83726151 </i>
   </energy>
  </scstep>
  <scstep>
   <time name="dav">   71.17   71.53</time>
   <time name="total">   71.18   71.54</time>
   <energy>
    <i name="e_fr_energy">   -246.44029334 </i>
    <i name="e_wo_entrp">   -246.44029334 </i>
    <i name="e_0_energy">   -246.44029334 </i>
   </energy>
  </scstep>
  <scstep>
   <time name="dav">   73.90   74.22</time>
   <time name="total">   73.91   74.22</time>
   <energy>
    <i name="e_fr_energy">   -333.03783519 </i>
    <i name="e_wo_entrp">   -333.03783519 </i>
    <i name="e_0_energy">   -333.03783519 </i>
   </energy>
  </scstep>
  <scstep>
   <time name="dav">   93.62   94.46</time>
   <time name="total">   94.34   95.19</time>
   <energy>
    <i name="e_fr_energy">   -338.98724734 </i>
    <i name="e_wo_entrp">   -338.98724734 </i>
    <i name="e_0_energy">   -338.98724734 </i>
   </energy>
  </scstep>
  <scstep>
   <time name="dav">   86.58   87.10</time>
   <time name="total">   87.38   87.91</time>
   <energy>
    <i name="e_fr_energy">   -284.74011592 </i>
    <i name="e_wo_entrp">   -284.74011592 </i>
    <i name="e_0_energy">   -284.74011592 </i>
   </energy>
  </scstep>
  <scstep>
   <time name="dav">   66.47   66.59</time>
   <time name="total">   67.26   67.38</time>
   <energy>
    <i name="e_fr_energy">   -286.97790078 </i>
    <i name="e_wo_entrp">   -286.97790078 </i>
    <i name="e_0_energy">   -286.97790078 </i>
   </energy>
  </scstep>
  <scstep>
   <time name="dav">   75.65   75.95</time>
   <time name="total">   76.49   76.79</time>
   <energy>
    <i name="e_fr_energy">   -286.11713980 </i>
    <i name="e_wo_entrp">   -286.11713980 </i>
    <i name="e_0_energy">   -286.11713980 </i>
   </energy>
  </scstep>
  <scstep>
   <time name="dav">   74.85   74.89</time>
   <time name="total">   75.63   75.68</time>
   <energy>
    <i name="e_fr_energy">   -285.67475744 </i>
    <i name="e_wo_entrp">   -285.67475744 </i>
    <i name="e_0_energy">   -285.67475744 </i>
   </energy>
  </scstep>
  <scstep>
   <time name="dav">   72.71   72.90</time>
   <time name="total">   73.49   73.72</time>
   <energy>
    <i name="e_fr_energy">   -285.69494106 </i>
    <i name="e_wo_entrp">   -285.69494106 </i>
    <i name="e_0_energy">   -285.69494106 </i>
   </energy>
  </scstep>
  <scstep>
   <time name="dav">   81.18   81.75</time>
   <time name="total">   81.96   82.54</time>
   <energy>
    <i name="e_fr_energy">   -285.70044731 </i>
    <i name="e_wo_entrp">   -285.70044731 </i>
    <i name="e_0_energy">   -285.70044731 </i>
   </energy>
  </scstep>
  <scstep>
   <time name="dav">   74.49   74.55</time>
   <time name="total">   75.28   75.34</time>
   <energy>
    <i name="e_fr_energy">   -285.70332189 </i>
    <i name="e_wo_entrp">   -285.70332189 </i>
    <i name="e_0_energy">   -285.70332189 </i>
   </energy>
  </scstep>
  <scstep>
   <time name="dav">   74.39   75.03</time>
   <time name="total">   75.18   75.82</time>
   <energy>
    <i name="e_fr_energy">   -285.70451675 </i>
    <i name="e_wo_entrp">   -285.70451675 </i>
    <i name="e_0_energy">   -285.70451675 </i>
   </energy>
  </scstep>
  <scstep>
   <time name="dav">   73.43   74.22</time>
   <time name="total">   74.22   75.01</time>
   <energy>
    <i name="e_fr_energy">   -285.70474114 </i>
    <i name="e_wo_entrp">   -285.70474114 </i>
    <i name="e_0_energy">   -285.70474114 </i>
   </energy>
  </scstep>
  <scstep>
   <time name="dav">   85.52   85.57</time>
   <time name="total">   86.30   86.36</time>
   <energy>
    <i name="e_fr_energy">   -285.70476027 </i>
    <i name="e_wo_entrp">   -285.70476027 </i>
    <i name="e_0_energy">   -285.70476027 </i>
   </energy>
  </scstep>
  <scstep>
   <time name="dav">   65.95   66.09</time>
   <time name="total">   66.74   66.89</time>
   <energy>
    <i name="e_fr_energy">   -285.70477935 </i>
    <i name="e_wo_entrp">   -285.70477935 </i>
    <i name="e_0_energy">   -285.70477935 </i>
   </energy>
  </scstep>
  <scstep>
   <time name="dav">   74.02   74.05</time>
   <time name="total">   74.10   74.12</time>
   <energy>
    <i name="alphaZ">   1054.17224280 </i>
    <i name="ewald"> -30175.29302286 </i>
    <i name="hartreedc"> -12953.72898747 </i>
    <i name="XCdc">   1198.77176811 </i>
    <i name="pawpsdc">  43579.38939225 </i>
    <i name="pawaedc"> -42806.90652801 </i>
    <i name="eentropy">      0.00000000 </i>
    <i name="bandstr">  -3825.62759523 </i>
    <i name="atom">  43643.51795008 </i>
    <i name="e_fr_energy">   -285.70478032 </i>
    <i name="e_wo_entrp">   -285.70478032 </i>
    <i name="e_0_energy">   -285.70478032 </i>
   </energy>
  </scstep>
  <structure>
   <crystal>
    <varray name="basis" >
     <v>      11.17850000       0.00000000       0.00000000 </v>
     <v>       0.00000000       9.57460000       0.00000000 </v>
     <v>       0.00000000       0.00000000      11.18240000 </v>
    </varray>
    <i name="volume">   1196.84853820 </i>
    <varray name="rec_basis" >
     <v>       0.08945744       0.00000000       0.00000000 </v>
     <v>       0.00000000       0.10444301       0.00000000 </v>
     <v>       0.00000000       0.00000000       0.08942624 </v>
    </varray>
   </crystal>
   <varray name="positions" >
    <v>       0.37539000       0.00017000       0.43687000 </v>
    <v>       0.12461000       0.99984000       0.68687000 </v>
    <v>       0.37461000       0.00017000       0.68687000 </v>
    <v>       0.87461000       0.00017000       0.68687000 </v>
    <v>       0.12461000       0.99984000       0.18687000 </v>
    <v>       0.87539000       0.00017000       0.43687000 </v>
    <v>       0.62461000       0.99984000       0.18687000 </v>
    <v>       0.37539000       0.00017000       0.93687000 </v>
    <v>       0.87539000       0.00017000       0.93687000 </v>
    <v>       0.62461000       0.99984000       0.68687000 </v>
    <v>       0.00013000       0.29519000       0.06281000 </v>
    <v>       0.25013000       0.70481000       0.06281000 </v>
    <v>       0.24987000       0.29519000       0.31282000 </v>
    <v>       0.49987000       0.70481000       0.31282000 </v>
    <v>       0.50013000       0.29519000       0.06281000 </v>
    <v>       0.75013000       0.70481000       0.06281000 </v>
    <v>       0.74987000       0.29519000       0.31282000 </v>
    <v>       0.99987000       0.70481000       0.31282000 </v>
    <v>       0.00013000       0.29519000       0.56281000 </v>
    <v>       0.25013000       0.70481000       0.56281000 </v>
    <v>       0.24987000       0.29519000       0.81282000 </v>
    <v>       0.49987000       0.70481000       0.81282000 </v>
    <v>       0.50013000       0.29519000       0.56281000 </v>
    <v>       0.75013000       0.70481000       0.56281000 </v>
    <v>       0.74987000       0.29519000       0.81282000 </v>
    <v>       0.99987000       0.70481000       0.81282000 </v>
    <v>       0.25005000       0.32677000       0.06286000 </v>
    <v>       0.00005000       0.67323000       0.06286000 </v>
    <v>       0.49995000       0.32677000       0.31286000 </v>
    <v>       0.24995000       0.67323000       0.31286000 </v>
    <v>       0.75005000       0.32677000       0.06286000 </v>
    <v>       0.50005000       0.67323000       0.06286000 </v>
    <v>       0.99995000       0.32677000       0.31286000 </v>
    <v>       0.74995000       0.67323000       0.31286000 </v>
    <v>       0.25005000       0.32677000       0.56286000 </v>
    <v>       0.00005000       0.67323000       0.56286000 </v>
    <v>       0.49995000       0.32677000       0.81286000 </v>
    <v>       0.24995000       0.67323000       0.81286000 </v>
    <v>       0.75005000       0.32677000       0.56286000 </v>
    <v>       0.50005000       0.67323000       0.56286000 </v>
    <v>       0.99995000       0.32677000       0.81286000 </v>
    <v>       0.74995000       0.67323000       0.81286000 </v>
    <v>       0.49987000       0.07798000       0.06246000 </v>
    <v>       0.24987000       0.92202000       0.06246000 </v>
    <v>       0.25013000       0.07798000       0.31246000 </v>
    <v>       0.00013000       0.92202000       0.31246000 </v>
    <v>       0.99987000       0.07798000       0.06246000 </v>
    <v>       0.74987000       0.92202000       0.06246000 </v>
    <v>       0.75013000       0.07798000       0.31246000 </v>
    <v>       0.50013000       0.92202000       0.31246000 </v>
    <v>       0.49987000       0.07798000       0.56246000 </v>
    <v>       0.24987000       0.92202000       0.56246000 </v>
    <v>       0.25013000       0.07798000       0.81246000 </v>
    <v>       0.00013000       0.92202000       0.81246000 </v>
    <v>       0.99987000       0.07798000       0.56246000 </v>
    <v>       0.74987000       0.92202000       0.56246000 </v>
    <v>       0.75013000       0.07798000       0.81246000 </v>
    <v>       0.50013000       0.92202000       0.81246000 </v>
   </varray>
  </structure>
  <varray name="forces" >
   <v>      -0.12400631      -0.07147159      -0.44265821 </v>
   <v>       0.12788061      -0.06710705      -0.10584112 </v>
   <v>      -0.50904840      -0.00169987      -0.49355607 </v>
   <v>       0.51200275      -0.00231358      -0.02883343 </v>
   <v>       0.26395536       0.11605002       0.26202869 </v>
   <v>       0.22644406       0.11276649      -0.87060119 </v>
   <v>      -0.20614268      -0.11201339       0.26504974 </v>
   <v>      -0.27901250       0.11136038       0.91714963 </v>
   <v>       0.22690766      -0.12925841       0.92318350 </v>
   <v>      -0.22864572       0.11436057      -0.21488166 </v>
   <v>       0.13088480      -0.05967472       0.12739007 </v>
   <v>       0.01483171       0.08670163       0.18919507 </v>
   <v>       0.12895802      -1.04712036       0.12609517 </v>
   <v>      -0.26011483       1.00866567       0.06946542 </v>
   <v>      -0.17167213      -0.05204808       0.24579569 </v>
   <v>       0.00056440       0.04897109       0.18300110 </v>
   <v>      -0.05251648      -0.05947142      -0.04710573 </v>
   <v>       0.21542164       0.06915214       0.01536377 </v>
   <v>       0.44937755       0.04691934      -0.18117771 </v>
   <v>      -0.11183369       0.97398483      -0.28890591 </v>
   <v>      -0.23012862       0.03762457      -0.03922094 </v>
   <v>      -0.08644627      -1.01527679       0.09278376 </v>
   <v>      -0.22922615       0.06421918      -0.42914879 </v>
   <v>      -0.13131482      -1.02406699      -0.31650984 </v>
   <v>      -0.06296024       1.02839033       0.15965337 </v>
   <v>       0.39778566      -0.06471932       0.01922341 </v>
   <v>       0.00116783       0.13186413      -0.18877167 </v>
   <v>      -0.07610898      -0.09524440      -0.09960439 </v>
   <v>       0.21084908       0.15619509      -0.02863466 </v>
   <v>      -0.14584040      -0.18628849      -0.12533181 </v>
   <v>       0.00460093       0.06187118      -0.17585617 </v>
   <v>       0.06839928      -0.09731270      -0.25913809 </v>
   <v>      -0.16618383       0.13041674       0.03039074 </v>
   <v>       0.09675450      -0.10020022       0.10288033 </v>
   <v>       0.01465135       0.20607856       0.19651904 </v>
   <v>      -0.30267919      -0.12820731       0.05593405 </v>
   <v>       0.13983556       0.07253913      -0.03673029 </v>
   <v>       0.14360888      -0.14296086       0.10834352 </v>
   <v>       0.00219516       0.06079832       0.18626116 </v>
   <v>       0.28794434      -0.12530917       0.32336602 </v>
   <v>      -0.21930650       0.09978696       0.01329816 </v>
   <v>      -0.05824040      -0.03027381      -0.11181303 </v>
   <v>       0.03281753       0.27381492      -0.20677768 </v>
   <v>       0.04984087      -0.32645545      -0.16139665 </v>
   <v>      -0.56579152       1.02137535      -0.55491970 </v>
   <v>      -0.14875896      -0.32295850       0.03646154 </v>
   <v>      -0.10265444       0.27981834      -0.11442300 </v>
   <v>       0.05256948      -0.22068933      -0.17124055 </v>
   <v>       0.06792163       0.27375074       0.08110033 </v>
   <v>       0.60028415      -0.97107429      -0.50675639 </v>
   <v>       0.11411165      -0.01992577       1.34553751 </v>
   <v>       0.60952633      -0.82000057       0.74949755 </v>
   <v>       1.20076176       0.01564630      -0.06755915 </v>
   <v>      -1.27747470       0.05370676      -0.13886231 </v>
   <v>      -1.30920860      -0.01971509       0.19453253 </v>
   <v>       0.60268037       0.72485368       0.78562387 </v>
   <v>       0.52362696      -0.75767430      -0.74197061 </v>
   <v>      -0.46384553       0.68884939      -0.65689801 </v>
  </varray>
  <varray name="stress" >
   <v>     -11.29203521      -0.49294575      -0.40589748 </v>
   <v>      -0.49294564     -12.89490314      -0.00102220 </v>
   <v>      -0.40589761      -0.00102216     -10.02940918 </v>
  </varray>
  <energy>
   <i name="e_fr_energy">   -297.41064743 </i>
   <i name="e_wo_entrp">   -297.41064743 </i>
   <i name="e_0_energy">      0.00000000 </i>
  </energy>
  <time name="totalsc"> 1385.94 1392.36</time>
  <eigenvalues>
   <array>
    <dimension dim="1">band</dimension>
    <dimension dim="2">kpoint</dimension>
    <dimension dim="3">spin</dimension>
    <field>eigene</field>
    <field>occ</field>
    <set>
     <set comment="spin 1">
      <set comment="kpoint 1">
       <r>  -40.4125    1.0000 </r>
       <r>  -39.9547    1.0000 </r>
       <r>  -39.6392    1.0000 </r>
       <r>  -39.2023    1.0000 </r>
       <r>  -19.0515    1.0000 </r>
       <r>  -18.9789    1.0000 </r>
       <r>  -18.9781    1.0000 </r>
       <r>  -18.9700    1.0000 </r>
       <r>  -18.9683    1.0000 </r>
       <r>  -18.9099    1.0000 </r>
       <r>  -18.9026    1.0000 </r>
       <r>  -18.8945    1.0000 </r>
       <r>  -18.8861    1.0000 </r>
       <r>  -18.8798    1.0000 </r>
       <r>  -18.8601    1.0000 </r>
       <r>  -18.8077    1.0000 </r>
       <r>  -18.7999    1.0000 </r>
       <r>  -18.7838    1.0000 </r>
       <r>  -18.7780    1.0000 </r>
       <r>  -18.7727    1.0000 </r>
       <r>  -18.7644    1.0000 </r>
       <r>  -18.7551    1.0000 </r>
       <r>  -18.7421    1.0000 </r>
       <r>  -18.7307    1.0000 </r>
       <r>  -18.7229    1.0000 </r>
       <r>  -18.7217    1.0000 </r>
       <r>  -18.7149    1.0000 </r>
       <r>  -18.7093    1.0000 </r>
       <r>  -18.7066    1.0000 </r>
       <r>  -18.7041    1.0000 </r>
       <r>  -18.6977    1.0000 </r>
       <r>  -18.6970    1.0000 </r>
       <r>  -18.6914    1.0000 </r>
       <r>  -18.6866    1.0000 </r>
       <r>  -18.6843    1.0000 </r>
       <r>  -18.6813    1.0000 </r>
       <r>  -18.6779    1.0000 </r>
       <r>  -18.6751    1.0000 </r>
       <r>  -18.6704    1.0000 </r>
       <r>  -18.6650    1.0000 </r>
       <r>  -18.6624    1.0000 </r>
       <r>  -18.6515    1.0000 </r>
       <r>  -18.6422    1.0000 </r>
       <r>  -18.6190    1.0000 </r>
       <r>  -18.6168    1.0000 </r>
       <r>  -18.6092    1.0000 </r>
       <r>  -18.6010    1.0000 </r>
       <r>  -18.6002    1.0000 </r>
       <r>  -18.5945    1.0000 </r>
       <r>  -18.5878    1.0000 </r>
       <r>  -18.5847    1.0000 </r>
       <r>  -18.5761    1.0000 </r>
       <r>  -18.5649    1.0000 </r>
       <r>  -18.5593    1.0000 </r>
       <r>  -18.5585    1.0000 </r>
       <r>  -18.5454    1.0000 </r>
       <r>  -18.5428    1.0000 </r>
       <r>  -18.5427    1.0000 </r>
       <r>  -18.5379    1.0000 </r>
       <r>  -18.5360    1.0000 </r>
       <r>  -18.5259    1.0000 </r>
       <r>  -18.5180    1.0000 </r>
       <r>  -18.5083    1.0000 </r>
       <r>  -18.5066    1.0000 </r>
       <r>  -18.4903    1.0000 </r>
       <r>  -18.4607    1.0000 </r>
       <r>  -18.4560    1.0000 </r>
       <r>  -18.4497    1.0000 </r>
       <r>  -18.4454    1.0000 </r>
       <r>  -18.4398    1.0000 </r>
       <r>  -18.4274    1.0000 </r>
       <r>  -18.4260    1.0000 </r>
       <r>  -18.4190    1.0000 </r>
       <r>  -18.3764    1.0000 </r>
       <r>  -18.3646    1.0000 </r>
       <r>  -18.3630    1.0000 </r>
       <r>  -18.3539    1.0000 </r>
       <r>  -18.2834    1.0000 </r>
       <r>  -18.2493    1.0000 </r>
       <r>  -18.2436    1.0000 </r>
       <r>  -18.2319    1.0000 </r>
       <r>  -18.2186    1.0000 </r>
       <r>  -18.1746    1.0000 </r>
       <r>  -18.1481    1.0000 </r>
       <r>  -13.7034    1.0000 </r>
       <r>  -13.5534    1.0000 </r>
       <r>  -13.5397    1.0000 </r>
       <r>  -12.9476    1.0000 </r>
       <r>  -12.8552    1.0000 </r>
       <r>  -12.8241    1.0000 </r>
       <r>  -12.8081    1.0000 </r>
       <r>  -12.7897    1.0000 </r>
       <r>  -12.7457    1.0000 </r>
       <r>  -12.7154    1.0000 </r>
       <r>  -12.6950    1.0000 </r>
       <r>  -12.6307    1.0000 </r>
       <r>  -12.5911    1.0000 </r>
       <r>  -12.0434    1.0000 </r>
       <r>  -11.9952    1.0000 </r>
       <r>  -11.9146    1.0000 </r>
       <r>   -9.3926    1.0000 </r>
       <r>   -9.0982    1.0000 </r>
       <r>   -8.5783    1.0000 </r>
       <r>   -8.5762    1.0000 </r>
       <r>   -8.5225    1.0000 </r>
       <r>   -8.5135    1.0000 </r>
       <r>   -8.3556    1.0000 </r>
       <r>   -8.3532    1.0000 </r>
       <r>   -8.3043    1.0000 </r>
       <r>   -8.2884    1.0000 </r>
       <r>   -8.0792    1.0000 </r>
       <r>   -8.0549    1.0000 </r>
       <r>   -8.0439    1.0000 </r>
       <r>   -8.0102    1.0000 </r>
       <r>   -7.4060    1.0000 </r>
       <r>   -7.4010    1.0000 </r>
       <r>   -6.4349    1.0000 </r>
       <r>   -6.4213    1.0000 </r>
       <r>   -6.4049    1.0000 </r>
       <r>   -6.3936    1.0000 </r>
       <r>   -5.5922    1.0000 </r>
       <r>   -5.5877    1.0000 </r>
       <r>   -5.4210    1.0000 </r>
       <r>   -5.3938    1.0000 </r>
       <r>   -5.3223    1.0000 </r>
       <r>   -5.3203    1.0000 </r>
       <r>   -5.2404    1.0000 </r>
       <r>   -5.2038    1.0000 </r>
       <r>   -5.1262    1.0000 </r>
       <r>   -5.1046    1.0000 </r>
       <r>   -3.8501    1.0000 </r>
       <r>   -3.7007    1.0000 </r>
       <r>   -1.6008    1.0000 </r>
       <r>   -1.3315    1.0000 </r>
       <r>   -1.2103    1.0000 </r>
       <r>   -1.0144    1.0000 </r>
       <r>   -0.6565    1.0000 </r>
       <r>   -0.6333    1.0000 </r>
       <r>   -0.5658    1.0000 </r>
       <r>   -0.5223    1.0000 </r>
       <r>   -0.2632    1.0000 </r>
       <r>   -0.2479    1.0000 </r>
       <r>   -0.2161    1.0000 </r>
       <r>   -0.1884    1.0000 </r>
       <r>   -0.0882    1.0000 </r>
       <r>   -0.0128    1.0000 </r>
       <r>    0.1233    1.0000 </r>
       <r>    0.1818    1.0000 </r>
       <r>    0.3534    1.0000 </r>
       <r>    0.3947    1.0000 </r>
       <r>    0.4560    1.0000 </r>
       <r>    0.5401    1.0000 </r>
       <r>    0.5668    1.0000 </r>
       <r>    0.6561    1.0000 </r>
       <r>    0.6600    1.0000 </r>
       <r>    0.7085    1.0000 </r>
       <r>    0.7247    1.0000 </r>
       <r>    0.7552    1.0000 </r>
       <r>    0.7763    1.0000 </r>
       <r>    0.8128    1.0000 </r>
       <r>    0.9333    1.0000 </r>
       <r>    0.9455    1.0000 </r>
       <r>    0.9526    1.0000 </r>
       <r>    1.0023    1.0000 </r>
       <r>    1.0181    1.0000 </r>
       <r>    1.0694    1.0000 </r>
       <r>    1.0765    1.0000 </r>
       <r>    1.1963    1.0000 </r>
       <r>    1.2284    1.0000 </r>
       <r>    1.2960    1.0000 </r>
       <r>    1.3298    1.0000 </r>
       <r>    1.3900    1.0000 </r>
       <r>    1.4106    1.0000 </r>
       <r>    1.4372    1.0000 </r>
       <r>    1.5234    1.0000 </r>
       <r>    1.5647    1.0000 </r>
       <r>    1.6417    1.0000 </r>
       <r>    1.6779    1.0000 </r>
       <r>    1.7039    1.0000 </r>
       <r>    1.7345    1.0000 </r>
       <r>    1.8077    1.0000 </r>
       <r>    1.8254    1.0000 </r>
       <r>    1.8594    1.0000 </r>
       <r>    2.0372    1.0000 </r>
       <r>    2.0642    1.0000 </r>
       <r>    2.1046    1.0000 </r>
       <r>    2.1919    1.0000 </r>
       <r>    2.2674    1.0000 </r>
       <r>    2.3058    1.0000 </r>
       <r>    2.3325    1.0000 </r>
       <r>    2.4368    1.0000 </r>
       <r>    2.5020    1.0000 </r>
       <r>    2.5077    1.0000 </r>
       <r>    2.5122    1.0000 </r>
       <r>    2.5462    1.0000 </r>
       <r>    2.5495    1.0000 </r>
       <r>    2.5912    1.0000 </r>
       <r>    2.6100    1.0000 </r>
       <r>    2.6666    1.0000 </r>
       <r>    2.6931    1.0000 </r>
       <r>    2.7425    1.0000 </r>
       <r>    2.7568    1.0000 </r>
       <r>    2.7873    1.0000 </r>
       <r>    2.8164    1.0000 </r>
       <r>    2.8575    1.0000 </r>
       <r>    2.9064    1.0000 </r>
       <r>    2.9485    1.0000 </r>
       <r>    3.0120    1.0000 </r>
       <r>    3.0377    1.0000 </r>
       <r>    3.0701    1.0000 </r>
       <r>    3.0796    1.0000 </r>
       <r>    3.0910    1.0000 </r>
       <r>    3.1146    1.0000 </r>
       <r>    3.1224    1.0000 </r>
       <r>    3.1689    1.0000 </r>
       <r>    3.1714    1.0000 </r>
       <r>    3.1941    1.0000 </r>
       <r>    3.2282    1.0000 </r>
       <r>    3.2772    1.0000 </r>
       <r>    3.3369    1.0000 </r>
       <r>    3.4266    1.0000 </r>
       <r>    3.4420    1.0000 </r>
       <r>    3.5824    1.0000 </r>
       <r>    3.7723    1.0000 </r>
       <r>    4.1219    1.0000 </r>
       <r>    4.1383    1.0000 </r>
       <r>    4.2004    1.0000 </r>
       <r>    4.2055    1.0000 </r>
       <r>    4.9290    0.0000 </r>
       <r>    4.9402    0.0000 </r>
       <r>    5.1522    0.0000 </r>
       <r>    5.1731    0.0000 </r>
       <r>    5.6575    0.0000 </r>
       <r>    5.6642    0.0000 </r>
       <r>    5.7870    0.0000 </r>
       <r>    5.8050    0.0000 </r>
       <r>    6.0721    0.0000 </r>
       <r>    6.0797    0.0000 </r>
       <r>    6.1027    0.0000 </r>
       <r>    6.1143    0.0000 </r>
       <r>    6.1940    0.0000 </r>
       <r>    6.2122    0.0000 </r>
       <r>    6.2181    0.0000 </r>
       <r>    6.2365    0.0000 </r>
       <r>    6.9399    0.0000 </r>
       <r>    6.9559    0.0000 </r>
       <r>    7.2651    0.0000 </r>
       <r>    7.2905    0.0000 </r>
       <r>    7.7147    0.0000 </r>
       <r>    7.7917    0.0000 </r>
       <r>    7.8061    0.0000 </r>
       <r>    7.8792    0.0000 </r>
       <r>    7.8937    0.0000 </r>
       <r>    7.9455    0.0000 </r>
       <r>    7.9702    0.0000 </r>
       <r>    8.0929    0.0000 </r>
       <r>    8.2503    0.0000 </r>
       <r>    8.5931    0.0000 </r>
       <r>    8.6211    0.0000 </r>
       <r>    8.7115    0.0000 </r>
       <r>    8.7721    0.0000 </r>
       <r>    8.7740    0.0000 </r>
       <r>    8.8644    0.0000 </r>
       <r>    8.9177    0.0000 </r>
       <r>    8.9587    0.0000 </r>
       <r>    8.9947    0.0000 </r>
       <r>    9.0139    0.0000 </r>
       <r>    9.0355    0.0000 </r>
       <r>    9.1013    0.0000 </r>
       <r>    9.1073    0.0000 </r>
       <r>    9.1502    0.0000 </r>
       <r>    9.2403    0.0000 </r>
       <r>    9.3456    0.0000 </r>
       <r>    9.3567    0.0000 </r>
       <r>    9.4659    0.0000 </r>
       <r>    9.4721    0.0000 </r>
       <r>    9.6518    0.0000 </r>
       <r>    9.6719    0.0000 </r>
       <r>    9.7763    0.0000 </r>
       <r>    9.8103    0.0000 </r>
      </set>
      <set comment="kpoint 2">
       <r>  -40.4125    1.0000 </r>
       <r>  -39.9547    1.0000 </r>
       <r>  -39.6392    1.0000 </r>
       <r>  -39.2023    1.0000 </r>
       <r>  -19.0515    1.0000 </r>
       <r>  -18.9788    1.0000 </r>
       <r>  -18.9780    1.0000 </r>
       <r>  -18.9700    1.0000 </r>
       <r>  -18.9683    1.0000 </r>
       <r>  -18.9097    1.0000 </r>
       <r>  -18.9025    1.0000 </r>
       <r>  -18.8946    1.0000 </r>
       <r>  -18.8862    1.0000 </r>
       <r>  -18.8798    1.0000 </r>
       <r>  -18.8601    1.0000 </r>
       <r>  -18.8077    1.0000 </r>
       <r>  -18.7999    1.0000 </r>
       <r>  -18.7838    1.0000 </r>
       <r>  -18.7780    1.0000 </r>
       <r>  -18.7727    1.0000 </r>
       <r>  -18.7644    1.0000 </r>
       <r>  -18.7551    1.0000 </r>
       <r>  -18.7421    1.0000 </r>
       <r>  -18.7307    1.0000 </r>
       <r>  -18.7229    1.0000 </r>
       <r>  -18.7184    1.0000 </r>
       <r>  -18.7143    1.0000 </r>
       <r>  -18.7122    1.0000 </r>
       <r>  -18.7064    1.0000 </r>
       <r>  -18.7036    1.0000 </r>
       <r>  -18.6985    1.0000 </r>
       <r>  -18.6974    1.0000 </r>
       <r>  -18.6924    1.0000 </r>
       <r>  -18.6905    1.0000 </r>
       <r>  -18.6864    1.0000 </r>
       <r>  -18.6809    1.0000 </r>
       <r>  -18.6766    1.0000 </r>
       <r>  -18.6721    1.0000 </r>
       <r>  -18.6675    1.0000 </r>
       <r>  -18.6647    1.0000 </r>
       <r>  -18.6605    1.0000 </r>
       <r>  -18.6540    1.0000 </r>
       <r>  -18.6431    1.0000 </r>
       <r>  -18.6190    1.0000 </r>
       <r>  -18.6169    1.0000 </r>
       <r>  -18.6092    1.0000 </r>
       <r>  -18.6011    1.0000 </r>
       <r>  -18.6001    1.0000 </r>
       <r>  -18.5945    1.0000 </r>
       <r>  -18.5878    1.0000 </r>
       <r>  -18.5846    1.0000 </r>
       <r>  -18.5761    1.0000 </r>
       <r>  -18.5649    1.0000 </r>
       <r>  -18.5592    1.0000 </r>
       <r>  -18.5586    1.0000 </r>
       <r>  -18.5454    1.0000 </r>
       <r>  -18.5429    1.0000 </r>
       <r>  -18.5427    1.0000 </r>
       <r>  -18.5379    1.0000 </r>
       <r>  -18.5358    1.0000 </r>
       <r>  -18.5260    1.0000 </r>
       <r>  -18.5180    1.0000 </r>
       <r>  -18.5083    1.0000 </r>
       <r>  -18.5066    1.0000 </r>
       <r>  -18.4903    1.0000 </r>
       <r>  -18.4607    1.0000 </r>
       <r>  -18.4561    1.0000 </r>
       <r>  -18.4497    1.0000 </r>
       <r>  -18.4453    1.0000 </r>
       <r>  -18.4398    1.0000 </r>
       <r>  -18.4274    1.0000 </r>
       <r>  -18.4261    1.0000 </r>
       <r>  -18.4190    1.0000 </r>
       <r>  -18.3764    1.0000 </r>
       <r>  -18.3646    1.0000 </r>
       <r>  -18.3630    1.0000 </r>
       <r>  -18.3539    1.0000 </r>
       <r>  -18.2834    1.0000 </r>
       <r>  -18.2493    1.0000 </r>
       <r>  -18.2436    1.0000 </r>
       <r>  -18.2319    1.0000 </r>
       <r>  -18.2186    1.0000 </r>
       <r>  -18.1746    1.0000 </r>
       <r>  -18.1481    1.0000 </r>
       <r>  -13.7027    1.0000 </r>
       <r>  -13.5535    1.0000 </r>
       <r>  -13.5403    1.0000 </r>
       <r>  -12.9411    1.0000 </r>
       <r>  -12.8656    1.0000 </r>
       <r>  -12.8152    1.0000 </r>
       <r>  -12.8146    1.0000 </r>
       <r>  -12.7969    1.0000 </r>
       <r>  -12.7402    1.0000 </r>
       <r>  -12.7134    1.0000 </r>
       <r>  -12.6933    1.0000 </r>
       <r>  -12.6272    1.0000 </r>
       <r>  -12.5950    1.0000 </r>
       <r>  -12.0432    1.0000 </r>
       <r>  -11.9955    1.0000 </r>
       <r>  -11.9144    1.0000 </r>
       <r>   -9.2465    1.0000 </r>
       <r>   -9.0915    1.0000 </r>
       <r>   -8.9721    1.0000 </r>
       <r>   -8.8144    1.0000 </r>
       <r>   -8.4498    1.0000 </r>
       <r>   -8.4357    1.0000 </r>
       <r>   -8.3142    1.0000 </r>
       <r>   -8.3042    1.0000 </r>
       <r>   -8.2477    1.0000 </r>
       <r>   -8.2385    1.0000 </r>
       <r>   -8.1144    1.0000 </r>
       <r>   -8.1035    1.0000 </r>
       <r>   -7.7950    1.0000 </r>
       <r>   -7.6874    1.0000 </r>
       <r>   -7.6783    1.0000 </r>
       <r>   -7.5702    1.0000 </r>
       <r>   -6.0951    1.0000 </r>
       <r>   -6.0667    1.0000 </r>
       <r>   -5.9809    1.0000 </r>
       <r>   -5.8937    1.0000 </r>
       <r>   -5.8886    1.0000 </r>
       <r>   -5.8465    1.0000 </r>
       <r>   -5.7673    1.0000 </r>
       <r>   -5.7185    1.0000 </r>
       <r>   -5.6881    1.0000 </r>
       <r>   -5.6573    1.0000 </r>
       <r>   -5.5250    1.0000 </r>
       <r>   -5.4702    1.0000 </r>
       <r>   -4.5468    1.0000 </r>
       <r>   -4.3929    1.0000 </r>
       <r>   -4.3835    1.0000 </r>
       <r>   -4.2176    1.0000 </r>
       <r>   -1.3545    1.0000 </r>
       <r>   -1.1297    1.0000 </r>
       <r>   -0.9598    1.0000 </r>
       <r>   -0.7848    1.0000 </r>
       <r>   -0.5880    1.0000 </r>
       <r>   -0.4027    1.0000 </r>
       <r>   -0.2243    1.0000 </r>
       <r>   -0.1598    1.0000 </r>
       <r>   -0.0488    1.0000 </r>
       <r>   -0.0293    1.0000 </r>
       <r>    0.0113    1.0000 </r>
       <r>    0.0852    1.0000 </r>
       <r>    0.1001    1.0000 </r>
       <r>    0.1700    1.0000 </r>
       <r>    0.2790    1.0000 </r>
       <r>    0.2943    1.0000 </r>
       <r>    0.3773    1.0000 </r>
       <r>    0.4242    1.0000 </r>
       <r>    0.4818    1.0000 </r>
       <r>    0.5013    1.0000 </r>
       <r>    0.5294    1.0000 </r>
       <r>    0.5781    1.0000 </r>
       <r>    0.5942    1.0000 </r>
       <r>    0.6434    1.0000 </r>
       <r>    0.6713    1.0000 </r>
       <r>    0.7076    1.0000 </r>
       <r>    0.7736    1.0000 </r>
       <r>    0.8041    1.0000 </r>
       <r>    0.8285    1.0000 </r>
       <r>    0.9279    1.0000 </r>
       <r>    0.9967    1.0000 </r>
       <r>    1.0038    1.0000 </r>
       <r>    1.0526    1.0000 </r>
       <r>    1.1256    1.0000 </r>
       <r>    1.1900    1.0000 </r>
       <r>    1.1961    1.0000 </r>
       <r>    1.2253    1.0000 </r>
       <r>    1.2806    1.0000 </r>
       <r>    1.3089    1.0000 </r>
       <r>    1.3380    1.0000 </r>
       <r>    1.3768    1.0000 </r>
       <r>    1.4054    1.0000 </r>
       <r>    1.4459    1.0000 </r>
       <r>    1.4837    1.0000 </r>
       <r>    1.5159    1.0000 </r>
       <r>    1.5330    1.0000 </r>
       <r>    1.6066    1.0000 </r>
       <r>    1.6960    1.0000 </r>
       <r>    1.7231    1.0000 </r>
       <r>    1.7620    1.0000 </r>
       <r>    1.8350    1.0000 </r>
       <r>    1.8659    1.0000 </r>
       <r>    1.9004    1.0000 </r>
       <r>    1.9643    1.0000 </r>
       <r>    1.9907    1.0000 </r>
       <r>    2.0871    1.0000 </r>
       <r>    2.1019    1.0000 </r>
       <r>    2.1399    1.0000 </r>
       <r>    2.2195    1.0000 </r>
       <r>    2.2459    1.0000 </r>
       <r>    2.2586    1.0000 </r>
       <r>    2.3144    1.0000 </r>
       <r>    2.4060    1.0000 </r>
       <r>    2.4216    1.0000 </r>
       <r>    2.4839    1.0000 </r>
       <r>    2.5049    1.0000 </r>
       <r>    2.5545    1.0000 </r>
       <r>    2.5986    1.0000 </r>
       <r>    2.6108    1.0000 </r>
       <r>    2.6461    1.0000 </r>
       <r>    2.7041    1.0000 </r>
       <r>    2.7184    1.0000 </r>
       <r>    2.7329    1.0000 </r>
       <r>    2.7680    1.0000 </r>
       <r>    2.8125    1.0000 </r>
       <r>    2.8256    1.0000 </r>
       <r>    2.9037    1.0000 </r>
       <r>    2.9287    1.0000 </r>
       <r>    2.9735    1.0000 </r>
       <r>    3.0250    1.0000 </r>
       <r>    3.0493    1.0000 </r>
       <r>    3.0897    1.0000 </r>
       <r>    3.1205    1.0000 </r>
       <r>    3.1668    1.0000 </r>
       <r>    3.1989    1.0000 </r>
       <r>    3.2793    1.0000 </r>
       <r>    3.3409    1.0000 </r>
       <r>    3.3760    1.0000 </r>
       <r>    3.3904    1.0000 </r>
       <r>    3.4757    1.0000 </r>
       <r>    3.5064    1.0000 </r>
       <r>    3.5392    1.0000 </r>
       <r>    3.5985    1.0000 </r>
       <r>    3.6405    1.0000 </r>
       <r>    3.7282    1.0000 </r>
       <r>    3.9020    1.0000 </r>
       <r>    5.5055    0.0000 </r>
       <r>    5.5141    0.0000 </r>
       <r>    5.6597    0.0000 </r>
       <r>    5.6647    0.0000 </r>
       <r>    5.7023    0.0000 </r>
       <r>    5.7059    0.0000 </r>
       <r>    5.8538    0.0000 </r>
       <r>    5.8610    0.0000 </r>
       <r>    7.0694    0.0000 </r>
       <r>    7.0773    0.0000 </r>
       <r>    7.1813    0.0000 </r>
       <r>    7.2316    0.0000 </r>
       <r>    7.3071    0.0000 </r>
       <r>    7.3527    0.0000 </r>
       <r>    7.3696    0.0000 </r>
       <r>    7.3971    0.0000 </r>
       <r>    7.4265    0.0000 </r>
       <r>    7.4392    0.0000 </r>
       <r>    7.5443    0.0000 </r>
       <r>    7.5694    0.0000 </r>
       <r>    7.7507    0.0000 </r>
       <r>    7.7687    0.0000 </r>
       <r>    7.7815    0.0000 </r>
       <r>    7.8166    0.0000 </r>
       <r>    7.8433    0.0000 </r>
       <r>    7.8645    0.0000 </r>
       <r>    7.8966    0.0000 </r>
       <r>    7.9133    0.0000 </r>
       <r>    7.9345    0.0000 </r>
       <r>    7.9515    0.0000 </r>
       <r>    7.9645    0.0000 </r>
       <r>    8.0242    0.0000 </r>
       <r>    8.1231    0.0000 </r>
       <r>    8.2336    0.0000 </r>
       <r>    8.3917    0.0000 </r>
       <r>    8.4497    0.0000 </r>
       <r>    8.6412    0.0000 </r>
       <r>    8.6745    0.0000 </r>
       <r>    8.7061    0.0000 </r>
       <r>    8.7150    0.0000 </r>
       <r>    8.7203    0.0000 </r>
       <r>    8.8092    0.0000 </r>
       <r>    8.8860    0.0000 </r>
       <r>    8.8960    0.0000 </r>
       <r>    9.0575    0.0000 </r>
       <r>    9.2020    0.0000 </r>
       <r>    9.2763    0.0000 </r>
       <r>    9.3179    0.0000 </r>
       <r>    9.4903    0.0000 </r>
       <r>    9.5364    0.0000 </r>
       <r>    9.9620    0.0000 </r>
       <r>   10.0421    0.0000 </r>
      </set>
      <set comment="kpoint 3">
       <r>  -40.4125    1.0000 </r>
       <r>  -39.9547    1.0000 </r>
       <r>  -39.6392    1.0000 </r>
       <r>  -39.2023    1.0000 </r>
       <r>  -19.0515    1.0000 </r>
       <r>  -18.9788    1.0000 </r>
       <r>  -18.9781    1.0000 </r>
       <r>  -18.9700    1.0000 </r>
       <r>  -18.9683    1.0000 </r>
       <r>  -18.9099    1.0000 </r>
       <r>  -18.9026    1.0000 </r>
       <r>  -18.8945    1.0000 </r>
       <r>  -18.8861    1.0000 </r>
       <r>  -18.8798    1.0000 </r>
       <r>  -18.8601    1.0000 </r>
       <r>  -18.8077    1.0000 </r>
       <r>  -18.7999    1.0000 </r>
       <r>  -18.7838    1.0000 </r>
       <r>  -18.7780    1.0000 </r>
       <r>  -18.7727    1.0000 </r>
       <r>  -18.7644    1.0000 </r>
       <r>  -18.7551    1.0000 </r>
       <r>  -18.7421    1.0000 </r>
       <r>  -18.7307    1.0000 </r>
       <r>  -18.7229    1.0000 </r>
       <r>  -18.7217    1.0000 </r>
       <r>  -18.7149    1.0000 </r>
       <r>  -18.7093    1.0000 </r>
       <r>  -18.7066    1.0000 </r>
       <r>  -18.7041    1.0000 </r>
       <r>  -18.6977    1.0000 </r>
       <r>  -18.6970    1.0000 </r>
       <r>  -18.6914    1.0000 </r>
       <r>  -18.6866    1.0000 </r>
       <r>  -18.6843    1.0000 </r>
       <r>  -18.6814    1.0000 </r>
       <r>  -18.6779    1.0000 </r>
       <r>  -18.6751    1.0000 </r>
       <r>  -18.6704    1.0000 </r>
       <r>  -18.6650    1.0000 </r>
       <r>  -18.6624    1.0000 </r>
       <r>  -18.6515    1.0000 </r>
       <r>  -18.6422    1.0000 </r>
       <r>  -18.6189    1.0000 </r>
       <r>  -18.6168    1.0000 </r>
       <r>  -18.6092    1.0000 </r>
       <r>  -18.6010    1.0000 </r>
       <r>  -18.6002    1.0000 </r>
       <r>  -18.5945    1.0000 </r>
       <r>  -18.5878    1.0000 </r>
       <r>  -18.5847    1.0000 </r>
       <r>  -18.5761    1.0000 </r>
       <r>  -18.5649    1.0000 </r>
       <r>  -18.5593    1.0000 </r>
       <r>  -18.5585    1.0000 </r>
       <r>  -18.5454    1.0000 </r>
       <r>  -18.5428    1.0000 </r>
       <r>  -18.5427    1.0000 </r>
       <r>  -18.5379    1.0000 </r>
       <r>  -18.5360    1.0000 </r>
       <r>  -18.5259    1.0000 </r>
       <r>  -18.5180    1.0000 </r>
       <r>  -18.5083    1.0000 </r>
       <r>  -18.5066    1.0000 </r>
       <r>  -18.4903    1.0000 </r>
       <r>  -18.4607    1.0000 </r>
       <r>  -18.4560    1.0000 </r>
       <r>  -18.4497    1.0000 </r>
       <r>  -18.4454    1.0000 </r>
       <r>  -18.4398    1.0000 </r>
       <r>  -18.4274    1.0000 </r>
       <r>  -18.4260    1.0000 </r>
       <r>  -18.4190    1.0000 </r>
       <r>  -18.3764    1.0000 </r>
       <r>  -18.3646    1.0000 </r>
       <r>  -18.3630    1.0000 </r>
       <r>  -18.3539    1.0000 </r>
       <r>  -18.2834    1.0000 </r>
       <r>  -18.2493    1.0000 </r>
       <r>  -18.2436    1.0000 </r>
       <r>  -18.2319    1.0000 </r>
       <r>  -18.2186    1.0000 </r>
       <r>  -18.1746    1.0000 </r>
       <r>  -18.1481    1.0000 </r>
       <r>  -13.7031    1.0000 </r>
       <r>  -13.5535    1.0000 </r>
       <r>  -13.5397    1.0000 </r>
       <r>  -12.9463    1.0000 </r>
       <r>  -12.8549    1.0000 </r>
       <r>  -12.8246    1.0000 </r>
       <r>  -12.8080    1.0000 </r>
       <r>  -12.7898    1.0000 </r>
       <r>  -12.7456    1.0000 </r>
       <r>  -12.7157    1.0000 </r>
       <r>  -12.6949    1.0000 </r>
       <r>  -12.6320    1.0000 </r>
       <r>  -12.5915    1.0000 </r>
       <r>  -12.0430    1.0000 </r>
       <r>  -11.9953    1.0000 </r>
       <r>  -11.9159    1.0000 </r>
       <r>   -9.3819    1.0000 </r>
       <r>   -9.1057    1.0000 </r>
       <r>   -8.5961    1.0000 </r>
       <r>   -8.5935    1.0000 </r>
       <r>   -8.5390    1.0000 </r>
       <r>   -8.5306    1.0000 </r>
       <r>   -8.3359    1.0000 </r>
       <r>   -8.3343    1.0000 </r>
       <r>   -8.2867    1.0000 </r>
       <r>   -8.2693    1.0000 </r>
       <r>   -8.0833    1.0000 </r>
       <r>   -8.0581    1.0000 </r>
       <r>   -8.0468    1.0000 </r>
       <r>   -8.0128    1.0000 </r>
       <r>   -7.4088    1.0000 </r>
       <r>   -7.4038    1.0000 </r>
       <r>   -6.4250    1.0000 </r>
       <r>   -6.4113    1.0000 </r>
       <r>   -6.3961    1.0000 </r>
       <r>   -6.3836    1.0000 </r>
       <r>   -5.5980    1.0000 </r>
       <r>   -5.5920    1.0000 </r>
       <r>   -5.4585    1.0000 </r>
       <r>   -5.4371    1.0000 </r>
       <r>   -5.3445    1.0000 </r>
       <r>   -5.3427    1.0000 </r>
       <r>   -5.1817    1.0000 </r>
       <r>   -5.1626    1.0000 </r>
       <r>   -5.0768    1.0000 </r>
       <r>   -5.0622    1.0000 </r>
       <r>   -3.9261    1.0000 </r>
       <r>   -3.6126    1.0000 </r>
       <r>   -1.4592    1.0000 </r>
       <r>   -1.4006    1.0000 </r>
       <r>   -1.2877    1.0000 </r>
       <r>   -1.0722    1.0000 </r>
       <r>   -0.5339    1.0000 </r>
       <r>   -0.5121    1.0000 </r>
       <r>   -0.5060    1.0000 </r>
       <r>   -0.4406    1.0000 </r>
       <r>   -0.4384    1.0000 </r>
       <r>   -0.4348    1.0000 </r>
       <r>   -0.3936    1.0000 </r>
       <r>   -0.3058    1.0000 </r>
       <r>   -0.2607    1.0000 </r>
       <r>   -0.1276    1.0000 </r>
       <r>   -0.0285    1.0000 </r>
       <r>    0.0317    1.0000 </r>
       <r>    0.2216    1.0000 </r>
       <r>    0.2921    1.0000 </r>
       <r>    0.3187    1.0000 </r>
       <r>    0.3342    1.0000 </r>
       <r>    0.4456    1.0000 </r>
       <r>    0.4512    1.0000 </r>
       <r>    0.5786    1.0000 </r>
       <r>    0.6617    1.0000 </r>
       <r>    0.6844    1.0000 </r>
       <r>    0.7058    1.0000 </r>
       <r>    0.7852    1.0000 </r>
       <r>    0.8179    1.0000 </r>
       <r>    0.8485    1.0000 </r>
       <r>    0.9400    1.0000 </r>
       <r>    0.9842    1.0000 </r>
       <r>    1.0259    1.0000 </r>
       <r>    1.0985    1.0000 </r>
       <r>    1.1919    1.0000 </r>
       <r>    1.2650    1.0000 </r>
       <r>    1.3339    1.0000 </r>
       <r>    1.3493    1.0000 </r>
       <r>    1.4002    1.0000 </r>
       <r>    1.4123    1.0000 </r>
       <r>    1.4941    1.0000 </r>
       <r>    1.5213    1.0000 </r>
       <r>    1.5408    1.0000 </r>
       <r>    1.5539    1.0000 </r>
       <r>    1.6498    1.0000 </r>
       <r>    1.7067    1.0000 </r>
       <r>    1.7758    1.0000 </r>
       <r>    1.8178    1.0000 </r>
       <r>    1.8668    1.0000 </r>
       <r>    1.9389    1.0000 </r>
       <r>    2.0328    1.0000 </r>
       <r>    2.0973    1.0000 </r>
       <r>    2.1392    1.0000 </r>
       <r>    2.1813    1.0000 </r>
       <r>    2.1950    1.0000 </r>
       <r>    2.2595    1.0000 </r>
       <r>    2.3517    1.0000 </r>
       <r>    2.3936    1.0000 </r>
       <r>    2.4336    1.0000 </r>
       <r>    2.4558    1.0000 </r>
       <r>    2.4809    1.0000 </r>
       <r>    2.5039    1.0000 </r>
       <r>    2.5081    1.0000 </r>
       <r>    2.5188    1.0000 </r>
       <r>    2.5314    1.0000 </r>
       <r>    2.5564    1.0000 </r>
       <r>    2.5682    1.0000 </r>
       <r>    2.6094    1.0000 </r>
       <r>    2.6838    1.0000 </r>
       <r>    2.7325    1.0000 </r>
       <r>    2.7402    1.0000 </r>
       <r>    2.7770    1.0000 </r>
       <r>    2.8407    1.0000 </r>
       <r>    2.8820    1.0000 </r>
       <r>    2.8918    1.0000 </r>
       <r>    2.9355    1.0000 </r>
       <r>    2.9386    1.0000 </r>
       <r>    2.9761    1.0000 </r>
       <r>    2.9951    1.0000 </r>
       <r>    3.0157    1.0000 </r>
       <r>    3.0826    1.0000 </r>
       <r>    3.1058    1.0000 </r>
       <r>    3.1668    1.0000 </r>
       <r>    3.2243    1.0000 </r>
       <r>    3.2898    1.0000 </r>
       <r>    3.3347    1.0000 </r>
       <r>    3.3643    1.0000 </r>
       <r>    3.3720    1.0000 </r>
       <r>    3.4011    1.0000 </r>
       <r>    3.4686    1.0000 </r>
       <r>    3.5032    1.0000 </r>
       <r>    3.5525    1.0000 </r>
       <r>    3.7178    1.0000 </r>
       <r>    4.1711    1.0000 </r>
       <r>    4.1900    1.0000 </r>
       <r>    4.2512    1.0000 </r>
       <r>    4.2560    1.0000 </r>
       <r>    5.0123    0.0000 </r>
       <r>    5.0227    0.0000 </r>
       <r>    5.2172    0.0000 </r>
       <r>    5.2292    0.0000 </r>
       <r>    5.6651    0.0000 </r>
       <r>    5.6729    0.0000 </r>
       <r>    5.7965    0.0000 </r>
       <r>    5.8131    0.0000 </r>
       <r>    6.1203    0.0000 </r>
       <r>    6.1292    0.0000 </r>
       <r>    6.1434    0.0000 </r>
       <r>    6.1514    0.0000 </r>
       <r>    6.2140    0.0000 </r>
       <r>    6.2285    0.0000 </r>
       <r>    6.2383    0.0000 </r>
       <r>    6.2592    0.0000 </r>
       <r>    6.6135    0.0000 </r>
       <r>    6.6695    0.0000 </r>
       <r>    6.9154    0.0000 </r>
       <r>    6.9876    0.0000 </r>
       <r>    7.1515    0.0000 </r>
       <r>    7.2162    0.0000 </r>
       <r>    7.2532    0.0000 </r>
       <r>    7.4366    0.0000 </r>
       <r>    7.7015    0.0000 </r>
       <r>    7.8128    0.0000 </r>
       <r>    7.8291    0.0000 </r>
       <r>    7.9389    0.0000 </r>
       <r>    7.9648    0.0000 </r>
       <r>    8.3333    0.0000 </r>
       <r>    8.3522    0.0000 </r>
       <r>    8.3703    0.0000 </r>
       <r>    8.5453    0.0000 </r>
       <r>    8.7395    0.0000 </r>
       <r>    8.8601    0.0000 </r>
       <r>    8.9308    0.0000 </r>
       <r>    8.9587    0.0000 </r>
       <r>    8.9784    0.0000 </r>
       <r>    8.9905    0.0000 </r>
       <r>    9.0334    0.0000 </r>
       <r>    9.0504    0.0000 </r>
       <r>    9.0994    0.0000 </r>
       <r>    9.1146    0.0000 </r>
       <r>    9.1916    0.0000 </r>
       <r>    9.4197    0.0000 </r>
       <r>    9.4418    0.0000 </r>
       <r>    9.5234    0.0000 </r>
       <r>    9.6864    0.0000 </r>
       <r>    9.6963    0.0000 </r>
       <r>    9.7561    0.0000 </r>
       <r>    9.9345    0.0000 </r>
       <r>    9.9730    0.0000 </r>
      </set>
      <set comment="kpoint 4">
       <r>  -40.4124    1.0000 </r>
       <r>  -39.9547    1.0000 </r>
       <r>  -39.6392    1.0000 </r>
       <r>  -39.2023    1.0000 </r>
       <r>  -19.0515    1.0000 </r>
       <r>  -18.9788    1.0000 </r>
       <r>  -18.9780    1.0000 </r>
       <r>  -18.9700    1.0000 </r>
       <r>  -18.9683    1.0000 </r>
       <r>  -18.9097    1.0000 </r>
       <r>  -18.9025    1.0000 </r>
       <r>  -18.8946    1.0000 </r>
       <r>  -18.8862    1.0000 </r>
       <r>  -18.8798    1.0000 </r>
       <r>  -18.8601    1.0000 </r>
       <r>  -18.8077    1.0000 </r>
       <r>  -18.7999    1.0000 </r>
       <r>  -18.7838    1.0000 </r>
       <r>  -18.7780    1.0000 </r>
       <r>  -18.7727    1.0000 </r>
       <r>  -18.7644    1.0000 </r>
       <r>  -18.7551    1.0000 </r>
       <r>  -18.7421    1.0000 </r>
       <r>  -18.7307    1.0000 </r>
       <r>  -18.7229    1.0000 </r>
       <r>  -18.7184    1.0000 </r>
       <r>  -18.7143    1.0000 </r>
       <r>  -18.7122    1.0000 </r>
       <r>  -18.7064    1.0000 </r>
       <r>  -18.7036    1.0000 </r>
       <r>  -18.6985    1.0000 </r>
       <r>  -18.6974    1.0000 </r>
       <r>  -18.6924    1.0000 </r>
       <r>  -18.6905    1.0000 </r>
       <r>  -18.6864    1.0000 </r>
       <r>  -18.6809    1.0000 </r>
       <r>  -18.6766    1.0000 </r>
       <r>  -18.6721    1.0000 </r>
       <r>  -18.6675    1.0000 </r>
       <r>  -18.6647    1.0000 </r>
       <r>  -18.6605    1.0000 </r>
       <r>  -18.6540    1.0000 </r>
       <r>  -18.6431    1.0000 </r>
       <r>  -18.6190    1.0000 </r>
       <r>  -18.6169    1.0000 </r>
       <r>  -18.6092    1.0000 </r>
       <r>  -18.6010    1.0000 </r>
       <r>  -18.6001    1.0000 </r>
       <r>  -18.5945    1.0000 </r>
       <r>  -18.5878    1.0000 </r>
       <r>  -18.5846    1.0000 </r>
       <r>  -18.5761    1.0000 </r>
       <r>  -18.5649    1.0000 </r>
       <r>  -18.5592    1.0000 </r>
       <r>  -18.5586    1.0000 </r>
       <r>  -18.5454    1.0000 </r>
       <r>  -18.5429    1.0000 </r>
       <r>  -18.5427    1.0000 </r>
       <r>  -18.5379    1.0000 </r>
       <r>  -18.5358    1.0000 </r>
       <r>  -18.5260    1.0000 </r>
       <r>  -18.5180    1.0000 </r>
       <r>  -18.5083    1.0000 </r>
       <r>  -18.5066    1.0000 </r>
       <r>  -18.4903    1.0000 </r>
       <r>  -18.4607    1.0000 </r>
       <r>  -18.4561    1.0000 </r>
       <r>  -18.4497    1.0000 </r>
       <r>  -18.4453    1.0000 </r>
       <r>  -18.4398    1.0000 </r>
       <r>  -18.4274    1.0000 </r>
       <r>  -18.4261    1.0000 </r>
       <r>  -18.4190    1.0000 </r>
       <r>  -18.3764    1.0000 </r>
       <r>  -18.3646    1.0000 </r>
       <r>  -18.3630    1.0000 </r>
       <r>  -18.3539    1.0000 </r>
       <r>  -18.2834    1.0000 </r>
       <r>  -18.2493    1.0000 </r>
       <r>  -18.2436    1.0000 </r>
       <r>  -18.2319    1.0000 </r>
       <r>  -18.2186    1.0000 </r>
       <r>  -18.1746    1.0000 </r>
       <r>  -18.1481    1.0000 </r>
       <r>  -13.7025    1.0000 </r>
       <r>  -13.5537    1.0000 </r>
       <r>  -13.5402    1.0000 </r>
       <r>  -12.9400    1.0000 </r>
       <r>  -12.8649    1.0000 </r>
       <r>  -12.8156    1.0000 </r>
       <r>  -12.8147    1.0000 </r>
       <r>  -12.7968    1.0000 </r>
       <r>  -12.7402    1.0000 </r>
       <r>  -12.7140    1.0000 </r>
       <r>  -12.6934    1.0000 </r>
       <r>  -12.6283    1.0000 </r>
       <r>  -12.5955    1.0000 </r>
       <r>  -12.0428    1.0000 </r>
       <r>  -11.9956    1.0000 </r>
       <r>  -11.9157    1.0000 </r>
       <r>   -9.2475    1.0000 </r>
       <r>   -9.0917    1.0000 </r>
       <r>   -8.9678    1.0000 </r>
       <r>   -8.8109    1.0000 </r>
       <r>   -8.4699    1.0000 </r>
       <r>   -8.4551    1.0000 </r>
[...]
       <r>    8.7871    0.0000 </r>
       <r>    8.7906    0.0000 </r>
       <r>    8.8234    0.0000 </r>
       <r>    8.8705    0.0000 </r>
       <r>    8.8963    0.0000 </r>
       <r>    8.9130    0.0000 </r>
       <r>    8.9506    0.0000 </r>
       <r>    9.4977    0.0000 </r>
       <r>    9.8112    0.0000 </r>
       <r>    9.8785    0.0000 </r>
       <r>   10.0306    0.0000 </r>
      </set>
     </set>
    </set>
   </array>
  </eigenvalues>
  <separator name="orbital magnetization" >
   <v name="MAGDIPOLOUT">      0.00000000      0.00000000      0.00000000</v>
  </separator>
  <dos>
   <i name="efermi">      4.34026223 </i>
   <total>
    <array>
     <dimension dim="1">gridpoints</dimension>
     <dimension dim="2">spin</dimension>
     <field>energy</field>
     <field>total</field>
     <field>integrated</field>
     <set>
      <set comment="spin 1">
       <r>   -42.9487     0.0000     0.0000 </r>
       <r>   -42.7627     0.0000     0.0000 </r>
       <r>   -42.5768     0.0000     0.0000 </r>
       <r>   -42.3908     0.0000     0.0000 </r>
       <r>   -42.2048     0.0000     0.0000 </r>
       <r>   -42.0188     0.0000     0.0000 </r>
       <r>   -41.8328     0.0000     0.0000 </r>
       <r>   -41.6468     0.0000     0.0000 </r>
       <r>   -41.4608     0.0000     0.0000 </r>
       <r>   -41.2748     0.0000     0.0000 </r>
       <r>   -41.0888     0.0000     0.0000 </r>
       <r>   -40.9028     0.0000     0.0000 </r>
       <r>   -40.7168     0.0000     0.0000 </r>
       <r>   -40.5308     0.0000     0.0000 </r>
       <r>   -40.3448     0.0000     2.0000 </r>
       <r>   -40.1588     0.0000     2.0000 </r>
       <r>   -39.9728     0.0000     2.0000 </r>
       <r>   -39.7868     0.0000     4.0000 </r>
       <r>   -39.6008     0.0000     6.0000 </r>
       <r>   -39.4149     0.0000     6.0000 </r>
       <r>   -39.2289     0.0000     6.0000 </r>
       <r>   -39.0429     0.0000     8.0000 </r>
       <r>   -38.8569     0.0000     8.0000 </r>
       <r>   -38.6709     0.0000     8.0000 </r>
       <r>   -38.4849     0.0000     8.0000 </r>
       <r>   -38.2989     0.0000     8.0000 </r>
       <r>   -38.1129     0.0000     8.0000 </r>
       <r>   -37.9269     0.0000     8.0000 </r>
       <r>   -37.7409     0.0000     8.0000 </r>
       <r>   -37.5549     0.0000     8.0000 </r>
       <r>   -37.3689     0.0000     8.0000 </r>
       <r>   -37.1829     0.0000     8.0000 </r>
       <r>   -36.9969     0.0000     8.0000 </r>
       <r>   -36.8109     0.0000     8.0000 </r>
       <r>   -36.6249     0.0000     8.0000 </r>
       <r>   -36.4389     0.0000     8.0000 </r>
       <r>   -36.2530     0.0000     8.0000 </r>
       <r>   -36.0670     0.0000     8.0000 </r>
       <r>   -35.8810     0.0000     8.0000 </r>
       <r>   -35.6950     0.0000     8.0000 </r>
       <r>   -35.5090     0.0000     8.0000 </r>
       <r>   -35.3230     0.0000     8.0000 </r>
       <r>   -35.1370     0.0000     8.0000 </r>
       <r>   -34.9510     0.0000     8.0000 </r>
       <r>   -34.7650     0.0000     8.0000 </r>
       <r>   -34.5790     0.0000     8.0000 </r>
       <r>   -34.3930     0.0000     8.0000 </r>
       <r>   -34.2070     0.0000     8.0000 </r>
       <r>   -34.0210     0.0000     8.0000 </r>
       <r>   -33.8350     0.0000     8.0000 </r>
       <r>   -33.6490     0.0000     8.0000 </r>
       <r>   -33.4630     0.0000     8.0000 </r>
       <r>   -33.2770     0.0000     8.0000 </r>
       <r>   -33.0911     0.0000     8.0000 </r>
       <r>   -32.9051     0.0000     8.0000 </r>
       <r>   -32.7191     0.0000     8.0000 </r>
       <r>   -32.5331     0.0000     8.0000 </r>
       <r>   -32.3471     0.0000     8.0000 </r>
       <r>   -32.1611     0.0000     8.0000 </r>
       <r>   -31.9751     0.0000     8.0000 </r>
       <r>   -31.7891     0.0000     8.0000 </r>
       <r>   -31.6031     0.0000     8.0000 </r>
       <r>   -31.4171     0.0000     8.0000 </r>
       <r>   -31.2311     0.0000     8.0000 </r>
       <r>   -31.0451     0.0000     8.0000 </r>
       <r>   -30.8591     0.0000     8.0000 </r>
       <r>   -30.6731     0.0000     8.0000 </r>
       <r>   -30.4871     0.0000     8.0000 </r>
       <r>   -30.3011     0.0000     8.0000 </r>
       <r>   -30.1151     0.0000     8.0000 </r>
       <r>   -29.9292     0.0000     8.0000 </r>
       <r>   -29.7432     0.0000     8.0000 </r>
       <r>   -29.5572     0.0000     8.0000 </r>
       <r>   -29.3712     0.0000     8.0000 </r>
       <r>   -29.1852     0.0000     8.0000 </r>
       <r>   -28.9992     0.0000     8.0000 </r>
       <r>   -28.8132     0.0000     8.0000 </r>
       <r>   -28.6272     0.0000     8.0000 </r>
       <r>   -28.4412     0.0000     8.0000 </r>
       <r>   -28.2552     0.0000     8.0000 </r>
       <r>   -28.0692     0.0000     8.0000 </r>
       <r>   -27.8832     0.0000     8.0000 </r>
       <r>   -27.6972     0.0000     8.0000 </r>
       <r>   -27.5112     0.0000     8.0000 </r>
       <r>   -27.3252     0.0000     8.0000 </r>
       <r>   -27.1392     0.0000     8.0000 </r>
       <r>   -26.9532     0.0000     8.0000 </r>
       <r>   -26.7673     0.0000     8.0000 </r>
       <r>   -26.5813     0.0000     8.0000 </r>
       <r>   -26.3953     0.0000     8.0000 </r>
       <r>   -26.2093     0.0000     8.0000 </r>
       <r>   -26.0233     0.0000     8.0000 </r>
       <r>   -25.8373     0.0000     8.0000 </r>
       <r>   -25.6513     0.0000     8.0000 </r>
       <r>   -25.4653     0.0000     8.0000 </r>
       <r>   -25.2793     0.0000     8.0000 </r>
       <r>   -25.0933     0.0000     8.0000 </r>
       <r>   -24.9073     0.0000     8.0000 </r>
       <r>   -24.7213     0.0000     8.0000 </r>
       <r>   -24.5353     0.0000     8.0000 </r>
       <r>   -24.3493     0.0000     8.0000 </r>
       <r>   -24.1633     0.0000     8.0000 </r>
       <r>   -23.9773     0.0000     8.0000 </r>
       <r>   -23.7913     0.0000     8.0000 </r>
       <r>   -23.6054     0.0000     8.0000 </r>
       <r>   -23.4194     0.0000     8.0000 </r>
       <r>   -23.2334     0.0000     8.0000 </r>
       <r>   -23.0474     0.0000     8.0000 </r>
       <r>   -22.8614     0.0000     8.0000 </r>
       <r>   -22.6754     0.0000     8.0000 </r>
       <r>   -22.4894     0.0000     8.0000 </r>
       <r>   -22.3034     0.0000     8.0000 </r>
       <r>   -22.1174     0.0000     8.0000 </r>
       <r>   -21.9314     0.0000     8.0000 </r>
       <r>   -21.7454     0.0000     8.0000 </r>
       <r>   -21.5594     0.0000     8.0000 </r>
       <r>   -21.3734     0.0000     8.0000 </r>
       <r>   -21.1874     0.0000     8.0000 </r>
       <r>   -21.0014     0.0000     8.0000 </r>
       <r>   -20.8154     0.0000     8.0000 </r>
       <r>   -20.6294     0.0000     8.0000 </r>
       <r>   -20.4435     0.0000     8.0000 </r>
       <r>   -20.2575     0.0000     8.0000 </r>
       <r>   -20.0715     0.0000     8.0000 </r>
       <r>   -19.8855     0.0000     8.0000 </r>
       <r>   -19.6995     0.0000     8.0000 </r>
       <r>   -19.5135     0.0000     8.0000 </r>
       <r>   -19.3275     0.0000     8.0000 </r>
       <r>   -19.1415     0.0000     8.0000 </r>
       <r>   -18.9555     0.0000    18.0000 </r>
       <r>   -18.7695     0.0000    40.0000 </r>
       <r>   -18.5835     0.0000   102.0000 </r>
       <r>   -18.3975     0.0000   146.0000 </r>
       <r>   -18.2115     0.0000   164.0000 </r>
       <r>   -18.0255     0.0000   168.0000 </r>
       <r>   -17.8395     0.0000   168.0000 </r>
       <r>   -17.6535     0.0000   168.0000 </r>
       <r>   -17.4675     0.0000   168.0000 </r>
       <r>   -17.2816     0.0000   168.0000 </r>
       <r>   -17.0956     0.0000   168.0000 </r>
       <r>   -16.9096     0.0000   168.0000 </r>
       <r>   -16.7236     0.0000   168.0000 </r>
       <r>   -16.5376     0.0000   168.0000 </r>
       <r>   -16.3516     0.0000   168.0000 </r>
       <r>   -16.1656     0.0000   168.0000 </r>
       <r>   -15.9796     0.0000   168.0000 </r>
       <r>   -15.7936     0.0000   168.0000 </r>
       <r>   -15.6076     0.0000   168.0000 </r>
       <r>   -15.4216     0.0000   168.0000 </r>
       <r>   -15.2356     0.0000   168.0000 </r>
       <r>   -15.0496     0.0000   168.0000 </r>
       <r>   -14.8636     0.0000   168.0000 </r>
       <r>   -14.6776     0.0000   168.0000 </r>
       <r>   -14.4916     0.0000   168.0000 </r>
       <r>   -14.3056     0.0000   168.0000 </r>
       <r>   -14.1197     0.0000   168.0000 </r>
       <r>   -13.9337     0.0000   168.0000 </r>
       <r>   -13.7477     0.0000   168.0000 </r>
       <r>   -13.5617     0.0000   170.0000 </r>
       <r>   -13.3757     0.0000   174.0000 </r>
       <r>   -13.1897     0.0000   174.0000 </r>
       <r>   -13.0037     0.0000   174.0000 </r>
       <r>   -12.8177   243.8990   179.6422 </r>
       <r>   -12.6317    18.8917   190.0021 </r>
       <r>   -12.4457     0.0000   194.0000 </r>
       <r>   -12.2597     0.0000   194.0000 </r>
       <r>   -12.0737     0.0000   194.0000 </r>
       <r>   -11.8877     0.0000   200.0000 </r>
       <r>   -11.7017     0.0000   200.0000 </r>
       <r>   -11.5157     0.0000   200.0000 </r>
       <r>   -11.3297     0.0000   200.0000 </r>
       <r>   -11.1437     0.0000   200.0000 </r>
       <r>   -10.9578     0.0000   200.0000 </r>
       <r>   -10.7718     0.0000   200.0000 </r>
       <r>   -10.5858     0.0000   200.0000 </r>
       <r>   -10.3998     0.0000   200.0000 </r>
       <r>   -10.2138     0.0000   200.0000 </r>
       <r>   -10.0278     0.0000   200.0000 </r>
       <r>    -9.8418     0.0000   200.0000 </r>
       <r>    -9.6558     0.0000   200.0000 </r>
       <r>    -9.4698     0.0000   200.0000 </r>
       <r>    -9.2838    10.6733   200.5519 </r>
       <r>    -9.0978    33.1767   202.0874 </r>
       <r>    -8.9118     6.8413   204.8903 </r>
       <r>    -8.7258    12.7247   207.3593 </r>
       <r>    -8.5398    21.2076   210.0299 </r>
       <r>    -8.3538    20.3197   214.4160 </r>
       <r>    -8.1678    12.8882   218.2151 </r>
       <r>    -7.9818    20.9799   222.6102 </r>
       <r>    -7.7959    38.0010   226.4127 </r>
       <r>    -7.6099    18.0456   229.2764 </r>
       <r>    -7.4239     2.6174   231.9737 </r>
       <r>    -7.2379     0.0000   232.0000 </r>
       <r>    -7.0519     0.0000   232.0000 </r>
       <r>    -6.8659     0.0000   232.0000 </r>
       <r>    -6.6799     0.0000   232.0000 </r>
       <r>    -6.4939     0.0000   232.0000 </r>
       <r>    -6.3079    12.5022   232.6802 </r>
       <r>    -6.1219    29.7220   236.8108 </r>
       <r>    -5.9359    21.0244   240.1358 </r>
       <r>    -5.7499    29.4442   244.2196 </r>
       <r>    -5.5639    17.6706   248.4965 </r>
       <r>    -5.3779    21.4129   252.1598 </r>
       <r>    -5.1919    11.4156   255.2641 </r>
       <r>    -5.0059     4.0714   256.1861 </r>
       <r>    -4.8199     8.2890   257.4643 </r>
       <r>    -4.6340    10.4712   259.1799 </r>
       <r>    -4.4480     8.6218   260.7863 </r>
       <r>    -4.2620     6.7797   262.0476 </r>
       <r>    -4.0760     4.8340   263.1864 </r>
       <r>    -3.8900     1.8072   263.7969 </r>
       <r>    -3.7040     0.3466   263.9894 </r>
       <r>    -3.5180     0.0000   264.0000 </r>
       <r>    -3.3320     0.0000   264.0000 </r>
       <r>    -3.1460     0.0000   264.0000 </r>
       <r>    -2.9600     0.0000   264.0000 </r>
       <r>    -2.7740     0.0000   264.0000 </r>
       <r>    -2.5880     0.0000   264.0000 </r>
       <r>    -2.4020     0.0000   264.0000 </r>
       <r>    -2.2160     0.0000   264.0000 </r>
       <r>    -2.0300     0.0000   264.0000 </r>
       <r>    -1.8440     0.0000   264.0000 </r>
       <r>    -1.6580     0.0000   264.0000 </r>
       <r>    -1.4721     1.5750   264.0676 </r>
       <r>    -1.2861     7.7641   264.8948 </r>
       <r>    -1.1001    11.0047   266.8386 </r>
       <r>    -0.9141    12.7436   269.0757 </r>
       <r>    -0.7281     6.8495   270.8867 </r>
       <r>    -0.5421    17.8326   272.4964 </r>
       <r>    -0.3561    19.9200   276.0494 </r>
       <r>    -0.1701    38.4476   281.3734 </r>
       <r>     0.0159    27.2850   288.6237 </r>
       <r>     0.2019    28.6672   294.3720 </r>
       <r>     0.3879    42.9971   300.8846 </r>
       <r>     0.5739    48.3359   308.1842 </r>
       <r>     0.7599    34.7234   315.7212 </r>
       <r>     0.9459    43.6270   323.1590 </r>
       <r>     1.1319    38.5975   331.3400 </r>
       <r>     1.3179    62.1581   340.2050 </r>
       <r>     1.5039    55.3460   349.7323 </r>
       <r>     1.6898    54.8507   358.4483 </r>
       <r>     1.8758    34.3568   364.9602 </r>
       <r>     2.0618    35.4337   372.1668 </r>
       <r>     2.2478    51.3206   380.0004 </r>
       <r>     2.4338    56.5490   389.9690 </r>
       <r>     2.6198    57.5290   400.3457 </r>
       <r>     2.8058    57.5023   411.4061 </r>
       <r>     2.9918    67.2901   422.7877 </r>
       <r>     3.1778    50.0924   432.9864 </r>
       <r>     3.3638    44.4662   440.4739 </r>
       <r>     3.5498    24.8451   447.4230 </r>
       <r>     3.7358    19.1740   450.9936 </r>
       <r>     3.9218    14.2088   453.9654 </r>
       <r>     4.1078     4.8070   455.7344 </r>
       <r>     4.2938     0.0000   456.0000 </r>
       <r>     4.4798     0.0000   456.0000 </r>
       <r>     4.6658     0.0000   456.0000 </r>
       <r>     4.8517     0.0000   456.0000 </r>
       <r>     5.0377     0.6435   456.0230 </r>
       <r>     5.2237     2.9839   456.3317 </r>
       <r>     5.4097     7.3356   457.2910 </r>
       <r>     5.5957     8.8958   458.9112 </r>
       <r>     5.7817    11.0376   461.7667 </r>
       <r>     5.9677    13.5723   465.1595 </r>
       <r>     6.1537    11.6573   467.4608 </r>
       <r>     6.3397    13.2094   469.7316 </r>
       <r>     6.5257    15.4771   472.4000 </r>
       <r>     6.7117    17.6730   475.4804 </r>
       <r>     6.8977    20.7094   479.0248 </r>
       <r>     7.0837    26.0757   483.3266 </r>
       <r>     7.2697    30.7645   488.6775 </r>
       <r>     7.4557    32.7615   495.3377 </r>
       <r>     7.6417    30.6129   500.4901 </r>
       <r>     7.8277    56.3932   509.1820 </r>
       <r>     8.0136    28.8616   517.0986 </r>
       <r>     8.1996    18.9699   521.3172 </r>
       <r>     8.3856    20.4857   524.8413 </r>
       <r>     8.5716    24.5181   528.9665 </r>
       <r>     8.7576    41.5024   534.4774 </r>
       <r>     8.9436    31.8150   542.2621 </r>
       <r>     9.1296    17.2935   546.5535 </r>
       <r>     9.3156    15.4221   549.7202 </r>
       <r>     9.5016    12.0516   552.2825 </r>
       <r>     9.6876     6.9715   554.8842 </r>
       <r>     9.8736     9.2734   556.4065 </r>
       <r>    10.0596    10.7872   558.5275 </r>
       <r>    10.2456     3.3140   559.8804 </r>
       <r>    10.4316     0.0000   560.0000 </r>
       <r>    10.6176     0.0000   560.0000 </r>
       <r>    10.8036     0.0000   560.0000 </r>
       <r>    10.9896     0.0000   560.0000 </r>
       <r>    11.1755     0.0000   560.0000 </r>
       <r>    11.3615     0.0000   560.0000 </r>
       <r>    11.5475     0.0000   560.0000 </r>
       <r>    11.7335     0.0000   560.0000 </r>
       <r>    11.9195     0.0000   560.0000 </r>
       <r>    12.1055     0.0000   560.0000 </r>
       <r>    12.2915     0.0000   560.0000 </r>
       <r>    12.4775     0.0000   560.0000 </r>
       <r>    12.6635     0.0000   560.0000 </r>
       <r>    12.8495     0.0000   560.0000 </r>
      </set>
     </set>
    </array>
   </total>
  </dos>
 </calculation>
 <structure name="finalpos" >
  <crystal>
   <varray name="basis" >
    <v>      11.17850000       0.00000000       0.00000000 </v>
    <v>       0.00000000       9.57460000       0.00000000 </v>
    <v>       0.00000000       0.00000000      11.18240000 </v>
   </varray>
   <i name="volume">   1196.84853820 </i>
   <varray name="rec_basis" >
    <v>       0.08945744       0.00000000       0.00000000 </v>
    <v>       0.00000000       0.10444301       0.00000000 </v>
    <v>       0.00000000       0.00000000       0.08942624 </v>
   </varray>
  </crystal>
  <varray name="positions" >
   <v>       0.37539000       0.00017000       0.43687000 </v>
   <v>       0.12461000       0.99984000       0.68687000 </v>
   <v>       0.37461000       0.00017000       0.68687000 </v>
   <v>       0.87461000       0.00017000       0.68687000 </v>
   <v>       0.12461000       0.99984000       0.18687000 </v>
   <v>       0.87539000       0.00017000       0.43687000 </v>
   <v>       0.62461000       0.99984000       0.18687000 </v>
   <v>       0.37539000       0.00017000       0.93687000 </v>
   <v>       0.87539000       0.00017000       0.93687000 </v>
   <v>       0.62461000       0.99984000       0.68687000 </v>
   <v>       0.00013000       0.29519000       0.06281000 </v>
   <v>       0.25013000       0.70481000       0.06281000 </v>
   <v>       0.24987000       0.29519000       0.31282000 </v>
   <v>       0.49987000       0.70481000       0.31282000 </v>
   <v>       0.50013000       0.29519000       0.06281000 </v>
   <v>       0.75013000       0.70481000       0.06281000 </v>
   <v>       0.74987000       0.29519000       0.31282000 </v>
   <v>       0.99987000       0.70481000       0.31282000 </v>
   <v>       0.00013000       0.29519000       0.56281000 </v>
   <v>       0.25013000       0.70481000       0.56281000 </v>
   <v>       0.24987000       0.29519000       0.81282000 </v>
   <v>       0.49987000       0.70481000       0.81282000 </v>
   <v>       0.50013000       0.29519000       0.56281000 </v>
   <v>       0.75013000       0.70481000       0.56281000 </v>
   <v>       0.74987000       0.29519000       0.81282000 </v>
   <v>       0.99987000       0.70481000       0.81282000 </v>
   <v>       0.25005000       0.32677000       0.06286000 </v>
   <v>       0.00005000       0.67323000       0.06286000 </v>
   <v>       0.49995000       0.32677000       0.31286000 </v>
   <v>       0.24995000       0.67323000       0.31286000 </v>
   <v>       0.75005000       0.32677000       0.06286000 </v>
   <v>       0.50005000       0.67323000       0.06286000 </v>
   <v>       0.99995000       0.32677000       0.31286000 </v>
   <v>       0.74995000       0.67323000       0.31286000 </v>
   <v>       0.25005000       0.32677000       0.56286000 </v>
   <v>       0.00005000       0.67323000       0.56286000 </v>
   <v>       0.49995000       0.32677000       0.81286000 </v>
   <v>       0.24995000       0.67323000       0.81286000 </v>
   <v>       0.75005000       0.32677000       0.56286000 </v>
   <v>       0.50005000       0.67323000       0.56286000 </v>
   <v>       0.99995000       0.32677000       0.81286000 </v>
   <v>       0.74995000       0.67323000       0.81286000 </v>
   <v>       0.49987000       0.07798000       0.06246000 </v>
   <v>       0.24987000       0.92202000       0.06246000 </v>
   <v>       0.25013000       0.07798000       0.31246000 </v>
   <v>       0.00013000       0.92202000       0.31246000 </v>
   <v>       0.99987000       0.07798000       0.06246000 </v>
   <v>       0.74987000       0.92202000       0.06246000 </v>
   <v>       0.75013000       0.07798000       0.31246000 </v>
   <v>       0.50013000       0.92202000       0.31246000 </v>
   <v>       0.49987000       0.07798000       0.56246000 </v>
   <v>       0.24987000       0.92202000       0.56246000 </v>
   <v>       0.25013000       0.07798000       0.81246000 </v>
   <v>       0.00013000       0.92202000       0.81246000 </v>
   <v>       0.99987000       0.07798000       0.56246000 </v>
   <v>       0.74987000       0.92202000       0.56246000 </v>
   <v>       0.75013000       0.07798000       0.81246000 </v>
   <v>       0.50013000       0.92202000       0.81246000 </v>
  </varray>
 </structure>
</modeling>
