<?xml version="1.0" encoding="ISO-8859-1"?>
<modeling>
 <generator>
  <i name="program" type="string">vasp </i>
  <i name="version" type="string">5.4.4.18Apr17-6-g9f103f2a35  </i>
  <i name="subversion" type="string">(build Jul 31 2017 11:33:29) complex            parallel </i>
  <i name="platform" type="string">LinuxIFC </i>
  <i name="date" type="string">2021 09 29 </i>
  <i name="time" type="string">01:00:05 </i>
 </generator>
 <incar>
  <i type="string" name="SYSTEM"> La2O2S</i>
  <i type="string" name="PREC">normal</i>
  <i type="int" name="NELMIN">     4</i>
  <i type="int" name="IBRION">     2</i>
  <i type="int" name="NFREE">    10</i>
  <i name="EDIFF">      0.00000100</i>
  <i name="EDIFFG">     -0.01000000</i>
  <i type="int" name="NSW">     1</i>
  <i type="int" name="ISIF">     2</i>
  <i name="ENCUT">    600.00000000</i>
  <i name="ENAUG">    900.00000000</i>
  <i type="int" name="ISMEAR">    -5</i>
  <i type="logical" name="LWAVE"> F  </i>
  <i type="logical" name="LCHARG"> F  </i>
  <v type="int" name="KPOINT_BSE">    -1     0     0     0</v>
 </incar>
 <structure name="primitive_cell" >
  <crystal>
   <varray name="basis" >
    <v>      11.17850000       0.00000000       0.00000000 </v>
    <v>       0.00000000       9.57460000       0.00000000 </v>
    <v>       0.00000000       0.00000000      11.18240000 </v>
   </varray>
   <i name="volume">   1196.84853820 </i>
   <varray name="rec_basis" >
    <v>       0.08945744       0.00000000       0.00000000 </v>
    <v>       0.00000000       0.10444301       0.00000000 </v>
    <v>       0.00000000       0.00000000       0.08942624 </v>
   </varray>
  </crystal>
  <varray name="positions" >
   <v>       0.37461000       0.00017000       0.18687000 </v>
   <v>       0.24987000      -0.07798000       0.06246000 </v>
   <v>       0.49987000       0.07798000       0.06246000 </v>
   <v>       0.25013000       0.07798000       0.31246000 </v>
   <v>      -0.49987000      -0.07798000       0.31246000 </v>
   <v>      -0.37539000      -0.00016000       0.18687000 </v>
   <v>       0.12461000      -0.00016000       0.18687000 </v>
   <v>       0.37539000       0.00017000      -0.06313000 </v>
   <v>       0.25013000      -0.29519000       0.06281000 </v>
   <v>      -0.49987000       0.29519000       0.06281000 </v>
   <v>       0.24987000       0.29519000       0.31282000 </v>
   <v>       0.49987000      -0.29519000       0.31282000 </v>
   <v>       0.25005000       0.32677000       0.06286000 </v>
   <v>      -0.49995000      -0.32677000       0.06286000 </v>
   <v>       0.24995000      -0.32677000       0.31286000 </v>
   <v>       0.49995000       0.32677000       0.31286000 </v>
   <v>      -0.37461000      -0.00016000      -0.06313000 </v>
   <v>      -0.37461000      -0.00016000       0.43687000 </v>
   <v>       0.25013000       0.07798000      -0.18754000 </v>
   <v>      -0.00013000       0.07798000       0.06246000 </v>
   <v>       0.00013000      -0.07798000       0.31246000 </v>
   <v>      -0.49987000      -0.07798000      -0.18754000 </v>
   <v>      -0.25013000      -0.07798000       0.06246000 </v>
   <v>       0.24987000      -0.07798000      -0.43754000 </v>
   <v>      -0.24987000       0.07798000       0.31246000 </v>
   <v>       0.49987000       0.07798000      -0.43754000 </v>
   <v>       0.24987000       0.29519000      -0.18718000 </v>
   <v>       0.00013000       0.29519000       0.06281000 </v>
   <v>       0.49987000      -0.29519000      -0.18718000 </v>
   <v>      -0.00013000      -0.29519000       0.31282000 </v>
   <v>      -0.24987000      -0.29519000       0.06281000 </v>
   <v>      -0.25013000       0.29519000       0.31282000 </v>
   <v>       0.25013000      -0.29519000      -0.43719000 </v>
   <v>      -0.49987000       0.29519000      -0.43719000 </v>
   <v>       0.24995000      -0.32677000      -0.18714000 </v>
   <v>       0.49995000       0.32677000      -0.18714000 </v>
   <v>       0.00005000      -0.32677000       0.06286000 </v>
   <v>      -0.00005000       0.32677000       0.31286000 </v>
   <v>      -0.24995000       0.32677000       0.06286000 </v>
   <v>      -0.25005000      -0.32677000       0.31286000 </v>
   <v>       0.25005000       0.32677000      -0.43714000 </v>
   <v>      -0.49995000      -0.32677000      -0.43714000 </v>
   <v>      -0.12539000       0.00017000       0.18687000 </v>
   <v>       0.37461000       0.00017000      -0.31313000 </v>
   <v>       0.00013000      -0.07798000      -0.18754000 </v>
   <v>      -0.24987000       0.07798000      -0.18754000 </v>
   <v>      -0.00013000       0.07798000      -0.43754000 </v>
   <v>      -0.25013000      -0.07798000      -0.43754000 </v>
   <v>      -0.12461000       0.00017000       0.43687000 </v>
   <v>      -0.12461000       0.00017000      -0.06313000 </v>
   <v>      -0.37539000      -0.00016000      -0.31313000 </v>
   <v>       0.12461000      -0.00016000      -0.31313000 </v>
   <v>      -0.00013000      -0.29519000      -0.18718000 </v>
   <v>      -0.25013000       0.29519000      -0.18718000 </v>
   <v>       0.00013000       0.29519000      -0.43719000 </v>
   <v>      -0.24987000      -0.29519000      -0.43719000 </v>
   <v>      -0.00005000       0.32677000      -0.18714000 </v>
   <v>      -0.25005000      -0.32677000      -0.18714000 </v>
   <v>       0.00005000      -0.32677000      -0.43714000 </v>
   <v>      -0.24995000       0.32677000      -0.43714000 </v>
   <v>      -0.12539000       0.00017000      -0.31313000 </v>
  </varray>
 </structure>
 <varray name="primitive_index" >
  <v type="int" >        1 </v>
  <v type="int" >       47 </v>
  <v type="int" >       46 </v>
  <v type="int" >       48 </v>
  <v type="int" >       53 </v>
  <v type="int" >        3 </v>
  <v type="int" >       11 </v>
  <v type="int" >        5 </v>
  <v type="int" >       15 </v>
  <v type="int" >       18 </v>
  <v type="int" >       16 </v>
  <v type="int" >       17 </v>
  <v type="int" >       30 </v>
  <v type="int" >       35 </v>
  <v type="int" >       33 </v>
  <v type="int" >       32 </v>
  <v type="int" >        7 </v>
  <v type="int" >       12 </v>
  <v type="int" >       56 </v>
  <v type="int" >       50 </v>
  <v type="int" >       49 </v>
  <v type="int" >       61 </v>
  <v type="int" >       51 </v>
  <v type="int" >       55 </v>
  <v type="int" >       52 </v>
  <v type="int" >       54 </v>
  <v type="int" >       24 </v>
  <v type="int" >       14 </v>
  <v type="int" >       25 </v>
  <v type="int" >       21 </v>
  <v type="int" >       19 </v>
  <v type="int" >       20 </v>
  <v type="int" >       23 </v>
  <v type="int" >       26 </v>
  <v type="int" >       41 </v>
  <v type="int" >       40 </v>
  <v type="int" >       31 </v>
  <v type="int" >       36 </v>
  <v type="int" >       34 </v>
  <v type="int" >       37 </v>
  <v type="int" >       38 </v>
  <v type="int" >       43 </v>
  <v type="int" >        4 </v>
  <v type="int" >        6 </v>
  <v type="int" >       57 </v>
  <v type="int" >       60 </v>
  <v type="int" >       58 </v>
  <v type="int" >       59 </v>
  <v type="int" >        2 </v>
  <v type="int" >        8 </v>
  <v type="int" >        9 </v>
  <v type="int" >       13 </v>
  <v type="int" >       29 </v>
  <v type="int" >       28 </v>
  <v type="int" >       22 </v>
  <v type="int" >       27 </v>
  <v type="int" >       44 </v>
  <v type="int" >       45 </v>
  <v type="int" >       39 </v>
  <v type="int" >       42 </v>
  <v type="int" >       10 </v>
 </varray>
 <kpoints>
  <generation param="Gamma">
   <v type="int" name="divisions">       2        2        2 </v>
   <v name="usershift">      0.00000000       0.00000000       0.00000000 </v>
   <v name="genvec1">      0.50000000       0.00000000       0.00000000 </v>
   <v name="genvec2">      0.00000000       0.50000000       0.00000000 </v>
   <v name="genvec3">      0.00000000       0.00000000       0.50000000 </v>
   <v name="shift">      0.00000000       0.00000000       0.00000000 </v>
  </generation>
  <varray name="kpointlist" >
   <v>       0.00000000       0.00000000       0.00000000 </v>
   <v>       0.50000000       0.00000000       0.00000000 </v>
   <v>       0.00000000       0.50000000       0.00000000 </v>
   <v>       0.50000000       0.50000000       0.00000000 </v>
   <v>       0.00000000       0.00000000       0.50000000 </v>
   <v>       0.50000000       0.00000000       0.50000000 </v>
   <v>       0.00000000       0.50000000       0.50000000 </v>
   <v>       0.50000000       0.50000000       0.50000000 </v>
  </varray>
  <varray name="weights" >
   <v>       0.12500000 </v>
   <v>       0.12500000 </v>
   <v>       0.12500000 </v>
   <v>       0.12500000 </v>
   <v>       0.12500000 </v>
   <v>       0.12500000 </v>
   <v>       0.12500000 </v>
   <v>       0.12500000 </v>
  </varray>
  <varray name="tetrahedronlist"  type="int" >
   <v type="int" >        2        1        2        4        5 </v>
   <v type="int" >        2        1        3        4        5 </v>
   <v type="int" >        2        3        4        5        7 </v>
   <v type="int" >        2        2        4        5        6 </v>
   <v type="int" >        2        4        5        6        8 </v>
   <v type="int" >        2        4        5        7        8 </v>
   <v type="int" >        2        1        2        3        6 </v>
   <v type="int" >        2        2        3        4        6 </v>
   <v type="int" >        2        3        4        6        8 </v>
   <v type="int" >        2        1        3        5        6 </v>
   <v type="int" >        2        3        5        6        7 </v>
   <v type="int" >        2        3        6        7        8 </v>
   <v type="int" >        2        2        3        4        7 </v>
   <v type="int" >        2        1        2        3        7 </v>
   <v type="int" >        2        1        2        5        7 </v>
   <v type="int" >        2        2        4        7        8 </v>
   <v type="int" >        2        2        6        7        8 </v>
   <v type="int" >        2        2        5        6        7 </v>
   <v type="int" >        2        1        3        4        8 </v>
   <v type="int" >        2        1        2        4        8 </v>
   <v type="int" >        2        1        2        6        8 </v>
   <v type="int" >        2        1        3        7        8 </v>
   <v type="int" >        2        1        5        7        8 </v>
   <v type="int" >        2        1        5        6        8 </v>
  </varray>
  <i name="volumeweight">      0.02083333 </i>
 </kpoints>
 <parameters>
  <separator name="general" >
   <i type="string" name="SYSTEM">La2O2S</i>
   <i type="logical" name="LCOMPAT"> F  </i>
  </separator>
  <separator name="electronic" >
   <i type="string" name="PREC">normal</i>
   <i name="ENMAX">    600.00000000</i>
   <i name="ENAUG">    900.00000000</i>
   <i name="EDIFF">      0.00000100</i>
   <i type="int" name="IALGO">    38</i>
   <i type="int" name="IWAVPR">    11</i>
   <i type="int" name="NBANDS">   280</i>
   <i name="NELECT">    468.00000000</i>
   <i type="int" name="TURBO">     0</i>
   <i type="int" name="IRESTART">     0</i>
   <i type="int" name="NREBOOT">     0</i>
   <i type="int" name="NMIN">     0</i>
   <i name="EREF">      0.00000000</i>
   <separator name="electronic smearing" >
    <i type="int" name="ISMEAR">    -5</i>
    <i name="SIGMA">      0.20000000</i>
    <i name="KSPACING">      0.50000000</i>
    <i type="logical" name="KGAMMA"> T  </i>
   </separator>
   <separator name="electronic projectors" >
    <i type="logical" name="LREAL"> F  </i>
    <v name="ROPT">      0.00000000      0.00000000      0.00000000      0.00000000      0.00000000</v>
    <i type="int" name="LMAXPAW">  -100</i>
    <i type="int" name="LMAXMIX">     2</i>
    <i type="logical" name="NLSPLINE"> F  </i>
   </separator>
   <separator name="electronic startup" >
    <i type="int" name="ISTART">     0</i>
    <i type="int" name="ICHARG">     2</i>
    <i type="int" name="INIWAV">     1</i>
   </separator>
   <separator name="electronic spin" >
    <i type="int" name="ISPIN">     1</i>
    <i type="logical" name="LNONCOLLINEAR"> F  </i>
    <v name="MAGMOM">      1.00000000      1.00000000      1.00000000      1.00000000      1.00000000      1.00000000      1.00000000      1.00000000      1.00000000      1.00000000      1.00000000      1.00000000      1.00000000      1.00000000      1.00000000      1.00000000      1.00000000      1.00000000      1.00000000      1.00000000
      1.00000000      1.00000000      1.00000000      1.00000000      1.00000000      1.00000000      1.00000000      1.00000000      1.00000000      1.00000000      1.00000000      1.00000000      1.00000000      1.00000000      1.00000000      1.00000000      1.00000000      1.00000000      1.00000000      1.00000000
      1.00000000      1.00000000      1.00000000      1.00000000      1.00000000      1.00000000      1.00000000      1.00000000      1.00000000      1.00000000      1.00000000      1.00000000      1.00000000      1.00000000      1.00000000      1.00000000      1.00000000      1.00000000      1.00000000      1.00000000
      1.00000000</v>
    <i name="NUPDOWN">     -1.00000000</i>
    <i type="logical" name="LSORBIT"> F  </i>
    <v name="SAXIS">      0.00000000      0.00000000      1.00000000</v>
    <i type="logical" name="LSPIRAL"> F  </i>
    <v name="QSPIRAL">      0.00000000      0.00000000      0.00000000</v>
    <i type="logical" name="LZEROZ"> F  </i>
   </separator>
   <separator name="electronic exchange-correlation" >
    <i type="logical" name="LASPH"> F  </i>
    <i type="logical" name="LMETAGGA"> F  </i>
   </separator>
   <separator name="electronic convergence" >
    <i type="int" name="NELM">    60</i>
    <i type="int" name="NELMDL">    -5</i>
    <i type="int" name="NELMIN">     4</i>
    <i name="ENINI">    600.00000000</i>
    <separator name="electronic convergence detail" >
     <i type="logical" name="LDIAG"> T  </i>
     <i type="logical" name="LSUBROT"> F  </i>
     <i name="WEIMIN">      0.00100000</i>
     <i name="EBREAK">      0.00000000</i>
     <i name="DEPER">      0.30000000</i>
     <i type="int" name="NRMM">     4</i>
     <i name="TIME">      0.40000000</i>
    </separator>
   </separator>
   <separator name="electronic mixer" >
    <i name="AMIX">      0.40000000</i>
    <i name="BMIX">      1.00000000</i>
    <i name="AMIN">      0.10000000</i>
    <i name="AMIX_MAG">      1.60000000</i>
    <i name="BMIX_MAG">      1.00000000</i>
    <separator name="electronic mixer details" >
     <i type="int" name="IMIX">     4</i>
     <i type="logical" name="MIXFIRST"> F  </i>
     <i type="int" name="MAXMIX">   -45</i>
     <i name="WC">    100.00000000</i>
     <i type="int" name="INIMIX">     1</i>
     <i type="int" name="MIXPRE">     1</i>
     <i type="int" name="MREMOVE">     5</i>
    </separator>
   </separator>
   <separator name="electronic dipolcorrection" >
    <i type="logical" name="LDIPOL"> F  </i>
    <i type="logical" name="LMONO"> F  </i>
    <i type="int" name="IDIPOL">     0</i>
    <i name="EPSILON">      1.00000000</i>
    <v name="DIPOL">   -100.00000000   -100.00000000   -100.00000000</v>
    <i name="EFIELD">      0.00000000</i>
   </separator>
  </separator>
  <separator name="grids" >
   <i type="int" name="NGX">    70</i>
   <i type="int" name="NGY">    60</i>
   <i type="int" name="NGZ">    70</i>
   <i type="int" name="NGXF">   140</i>
   <i type="int" name="NGYF">   120</i>
   <i type="int" name="NGZF">   140</i>
   <i type="logical" name="ADDGRID"> F  </i>
  </separator>
  <separator name="ionic" >
   <i type="int" name="NSW">     1</i>
   <i type="int" name="IBRION">     2</i>
   <i type="int" name="MDALGO">     0</i>
   <i type="int" name="ISIF">     2</i>
   <i name="PSTRESS">      0.00000000</i>
   <i name="EDIFFG">     -0.01000000</i>
   <i type="int" name="NFREE">    10</i>
   <i name="POTIM">      0.50000000</i>
   <i name="SMASS">     -3.00000000</i>
   <i name="SCALEE">      1.00000000</i>
  </separator>
  <separator name="ionic md" >
   <i name="TEBEG">      0.00010000</i>
   <i name="TEEND">      0.00010000</i>
   <i type="int" name="NBLOCK">     1</i>
   <i type="int" name="KBLOCK">     1</i>
   <i type="int" name="NPACO">   256</i>
   <i name="APACO">     16.00000000</i>
  </separator>
  <separator name="symmetry" >
   <i type="int" name="ISYM">     2</i>
   <i name="SYMPREC">      0.00001000</i>
  </separator>
  <separator name="dos" >
   <i type="int" name="LORBIT">     0</i>
   <v name="RWIGS">     -1.00000000     -1.00000000     -1.00000000     -1.00000000     -1.00000000</v>
   <i type="int" name="NEDOS">   301</i>
   <i name="EMIN">     10.00000000</i>
   <i name="EMAX">    -10.00000000</i>
   <i name="EFERMI">      0.00000000</i>
  </separator>
  <separator name="writing" >
   <i type="int" name="NWRITE">     2</i>
   <i type="logical" name="LWAVE"> F  </i>
   <i type="logical" name="LDOWNSAMPLE"> F  </i>
   <i type="logical" name="LCHARG"> F  </i>
   <i type="logical" name="LPARD"> F  </i>
   <i type="logical" name="LVTOT"> F  </i>
   <i type="logical" name="LVHAR"> F  </i>
   <i type="logical" name="LELF"> F  </i>
   <i type="logical" name="LOPTICS"> F  </i>
   <v name="STM">      0.00000000      0.00000000      0.00000000      0.00000000      0.00000000      0.00000000      0.00000000</v>
  </separator>
  <separator name="performance" >
   <i type="int" name="NPAR">    28</i>
   <i type="int" name="NSIM">     4</i>
   <i type="int" name="NBLK">    -1</i>
   <i type="logical" name="LPLANE"> T  </i>
   <i type="logical" name="LSCALAPACK"> T  </i>
   <i type="logical" name="LSCAAWARE"> F  </i>
   <i type="logical" name="LSCALU"> F  </i>
   <i type="logical" name="LASYNC"> F  </i>
   <i type="logical" name="LORBITALREAL"> F  </i>
  </separator>
  <separator name="miscellaneous" >
   <i type="int" name="IDIOT">     3</i>
   <i type="int" name="ISPECIAL">     0</i>
   <i type="logical" name="LMUSIC"> F  </i>
   <v name="POMASS">      7.01000000     24.30500000    208.98000000     32.06600000     16.00000000</v>
   <v name="DARWINR">      0.00000000      0.00000000      0.00000000      0.00000000      0.00000000</v>
   <v name="DARWINV">      1.00000000      1.00000000      1.00000000      1.00000000      1.00000000</v>
   <i type="logical" name="LCORR"> T  </i>
  </separator>
  <i type="logical" name="GGA_COMPAT"> T  </i>
  <i type="logical" name="LBERRY"> F  </i>
  <i type="int" name="ICORELEVEL">     0</i>
  <i type="logical" name="LDAU"> F  </i>
  <i type="int" name="I_CONSTRAINED_M">     0</i>
  <separator name="electronic exchange-correlation" >
   <i type="string" name="GGA">--</i>
   <i type="int" name="VOSKOWN">     0</i>
   <i type="logical" name="LHFCALC"> F  </i>
   <i type="string" name="PRECFOCK"></i>
   <i type="logical" name="LSYMGRAD"> F  </i>
   <i type="logical" name="LHFONE"> F  </i>
   <i type="logical" name="LRHFCALC"> F  </i>
   <i type="logical" name="LTHOMAS"> F  </i>
   <i type="logical" name="LMODELHF"> F  </i>
   <i name="ENCUT4O">     -1.00000000</i>
   <i type="int" name="EXXOEP">     0</i>
   <i type="int" name="FOURORBIT">     0</i>
   <i name="AEXX">      0.00000000</i>
   <i name="HFALPHA">      0.00000000</i>
   <i name="MCALPHA">      0.00000000</i>
   <i name="ALDAX">      1.00000000</i>
   <i name="AGGAX">      1.00000000</i>
   <i name="ALDAC">      1.00000000</i>
   <i name="AGGAC">      1.00000000</i>
   <i type="int" name="NKREDX">     1</i>
   <i type="int" name="NKREDY">     1</i>
   <i type="int" name="NKREDZ">     1</i>
   <i type="logical" name="SHIFTRED"> F  </i>
   <i type="logical" name="ODDONLY"> F  </i>
   <i type="logical" name="EVENONLY"> F  </i>
   <i type="int" name="LMAXFOCK">     0</i>
   <i type="int" name="NMAXFOCKAE">     0</i>
   <i type="logical" name="LFOCKAEDFT"> F  </i>
   <i name="HFSCREEN">      0.00000000</i>
   <i name="HFSCREENC">      0.00000000</i>
   <i type="int" name="NBANDSGWLOW">     0</i>
  </separator>
  <separator name="vdW DFT" >
   <i type="logical" name="LUSE_VDW"> F  </i>
   <i name="Zab_VDW">     -0.84910000</i>
   <i name="PARAM1">      0.12340000</i>
   <i name="PARAM2">      1.00000000</i>
   <i name="PARAM3">      0.00000000</i>
  </separator>
  <separator name="model GW" >
   <i type="int" name="MODEL_GW">     0</i>
   <i name="MODEL_EPS0">     11.77228070</i>
   <i name="MODEL_ALPHA">      1.00000000</i>
  </separator>
  <separator name="linear response parameters" >
   <i type="logical" name="LEPSILON"> F  </i>
   <i type="logical" name="LRPA"> F  </i>
   <i type="logical" name="LNABLA"> F  </i>
   <i type="logical" name="LVEL"> F  </i>
   <i type="int" name="KINTER">     0</i>
   <i name="CSHIFT">      0.10000000</i>
   <i name="OMEGAMAX">     -1.00000000</i>
   <i name="DEG_THRESHOLD">      0.00200000</i>
   <i name="RTIME">     -0.10000000</i>
   <i name="WPLASMAI">      0.00000000</i>
   <v name="DFIELD">      0.00000000      0.00000000      0.00000000</v>
   <v name="WPLASMA">      0.00000000      0.00000000      0.00000000      0.00000000      0.00000000      0.00000000      0.00000000      0.00000000      0.00000000</v>
  </separator>
  <separator name="orbital magnetization" >
   <i type="logical" name="NUCIND"> F  </i>
   <v name="MAGPOS">      0.00000000      0.00000000      0.00000000</v>
   <i type="logical" name="LNICSALL"> T  </i>
   <i type="logical" name="ORBITALMAG"> F  </i>
   <i type="logical" name="LMAGBLOCH"> F  </i>
   <i type="logical" name="LCHIMAG"> F  </i>
   <i type="logical" name="LGAUGE"> T  </i>
   <i type="int" name="MAGATOM">     0</i>
   <v name="MAGDIPOL">      0.00000000      0.00000000      0.00000000</v>
   <v name="AVECCONST">      0.00000000      0.00000000      0.00000000</v>
  </separator>
  <separator name="response functions" >
   <i type="logical" name="LADDER"> F  </i>
   <i type="logical" name="LRPAFORCE"> F  </i>
   <i type="logical" name="LFXC"> F  </i>
   <i type="logical" name="LHARTREE"> T  </i>
   <i type="int" name="IBSE">     0</i>
   <v type="int" name="KPOINT">    -1     0     0     0</v>
   <i type="logical" name="LTCTE"> F  </i>
   <i type="logical" name="LTETE"> F  </i>
   <i type="logical" name="LTRIPLET"> F  </i>
   <i type="logical" name="LFXCEPS"> F  </i>
   <i type="logical" name="LFXHEG"> F  </i>
   <i type="int" name="NATURALO">     2</i>
   <i type="logical" name="L2ORDER"> F  </i>
   <i type="logical" name="LMP2LT"> F  </i>
   <i type="logical" name="LUSEW"> F  </i>
   <i name="ENCUTGW">     -2.00000000</i>
   <i name="ENCUTGWSOFT">     -2.00000000</i>
   <i name="ENCUTLF">     -1.00000000</i>
   <i type="int" name="LMAXMP2">    -1</i>
   <i name="SCISSOR">      0.00000000</i>
   <i type="int" name="NOMEGA">     0</i>
   <i type="int" name="NOMEGAR">     0</i>
   <i type="int" name="NBANDSGW">    -1</i>
   <i type="int" name="NBANDSO">    -1</i>
   <i type="int" name="NBANDSV">    -1</i>
   <i type="int" name="NELM">     1</i>
   <i type="int" name="NELMHF">     1</i>
   <i type="int" name="DIM">     3</i>
   <i type="int" name="ANTIRES">     0</i>
   <i name="OMEGAMAX">    -30.00000000</i>
   <i name="OMEGAMIN">    -30.00000000</i>
   <i name="OMEGATL">   -200.00000000</i>
   <i type="int" name="OMEGAGRID">   140</i>
   <i name="CSHIFT">     -0.10000000</i>
   <i type="logical" name="SELFENERGY"> F  </i>
   <i type="logical" name="LSPECTRAL"> F  </i>
   <i type="logical" name="LSPECTRALGW"> F  </i>
   <i type="logical" name="LSINGLES"> F  </i>
   <i type="logical" name="LFERMIGW"> F  </i>
   <i type="logical" name="ODDONLYGW"> F  </i>
   <i type="logical" name="EVENONLYGW"> F  </i>
   <i type="int" name="NKREDLFX">     1</i>
   <i type="int" name="NKREDLFY">     1</i>
   <i type="int" name="NKREDLFZ">     1</i>
   <i type="int" name="MAXMEM">  2800</i>
   <i type="int" name="TELESCOPE">     0</i>
   <i type="int" name="TAUPAR">     1</i>
   <i type="int" name="OMEGAPAR">    -1</i>
   <i name="LAMBDA">      1.00000000</i>
  </separator>
  <separator name="External order field" >
   <i name="OFIELD_KAPPA">      0.00000000</i>
   <v name="OFIELD_K">      0.00000000      0.00000000      0.00000000</v>
   <i name="OFIELD_Q6_NEAR">      0.00000000</i>
   <i name="OFIELD_Q6_FAR">      0.00000000</i>
   <i name="OFIELD_A">      0.00000000</i>
  </separator>
 </parameters>
 <atominfo>
  <atoms>      61 </atoms>
  <types>       5 </types>
  <array name="atoms" >
   <dimension dim="1">ion</dimension>
   <field type="string">element</field>
   <field type="int">atomtype</field>
   <set>
    <rc><c>Li</c><c>   1</c></rc>
    <rc><c>Li</c><c>   1</c></rc>
    <rc><c>Li</c><c>   1</c></rc>
    <rc><c>Li</c><c>   1</c></rc>
    <rc><c>Li</c><c>   1</c></rc>
    <rc><c>Li</c><c>   1</c></rc>
    <rc><c>Li</c><c>   1</c></rc>
    <rc><c>Li</c><c>   1</c></rc>
    <rc><c>Li</c><c>   1</c></rc>
    <rc><c>Li</c><c>   1</c></rc>
    <rc><c>Mg</c><c>   2</c></rc>
    <rc><c>Mg</c><c>   2</c></rc>
    <rc><c>Mg</c><c>   2</c></rc>
    <rc><c>Bi</c><c>   3</c></rc>
    <rc><c>Bi</c><c>   3</c></rc>
    <rc><c>Bi</c><c>   3</c></rc>
    <rc><c>Bi</c><c>   3</c></rc>
    <rc><c>Bi</c><c>   3</c></rc>
    <rc><c>Bi</c><c>   3</c></rc>
    <rc><c>Bi</c><c>   3</c></rc>
    <rc><c>Bi</c><c>   3</c></rc>
    <rc><c>Bi</c><c>   3</c></rc>
    <rc><c>Bi</c><c>   3</c></rc>
    <rc><c>Bi</c><c>   3</c></rc>
    <rc><c>Bi</c><c>   3</c></rc>
    <rc><c>Bi</c><c>   3</c></rc>
    <rc><c>Bi</c><c>   3</c></rc>
    <rc><c>Bi</c><c>   3</c></rc>
    <rc><c>Bi</c><c>   3</c></rc>
    <rc><c>S </c><c>   4</c></rc>
    <rc><c>S </c><c>   4</c></rc>
    <rc><c>S </c><c>   4</c></rc>
    <rc><c>S </c><c>   4</c></rc>
    <rc><c>S </c><c>   4</c></rc>
    <rc><c>S </c><c>   4</c></rc>
    <rc><c>S </c><c>   4</c></rc>
    <rc><c>S </c><c>   4</c></rc>
    <rc><c>S </c><c>   4</c></rc>
    <rc><c>S </c><c>   4</c></rc>
    <rc><c>S </c><c>   4</c></rc>
    <rc><c>S </c><c>   4</c></rc>
    <rc><c>S </c><c>   4</c></rc>
    <rc><c>S </c><c>   4</c></rc>
    <rc><c>S </c><c>   4</c></rc>
    <rc><c>S </c><c>   4</c></rc>
    <rc><c>O </c><c>   5</c></rc>
    <rc><c>O </c><c>   5</c></rc>
    <rc><c>O </c><c>   5</c></rc>
    <rc><c>O </c><c>   5</c></rc>
    <rc><c>O </c><c>   5</c></rc>
    <rc><c>O </c><c>   5</c></rc>
    <rc><c>O </c><c>   5</c></rc>
    <rc><c>O </c><c>   5</c></rc>
    <rc><c>O </c><c>   5</c></rc>
    <rc><c>O </c><c>   5</c></rc>
    <rc><c>O </c><c>   5</c></rc>
    <rc><c>O </c><c>   5</c></rc>
    <rc><c>O </c><c>   5</c></rc>
    <rc><c>O </c><c>   5</c></rc>
    <rc><c>O </c><c>   5</c></rc>
    <rc><c>O </c><c>   5</c></rc>
   </set>
  </array>
  <array name="atomtypes" >
   <dimension dim="1">type</dimension>
   <field type="int">atomspertype</field>
   <field type="string">element</field>
   <field>mass</field>
   <field>valence</field>
   <field type="string">pseudopotential</field>
   <set>
    <rc><c>  10</c><c>Li</c><c>      7.01000000</c><c>      3.00000000</c><c>  PAW_PBE Li_sv 10Sep2004               </c></rc>
    <rc><c>   3</c><c>Mg</c><c>     24.30500000</c><c>      2.00000000</c><c>  PAW_PBE Mg 13Apr2007                  </c></rc>
    <rc><c>  16</c><c>Bi</c><c>    208.98000000</c><c>     15.00000000</c><c>  PAW_PBE Bi_d 06Sep2000                </c></rc>
    <rc><c>  16</c><c>S </c><c>     32.06600000</c><c>      6.00000000</c><c>  PAW_PBE S 06Sep2000                   </c></rc>
    <rc><c>  16</c><c>O </c><c>     16.00000000</c><c>      6.00000000</c><c>  PAW_PBE O 08Apr2002                   </c></rc>
   </set>
  </array>
 </atominfo>
 <structure name="initialpos" >
  <crystal>
   <varray name="basis" >
    <v>      11.17850000       0.00000000       0.00000000 </v>
    <v>       0.00000000       9.57460000       0.00000000 </v>
    <v>       0.00000000       0.00000000      11.18240000 </v>
   </varray>
   <i name="volume">   1196.84853820 </i>
   <varray name="rec_basis" >
    <v>       0.08945744       0.00000000       0.00000000 </v>
    <v>       0.00000000       0.10444301       0.00000000 </v>
    <v>       0.00000000       0.00000000       0.08942624 </v>
   </varray>
  </crystal>
  <varray name="positions" >
   <v>       0.37461000       0.00017000       0.18687000 </v>
   <v>       0.87539000       0.00017000       0.43687000 </v>
   <v>       0.62461000       0.99984000       0.18687000 </v>
   <v>       0.87461000       0.00017000       0.18687000 </v>
   <v>       0.37539000       0.00017000       0.93687000 </v>
   <v>       0.37461000       0.00017000       0.68687000 </v>
   <v>       0.62539000       0.99984000       0.93687000 </v>
   <v>       0.87539000       0.00017000       0.93687000 </v>
   <v>       0.62461000       0.99984000       0.68687000 </v>
   <v>       0.87461000       0.00017000       0.68687000 </v>
   <v>       0.12461000       0.99984000       0.18687000 </v>
   <v>       0.62539000       0.99984000       0.43687000 </v>
   <v>       0.12461000       0.99984000       0.68687000 </v>
   <v>       0.00013000       0.29519000       0.06281000 </v>
   <v>       0.25013000       0.70481000       0.06281000 </v>
   <v>       0.24987000       0.29519000       0.31282000 </v>
   <v>       0.49987000       0.70481000       0.31282000 </v>
   <v>       0.50013000       0.29519000       0.06281000 </v>
   <v>       0.75013000       0.70481000       0.06281000 </v>
   <v>       0.74987000       0.29519000       0.31282000 </v>
   <v>       0.99987000       0.70481000       0.31282000 </v>
   <v>       0.00013000       0.29519000       0.56281000 </v>
   <v>       0.25013000       0.70481000       0.56281000 </v>
   <v>       0.24987000       0.29519000       0.81282000 </v>
   <v>       0.49987000       0.70481000       0.81282000 </v>
   <v>       0.50013000       0.29519000       0.56281000 </v>
   <v>       0.75013000       0.70481000       0.56281000 </v>
   <v>       0.74987000       0.29519000       0.81282000 </v>
   <v>       0.99987000       0.70481000       0.81282000 </v>
   <v>       0.25005000       0.32677000       0.06286000 </v>
   <v>       0.00005000       0.67323000       0.06286000 </v>
   <v>       0.49995000       0.32677000       0.31286000 </v>
   <v>       0.24995000       0.67323000       0.31286000 </v>
   <v>       0.75005000       0.32677000       0.06286000 </v>
   <v>       0.50005000       0.67323000       0.06286000 </v>
   <v>       0.99995000       0.32677000       0.31286000 </v>
   <v>       0.74995000       0.67323000       0.31286000 </v>
   <v>       0.25005000       0.32677000       0.56286000 </v>
   <v>       0.00005000       0.67323000       0.56286000 </v>
   <v>       0.49995000       0.32677000       0.81286000 </v>
   <v>       0.24995000       0.67323000       0.81286000 </v>
   <v>       0.75005000       0.32677000       0.56286000 </v>
   <v>       0.50005000       0.67323000       0.56286000 </v>
   <v>       0.99995000       0.32677000       0.81286000 </v>
   <v>       0.74995000       0.67323000       0.81286000 </v>
   <v>       0.49987000       0.07798000       0.06246000 </v>
   <v>       0.24987000       0.92202000       0.06246000 </v>
   <v>       0.25013000       0.07798000       0.31246000 </v>
   <v>       0.00013000       0.92202000       0.31246000 </v>
   <v>       0.99987000       0.07798000       0.06246000 </v>
   <v>       0.74987000       0.92202000       0.06246000 </v>
   <v>       0.75013000       0.07798000       0.31246000 </v>
   <v>       0.50013000       0.92202000       0.31246000 </v>
   <v>       0.49987000       0.07798000       0.56246000 </v>
   <v>       0.24987000       0.92202000       0.56246000 </v>
   <v>       0.25013000       0.07798000       0.81246000 </v>
   <v>       0.00013000       0.92202000       0.81246000 </v>
   <v>       0.99987000       0.07798000       0.56246000 </v>
   <v>       0.74987000       0.92202000       0.56246000 </v>
   <v>       0.75013000       0.07798000       0.81246000 </v>
   <v>       0.50013000       0.92202000       0.81246000 </v>
  </varray>
 </structure>
 <calculation>
  <scstep>
   <time name="dav">   59.82   60.54</time>
   <time name="total">   59.91   60.64</time>
   <energy>
    <i name="alphaZ">   1073.51873187 </i>
    <i name="ewald"> -30862.51252694 </i>
    <i name="hartreedc"> -12725.48144137 </i>
    <i name="XCdc">   1395.00987595 </i>
    <i name="pawpsdc">  36823.70205594 </i>
    <i name="pawaedc"> -36326.52930246 </i>
    <i name="eentropy">      0.00000000 </i>
    <i name="bandstr">   1806.66404238 </i>
    <i name="atom">  44791.06186932 </i>
    <i name="e_fr_energy">   5975.43330469 </i>
    <i name="e_wo_entrp">   5975.43330469 </i>
    <i name="e_0_energy">   5975.43330469 </i>
   </energy>
  </scstep>
  <scstep>
   <time name="dav">   60.54   60.82</time>
   <time name="total">   60.55   60.83</time>
   <energy>
    <i name="e_fr_energy">    805.01184367 </i>
    <i name="e_wo_entrp">    805.01184367 </i>
    <i name="e_0_energy">    805.01184367 </i>
   </energy>
  </scstep>
  <scstep>
   <time name="dav">   70.42   70.63</time>
   <time name="total">   70.42   70.63</time>
   <energy>
    <i name="e_fr_energy">   -242.66305644 </i>
    <i name="e_wo_entrp">   -242.66305644 </i>
    <i name="e_0_energy">   -242.66305644 </i>
   </energy>
  </scstep>
  <scstep>
   <time name="dav">   72.47   72.95</time>
   <time name="total">   72.47   72.95</time>
   <energy>
    <i name="e_fr_energy">   -345.73724630 </i>
    <i name="e_wo_entrp">   -345.73724630 </i>
    <i name="e_0_energy">   -345.73724630 </i>
   </energy>
  </scstep>
  <scstep>
   <time name="dav">   96.68   97.68</time>
   <time name="total">   97.42   98.43</time>
   <energy>
    <i name="e_fr_energy">   -354.80095485 </i>
    <i name="e_wo_entrp">   -354.80095485 </i>
    <i name="e_0_energy">   -354.80095485 </i>
   </energy>
  </scstep>
  <scstep>
   <time name="dav">   86.15   86.32</time>
   <time name="total">   86.96   87.14</time>
   <energy>
    <i name="e_fr_energy">   -296.51374309 </i>
    <i name="e_wo_entrp">   -296.51374309 </i>
    <i name="e_0_energy">   -296.51374309 </i>
   </energy>
  </scstep>
  <scstep>
   <time name="dav">   65.89   65.96</time>
   <time name="total">   66.70   66.77</time>
   <energy>
    <i name="e_fr_energy">   -299.26080066 </i>
    <i name="e_wo_entrp">   -299.26080066 </i>
    <i name="e_0_energy">   -299.26080066 </i>
   </energy>
  </scstep>
  <scstep>
   <time name="dav">   78.65   78.89</time>
   <time name="total">   79.46   79.71</time>
   <energy>
    <i name="e_fr_energy">   -298.02598330 </i>
    <i name="e_wo_entrp">   -298.02598330 </i>
    <i name="e_0_energy">   -298.02598330 </i>
   </energy>
  </scstep>
  <scstep>
   <time name="dav">   72.41   73.07</time>
   <time name="total">   73.20   73.90</time>
   <energy>
    <i name="e_fr_energy">   -297.37874256 </i>
    <i name="e_wo_entrp">   -297.37874256 </i>
    <i name="e_0_energy">   -297.37874256 </i>
   </energy>
  </scstep>
  <scstep>
   <time name="dav">   75.10   75.54</time>
   <time name="total">   75.91   76.35</time>
   <energy>
    <i name="e_fr_energy">   -297.42209430 </i>
    <i name="e_wo_entrp">   -297.42209430 </i>
    <i name="e_0_energy">   -297.42209430 </i>
   </energy>
  </scstep>
  <scstep>
   <time name="dav">   80.23   80.98</time>
   <time name="total">   81.04   81.79</time>
   <energy>
    <i name="e_fr_energy">   -297.42923529 </i>
    <i name="e_wo_entrp">   -297.42923529 </i>
    <i name="e_0_energy">   -297.42923529 </i>
   </energy>
  </scstep>
  <scstep>
   <time name="dav">   87.32   87.63</time>
   <time name="total">   88.13   88.44</time>
   <energy>
    <i name="e_fr_energy">   -297.43318535 </i>
    <i name="e_wo_entrp">   -297.43318535 </i>
    <i name="e_0_energy">   -297.43318535 </i>
   </energy>
  </scstep>
  <scstep>
   <time name="dav">   70.60   71.31</time>
   <time name="total">   71.41   72.13</time>
   <energy>
    <i name="e_fr_energy">   -297.43381589 </i>
    <i name="e_wo_entrp">   -297.43381589 </i>
    <i name="e_0_energy">   -297.43381589 </i>
   </energy>
  </scstep>
  <scstep>
   <time name="dav">   79.35   80.11</time>
   <time name="total">   80.19   80.96</time>
   <energy>
    <i name="e_fr_energy">   -297.43395426 </i>
    <i name="e_wo_entrp">   -297.43395426 </i>
    <i name="e_0_energy">   -297.43395426 </i>
   </energy>
  </scstep>
  <scstep>
   <time name="dav">   81.01   81.33</time>
   <time name="total">   81.83   82.16</time>
   <energy>
    <i name="e_fr_energy">   -297.43400315 </i>
    <i name="e_wo_entrp">   -297.43400315 </i>
    <i name="e_0_energy">   -297.43400315 </i>
   </energy>
  </scstep>
  <scstep>
   <time name="dav">   69.29   69.41</time>
   <time name="total">   70.17   70.30</time>
   <energy>
    <i name="e_fr_energy">   -297.43401751 </i>
    <i name="e_wo_entrp">   -297.43401751 </i>
    <i name="e_0_energy">   -297.43401751 </i>
   </energy>
  </scstep>
  <scstep>
   <time name="dav">   71.61   71.75</time>
   <time name="total">   72.44   72.59</time>
   <energy>
    <i name="e_fr_energy">   -297.43401858 </i>
    <i name="e_wo_entrp">   -297.43401858 </i>
    <i name="e_0_energy">   -297.43401858 </i>
   </energy>
  </scstep>
  <scstep>
   <time name="dav">   60.29   60.59</time>
   <time name="total">   60.37   60.68</time>
   <energy>
    <i name="alphaZ">   1073.51873187 </i>
    <i name="ewald"> -30862.51252694 </i>
    <i name="hartreedc"> -12960.86644465 </i>
    <i name="XCdc">   1418.54598876 </i>
    <i name="pawpsdc">  43844.97696658 </i>
    <i name="pawaedc"> -43322.32668784 </i>
    <i name="eentropy">      0.00000000 </i>
    <i name="bandstr">  -4279.83191637 </i>
    <i name="atom">  44791.06186932 </i>
    <i name="e_fr_energy">   -297.43401928 </i>
    <i name="e_wo_entrp">   -297.43401928 </i>
    <i name="e_0_energy">   -297.43401928 </i>
   </energy>
  </scstep>
  <structure>
   <crystal>
    <varray name="basis" >
     <v>      11.17850000       0.00000000       0.00000000 </v>
     <v>       0.00000000       9.57460000       0.00000000 </v>
     <v>       0.00000000       0.00000000      11.18240000 </v>
    </varray>
    <i name="volume">   1196.84853820 </i>
    <varray name="rec_basis" >
     <v>       0.08945744       0.00000000       0.00000000 </v>
     <v>       0.00000000       0.10444301       0.00000000 </v>
     <v>       0.00000000       0.00000000       0.08942624 </v>
    </varray>
   </crystal>
   <varray name="positions" >
    <v>       0.37461000       0.00017000       0.18687000 </v>
    <v>       0.87539000       0.00017000       0.43687000 </v>
    <v>       0.62461000       0.99984000       0.18687000 </v>
    <v>       0.87461000       0.00017000       0.18687000 </v>
    <v>       0.37539000       0.00017000       0.93687000 </v>
    <v>       0.37461000       0.00017000       0.68687000 </v>
    <v>       0.62539000       0.99984000       0.93687000 </v>
    <v>       0.87539000       0.00017000       0.93687000 </v>
    <v>       0.62461000       0.99984000       0.68687000 </v>
    <v>       0.87461000       0.00017000       0.68687000 </v>
    <v>       0.12461000       0.99984000       0.18687000 </v>
    <v>       0.62539000       0.99984000       0.43687000 </v>
    <v>       0.12461000       0.99984000       0.68687000 </v>
    <v>       0.00013000       0.29519000       0.06281000 </v>
    <v>       0.25013000       0.70481000       0.06281000 </v>
    <v>       0.24987000       0.29519000       0.31282000 </v>
    <v>       0.49987000       0.70481000       0.31282000 </v>
    <v>       0.50013000       0.29519000       0.06281000 </v>
    <v>       0.75013000       0.70481000       0.06281000 </v>
    <v>       0.74987000       0.29519000       0.31282000 </v>
    <v>       0.99987000       0.70481000       0.31282000 </v>
    <v>       0.00013000       0.29519000       0.56281000 </v>
    <v>       0.25013000       0.70481000       0.56281000 </v>
    <v>       0.24987000       0.29519000       0.81282000 </v>
    <v>       0.49987000       0.70481000       0.81282000 </v>
    <v>       0.50013000       0.29519000       0.56281000 </v>
    <v>       0.75013000       0.70481000       0.56281000 </v>
    <v>       0.74987000       0.29519000       0.81282000 </v>
    <v>       0.99987000       0.70481000       0.81282000 </v>
    <v>       0.25005000       0.32677000       0.06286000 </v>
    <v>       0.00005000       0.67323000       0.06286000 </v>
    <v>       0.49995000       0.32677000       0.31286000 </v>
    <v>       0.24995000       0.67323000       0.31286000 </v>
    <v>       0.75005000       0.32677000       0.06286000 </v>
    <v>       0.50005000       0.67323000       0.06286000 </v>
    <v>       0.99995000       0.32677000       0.31286000 </v>
    <v>       0.74995000       0.67323000       0.31286000 </v>
    <v>       0.25005000       0.32677000       0.56286000 </v>
    <v>       0.00005000       0.67323000       0.56286000 </v>
    <v>       0.49995000       0.32677000       0.81286000 </v>
    <v>       0.24995000       0.67323000       0.81286000 </v>
    <v>       0.75005000       0.32677000       0.56286000 </v>
    <v>       0.50005000       0.67323000       0.56286000 </v>
    <v>       0.99995000       0.32677000       0.81286000 </v>
    <v>       0.74995000       0.67323000       0.81286000 </v>
    <v>       0.49987000       0.07798000       0.06246000 </v>
    <v>       0.24987000       0.92202000       0.06246000 </v>
    <v>       0.25013000       0.07798000       0.31246000 </v>
    <v>       0.00013000       0.92202000       0.31246000 </v>
    <v>       0.99987000       0.07798000       0.06246000 </v>
    <v>       0.74987000       0.92202000       0.06246000 </v>
    <v>       0.75013000       0.07798000       0.31246000 </v>
    <v>       0.50013000       0.92202000       0.31246000 </v>
    <v>       0.49987000       0.07798000       0.56246000 </v>
    <v>       0.24987000       0.92202000       0.56246000 </v>
    <v>       0.25013000       0.07798000       0.81246000 </v>
    <v>       0.00013000       0.92202000       0.81246000 </v>
    <v>       0.99987000       0.07798000       0.56246000 </v>
    <v>       0.74987000       0.92202000       0.56246000 </v>
    <v>       0.75013000       0.07798000       0.81246000 </v>
    <v>       0.50013000       0.92202000       0.81246000 </v>
   </varray>
  </structure>
  <varray name="forces" >
   <v>       0.03562558       0.06367124       0.41499866 </v>
   <v>       0.86384198      -0.00123713       0.00446795 </v>
   <v>      -0.19656175      -0.06448063      -0.31565268 </v>
   <v>      -0.02299565      -0.06784273      -0.09085220 </v>
   <v>      -0.39047692      -0.00033013       0.00393881 </v>
   <v>       0.03611481      -0.06234477      -0.40100766 </v>
   <v>      -0.03646357       0.00033743       0.00530429 </v>
   <v>       0.37428082      -0.00114483       0.00406410 </v>
   <v>      -0.19672296       0.06527301       0.32800192 </v>
   <v>      -0.02308312       0.06570637       0.10502493 </v>
   <v>       0.30722088       0.11668941       0.23034586 </v>
   <v>      -1.09925185       0.00445979       0.03149567 </v>
   <v>       0.30606850      -0.10685462      -0.16206567 </v>
   <v>       0.17260694      -0.02334673      -0.18810434 </v>
   <v>      -0.03638790       0.03650573      -0.15536038 </v>
   <v>       0.06447095      -1.03187564       0.30918142 </v>
   <v>      -0.41661160       0.00711607       0.01293699 </v>
   <v>      -0.13421733       0.01595823      -0.01946171 </v>
   <v>      -0.02486114      -0.03470746      -0.06176853 </v>
   <v>       0.08826560       1.06331994      -0.16154180 </v>
   <v>       0.28922524       0.01401215       0.17511642 </v>
   <v>       0.27127375       0.00471739      -0.18546688 </v>
   <v>       0.05306028       1.00364792      -0.32161338 </v>
   <v>      -0.02853272      -0.05363552       0.14666755 </v>
   <v>      -0.12109090      -0.01600371       0.01096067 </v>
   <v>      -0.42194485      -0.01125494      -0.02183934 </v>
   <v>       0.07579402      -1.05372853       0.15580231 </v>
   <v>      -0.01285266       0.03500005       0.05199346 </v>
   <v>       0.18775924       0.04171889       0.17892287 </v>
   <v>      -0.01955615       0.19528649      -0.05353296 </v>
   <v>      -0.05917834      -0.13992660       0.05739417 </v>
   <v>       0.32892979       0.11986551       0.03266601 </v>
   <v>      -0.04156688      -0.15097902      -0.16411402 </v>
   <v>      -0.01183148       0.15139297       0.07849757 </v>
   <v>       0.08805304      -0.19026686      -0.00623234 </v>
   <v>      -0.23958985       0.14974785      -0.04874596 </v>
   <v>      -0.04713131      -0.10549144       0.13076260 </v>
   <v>      -0.04669074       0.14913088       0.16341484 </v>
   <v>      -0.23538115      -0.14780437       0.04835293 </v>
   <v>       0.09131407       0.19088668       0.00650730 </v>
   <v>      -0.01481185      -0.19556803       0.04943777 </v>
   <v>      -0.04506964       0.10705567      -0.13013502 </v>
   <v>       0.32289693      -0.11995130      -0.03381846 </v>
   <v>      -0.06101925       0.14165668      -0.05785762 </v>
   <v>      -0.01256951      -0.15246634      -0.07783698 </v>
   <v>       0.10407090      -0.01832787       0.00043351 </v>
   <v>       0.15703726      -0.13234491       1.00047033 </v>
   <v>      -0.46483355       0.78530664      -1.67012452 </v>
   <v>      -0.38392596      -0.04646067      -1.06735179 </v>
   <v>      -0.24682416       0.05486091       1.07414283 </v>
   <v>      -0.00195235       0.07726477       0.07883873 </v>
   <v>      -0.47054242      -0.84691665       0.55074940 </v>
   <v>       1.32349612      -0.00177558      -0.11547614 </v>
   <v>       1.34238839      -0.00464796       0.10059926 </v>
   <v>      -0.44216123      -0.78205586       1.65861692 </v>
   <v>       0.13719547       0.13176616      -1.01675314 </v>
   <v>      -0.25352615      -0.05868935      -1.08343144 </v>
   <v>      -0.37545600       0.04219910       1.05872233 </v>
   <v>      -0.46460755       0.84700637      -0.56483614 </v>
   <v>      -0.01371991      -0.07639320      -0.08065874 </v>
   <v>       0.09300977       0.01729311      -0.00319055 </v>
  </varray>
  <varray name="stress" >
   <v>      -5.57889477      -0.05717942      -0.03373875 </v>
   <v>      -0.05717951     -14.34165990      -0.24188713 </v>
   <v>      -0.03373862      -0.24188741     -12.13696243 </v>
  </varray>
  <energy>
   <i name="e_fr_energy">   -312.02757322 </i>
   <i name="e_wo_entrp">   -312.02757322 </i>
   <i name="e_0_energy">      0.00000000 </i>
  </energy>
  <time name="totalsc"> 1456.17 1464.16</time>
  <eigenvalues>
   <array>
    <dimension dim="1">band</dimension>
    <dimension dim="2">kpoint</dimension>
    <dimension dim="3">spin</dimension>
    <field>eigene</field>
    <field>occ</field>
    <set>
     <set comment="spin 1">
      <set comment="kpoint 1">
       <r>  -40.1924    1.0000 </r>
       <r>  -40.0596    1.0000 </r>
       <r>  -40.0593    1.0000 </r>
       <r>  -40.0477    1.0000 </r>
       <r>  -40.0472    1.0000 </r>
       <r>  -39.8456    1.0000 </r>
       <r>  -39.7994    1.0000 </r>
       <r>  -39.7082    1.0000 </r>
       <r>  -39.6004    1.0000 </r>
       <r>  -39.5997    1.0000 </r>
       <r>  -18.9309    1.0000 </r>
       <r>  -18.9302    1.0000 </r>
       <r>  -18.8601    1.0000 </r>
       <r>  -18.8595    1.0000 </r>
       <r>  -18.8530    1.0000 </r>
       <r>  -18.8525    1.0000 </r>
       <r>  -18.7567    1.0000 </r>
       <r>  -18.7554    1.0000 </r>
       <r>  -18.7441    1.0000 </r>
       <r>  -18.7437    1.0000 </r>
       <r>  -18.7106    1.0000 </r>
       <r>  -18.7095    1.0000 </r>
       <r>  -18.7004    1.0000 </r>
       <r>  -18.6994    1.0000 </r>
       <r>  -18.6916    1.0000 </r>
       <r>  -18.6902    1.0000 </r>
       <r>  -18.6480    1.0000 </r>
       <r>  -18.6474    1.0000 </r>
       <r>  -18.6405    1.0000 </r>
       <r>  -18.6398    1.0000 </r>
       <r>  -18.6394    1.0000 </r>
       <r>  -18.6384    1.0000 </r>
       <r>  -18.6380    1.0000 </r>
       <r>  -18.6376    1.0000 </r>
       <r>  -18.6338    1.0000 </r>
       <r>  -18.6322    1.0000 </r>
       <r>  -18.6318    1.0000 </r>
       <r>  -18.6313    1.0000 </r>
       <r>  -18.6312    1.0000 </r>
       <r>  -18.6291    1.0000 </r>
       <r>  -18.6287    1.0000 </r>
       <r>  -18.6282    1.0000 </r>
       <r>  -18.6254    1.0000 </r>
       <r>  -18.6229    1.0000 </r>
       <r>  -18.6227    1.0000 </r>
       <r>  -18.6197    1.0000 </r>
       <r>  -18.6192    1.0000 </r>
       <r>  -18.6181    1.0000 </r>
       <r>  -18.6180    1.0000 </r>
       <r>  -18.6149    1.0000 </r>
       <r>  -18.5591    1.0000 </r>
       <r>  -18.5551    1.0000 </r>
       <r>  -18.5495    1.0000 </r>
       <r>  -18.5478    1.0000 </r>
       <r>  -18.5459    1.0000 </r>
       <r>  -18.5421    1.0000 </r>
       <r>  -18.5388    1.0000 </r>
       <r>  -18.5375    1.0000 </r>
       <r>  -18.5342    1.0000 </r>
       <r>  -18.5292    1.0000 </r>
       <r>  -18.4926    1.0000 </r>
       <r>  -18.4915    1.0000 </r>
       <r>  -18.4845    1.0000 </r>
       <r>  -18.4808    1.0000 </r>
       <r>  -18.4790    1.0000 </r>
       <r>  -18.4785    1.0000 </r>
       <r>  -18.4779    1.0000 </r>
       <r>  -18.4748    1.0000 </r>
       <r>  -18.4746    1.0000 </r>
       <r>  -18.4734    1.0000 </r>
       <r>  -18.4727    1.0000 </r>
       <r>  -18.4722    1.0000 </r>
       <r>  -18.4700    1.0000 </r>
       <r>  -18.4663    1.0000 </r>
       <r>  -18.4653    1.0000 </r>
       <r>  -18.4616    1.0000 </r>
       <r>  -18.4071    1.0000 </r>
       <r>  -18.4010    1.0000 </r>
       <r>  -18.4003    1.0000 </r>
       <r>  -18.3962    1.0000 </r>
       <r>  -18.3939    1.0000 </r>
       <r>  -18.3870    1.0000 </r>
       <r>  -18.3829    1.0000 </r>
       <r>  -18.3781    1.0000 </r>
       <r>  -18.3235    1.0000 </r>
       <r>  -18.3148    1.0000 </r>
       <r>  -18.2043    1.0000 </r>
       <r>  -18.1960    1.0000 </r>
       <r>  -18.1912    1.0000 </r>
       <r>  -18.1831    1.0000 </r>
       <r>  -13.5670    1.0000 </r>
       <r>  -13.4593    1.0000 </r>
       <r>  -12.8606    1.0000 </r>
       <r>  -12.7829    1.0000 </r>
       <r>  -12.7610    1.0000 </r>
       <r>  -12.7565    1.0000 </r>
       <r>  -12.7054    1.0000 </r>
       <r>  -12.6851    1.0000 </r>
       <r>  -12.6823    1.0000 </r>
       <r>  -12.6701    1.0000 </r>
       <r>  -12.6317    1.0000 </r>
       <r>  -12.6134    1.0000 </r>
       <r>  -12.5739    1.0000 </r>
       <r>  -12.5471    1.0000 </r>
       <r>  -12.0414    1.0000 </r>
       <r>  -11.9919    1.0000 </r>
       <r>   -9.3207    1.0000 </r>
       <r>   -9.0261    1.0000 </r>
       <r>   -8.5241    1.0000 </r>
       <r>   -8.4966    1.0000 </r>
       <r>   -8.4785    1.0000 </r>
       <r>   -8.4372    1.0000 </r>
       <r>   -8.3030    1.0000 </r>
       <r>   -8.2753    1.0000 </r>
       <r>   -8.2521    1.0000 </r>
       <r>   -8.2134    1.0000 </r>
       <r>   -8.0222    1.0000 </r>
       <r>   -8.0201    1.0000 </r>
       <r>   -7.9850    1.0000 </r>
       <r>   -7.9839    1.0000 </r>
       <r>   -7.3493    1.0000 </r>
       <r>   -7.3486    1.0000 </r>
       <r>   -6.3649    1.0000 </r>
       <r>   -6.3622    1.0000 </r>
       <r>   -6.3362    1.0000 </r>
       <r>   -6.3341    1.0000 </r>
       <r>   -5.5225    1.0000 </r>
       <r>   -5.4883    1.0000 </r>
       <r>   -5.3538    1.0000 </r>
       <r>   -5.3334    1.0000 </r>
       <r>   -5.3249    1.0000 </r>
       <r>   -5.2453    1.0000 </r>
       <r>   -5.2012    1.0000 </r>
       <r>   -5.1639    1.0000 </r>
       <r>   -5.1204    1.0000 </r>
       <r>   -5.0577    1.0000 </r>
       <r>   -3.8014    1.0000 </r>
       <r>   -3.6491    1.0000 </r>
       <r>   -1.3763    1.0000 </r>
       <r>   -1.3602    1.0000 </r>
       <r>   -1.0566    1.0000 </r>
       <r>   -1.0343    1.0000 </r>
       <r>   -0.5307    1.0000 </r>
       <r>   -0.4938    1.0000 </r>
       <r>   -0.4741    1.0000 </r>
       <r>   -0.4458    1.0000 </r>
       <r>   -0.1675    1.0000 </r>
       <r>   -0.1626    1.0000 </r>
       <r>   -0.1466    1.0000 </r>
       <r>   -0.1270    1.0000 </r>
       <r>    0.0320    1.0000 </r>
       <r>    0.2551    1.0000 </r>
       <r>    0.3581    1.0000 </r>
       <r>    0.4682    1.0000 </r>
       <r>    0.5430    1.0000 </r>
       <r>    0.5569    1.0000 </r>
       <r>    0.5920    1.0000 </r>
       <r>    0.6915    1.0000 </r>
       <r>    0.7105    1.0000 </r>
       <r>    0.7252    1.0000 </r>
       <r>    0.7662    1.0000 </r>
       <r>    0.7789    1.0000 </r>
       <r>    0.8816    1.0000 </r>
       <r>    0.9086    1.0000 </r>
       <r>    0.9377    1.0000 </r>
       <r>    0.9704    1.0000 </r>
       <r>    0.9872    1.0000 </r>
       <r>    1.0661    1.0000 </r>
       <r>    1.0792    1.0000 </r>
       <r>    1.1077    1.0000 </r>
       <r>    1.1439    1.0000 </r>
       <r>    1.1772    1.0000 </r>
       <r>    1.2499    1.0000 </r>
       <r>    1.2639    1.0000 </r>
       <r>    1.2724    1.0000 </r>
       <r>    1.3381    1.0000 </r>
       <r>    1.4362    1.0000 </r>
       <r>    1.4733    1.0000 </r>
       <r>    1.5034    1.0000 </r>
       <r>    1.5231    1.0000 </r>
       <r>    1.5736    1.0000 </r>
       <r>    1.7032    1.0000 </r>
       <r>    1.7193    1.0000 </r>
       <r>    1.7703    1.0000 </r>
       <r>    1.7878    1.0000 </r>
       <r>    1.8058    1.0000 </r>
       <r>    1.8553    1.0000 </r>
       <r>    1.8567    1.0000 </r>
       <r>    1.9111    1.0000 </r>
       <r>    1.9837    1.0000 </r>
       <r>    2.0564    1.0000 </r>
       <r>    2.0750    1.0000 </r>
       <r>    2.2569    1.0000 </r>
       <r>    2.2640    1.0000 </r>
       <r>    2.3453    1.0000 </r>
       <r>    2.3962    1.0000 </r>
       <r>    2.5532    1.0000 </r>
       <r>    2.5701    1.0000 </r>
       <r>    2.5782    1.0000 </r>
       <r>    2.5834    1.0000 </r>
       <r>    2.6000    1.0000 </r>
       <r>    2.6101    1.0000 </r>
       <r>    2.6416    1.0000 </r>
       <r>    2.6431    1.0000 </r>
       <r>    2.6614    1.0000 </r>
       <r>    2.6922    1.0000 </r>
       <r>    2.7576    1.0000 </r>
       <r>    2.7950    1.0000 </r>
       <r>    2.7974    1.0000 </r>
       <r>    2.8426    1.0000 </r>
       <r>    2.8861    1.0000 </r>
       <r>    2.8870    1.0000 </r>
       <r>    2.9037    1.0000 </r>
       <r>    2.9523    1.0000 </r>
       <r>    2.9819    1.0000 </r>
       <r>    2.9950    1.0000 </r>
       <r>    3.0686    1.0000 </r>
       <r>    3.0967    1.0000 </r>
       <r>    3.1275    1.0000 </r>
       <r>    3.1579    1.0000 </r>
       <r>    3.1688    1.0000 </r>
       <r>    3.1776    1.0000 </r>
       <r>    3.1883    1.0000 </r>
       <r>    3.2340    1.0000 </r>
       <r>    3.2760    1.0000 </r>
       <r>    3.3342    1.0000 </r>
       <r>    3.3943    1.0000 </r>
       <r>    3.4249    1.0000 </r>
       <r>    3.4833    1.0000 </r>
       <r>    3.5577    1.0000 </r>
       <r>    4.1955    1.0000 </r>
       <r>    4.2056    1.0000 </r>
       <r>    4.2192    1.0000 </r>
       <r>    4.2361    1.0000 </r>
       <r>    5.0978    0.0000 </r>
       <r>    5.0998    0.0000 </r>
       <r>    5.1286    0.0000 </r>
       <r>    5.1406    0.0000 </r>
       <r>    5.7653    0.0000 </r>
       <r>    5.7691    0.0000 </r>
       <r>    5.7997    0.0000 </r>
       <r>    5.8051    0.0000 </r>
       <r>    6.1038    0.0000 </r>
       <r>    6.1214    0.0000 </r>
       <r>    6.1470    0.0000 </r>
       <r>    6.1582    0.0000 </r>
       <r>    6.2407    0.0000 </r>
       <r>    6.2497    0.0000 </r>
       <r>    6.2740    0.0000 </r>
       <r>    6.2769    0.0000 </r>
       <r>    7.1637    0.0000 </r>
       <r>    7.1862    0.0000 </r>
       <r>    7.2789    0.0000 </r>
       <r>    7.2820    0.0000 </r>
       <r>    7.8141    0.0000 </r>
       <r>    7.9040    0.0000 </r>
       <r>    7.9302    0.0000 </r>
       <r>    7.9660    0.0000 </r>
       <r>    7.9954    0.0000 </r>
       <r>    8.0881    0.0000 </r>
       <r>    8.1158    0.0000 </r>
       <r>    8.2223    0.0000 </r>
       <r>    8.4416    0.0000 </r>
       <r>    8.5258    0.0000 </r>
       <r>    8.6807    0.0000 </r>
       <r>    8.7730    0.0000 </r>
       <r>    8.7941    0.0000 </r>
       <r>    8.9283    0.0000 </r>
       <r>    8.9641    0.0000 </r>
       <r>    9.0093    0.0000 </r>
       <r>    9.0199    0.0000 </r>
       <r>    9.0314    0.0000 </r>
       <r>    9.0710    0.0000 </r>
       <r>    9.1220    0.0000 </r>
       <r>    9.1375    0.0000 </r>
       <r>    9.1751    0.0000 </r>
       <r>    9.2313    0.0000 </r>
       <r>    9.2539    0.0000 </r>
       <r>    9.4586    0.0000 </r>
       <r>    9.6157    0.0000 </r>
      </set>
      <set comment="kpoint 2">
       <r>  -40.1924    1.0000 </r>
       <r>  -40.0596    1.0000 </r>
       <r>  -40.0593    1.0000 </r>
       <r>  -40.0477    1.0000 </r>
       <r>  -40.0472    1.0000 </r>
       <r>  -39.8456    1.0000 </r>
       <r>  -39.7994    1.0000 </r>
       <r>  -39.7082    1.0000 </r>
       <r>  -39.6004    1.0000 </r>
       <r>  -39.5997    1.0000 </r>
       <r>  -18.9309    1.0000 </r>
       <r>  -18.9301    1.0000 </r>
       <r>  -18.8601    1.0000 </r>
       <r>  -18.8594    1.0000 </r>
       <r>  -18.8530    1.0000 </r>
       <r>  -18.8525    1.0000 </r>
       <r>  -18.7567    1.0000 </r>
       <r>  -18.7554    1.0000 </r>
       <r>  -18.7441    1.0000 </r>
       <r>  -18.7437    1.0000 </r>
       <r>  -18.7104    1.0000 </r>
       <r>  -18.7092    1.0000 </r>
       <r>  -18.7003    1.0000 </r>
       <r>  -18.6993    1.0000 </r>
       <r>  -18.6915    1.0000 </r>
       <r>  -18.6901    1.0000 </r>
       <r>  -18.6486    1.0000 </r>
       <r>  -18.6483    1.0000 </r>
       <r>  -18.6408    1.0000 </r>
       <r>  -18.6400    1.0000 </r>
       <r>  -18.6392    1.0000 </r>
       <r>  -18.6391    1.0000 </r>
       <r>  -18.6372    1.0000 </r>
       <r>  -18.6359    1.0000 </r>
       <r>  -18.6344    1.0000 </r>
       <r>  -18.6332    1.0000 </r>
       <r>  -18.6327    1.0000 </r>
       <r>  -18.6319    1.0000 </r>
       <r>  -18.6316    1.0000 </r>
       <r>  -18.6311    1.0000 </r>
       <r>  -18.6279    1.0000 </r>
       <r>  -18.6262    1.0000 </r>
       <r>  -18.6247    1.0000 </r>
       <r>  -18.6226    1.0000 </r>
       <r>  -18.6218    1.0000 </r>
       <r>  -18.6200    1.0000 </r>
       <r>  -18.6194    1.0000 </r>
       <r>  -18.6181    1.0000 </r>
       <r>  -18.6174    1.0000 </r>
       <r>  -18.6150    1.0000 </r>
       <r>  -18.5591    1.0000 </r>
       <r>  -18.5551    1.0000 </r>
       <r>  -18.5495    1.0000 </r>
       <r>  -18.5478    1.0000 </r>
       <r>  -18.5460    1.0000 </r>
       <r>  -18.5422    1.0000 </r>
       <r>  -18.5388    1.0000 </r>
       <r>  -18.5375    1.0000 </r>
       <r>  -18.5342    1.0000 </r>
       <r>  -18.5292    1.0000 </r>
       <r>  -18.4926    1.0000 </r>
       <r>  -18.4915    1.0000 </r>
       <r>  -18.4845    1.0000 </r>
       <r>  -18.4808    1.0000 </r>
       <r>  -18.4790    1.0000 </r>
       <r>  -18.4785    1.0000 </r>
       <r>  -18.4779    1.0000 </r>
       <r>  -18.4748    1.0000 </r>
       <r>  -18.4746    1.0000 </r>
       <r>  -18.4733    1.0000 </r>
       <r>  -18.4727    1.0000 </r>
       <r>  -18.4722    1.0000 </r>
       <r>  -18.4700    1.0000 </r>
       <r>  -18.4663    1.0000 </r>
       <r>  -18.4653    1.0000 </r>
       <r>  -18.4616    1.0000 </r>
       <r>  -18.4071    1.0000 </r>
       <r>  -18.4010    1.0000 </r>
       <r>  -18.4003    1.0000 </r>
       <r>  -18.3962    1.0000 </r>
       <r>  -18.3939    1.0000 </r>
       <r>  -18.3871    1.0000 </r>
       <r>  -18.3829    1.0000 </r>
       <r>  -18.3781    1.0000 </r>
       <r>  -18.3235    1.0000 </r>
       <r>  -18.3148    1.0000 </r>
       <r>  -18.2043    1.0000 </r>
       <r>  -18.1960    1.0000 </r>
       <r>  -18.1912    1.0000 </r>
       <r>  -18.1831    1.0000 </r>
       <r>  -13.5669    1.0000 </r>
       <r>  -13.4593    1.0000 </r>
       <r>  -12.8430    1.0000 </r>
       <r>  -12.8159    1.0000 </r>
       <r>  -12.7501    1.0000 </r>
       <r>  -12.7485    1.0000 </r>
       <r>  -12.7195    1.0000 </r>
       <r>  -12.6911    1.0000 </r>
       <r>  -12.6786    1.0000 </r>
       <r>  -12.6552    1.0000 </r>
       <r>  -12.6290    1.0000 </r>
       <r>  -12.6157    1.0000 </r>
       <r>  -12.5768    1.0000 </r>
       <r>  -12.5468    1.0000 </r>
       <r>  -12.0414    1.0000 </r>
       <r>  -11.9919    1.0000 </r>
       <r>   -9.1754    1.0000 </r>
       <r>   -9.0203    1.0000 </r>
       <r>   -8.9009    1.0000 </r>
       <r>   -8.7416    1.0000 </r>
       <r>   -8.3903    1.0000 </r>
       <r>   -8.3897    1.0000 </r>
       <r>   -8.2600    1.0000 </r>
       <r>   -8.2472    1.0000 </r>
       <r>   -8.1894    1.0000 </r>
       <r>   -8.1879    1.0000 </r>
       <r>   -8.0552    1.0000 </r>
       <r>   -8.0442    1.0000 </r>
       <r>   -7.7442    1.0000 </r>
       <r>   -7.6321    1.0000 </r>
       <r>   -7.6273    1.0000 </r>
       <r>   -7.5140    1.0000 </r>
       <r>   -6.0178    1.0000 </r>
       <r>   -6.0073    1.0000 </r>
       <r>   -5.8351    1.0000 </r>
       <r>   -5.8256    1.0000 </r>
       <r>   -5.7954    1.0000 </r>
       <r>   -5.7931    1.0000 </r>
       <r>   -5.7254    1.0000 </r>
       <r>   -5.6570    1.0000 </r>
       <r>   -5.6463    1.0000 </r>
       <r>   -5.6393    1.0000 </r>
       <r>   -5.5355    1.0000 </r>
       <r>   -5.4570    1.0000 </r>
       <r>   -4.4986    1.0000 </r>
       <r>   -4.3420    1.0000 </r>
       <r>   -4.3343    1.0000 </r>
       <r>   -4.1728    1.0000 </r>
       <r>   -1.2152    1.0000 </r>
       <r>   -1.0369    1.0000 </r>
       <r>   -0.8867    1.0000 </r>
       <r>   -0.7115    1.0000 </r>
       <r>   -0.4037    1.0000 </r>
       <r>   -0.2446    1.0000 </r>
       <r>   -0.0270    1.0000 </r>
       <r>    0.0455    1.0000 </r>
       <r>    0.0801    1.0000 </r>
       <r>    0.1606    1.0000 </r>
       <r>    0.1775    1.0000 </r>
       <r>    0.1867    1.0000 </r>
       <r>    0.2292    1.0000 </r>
       <r>    0.3168    1.0000 </r>
       <r>    0.3835    1.0000 </r>
       <r>    0.3882    1.0000 </r>
       <r>    0.4141    1.0000 </r>
       <r>    0.5327    1.0000 </r>
       <r>    0.5383    1.0000 </r>
       <r>    0.5613    1.0000 </r>
       <r>    0.5986    1.0000 </r>
       <r>    0.6176    1.0000 </r>
       <r>    0.6473    1.0000 </r>
       <r>    0.7124    1.0000 </r>
       <r>    0.7421    1.0000 </r>
       <r>    0.8059    1.0000 </r>
       <r>    0.9690    1.0000 </r>
       <r>    1.0200    1.0000 </r>
       <r>    1.0775    1.0000 </r>
       <r>    1.1081    1.0000 </r>
       <r>    1.1173    1.0000 </r>
       <r>    1.1669    1.0000 </r>
       <r>    1.1920    1.0000 </r>
       <r>    1.2094    1.0000 </r>
       <r>    1.2541    1.0000 </r>
       <r>    1.2594    1.0000 </r>
       <r>    1.3338    1.0000 </r>
       <r>    1.3469    1.0000 </r>
       <r>    1.4095    1.0000 </r>
       <r>    1.4356    1.0000 </r>
       <r>    1.4696    1.0000 </r>
       <r>    1.4980    1.0000 </r>
       <r>    1.5311    1.0000 </r>
       <r>    1.5826    1.0000 </r>
       <r>    1.6103    1.0000 </r>
       <r>    1.6125    1.0000 </r>
       <r>    1.6996    1.0000 </r>
       <r>    1.8142    1.0000 </r>
       <r>    1.8246    1.0000 </r>
       <r>    1.8599    1.0000 </r>
       <r>    1.8941    1.0000 </r>
       <r>    1.9512    1.0000 </r>
       <r>    1.9946    1.0000 </r>
       <r>    2.0057    1.0000 </r>
       <r>    2.0466    1.0000 </r>
       <r>    2.0794    1.0000 </r>
       <r>    2.1015    1.0000 </r>
       <r>    2.1583    1.0000 </r>
       <r>    2.2417    1.0000 </r>
       <r>    2.2886    1.0000 </r>
       <r>    2.3049    1.0000 </r>
       <r>    2.3473    1.0000 </r>
       <r>    2.4195    1.0000 </r>
       <r>    2.4635    1.0000 </r>
       <r>    2.4765    1.0000 </r>
       <r>    2.5178    1.0000 </r>
       <r>    2.5465    1.0000 </r>
       <r>    2.5489    1.0000 </r>
       <r>    2.6027    1.0000 </r>
       <r>    2.6703    1.0000 </r>
       <r>    2.7393    1.0000 </r>
       <r>    2.7689    1.0000 </r>
       <r>    2.7738    1.0000 </r>
       <r>    2.8053    1.0000 </r>
       <r>    2.8265    1.0000 </r>
       <r>    2.8822    1.0000 </r>
       <r>    2.8985    1.0000 </r>
       <r>    2.9118    1.0000 </r>
       <r>    2.9575    1.0000 </r>
       <r>    2.9775    1.0000 </r>
       <r>    3.0318    1.0000 </r>
       <r>    3.0750    1.0000 </r>
       <r>    3.1203    1.0000 </r>
       <r>    3.1242    1.0000 </r>
       <r>    3.1871    1.0000 </r>
       <r>    3.2303    1.0000 </r>
       <r>    3.3197    1.0000 </r>
       <r>    3.4129    1.0000 </r>
       <r>    3.4557    1.0000 </r>
       <r>    3.4580    1.0000 </r>
       <r>    3.5188    1.0000 </r>
       <r>    3.5360    1.0000 </r>
       <r>    3.5750    1.0000 </r>
       <r>    3.5825    1.0000 </r>
       <r>    3.6460    1.0000 </r>
       <r>    3.7453    1.0000 </r>
       <r>    5.5625    0.0000 </r>
       <r>    5.5748    0.0000 </r>
       <r>    5.7204    0.0000 </r>
       <r>    5.7347    0.0000 </r>
       <r>    5.7455    0.0000 </r>
       <r>    5.7648    0.0000 </r>
       <r>    5.8999    0.0000 </r>
       <r>    5.9248    0.0000 </r>
       <r>    7.2295    0.0000 </r>
       <r>    7.2453    0.0000 </r>
       <r>    7.2646    0.0000 </r>
       <r>    7.3580    0.0000 </r>
       <r>    7.3873    0.0000 </r>
       <r>    7.4417    0.0000 </r>
       <r>    7.4508    0.0000 </r>
       <r>    7.4862    0.0000 </r>
       <r>    7.5004    0.0000 </r>
       <r>    7.5227    0.0000 </r>
       <r>    7.5878    0.0000 </r>
       <r>    7.6344    0.0000 </r>
       <r>    7.8052    0.0000 </r>
       <r>    7.8309    0.0000 </r>
       <r>    7.8606    0.0000 </r>
       <r>    7.8668    0.0000 </r>
       <r>    7.9009    0.0000 </r>
       <r>    7.9362    0.0000 </r>
       <r>    7.9405    0.0000 </r>
       <r>    7.9893    0.0000 </r>
       <r>    8.0113    0.0000 </r>
       <r>    8.0307    0.0000 </r>
       <r>    8.0365    0.0000 </r>
       <r>    8.1357    0.0000 </r>
       <r>    8.2472    0.0000 </r>
       <r>    8.3622    0.0000 </r>
       <r>    8.4299    0.0000 </r>
       <r>    8.5356    0.0000 </r>
       <r>    8.6526    0.0000 </r>
       <r>    8.7063    0.0000 </r>
       <r>    8.7477    0.0000 </r>
       <r>    8.7663    0.0000 </r>
       <r>    8.7805    0.0000 </r>
       <r>    8.8731    0.0000 </r>
       <r>    8.9314    0.0000 </r>
       <r>    8.9430    0.0000 </r>
       <r>    9.1182    0.0000 </r>
       <r>    9.2966    0.0000 </r>
      </set>
      <set comment="kpoint 3">
       <r>  -40.1924    1.0000 </r>
       <r>  -40.0596    1.0000 </r>
       <r>  -40.0593    1.0000 </r>
       <r>  -40.0477    1.0000 </r>
       <r>  -40.0472    1.0000 </r>
       <r>  -39.8456    1.0000 </r>
       <r>  -39.7994    1.0000 </r>
       <r>  -39.7082    1.0000 </r>
       <r>  -39.6004    1.0000 </r>
       <r>  -39.5997    1.0000 </r>
       <r>  -18.9314    1.0000 </r>
       <r>  -18.9296    1.0000 </r>
       <r>  -18.8601    1.0000 </r>
       <r>  -18.8595    1.0000 </r>
       <r>  -18.8530    1.0000 </r>
       <r>  -18.8525    1.0000 </r>
       <r>  -18.7566    1.0000 </r>
       <r>  -18.7555    1.0000 </r>
       <r>  -18.7441    1.0000 </r>
       <r>  -18.7437    1.0000 </r>
       <r>  -18.7106    1.0000 </r>
       <r>  -18.7095    1.0000 </r>
       <r>  -18.7004    1.0000 </r>
       <r>  -18.6994    1.0000 </r>
       <r>  -18.6915    1.0000 </r>
       <r>  -18.6903    1.0000 </r>
       <r>  -18.6480    1.0000 </r>
       <r>  -18.6474    1.0000 </r>
       <r>  -18.6406    1.0000 </r>
       <r>  -18.6398    1.0000 </r>
       <r>  -18.6394    1.0000 </r>
       <r>  -18.6383    1.0000 </r>
       <r>  -18.6380    1.0000 </r>
       <r>  -18.6376    1.0000 </r>
       <r>  -18.6338    1.0000 </r>
       <r>  -18.6322    1.0000 </r>
       <r>  -18.6318    1.0000 </r>
       <r>  -18.6314    1.0000 </r>
       <r>  -18.6312    1.0000 </r>
       <r>  -18.6291    1.0000 </r>
       <r>  -18.6287    1.0000 </r>
       <r>  -18.6282    1.0000 </r>
       <r>  -18.6254    1.0000 </r>
       <r>  -18.6230    1.0000 </r>
       <r>  -18.6226    1.0000 </r>
       <r>  -18.6199    1.0000 </r>
       <r>  -18.6192    1.0000 </r>
       <r>  -18.6181    1.0000 </r>
       <r>  -18.6179    1.0000 </r>
       <r>  -18.6149    1.0000 </r>
       <r>  -18.5591    1.0000 </r>
       <r>  -18.5551    1.0000 </r>
       <r>  -18.5495    1.0000 </r>
       <r>  -18.5478    1.0000 </r>
       <r>  -18.5459    1.0000 </r>
       <r>  -18.5421    1.0000 </r>
       <r>  -18.5388    1.0000 </r>
       <r>  -18.5375    1.0000 </r>
       <r>  -18.5342    1.0000 </r>
       <r>  -18.5292    1.0000 </r>
       <r>  -18.4926    1.0000 </r>
       <r>  -18.4915    1.0000 </r>
       <r>  -18.4845    1.0000 </r>
       <r>  -18.4807    1.0000 </r>
       <r>  -18.4790    1.0000 </r>
       <r>  -18.4785    1.0000 </r>
       <r>  -18.4779    1.0000 </r>
       <r>  -18.4748    1.0000 </r>
       <r>  -18.4745    1.0000 </r>
       <r>  -18.4734    1.0000 </r>
       <r>  -18.4727    1.0000 </r>
       <r>  -18.4722    1.0000 </r>
       <r>  -18.4700    1.0000 </r>
       <r>  -18.4663    1.0000 </r>
       <r>  -18.4653    1.0000 </r>
       <r>  -18.4616    1.0000 </r>
       <r>  -18.4071    1.0000 </r>
       <r>  -18.4010    1.0000 </r>
       <r>  -18.4003    1.0000 </r>
       <r>  -18.3962    1.0000 </r>
       <r>  -18.3939    1.0000 </r>
       <r>  -18.3870    1.0000 </r>
       <r>  -18.3829    1.0000 </r>
       <r>  -18.3781    1.0000 </r>
       <r>  -18.3235    1.0000 </r>
       <r>  -18.3148    1.0000 </r>
       <r>  -18.2043    1.0000 </r>
       <r>  -18.1960    1.0000 </r>
       <r>  -18.1912    1.0000 </r>
       <r>  -18.1831    1.0000 </r>
       <r>  -13.5668    1.0000 </r>
       <r>  -13.4595    1.0000 </r>
       <r>  -12.8586    1.0000 </r>
       <r>  -12.7823    1.0000 </r>
       <r>  -12.7606    1.0000 </r>
       <r>  -12.7565    1.0000 </r>
       <r>  -12.7056    1.0000 </r>
       <r>  -12.6853    1.0000 </r>
       <r>  -12.6822    1.0000 </r>
       <r>  -12.6700    1.0000 </r>
       <r>  -12.6335    1.0000 </r>
       <r>  -12.6141    1.0000 </r>
       <r>  -12.5741    1.0000 </r>
       <r>  -12.5480    1.0000 </r>
       <r>  -12.0409    1.0000 </r>
       <r>  -11.9932    1.0000 </r>
       <r>   -9.3110    1.0000 </r>
       <r>   -9.0328    1.0000 </r>
       <r>   -8.5430    1.0000 </r>
       <r>   -8.5135    1.0000 </r>
       <r>   -8.4965    1.0000 </r>
       <r>   -8.4547    1.0000 </r>
       <r>   -8.2819    1.0000 </r>
       <r>   -8.2566    1.0000 </r>
       <r>   -8.2314    1.0000 </r>
       <r>   -8.1940    1.0000 </r>
       <r>   -8.0263    1.0000 </r>
       <r>   -8.0238    1.0000 </r>
       <r>   -7.9879    1.0000 </r>
       <r>   -7.9869    1.0000 </r>
       <r>   -7.3524    1.0000 </r>
       <r>   -7.3512    1.0000 </r>
       <r>   -6.3566    1.0000 </r>
       <r>   -6.3515    1.0000 </r>
       <r>   -6.3280    1.0000 </r>
       <r>   -6.3226    1.0000 </r>
       <r>   -5.5381    1.0000 </r>
       <r>   -5.4735    1.0000 </r>
       <r>   -5.3900    1.0000 </r>
       <r>   -5.3789    1.0000 </r>
       <r>   -5.3701    1.0000 </r>
       <r>   -5.2669    1.0000 </r>
       <r>   -5.1474    1.0000 </r>
       <r>   -5.1077    1.0000 </r>
       <r>   -5.0723    1.0000 </r>
       <r>   -5.0110    1.0000 </r>
       <r>   -3.8751    1.0000 </r>
       <r>   -3.5638    1.0000 </r>
       <r>   -1.3184    1.0000 </r>
       <r>   -1.2975    1.0000 </r>
       <r>   -1.1350    1.0000 </r>
       <r>   -1.1204    1.0000 </r>
       <r>   -0.4117    1.0000 </r>
       <r>   -0.4069    1.0000 </r>
       <r>   -0.3912    1.0000 </r>
       <r>   -0.3758    1.0000 </r>
       <r>   -0.3573    1.0000 </r>
       <r>   -0.2820    1.0000 </r>
       <r>   -0.2626    1.0000 </r>
       <r>   -0.2262    1.0000 </r>
       <r>   -0.1112    1.0000 </r>
       <r>   -0.0344    1.0000 </r>
       <r>    0.1676    1.0000 </r>
       <r>    0.2586    1.0000 </r>
       <r>    0.3107    1.0000 </r>
       <r>    0.3465    1.0000 </r>
       <r>    0.3903    1.0000 </r>
       <r>    0.5098    1.0000 </r>
       <r>    0.5238    1.0000 </r>
       <r>    0.6918    1.0000 </r>
       <r>    0.7423    1.0000 </r>
       <r>    0.7699    1.0000 </r>
       <r>    0.7852    1.0000 </r>
       <r>    0.8118    1.0000 </r>
       <r>    0.8407    1.0000 </r>
       <r>    0.8431    1.0000 </r>
       <r>    1.0275    1.0000 </r>
       <r>    1.1294    1.0000 </r>
       <r>    1.1360    1.0000 </r>
       <r>    1.1531    1.0000 </r>
       <r>    1.2396    1.0000 </r>
       <r>    1.2810    1.0000 </r>
       <r>    1.3592    1.0000 </r>
       <r>    1.3955    1.0000 </r>
       <r>    1.5532    1.0000 </r>
       <r>    1.6308    1.0000 </r>
       <r>    1.6396    1.0000 </r>
       <r>    1.6442    1.0000 </r>
       <r>    1.6720    1.0000 </r>
       <r>    1.7123    1.0000 </r>
       <r>    1.7489    1.0000 </r>
       <r>    1.7745    1.0000 </r>
       <r>    1.7926    1.0000 </r>
       <r>    1.8340    1.0000 </r>
       <r>    1.8707    1.0000 </r>
       <r>    1.9277    1.0000 </r>
       <r>    1.9551    1.0000 </r>
       <r>    1.9852    1.0000 </r>
       <r>    2.0125    1.0000 </r>
       <r>    2.0729    1.0000 </r>
       <r>    2.1618    1.0000 </r>
       <r>    2.1915    1.0000 </r>
       <r>    2.2580    1.0000 </r>
       <r>    2.3536    1.0000 </r>
       <r>    2.4144    1.0000 </r>
       <r>    2.4291    1.0000 </r>
       <r>    2.4903    1.0000 </r>
       <r>    2.5396    1.0000 </r>
       <r>    2.5418    1.0000 </r>
       <r>    2.5807    1.0000 </r>
       <r>    2.5901    1.0000 </r>
       <r>    2.5902    1.0000 </r>
       <r>    2.5953    1.0000 </r>
       <r>    2.6607    1.0000 </r>
       <r>    2.6803    1.0000 </r>
       <r>    2.7385    1.0000 </r>
       <r>    2.7514    1.0000 </r>
       <r>    2.7665    1.0000 </r>
       <r>    2.7825    1.0000 </r>
       <r>    2.8285    1.0000 </r>
       <r>    2.8647    1.0000 </r>
       <r>    2.8671    1.0000 </r>
       <r>    2.8761    1.0000 </r>
       <r>    2.9271    1.0000 </r>
       <r>    2.9386    1.0000 </r>
       <r>    2.9753    1.0000 </r>
       <r>    3.0287    1.0000 </r>
       <r>    3.0402    1.0000 </r>
       <r>    3.0811    1.0000 </r>
       <r>    3.0892    1.0000 </r>
       <r>    3.1385    1.0000 </r>
       <r>    3.2793    1.0000 </r>
       <r>    3.3463    1.0000 </r>
       <r>    3.3850    1.0000 </r>
       <r>    3.4127    1.0000 </r>
       <r>    3.4274    1.0000 </r>
       <r>    3.4404    1.0000 </r>
       <r>    3.4616    1.0000 </r>
       <r>    3.4967    1.0000 </r>
       <r>    3.5989    1.0000 </r>
       <r>    4.2457    1.0000 </r>
       <r>    4.2530    1.0000 </r>
       <r>    4.2751    1.0000 </r>
       <r>    4.2807    1.0000 </r>
       <r>    5.1663    0.0000 </r>
       <r>    5.1695    0.0000 </r>
       <r>    5.1975    0.0000 </r>
       <r>    5.2040    0.0000 </r>
       <r>    5.7747    0.0000 </r>
       <r>    5.7777    0.0000 </r>
       <r>    5.8057    0.0000 </r>
       <r>    5.8140    0.0000 </r>
       <r>    6.1632    0.0000 </r>
       <r>    6.1776    0.0000 </r>
       <r>    6.1934    0.0000 </r>
       <r>    6.2019    0.0000 </r>
       <r>    6.2532    0.0000 </r>
       <r>    6.2578    0.0000 </r>
       <r>    6.2842    0.0000 </r>
       <r>    6.2988    0.0000 </r>
       <r>    6.7882    0.0000 </r>
       <r>    6.9320    0.0000 </r>
       <r>    7.0132    0.0000 </r>
       <r>    7.0550    0.0000 </r>
       <r>    7.2837    0.0000 </r>
       <r>    7.3785    0.0000 </r>
       <r>    7.4131    0.0000 </r>
       <r>    7.5789    0.0000 </r>
       <r>    7.6886    0.0000 </r>
       <r>    7.8277    0.0000 </r>
       <r>    7.9361    0.0000 </r>
       <r>    7.9702    0.0000 </r>
       <r>    8.0221    0.0000 </r>
       <r>    8.3067    0.0000 </r>
       <r>    8.3480    0.0000 </r>
       <r>    8.4806    0.0000 </r>
       <r>    8.7100    0.0000 </r>
       <r>    8.8293    0.0000 </r>
       <r>    8.8909    0.0000 </r>
       <r>    8.9521    0.0000 </r>
       <r>    9.0338    0.0000 </r>
       <r>    9.0578    0.0000 </r>
       <r>    9.0827    0.0000 </r>
       <r>    9.0983    0.0000 </r>
       <r>    9.1286    0.0000 </r>
       <r>    9.1394    0.0000 </r>
       <r>    9.1607    0.0000 </r>
       <r>    9.2149    0.0000 </r>
       <r>    9.4985    0.0000 </r>
       <r>    9.7775    0.0000 </r>
      </set>
      <set comment="kpoint 4">
       <r>  -40.1924    1.0000 </r>
       <r>  -40.0596    1.0000 </r>
       <r>  -40.0593    1.0000 </r>
       <r>  -40.0477    1.0000 </r>
       <r>  -40.0472    1.0000 </r>
       <r>  -39.8456    1.0000 </r>
       <r>  -39.7994    1.0000 </r>
       <r>  -39.7082    1.0000 </r>
       <r>  -39.6004    1.0000 </r>
       <r>  -39.5997    1.0000 </r>
       <r>  -18.9314    1.0000 </r>
       <r>  -18.9296    1.0000 </r>
       <r>  -18.8601    1.0000 </r>
       <r>  -18.8595    1.0000 </r>
       <r>  -18.8530    1.0000 </r>
       <r>  -18.8525    1.0000 </r>
       <r>  -18.7566    1.0000 </r>
       <r>  -18.7555    1.0000 </r>
       <r>  -18.7441    1.0000 </r>
       <r>  -18.7437    1.0000 </r>
       <r>  -18.7104    1.0000 </r>
       <r>  -18.7092    1.0000 </r>
       <r>  -18.7003    1.0000 </r>
       <r>  -18.6993    1.0000 </r>
       <r>  -18.6914    1.0000 </r>
       <r>  -18.6902    1.0000 </r>
       <r>  -18.6486    1.0000 </r>
       <r>  -18.6483    1.0000 </r>
       <r>  -18.6408    1.0000 </r>
       <r>  -18.6401    1.0000 </r>
       <r>  -18.6392    1.0000 </r>
       <r>  -18.6391    1.0000 </r>
       <r>  -18.6372    1.0000 </r>
       <r>  -18.6359    1.0000 </r>
       <r>  -18.6344    1.0000 </r>
       <r>  -18.6332    1.0000 </r>
       <r>  -18.6327    1.0000 </r>
       <r>  -18.6318    1.0000 </r>
       <r>  -18.6316    1.0000 </r>
       <r>  -18.6311    1.0000 </r>
       <r>  -18.6279    1.0000 </r>
       <r>  -18.6262    1.0000 </r>
       <r>  -18.6247    1.0000 </r>
       <r>  -18.6226    1.0000 </r>
       <r>  -18.6218    1.0000 </r>
       <r>  -18.6201    1.0000 </r>
       <r>  -18.6194    1.0000 </r>
       <r>  -18.6181    1.0000 </r>
       <r>  -18.6173    1.0000 </r>
       <r>  -18.6150    1.0000 </r>
       <r>  -18.5590    1.0000 </r>
       <r>  -18.5551    1.0000 </r>
       <r>  -18.5495    1.0000 </r>
       <r>  -18.5478    1.0000 </r>
       <r>  -18.5460    1.0000 </r>
       <r>  -18.5422    1.0000 </r>
       <r>  -18.5388    1.0000 </r>
       <r>  -18.5375    1.0000 </r>
       <r>  -18.5342    1.0000 </r>
       <r>  -18.5292    1.0000 </r>
       <r>  -18.4926    1.0000 </r>
       <r>  -18.4915    1.0000 </r>
       <r>  -18.4845    1.0000 </r>
       <r>  -18.4807    1.0000 </r>
       <r>  -18.4790    1.0000 </r>
       <r>  -18.4785    1.0000 </r>
       <r>  -18.4779    1.0000 </r>
       <r>  -18.4748    1.0000 </r>
       <r>  -18.4745    1.0000 </r>
       <r>  -18.4734    1.0000 </r>
[...]
       <r>    8.8706    0.0000 </r>
       <r>    8.8944    0.0000 </r>
       <r>    8.9029    0.0000 </r>
       <r>    8.9086    0.0000 </r>
       <r>    8.9261    0.0000 </r>
      </set>
     </set>
    </set>
   </array>
  </eigenvalues>
  <separator name="orbital magnetization" >
   <v name="MAGDIPOLOUT">      0.00000000      0.00000000      0.00000000</v>
  </separator>
  <dos>
   <i name="efermi">      4.30578106 </i>
   <total>
    <array>
     <dimension dim="1">gridpoints</dimension>
     <dimension dim="2">spin</dimension>
     <field>energy</field>
     <field>total</field>
     <field>integrated</field>
     <set>
      <set comment="spin 1">
       <r>   -42.6909     0.0000     0.0000 </r>
       <r>   -42.5077     0.0000     0.0000 </r>
       <r>   -42.3244     0.0000     0.0000 </r>
       <r>   -42.1412     0.0000     0.0000 </r>
       <r>   -41.9580     0.0000     0.0000 </r>
       <r>   -41.7748     0.0000     0.0000 </r>
       <r>   -41.5916     0.0000     0.0000 </r>
       <r>   -41.4083     0.0000     0.0000 </r>
       <r>   -41.2251     0.0000     0.0000 </r>
       <r>   -41.0419     0.0000     0.0000 </r>
       <r>   -40.8587     0.0000     0.0000 </r>
       <r>   -40.6754     0.0000     0.0000 </r>
       <r>   -40.4922     0.0000     0.0000 </r>
       <r>   -40.3090     0.0000     0.0000 </r>
       <r>   -40.1258     0.0000     2.0000 </r>
       <r>   -39.9425     0.0000    10.0000 </r>
       <r>   -39.7593     0.0000    14.0000 </r>
       <r>   -39.5761     0.0000    20.0000 </r>
       <r>   -39.3929     0.0000    20.0000 </r>
       <r>   -39.2097     0.0000    20.0000 </r>
       <r>   -39.0264     0.0000    20.0000 </r>
       <r>   -38.8432     0.0000    20.0000 </r>
       <r>   -38.6600     0.0000    20.0000 </r>
       <r>   -38.4768     0.0000    20.0000 </r>
       <r>   -38.2935     0.0000    20.0000 </r>
       <r>   -38.1103     0.0000    20.0000 </r>
       <r>   -37.9271     0.0000    20.0000 </r>
       <r>   -37.7439     0.0000    20.0000 </r>
       <r>   -37.5607     0.0000    20.0000 </r>
       <r>   -37.3774     0.0000    20.0000 </r>
       <r>   -37.1942     0.0000    20.0000 </r>
       <r>   -37.0110     0.0000    20.0000 </r>
       <r>   -36.8278     0.0000    20.0000 </r>
       <r>   -36.6445     0.0000    20.0000 </r>
       <r>   -36.4613     0.0000    20.0000 </r>
       <r>   -36.2781     0.0000    20.0000 </r>
       <r>   -36.0949     0.0000    20.0000 </r>
       <r>   -35.9116     0.0000    20.0000 </r>
       <r>   -35.7284     0.0000    20.0000 </r>
       <r>   -35.5452     0.0000    20.0000 </r>
       <r>   -35.3620     0.0000    20.0000 </r>
       <r>   -35.1788     0.0000    20.0000 </r>
       <r>   -34.9955     0.0000    20.0000 </r>
       <r>   -34.8123     0.0000    20.0000 </r>
       <r>   -34.6291     0.0000    20.0000 </r>
       <r>   -34.4459     0.0000    20.0000 </r>
       <r>   -34.2626     0.0000    20.0000 </r>
       <r>   -34.0794     0.0000    20.0000 </r>
       <r>   -33.8962     0.0000    20.0000 </r>
       <r>   -33.7130     0.0000    20.0000 </r>
       <r>   -33.5297     0.0000    20.0000 </r>
       <r>   -33.3465     0.0000    20.0000 </r>
       <r>   -33.1633     0.0000    20.0000 </r>
       <r>   -32.9801     0.0000    20.0000 </r>
       <r>   -32.7969     0.0000    20.0000 </r>
       <r>   -32.6136     0.0000    20.0000 </r>
       <r>   -32.4304     0.0000    20.0000 </r>
       <r>   -32.2472     0.0000    20.0000 </r>
       <r>   -32.0640     0.0000    20.0000 </r>
       <r>   -31.8807     0.0000    20.0000 </r>
       <r>   -31.6975     0.0000    20.0000 </r>
       <r>   -31.5143     0.0000    20.0000 </r>
       <r>   -31.3311     0.0000    20.0000 </r>
       <r>   -31.1478     0.0000    20.0000 </r>
       <r>   -30.9646     0.0000    20.0000 </r>
       <r>   -30.7814     0.0000    20.0000 </r>
       <r>   -30.5982     0.0000    20.0000 </r>
       <r>   -30.4150     0.0000    20.0000 </r>
       <r>   -30.2317     0.0000    20.0000 </r>
       <r>   -30.0485     0.0000    20.0000 </r>
       <r>   -29.8653     0.0000    20.0000 </r>
       <r>   -29.6821     0.0000    20.0000 </r>
       <r>   -29.4988     0.0000    20.0000 </r>
       <r>   -29.3156     0.0000    20.0000 </r>
       <r>   -29.1324     0.0000    20.0000 </r>
       <r>   -28.9492     0.0000    20.0000 </r>
       <r>   -28.7660     0.0000    20.0000 </r>
       <r>   -28.5827     0.0000    20.0000 </r>
       <r>   -28.3995     0.0000    20.0000 </r>
       <r>   -28.2163     0.0000    20.0000 </r>
       <r>   -28.0331     0.0000    20.0000 </r>
       <r>   -27.8498     0.0000    20.0000 </r>
       <r>   -27.6666     0.0000    20.0000 </r>
       <r>   -27.4834     0.0000    20.0000 </r>
       <r>   -27.3002     0.0000    20.0000 </r>
       <r>   -27.1169     0.0000    20.0000 </r>
       <r>   -26.9337     0.0000    20.0000 </r>
       <r>   -26.7505     0.0000    20.0000 </r>
       <r>   -26.5673     0.0000    20.0000 </r>
       <r>   -26.3841     0.0000    20.0000 </r>
       <r>   -26.2008     0.0000    20.0000 </r>
       <r>   -26.0176     0.0000    20.0000 </r>
       <r>   -25.8344     0.0000    20.0000 </r>
       <r>   -25.6512     0.0000    20.0000 </r>
       <r>   -25.4679     0.0000    20.0000 </r>
       <r>   -25.2847     0.0000    20.0000 </r>
       <r>   -25.1015     0.0000    20.0000 </r>
       <r>   -24.9183     0.0000    20.0000 </r>
       <r>   -24.7350     0.0000    20.0000 </r>
       <r>   -24.5518     0.0000    20.0000 </r>
       <r>   -24.3686     0.0000    20.0000 </r>
       <r>   -24.1854     0.0000    20.0000 </r>
       <r>   -24.0022     0.0000    20.0000 </r>
       <r>   -23.8189     0.0000    20.0000 </r>
       <r>   -23.6357     0.0000    20.0000 </r>
       <r>   -23.4525     0.0000    20.0000 </r>
       <r>   -23.2693     0.0000    20.0000 </r>
       <r>   -23.0860     0.0000    20.0000 </r>
       <r>   -22.9028     0.0000    20.0000 </r>
       <r>   -22.7196     0.0000    20.0000 </r>
       <r>   -22.5364     0.0000    20.0000 </r>
       <r>   -22.3532     0.0000    20.0000 </r>
       <r>   -22.1699     0.0000    20.0000 </r>
       <r>   -21.9867     0.0000    20.0000 </r>
       <r>   -21.8035     0.0000    20.0000 </r>
       <r>   -21.6203     0.0000    20.0000 </r>
       <r>   -21.4370     0.0000    20.0000 </r>
       <r>   -21.2538     0.0000    20.0000 </r>
       <r>   -21.0706     0.0000    20.0000 </r>
       <r>   -20.8874     0.0000    20.0000 </r>
       <r>   -20.7041     0.0000    20.0000 </r>
       <r>   -20.5209     0.0000    20.0000 </r>
       <r>   -20.3377     0.0000    20.0000 </r>
       <r>   -20.1545     0.0000    20.0000 </r>
       <r>   -19.9713     0.0000    20.0000 </r>
       <r>   -19.7880     0.0000    20.0000 </r>
       <r>   -19.6048     0.0000    20.0000 </r>
       <r>   -19.4216     0.0000    20.0000 </r>
       <r>   -19.2384     0.0000    20.0000 </r>
       <r>   -19.0551     0.0000    20.0000 </r>
       <r>   -18.8719     0.0000    24.0000 </r>
       <r>   -18.6887     0.0000    52.0000 </r>
       <r>   -18.5055     0.0000   120.0000 </r>
       <r>   -18.3222     0.0000   170.0000 </r>
       <r>   -18.1390     0.0000   180.0000 </r>
       <r>   -17.9558     0.0000   180.0000 </r>
       <r>   -17.7726     0.0000   180.0000 </r>
       <r>   -17.5894     0.0000   180.0000 </r>
       <r>   -17.4061     0.0000   180.0000 </r>
       <r>   -17.2229     0.0000   180.0000 </r>
       <r>   -17.0397     0.0000   180.0000 </r>
       <r>   -16.8565     0.0000   180.0000 </r>
       <r>   -16.6732     0.0000   180.0000 </r>
       <r>   -16.4900     0.0000   180.0000 </r>
       <r>   -16.3068     0.0000   180.0000 </r>
       <r>   -16.1236     0.0000   180.0000 </r>
       <r>   -15.9403     0.0000   180.0000 </r>
       <r>   -15.7571     0.0000   180.0000 </r>
       <r>   -15.5739     0.0000   180.0000 </r>
       <r>   -15.3907     0.0000   180.0000 </r>
       <r>   -15.2075     0.0000   180.0000 </r>
       <r>   -15.0242     0.0000   180.0000 </r>
       <r>   -14.8410     0.0000   180.0000 </r>
       <r>   -14.6578     0.0000   180.0000 </r>
       <r>   -14.4746     0.0000   180.0000 </r>
       <r>   -14.2913     0.0000   180.0000 </r>
       <r>   -14.1081     0.0000   180.0000 </r>
       <r>   -13.9249     0.0000   180.0000 </r>
       <r>   -13.7417     0.0000   180.0000 </r>
       <r>   -13.5585     0.0000   182.0000 </r>
       <r>   -13.3752     0.0000   184.0000 </r>
       <r>   -13.1920     0.0000   184.0000 </r>
       <r>   -13.0088     0.0000   184.0000 </r>
       <r>   -12.8256     0.0000   186.0000 </r>
       <r>   -12.6423     5.5310   200.0005 </r>
       <r>   -12.4591     0.0000   208.0000 </r>
       <r>   -12.2759     0.0000   208.0000 </r>
       <r>   -12.0927     0.0000   208.0000 </r>
       <r>   -11.9094     0.0000   212.0000 </r>
       <r>   -11.7262     0.0000   212.0000 </r>
       <r>   -11.5430     0.0000   212.0000 </r>
       <r>   -11.3598     0.0000   212.0000 </r>
       <r>   -11.1766     0.0000   212.0000 </r>
       <r>   -10.9933     0.0000   212.0000 </r>
       <r>   -10.8101     0.0000   212.0000 </r>
       <r>   -10.6269     0.0000   212.0000 </r>
       <r>   -10.4437     0.0000   212.0000 </r>
       <r>   -10.2604     0.0000   212.0000 </r>
       <r>   -10.0772     0.0000   212.0000 </r>
       <r>    -9.8940     0.0000   212.0000 </r>
       <r>    -9.7108     0.0000   212.0000 </r>
       <r>    -9.5275     0.0000   212.0000 </r>
       <r>    -9.3443     0.0000   212.0000 </r>
       <r>    -9.1611    10.7377   212.9031 </r>
       <r>    -8.9779    10.9000   215.7976 </r>
       <r>    -8.7947    23.4081   217.2748 </r>
       <r>    -8.6114    12.3653   219.9925 </r>
       <r>    -8.4282    29.9209   223.2158 </r>
       <r>    -8.2450     0.2216   228.0005 </r>
       <r>    -8.0618    34.5409   231.0090 </r>
       <r>    -7.8785    19.2790   235.7322 </r>
       <r>    -7.6953    24.2641   239.0256 </r>
       <r>    -7.5121    18.1698   242.5222 </r>
       <r>    -7.3289     0.0000   244.0000 </r>
       <r>    -7.1456     0.0000   244.0000 </r>
       <r>    -6.9624     0.0000   244.0000 </r>
       <r>    -6.7792     0.0000   244.0000 </r>
       <r>    -6.5960     0.0000   244.0000 </r>
       <r>    -6.4128     0.0000   244.0000 </r>
       <r>    -6.2295    11.8751   244.7168 </r>
       <r>    -6.0463    29.2815   248.5305 </r>
       <r>    -5.8631    18.2053   252.3053 </r>
       <r>    -5.6799    24.9033   256.8471 </r>
       <r>    -5.4966    21.0292   260.9007 </r>
       <r>    -5.3134    18.6797   264.7592 </r>
       <r>    -5.1302     8.6398   267.4033 </r>
       <r>    -4.9470     4.8927   268.3092 </r>
       <r>    -4.7638     7.6561   269.5978 </r>
       <r>    -4.5805    10.1183   271.1944 </r>
       <r>    -4.3973     6.2988   272.8571 </r>
       <r>    -4.2141     7.3953   274.0518 </r>
       <r>    -4.0309     4.8471   275.2169 </r>
       <r>    -3.8476     1.6944   275.8106 </r>
       <r>    -3.6644     0.3687   275.9874 </r>
       <r>    -3.4812     0.0000   276.0000 </r>
       <r>    -3.2980     0.0000   276.0000 </r>
       <r>    -3.1147     0.0000   276.0000 </r>
       <r>    -2.9315     0.0000   276.0000 </r>
       <r>    -2.7483     0.0000   276.0000 </r>
       <r>    -2.5651     0.0000   276.0000 </r>
       <r>    -2.3819     0.0000   276.0000 </r>
       <r>    -2.1986     0.0000   276.0000 </r>
       <r>    -2.0154     0.0000   276.0000 </r>
       <r>    -1.8322     0.0000   276.0000 </r>
       <r>    -1.6490     0.0000   276.0000 </r>
       <r>    -1.4657     0.0000   276.0000 </r>
       <r>    -1.2825     3.2909   276.1068 </r>
       <r>    -1.0993     8.6894   277.4154 </r>
       <r>    -0.9161    13.5360   279.4888 </r>
       <r>    -0.7328     9.6552   281.6812 </r>
       <r>    -0.5496     5.6009   283.0761 </r>
       <r>    -0.3664    18.2284   285.0241 </r>
       <r>    -0.1832    25.1592   289.1649 </r>
       <r>     0.0000    43.6980   295.5649 </r>
       <r>     0.1833    28.7576   301.9162 </r>
       <r>     0.3665    40.3230   308.5175 </r>
       <r>     0.5497    41.1919   315.4901 </r>
       <r>     0.7329    31.7034   322.6636 </r>
       <r>     0.9162    35.7591   328.6758 </r>
       <r>     1.0994    57.9901   336.7861 </r>
       <r>     1.2826    47.7117   345.2938 </r>
       <r>     1.4658    55.5510   353.6393 </r>
       <r>     1.6490    51.8193   363.8829 </r>
       <r>     1.8323    50.6847   372.6177 </r>
       <r>     2.0155    37.7433   381.0489 </r>
       <r>     2.1987    47.0482   388.5201 </r>
       <r>     2.3819    49.8676   396.6517 </r>
       <r>     2.5652    70.2228   407.3318 </r>
       <r>     2.7484    63.0562   418.6668 </r>
       <r>     2.9316    76.6053   431.2605 </r>
       <r>     3.1148    57.9228   443.3296 </r>
       <r>     3.2981    35.5098   451.1066 </r>
       <r>     3.4813    43.4035   457.6848 </r>
       <r>     3.6645    14.6119   462.9335 </r>
       <r>     3.8477    11.5863   465.7103 </r>
       <r>     4.0309     6.2027   467.3402 </r>
       <r>     4.2142     0.8340   467.9827 </r>
       <r>     4.3974     0.0000   468.0000 </r>
       <r>     4.5806     0.0000   468.0000 </r>
       <r>     4.7638     0.0000   468.0000 </r>
       <r>     4.9471     0.0000   468.0000 </r>
       <r>     5.1303     0.0845   468.0009 </r>
       <r>     5.3135     3.5517   468.2994 </r>
       <r>     5.4967     7.5157   469.3132 </r>
       <r>     5.6800     9.2180   470.9533 </r>
       <r>     5.8632    22.1023   474.5030 </r>
       <r>     6.0464    12.8800   477.3226 </r>
       <r>     6.2296    11.4721   479.5078 </r>
       <r>     6.4128    12.8326   481.7096 </r>
       <r>     6.5961    14.5328   484.2169 </r>
       <r>     6.7793    16.2165   487.0340 </r>
       <r>     6.9625    18.2378   490.1720 </r>
       <r>     7.1457    25.0976   494.0113 </r>
       <r>     7.3290    38.0264   499.7503 </r>
       <r>     7.5122    33.3967   507.6526 </r>
       <r>     7.6954    33.3234   512.4422 </r>
       <r>     7.8786    42.8707   520.0301 </r>
       <r>     8.0619    33.2445   528.3910 </r>
       <r>     8.2451    20.0306   532.9018 </r>
       <r>     8.4283    19.5536   536.3848 </r>
       <r>     8.6115    25.7696   540.5424 </r>
       <r>     8.7947    34.2849   545.3812 </r>
       <r>     8.9780    34.7769   553.4358 </r>
       <r>     9.1612    12.9409   557.7597 </r>
       <r>     9.3444     5.4358   559.2761 </r>
       <r>     9.5276     1.5351   559.8617 </r>
       <r>     9.7109     0.1229   559.9973 </r>
       <r>     9.8941     0.0000   560.0000 </r>
       <r>    10.0773     0.0000   560.0000 </r>
       <r>    10.2605     0.0000   560.0000 </r>
       <r>    10.4437     0.0000   560.0000 </r>
       <r>    10.6270     0.0000   560.0000 </r>
       <r>    10.8102     0.0000   560.0000 </r>
       <r>    10.9934     0.0000   560.0000 </r>
       <r>    11.1766     0.0000   560.0000 </r>
       <r>    11.3599     0.0000   560.0000 </r>
       <r>    11.5431     0.0000   560.0000 </r>
       <r>    11.7263     0.0000   560.0000 </r>
       <r>    11.9095     0.0000   560.0000 </r>
       <r>    12.0928     0.0000   560.0000 </r>
       <r>    12.2760     0.0000   560.0000 </r>
      </set>
     </set>
    </array>
   </total>
  </dos>
 </calculation>
 <structure name="finalpos" >
  <crystal>
   <varray name="basis" >
    <v>      11.17850000       0.00000000       0.00000000 </v>
    <v>       0.00000000       9.57460000       0.00000000 </v>
    <v>       0.00000000       0.00000000      11.18240000 </v>
   </varray>
   <i name="volume">   1196.84853820 </i>
   <varray name="rec_basis" >
    <v>       0.08945744       0.00000000       0.00000000 </v>
    <v>       0.00000000       0.10444301       0.00000000 </v>
    <v>       0.00000000       0.00000000       0.08942624 </v>
   </varray>
  </crystal>
  <varray name="positions" >
   <v>       0.37461000       0.00017000       0.18687000 </v>
   <v>       0.87539000       0.00017000       0.43687000 </v>
   <v>       0.62461000       0.99984000       0.18687000 </v>
   <v>       0.87461000       0.00017000       0.18687000 </v>
   <v>       0.37539000       0.00017000       0.93687000 </v>
   <v>       0.37461000       0.00017000       0.68687000 </v>
   <v>       0.62539000       0.99984000       0.93687000 </v>
   <v>       0.87539000       0.00017000       0.93687000 </v>
   <v>       0.62461000       0.99984000       0.68687000 </v>
   <v>       0.87461000       0.00017000       0.68687000 </v>
   <v>       0.12461000       0.99984000       0.18687000 </v>
   <v>       0.62539000       0.99984000       0.43687000 </v>
   <v>       0.12461000       0.99984000       0.68687000 </v>
   <v>       0.00013000       0.29519000       0.06281000 </v>
   <v>       0.25013000       0.70481000       0.06281000 </v>
   <v>       0.24987000       0.29519000       0.31282000 </v>
   <v>       0.49987000       0.70481000       0.31282000 </v>
   <v>       0.50013000       0.29519000       0.06281000 </v>
   <v>       0.75013000       0.70481000       0.06281000 </v>
   <v>       0.74987000       0.29519000       0.31282000 </v>
   <v>       0.99987000       0.70481000       0.31282000 </v>
   <v>       0.00013000       0.29519000       0.56281000 </v>
   <v>       0.25013000       0.70481000       0.56281000 </v>
   <v>       0.24987000       0.29519000       0.81282000 </v>
   <v>       0.49987000       0.70481000       0.81282000 </v>
   <v>       0.50013000       0.29519000       0.56281000 </v>
   <v>       0.75013000       0.70481000       0.56281000 </v>
   <v>       0.74987000       0.29519000       0.81282000 </v>
   <v>       0.99987000       0.70481000       0.81282000 </v>
   <v>       0.25005000       0.32677000       0.06286000 </v>
   <v>       0.00005000       0.67323000       0.06286000 </v>
   <v>       0.49995000       0.32677000       0.31286000 </v>
   <v>       0.24995000       0.67323000       0.31286000 </v>
   <v>       0.75005000       0.32677000       0.06286000 </v>
   <v>       0.50005000       0.67323000       0.06286000 </v>
   <v>       0.99995000       0.32677000       0.31286000 </v>
   <v>       0.74995000       0.67323000       0.31286000 </v>
   <v>       0.25005000       0.32677000       0.56286000 </v>
   <v>       0.00005000       0.67323000       0.56286000 </v>
   <v>       0.49995000       0.32677000       0.81286000 </v>
   <v>       0.24995000       0.67323000       0.81286000 </v>
   <v>       0.75005000       0.32677000       0.56286000 </v>
   <v>       0.50005000       0.67323000       0.56286000 </v>
   <v>       0.99995000       0.32677000       0.81286000 </v>
   <v>       0.74995000       0.67323000       0.81286000 </v>
   <v>       0.49987000       0.07798000       0.06246000 </v>
   <v>       0.24987000       0.92202000       0.06246000 </v>
   <v>       0.25013000       0.07798000       0.31246000 </v>
   <v>       0.00013000       0.92202000       0.31246000 </v>
   <v>       0.99987000       0.07798000       0.06246000 </v>
   <v>       0.74987000       0.92202000       0.06246000 </v>
   <v>       0.75013000       0.07798000       0.31246000 </v>
   <v>       0.50013000       0.92202000       0.31246000 </v>
   <v>       0.49987000       0.07798000       0.56246000 </v>
   <v>       0.24987000       0.92202000       0.56246000 </v>
   <v>       0.25013000       0.07798000       0.81246000 </v>
   <v>       0.00013000       0.92202000       0.81246000 </v>
   <v>       0.99987000       0.07798000       0.56246000 </v>
   <v>       0.74987000       0.92202000       0.56246000 </v>
   <v>       0.75013000       0.07798000       0.81246000 </v>
   <v>       0.50013000       0.92202000       0.81246000 </v>
  </varray>
 </structure>
</modeling>
