<?xml version="1.0" encoding="ISO-8859-1"?>
<modeling>
 <generator>
  <i name="program" type="string">vasp </i>
  <i name="version" type="string">5.4.4.18Apr17-6-g9f103f2a35  </i>
  <i name="subversion" type="string">(build Jul 31 2017 11:33:29) complex            parallel </i>
  <i name="platform" type="string">LinuxIFC </i>
  <i name="date" type="string">2021 09 20 </i>
  <i name="time" type="string">19:41:23 </i>
 </generator>
 <incar>
  <i type="string" name="SYSTEM"> La2O2S</i>
  <i type="string" name="PREC">normal</i>
  <i type="int" name="NELMIN">     4</i>
  <i type="int" name="IBRION">     2</i>
  <i type="int" name="NFREE">    10</i>
  <i name="EDIFF">      0.00000100</i>
  <i name="EDIFFG">     -0.01000000</i>
  <i type="int" name="NSW">   200</i>
  <i type="int" name="ISIF">     3</i>
  <i name="ENCUT">    600.00000000</i>
  <i name="ENAUG">    900.00000000</i>
  <i type="int" name="ISMEAR">    -5</i>
  <i type="logical" name="LWAVE"> F  </i>
  <i type="logical" name="LCHARG"> F  </i>
  <v type="int" name="KPOINT_BSE">    -1     0     0     0</v>
 </incar>
 <structure name="primitive_cell" >
  <crystal>
   <varray name="basis" >
    <v>      11.17850000       0.00000000       0.00000000 </v>
    <v>       0.00000000       9.57460000       0.00000000 </v>
    <v>       0.00000000       0.00000000      11.18240000 </v>
   </varray>
   <i name="volume">   1196.84853820 </i>
   <varray name="rec_basis" >
    <v>       0.08945744       0.00000000       0.00000000 </v>
    <v>       0.00000000       0.10444301       0.00000000 </v>
    <v>       0.00000000       0.00000000       0.08942624 </v>
   </varray>
  </crystal>
  <varray name="positions" >
   <v>       0.12461000      -0.00016000       0.18687000 </v>
   <v>      -0.00013000       0.07798000       0.06246000 </v>
   <v>       0.24987000      -0.07798000       0.06246000 </v>
   <v>       0.00013000      -0.07798000       0.31246000 </v>
   <v>       0.25013000       0.07798000       0.31246000 </v>
   <v>       0.37461000       0.00017000       0.18687000 </v>
   <v>       0.12539000      -0.00016000      -0.06313000 </v>
   <v>       0.00013000       0.29519000       0.06281000 </v>
   <v>       0.25013000      -0.29519000       0.06281000 </v>
   <v>      -0.00013000      -0.29519000       0.31282000 </v>
   <v>       0.24987000       0.29519000       0.31282000 </v>
   <v>       0.00005000      -0.32677000       0.06286000 </v>
   <v>       0.25005000       0.32677000       0.06286000 </v>
   <v>      -0.00005000       0.32677000       0.31286000 </v>
   <v>       0.24995000      -0.32677000       0.31286000 </v>
   <v>      -0.12461000       0.00017000       0.43687000 </v>
   <v>      -0.12461000       0.00017000      -0.06313000 </v>
   <v>       0.37539000       0.00017000      -0.06313000 </v>
   <v>       0.00013000      -0.07798000      -0.18754000 </v>
   <v>      -0.25013000      -0.07798000       0.06246000 </v>
   <v>      -0.24987000       0.07798000       0.31246000 </v>
   <v>       0.25013000       0.07798000      -0.18754000 </v>
   <v>       0.49987000       0.07798000       0.06246000 </v>
   <v>      -0.00013000       0.07798000      -0.43754000 </v>
   <v>      -0.49987000      -0.07798000       0.31246000 </v>
   <v>       0.24987000      -0.07798000      -0.43754000 </v>
   <v>      -0.00013000      -0.29519000      -0.18718000 </v>
   <v>      -0.24987000      -0.29519000       0.06281000 </v>
   <v>       0.24987000       0.29519000      -0.18718000 </v>
   <v>      -0.25013000       0.29519000       0.31282000 </v>
   <v>      -0.49987000       0.29519000       0.06281000 </v>
   <v>       0.49987000      -0.29519000       0.31282000 </v>
   <v>       0.00013000       0.29519000      -0.43719000 </v>
   <v>       0.25013000      -0.29519000      -0.43719000 </v>
   <v>      -0.00005000       0.32677000      -0.18714000 </v>
   <v>       0.24995000      -0.32677000      -0.18714000 </v>
   <v>      -0.24995000       0.32677000       0.06286000 </v>
   <v>      -0.25005000      -0.32677000       0.31286000 </v>
   <v>      -0.49995000      -0.32677000       0.06286000 </v>
   <v>       0.49995000       0.32677000       0.31286000 </v>
   <v>       0.00005000      -0.32677000      -0.43714000 </v>
   <v>       0.25005000       0.32677000      -0.43714000 </v>
   <v>      -0.37539000      -0.00016000       0.18687000 </v>
   <v>       0.12461000      -0.00016000      -0.31313000 </v>
   <v>      -0.24987000       0.07798000      -0.18754000 </v>
   <v>      -0.49987000      -0.07798000      -0.18754000 </v>
   <v>      -0.25013000      -0.07798000      -0.43754000 </v>
   <v>       0.49987000       0.07798000      -0.43754000 </v>
   <v>      -0.37461000      -0.00016000      -0.06313000 </v>
   <v>      -0.37461000      -0.00016000       0.43687000 </v>
   <v>       0.37461000       0.00017000      -0.31313000 </v>
   <v>      -0.25013000       0.29519000      -0.18718000 </v>
   <v>       0.49987000      -0.29519000      -0.18718000 </v>
   <v>      -0.24987000      -0.29519000      -0.43719000 </v>
   <v>      -0.49987000       0.29519000      -0.43719000 </v>
   <v>      -0.25005000      -0.32677000      -0.18714000 </v>
   <v>       0.49995000       0.32677000      -0.18714000 </v>
   <v>      -0.24995000       0.32677000      -0.43714000 </v>
   <v>      -0.49995000      -0.32677000      -0.43714000 </v>
  </varray>
 </structure>
 <varray name="primitive_index" >
  <v type="int" >        1 </v>
  <v type="int" >       48 </v>
  <v type="int" >       45 </v>
  <v type="int" >       47 </v>
  <v type="int" >       46 </v>
  <v type="int" >        7 </v>
  <v type="int" >        3 </v>
  <v type="int" >       12 </v>
  <v type="int" >       13 </v>
  <v type="int" >       19 </v>
  <v type="int" >       14 </v>
  <v type="int" >       29 </v>
  <v type="int" >       28 </v>
  <v type="int" >       34 </v>
  <v type="int" >       31 </v>
  <v type="int" >        9 </v>
  <v type="int" >       11 </v>
  <v type="int" >        4 </v>
  <v type="int" >       55 </v>
  <v type="int" >       49 </v>
  <v type="int" >       50 </v>
  <v type="int" >       54 </v>
  <v type="int" >       44 </v>
  <v type="int" >       56 </v>
  <v type="int" >       51 </v>
  <v type="int" >       53 </v>
  <v type="int" >       27 </v>
  <v type="int" >       17 </v>
  <v type="int" >       22 </v>
  <v type="int" >       18 </v>
  <v type="int" >       16 </v>
  <v type="int" >       15 </v>
  <v type="int" >       20 </v>
  <v type="int" >       21 </v>
  <v type="int" >       42 </v>
  <v type="int" >       39 </v>
  <v type="int" >       32 </v>
  <v type="int" >       35 </v>
  <v type="int" >       33 </v>
  <v type="int" >       30 </v>
  <v type="int" >       37 </v>
  <v type="int" >       36 </v>
  <v type="int" >        2 </v>
  <v type="int" >        5 </v>
  <v type="int" >       58 </v>
  <v type="int" >       59 </v>
  <v type="int" >       57 </v>
  <v type="int" >       52 </v>
  <v type="int" >        6 </v>
  <v type="int" >        8 </v>
  <v type="int" >       10 </v>
  <v type="int" >       26 </v>
  <v type="int" >       23 </v>
  <v type="int" >       25 </v>
  <v type="int" >       24 </v>
  <v type="int" >       43 </v>
  <v type="int" >       38 </v>
  <v type="int" >       40 </v>
  <v type="int" >       41 </v>
 </varray>
 <kpoints>
  <generation param="Gamma">
   <v type="int" name="divisions">       2        2        2 </v>
   <v name="usershift">      0.00000000       0.00000000       0.00000000 </v>
   <v name="genvec1">      0.50000000       0.00000000       0.00000000 </v>
   <v name="genvec2">      0.00000000       0.50000000       0.00000000 </v>
   <v name="genvec3">      0.00000000       0.00000000       0.50000000 </v>
   <v name="shift">      0.00000000       0.00000000       0.00000000 </v>
  </generation>
  <varray name="kpointlist" >
   <v>       0.00000000       0.00000000       0.00000000 </v>
   <v>       0.50000000       0.00000000       0.00000000 </v>
   <v>       0.00000000       0.50000000       0.00000000 </v>
   <v>       0.50000000       0.50000000       0.00000000 </v>
   <v>       0.00000000       0.00000000       0.50000000 </v>
   <v>       0.50000000       0.00000000       0.50000000 </v>
   <v>       0.00000000       0.50000000       0.50000000 </v>
   <v>       0.50000000       0.50000000       0.50000000 </v>
  </varray>
  <varray name="weights" >
   <v>       0.12500000 </v>
   <v>       0.12500000 </v>
   <v>       0.12500000 </v>
   <v>       0.12500000 </v>
   <v>       0.12500000 </v>
   <v>       0.12500000 </v>
   <v>       0.12500000 </v>
   <v>       0.12500000 </v>
  </varray>
  <varray name="tetrahedronlist"  type="int" >
   <v type="int" >        2        1        2        4        5 </v>
   <v type="int" >        2        1        3        4        5 </v>
   <v type="int" >        2        3        4        5        7 </v>
   <v type="int" >        2        2        4        5        6 </v>
   <v type="int" >        2        4        5        6        8 </v>
   <v type="int" >        2        4        5        7        8 </v>
   <v type="int" >        2        1        2        3        6 </v>
   <v type="int" >        2        2        3        4        6 </v>
   <v type="int" >        2        3        4        6        8 </v>
   <v type="int" >        2        1        3        5        6 </v>
   <v type="int" >        2        3        5        6        7 </v>
   <v type="int" >        2        3        6        7        8 </v>
   <v type="int" >        2        2        3        4        7 </v>
   <v type="int" >        2        1        2        3        7 </v>
   <v type="int" >        2        1        2        5        7 </v>
   <v type="int" >        2        2        4        7        8 </v>
   <v type="int" >        2        2        6        7        8 </v>
   <v type="int" >        2        2        5        6        7 </v>
   <v type="int" >        2        1        3        4        8 </v>
   <v type="int" >        2        1        2        4        8 </v>
   <v type="int" >        2        1        2        6        8 </v>
   <v type="int" >        2        1        3        7        8 </v>
   <v type="int" >        2        1        5        7        8 </v>
   <v type="int" >        2        1        5        6        8 </v>
  </varray>
  <i name="volumeweight">      0.02083333 </i>
 </kpoints>
 <parameters>
  <separator name="general" >
   <i type="string" name="SYSTEM">La2O2S</i>
   <i type="logical" name="LCOMPAT"> F  </i>
  </separator>
  <separator name="electronic" >
   <i type="string" name="PREC">normal</i>
   <i name="ENMAX">    600.00000000</i>
   <i name="ENAUG">    900.00000000</i>
   <i name="EDIFF">      0.00000100</i>
   <i type="int" name="IALGO">    38</i>
   <i type="int" name="IWAVPR">    11</i>
   <i type="int" name="NBANDS">   280</i>
   <i name="NELECT">    460.00000000</i>
   <i type="int" name="TURBO">     0</i>
   <i type="int" name="IRESTART">     0</i>
   <i type="int" name="NREBOOT">     0</i>
   <i type="int" name="NMIN">     0</i>
   <i name="EREF">      0.00000000</i>
   <separator name="electronic smearing" >
    <i type="int" name="ISMEAR">    -5</i>
    <i name="SIGMA">      0.20000000</i>
    <i name="KSPACING">      0.50000000</i>
    <i type="logical" name="KGAMMA"> T  </i>
   </separator>
   <separator name="electronic projectors" >
    <i type="logical" name="LREAL"> F  </i>
    <v name="ROPT">      0.00000000      0.00000000      0.00000000      0.00000000      0.00000000</v>
    <i type="int" name="LMAXPAW">  -100</i>
    <i type="int" name="LMAXMIX">     2</i>
    <i type="logical" name="NLSPLINE"> F  </i>
   </separator>
   <separator name="electronic startup" >
    <i type="int" name="ISTART">     0</i>
    <i type="int" name="ICHARG">     2</i>
    <i type="int" name="INIWAV">     1</i>
   </separator>
   <separator name="electronic spin" >
    <i type="int" name="ISPIN">     1</i>
    <i type="logical" name="LNONCOLLINEAR"> F  </i>
    <v name="MAGMOM">      1.00000000      1.00000000      1.00000000      1.00000000      1.00000000      1.00000000      1.00000000      1.00000000      1.00000000      1.00000000      1.00000000      1.00000000      1.00000000      1.00000000      1.00000000      1.00000000      1.00000000      1.00000000      1.00000000      1.00000000
      1.00000000      1.00000000      1.00000000      1.00000000      1.00000000      1.00000000      1.00000000      1.00000000      1.00000000      1.00000000      1.00000000      1.00000000      1.00000000      1.00000000      1.00000000      1.00000000      1.00000000      1.00000000      1.00000000      1.00000000
      1.00000000      1.00000000      1.00000000      1.00000000      1.00000000      1.00000000      1.00000000      1.00000000      1.00000000      1.00000000      1.00000000      1.00000000      1.00000000      1.00000000      1.00000000      1.00000000      1.00000000      1.00000000      1.00000000</v>
    <i name="NUPDOWN">     -1.00000000</i>
    <i type="logical" name="LSORBIT"> F  </i>
    <v name="SAXIS">      0.00000000      0.00000000      1.00000000</v>
    <i type="logical" name="LSPIRAL"> F  </i>
    <v name="QSPIRAL">      0.00000000      0.00000000      0.00000000</v>
    <i type="logical" name="LZEROZ"> F  </i>
   </separator>
   <separator name="electronic exchange-correlation" >
    <i type="logical" name="LASPH"> F  </i>
    <i type="logical" name="LMETAGGA"> F  </i>
   </separator>
   <separator name="electronic convergence" >
    <i type="int" name="NELM">    60</i>
    <i type="int" name="NELMDL">    -5</i>
    <i type="int" name="NELMIN">     4</i>
    <i name="ENINI">    600.00000000</i>
    <separator name="electronic convergence detail" >
     <i type="logical" name="LDIAG"> T  </i>
     <i type="logical" name="LSUBROT"> F  </i>
     <i name="WEIMIN">      0.00100000</i>
     <i name="EBREAK">      0.00000000</i>
     <i name="DEPER">      0.30000000</i>
     <i type="int" name="NRMM">     4</i>
     <i name="TIME">      0.40000000</i>
    </separator>
   </separator>
   <separator name="electronic mixer" >
    <i name="AMIX">      0.40000000</i>
    <i name="BMIX">      1.00000000</i>
    <i name="AMIN">      0.10000000</i>
    <i name="AMIX_MAG">      1.60000000</i>
    <i name="BMIX_MAG">      1.00000000</i>
    <separator name="electronic mixer details" >
     <i type="int" name="IMIX">     4</i>
     <i type="logical" name="MIXFIRST"> F  </i>
     <i type="int" name="MAXMIX">   -45</i>
     <i name="WC">    100.00000000</i>
     <i type="int" name="INIMIX">     1</i>
     <i type="int" name="MIXPRE">     1</i>
     <i type="int" name="MREMOVE">     5</i>
    </separator>
   </separator>
   <separator name="electronic dipolcorrection" >
    <i type="logical" name="LDIPOL"> F  </i>
    <i type="logical" name="LMONO"> F  </i>
    <i type="int" name="IDIPOL">     0</i>
    <i name="EPSILON">      1.00000000</i>
    <v name="DIPOL">   -100.00000000   -100.00000000   -100.00000000</v>
    <i name="EFIELD">      0.00000000</i>
   </separator>
  </separator>
  <separator name="grids" >
   <i type="int" name="NGX">    70</i>
   <i type="int" name="NGY">    60</i>
   <i type="int" name="NGZ">    70</i>
   <i type="int" name="NGXF">   140</i>
   <i type="int" name="NGYF">   120</i>
   <i type="int" name="NGZF">   140</i>
   <i type="logical" name="ADDGRID"> F  </i>
  </separator>
  <separator name="ionic" >
   <i type="int" name="NSW">   200</i>
   <i type="int" name="IBRION">     2</i>
   <i type="int" name="MDALGO">     0</i>
   <i type="int" name="ISIF">     3</i>
   <i name="PSTRESS">      0.00000000</i>
   <i name="EDIFFG">     -0.01000000</i>
   <i type="int" name="NFREE">    10</i>
   <i name="POTIM">      0.50000000</i>
   <i name="SMASS">     -3.00000000</i>
   <i name="SCALEE">      1.00000000</i>
  </separator>
  <separator name="ionic md" >
   <i name="TEBEG">      0.00010000</i>
   <i name="TEEND">      0.00010000</i>
   <i type="int" name="NBLOCK">     1</i>
   <i type="int" name="KBLOCK">   200</i>
   <i type="int" name="NPACO">   256</i>
   <i name="APACO">     16.00000000</i>
  </separator>
  <separator name="symmetry" >
   <i type="int" name="ISYM">     2</i>
   <i name="SYMPREC">      0.00001000</i>
  </separator>
  <separator name="dos" >
   <i type="int" name="LORBIT">     0</i>
   <v name="RWIGS">     -1.00000000     -1.00000000     -1.00000000     -1.00000000     -1.00000000</v>
   <i type="int" name="NEDOS">   301</i>
   <i name="EMIN">     10.00000000</i>
   <i name="EMAX">    -10.00000000</i>
   <i name="EFERMI">      0.00000000</i>
  </separator>
  <separator name="writing" >
   <i type="int" name="NWRITE">     2</i>
   <i type="logical" name="LWAVE"> F  </i>
   <i type="logical" name="LDOWNSAMPLE"> F  </i>
   <i type="logical" name="LCHARG"> F  </i>
   <i type="logical" name="LPARD"> F  </i>
   <i type="logical" name="LVTOT"> F  </i>
   <i type="logical" name="LVHAR"> F  </i>
   <i type="logical" name="LELF"> F  </i>
   <i type="logical" name="LOPTICS"> F  </i>
   <v name="STM">      0.00000000      0.00000000      0.00000000      0.00000000      0.00000000      0.00000000      0.00000000</v>
  </separator>
  <separator name="performance" >
   <i type="int" name="NPAR">    28</i>
   <i type="int" name="NSIM">     4</i>
   <i type="int" name="NBLK">    -1</i>
   <i type="logical" name="LPLANE"> T  </i>
   <i type="logical" name="LSCALAPACK"> T  </i>
   <i type="logical" name="LSCAAWARE"> F  </i>
   <i type="logical" name="LSCALU"> F  </i>
   <i type="logical" name="LASYNC"> F  </i>
   <i type="logical" name="LORBITALREAL"> F  </i>
  </separator>
  <separator name="miscellaneous" >
   <i type="int" name="IDIOT">     3</i>
   <i type="int" name="ISPECIAL">     0</i>
   <i type="logical" name="LMUSIC"> F  </i>
   <v name="POMASS">      7.01000000     24.30500000    208.98000000     32.06600000     16.00000000</v>
   <v name="DARWINR">      0.00000000      0.00000000      0.00000000      0.00000000      0.00000000</v>
   <v name="DARWINV">      1.00000000      1.00000000      1.00000000      1.00000000      1.00000000</v>
   <i type="logical" name="LCORR"> T  </i>
  </separator>
  <i type="logical" name="GGA_COMPAT"> T  </i>
  <i type="logical" name="LBERRY"> F  </i>
  <i type="int" name="ICORELEVEL">     0</i>
  <i type="logical" name="LDAU"> F  </i>
  <i type="int" name="I_CONSTRAINED_M">     0</i>
  <separator name="electronic exchange-correlation" >
   <i type="string" name="GGA">--</i>
   <i type="int" name="VOSKOWN">     0</i>
   <i type="logical" name="LHFCALC"> F  </i>
   <i type="string" name="PRECFOCK"></i>
   <i type="logical" name="LSYMGRAD"> F  </i>
   <i type="logical" name="LHFONE"> F  </i>
   <i type="logical" name="LRHFCALC"> F  </i>
   <i type="logical" name="LTHOMAS"> F  </i>
   <i type="logical" name="LMODELHF"> F  </i>
   <i name="ENCUT4O">     -1.00000000</i>
   <i type="int" name="EXXOEP">     0</i>
   <i type="int" name="FOURORBIT">     0</i>
   <i name="AEXX">      0.00000000</i>
   <i name="HFALPHA">      0.00000000</i>
   <i name="MCALPHA">      0.00000000</i>
   <i name="ALDAX">      1.00000000</i>
   <i name="AGGAX">      1.00000000</i>
   <i name="ALDAC">      1.00000000</i>
   <i name="AGGAC">      1.00000000</i>
   <i type="int" name="NKREDX">     1</i>
   <i type="int" name="NKREDY">     1</i>
   <i type="int" name="NKREDZ">     1</i>
   <i type="logical" name="SHIFTRED"> F  </i>
   <i type="logical" name="ODDONLY"> F  </i>
   <i type="logical" name="EVENONLY"> F  </i>
   <i type="int" name="LMAXFOCK">     0</i>
   <i type="int" name="NMAXFOCKAE">     0</i>
   <i type="logical" name="LFOCKAEDFT"> F  </i>
   <i name="HFSCREEN">      0.00000000</i>
   <i name="HFSCREENC">      0.00000000</i>
   <i type="int" name="NBANDSGWLOW">     0</i>
  </separator>
  <separator name="vdW DFT" >
   <i type="logical" name="LUSE_VDW"> F  </i>
   <i name="Zab_VDW">     -0.84910000</i>
   <i name="PARAM1">      0.12340000</i>
   <i name="PARAM2">      1.00000000</i>
   <i name="PARAM3">      0.00000000</i>
  </separator>
  <separator name="model GW" >
   <i type="int" name="MODEL_GW">     0</i>
   <i name="MODEL_EPS0">     12.17134107</i>
   <i name="MODEL_ALPHA">      1.00000000</i>
  </separator>
  <separator name="linear response parameters" >
   <i type="logical" name="LEPSILON"> F  </i>
   <i type="logical" name="LRPA"> F  </i>
   <i type="logical" name="LNABLA"> F  </i>
   <i type="logical" name="LVEL"> F  </i>
   <i type="int" name="KINTER">     0</i>
   <i name="CSHIFT">      0.10000000</i>
   <i name="OMEGAMAX">     -1.00000000</i>
   <i name="DEG_THRESHOLD">      0.00200000</i>
   <i name="RTIME">     -0.10000000</i>
   <i name="WPLASMAI">      0.00000000</i>
   <v name="DFIELD">      0.00000000      0.00000000      0.00000000</v>
   <v name="WPLASMA">      0.00000000      0.00000000      0.00000000      0.00000000      0.00000000      0.00000000      0.00000000      0.00000000      0.00000000</v>
  </separator>
  <separator name="orbital magnetization" >
   <i type="logical" name="NUCIND"> F  </i>
   <v name="MAGPOS">      0.00000000      0.00000000      0.00000000</v>
   <i type="logical" name="LNICSALL"> T  </i>
   <i type="logical" name="ORBITALMAG"> F  </i>
   <i type="logical" name="LMAGBLOCH"> F  </i>
   <i type="logical" name="LCHIMAG"> F  </i>
   <i type="logical" name="LGAUGE"> T  </i>
   <i type="int" name="MAGATOM">     0</i>
   <v name="MAGDIPOL">      0.00000000      0.00000000      0.00000000</v>
   <v name="AVECCONST">      0.00000000      0.00000000      0.00000000</v>
  </separator>
  <separator name="response functions" >
   <i type="logical" name="LADDER"> F  </i>
   <i type="logical" name="LRPAFORCE"> F  </i>
   <i type="logical" name="LFXC"> F  </i>
   <i type="logical" name="LHARTREE"> T  </i>
   <i type="int" name="IBSE">     0</i>
   <v type="int" name="KPOINT">    -1     0     0     0</v>
   <i type="logical" name="LTCTE"> F  </i>
   <i type="logical" name="LTETE"> F  </i>
   <i type="logical" name="LTRIPLET"> F  </i>
   <i type="logical" name="LFXCEPS"> F  </i>
   <i type="logical" name="LFXHEG"> F  </i>
   <i type="int" name="NATURALO">     2</i>
   <i type="logical" name="L2ORDER"> F  </i>
   <i type="logical" name="LMP2LT"> F  </i>
   <i type="logical" name="LUSEW"> F  </i>
   <i name="ENCUTGW">     -2.00000000</i>
   <i name="ENCUTGWSOFT">     -2.00000000</i>
   <i name="ENCUTLF">     -1.00000000</i>
   <i type="int" name="LMAXMP2">    -1</i>
   <i name="SCISSOR">      0.00000000</i>
   <i type="int" name="NOMEGA">     0</i>
   <i type="int" name="NOMEGAR">     0</i>
   <i type="int" name="NBANDSGW">    -1</i>
   <i type="int" name="NBANDSO">    -1</i>
   <i type="int" name="NBANDSV">    -1</i>
   <i type="int" name="NELM">     1</i>
   <i type="int" name="NELMHF">     1</i>
   <i type="int" name="DIM">     3</i>
   <i type="int" name="ANTIRES">     0</i>
   <i name="OMEGAMAX">    -30.00000000</i>
   <i name="OMEGAMIN">    -30.00000000</i>
   <i name="OMEGATL">   -200.00000000</i>
   <i type="int" name="OMEGAGRID">   140</i>
   <i name="CSHIFT">     -0.10000000</i>
   <i type="logical" name="SELFENERGY"> F  </i>
   <i type="logical" name="LSPECTRAL"> F  </i>
   <i type="logical" name="LSPECTRALGW"> F  </i>
   <i type="logical" name="LSINGLES"> F  </i>
   <i type="logical" name="LFERMIGW"> F  </i>
   <i type="logical" name="ODDONLYGW"> F  </i>
   <i type="logical" name="EVENONLYGW"> F  </i>
   <i type="int" name="NKREDLFX">     1</i>
   <i type="int" name="NKREDLFY">     1</i>
   <i type="int" name="NKREDLFZ">     1</i>
   <i type="int" name="MAXMEM">  2800</i>
   <i type="int" name="TELESCOPE">     0</i>
   <i type="int" name="TAUPAR">     1</i>
   <i type="int" name="OMEGAPAR">    -1</i>
   <i name="LAMBDA">      1.00000000</i>
  </separator>
  <separator name="External order field" >
   <i name="OFIELD_KAPPA">      0.00000000</i>
   <v name="OFIELD_K">      0.00000000      0.00000000      0.00000000</v>
   <i name="OFIELD_Q6_NEAR">      0.00000000</i>
   <i name="OFIELD_Q6_FAR">      0.00000000</i>
   <i name="OFIELD_A">      0.00000000</i>
  </separator>
 </parameters>
 <atominfo>
  <atoms>      59 </atoms>
  <types>       5 </types>
  <array name="atoms" >
   <dimension dim="1">ion</dimension>
   <field type="string">element</field>
   <field type="int">atomtype</field>
   <set>
    <rc><c>Li</c><c>   1</c></rc>
    <rc><c>Li</c><c>   1</c></rc>
    <rc><c>Li</c><c>   1</c></rc>
    <rc><c>Li</c><c>   1</c></rc>
    <rc><c>Li</c><c>   1</c></rc>
    <rc><c>Li</c><c>   1</c></rc>
    <rc><c>Mg</c><c>   2</c></rc>
    <rc><c>Mg</c><c>   2</c></rc>
    <rc><c>Mg</c><c>   2</c></rc>
    <rc><c>Mg</c><c>   2</c></rc>
    <rc><c>Mg</c><c>   2</c></rc>
    <rc><c>Bi</c><c>   3</c></rc>
    <rc><c>Bi</c><c>   3</c></rc>
    <rc><c>Bi</c><c>   3</c></rc>
    <rc><c>Bi</c><c>   3</c></rc>
    <rc><c>Bi</c><c>   3</c></rc>
    <rc><c>Bi</c><c>   3</c></rc>
    <rc><c>Bi</c><c>   3</c></rc>
    <rc><c>Bi</c><c>   3</c></rc>
    <rc><c>Bi</c><c>   3</c></rc>
    <rc><c>Bi</c><c>   3</c></rc>
    <rc><c>Bi</c><c>   3</c></rc>
    <rc><c>Bi</c><c>   3</c></rc>
    <rc><c>Bi</c><c>   3</c></rc>
    <rc><c>Bi</c><c>   3</c></rc>
    <rc><c>Bi</c><c>   3</c></rc>
    <rc><c>Bi</c><c>   3</c></rc>
    <rc><c>S </c><c>   4</c></rc>
    <rc><c>S </c><c>   4</c></rc>
    <rc><c>S </c><c>   4</c></rc>
    <rc><c>S </c><c>   4</c></rc>
    <rc><c>S </c><c>   4</c></rc>
    <rc><c>S </c><c>   4</c></rc>
    <rc><c>S </c><c>   4</c></rc>
    <rc><c>S </c><c>   4</c></rc>
    <rc><c>S </c><c>   4</c></rc>
    <rc><c>S </c><c>   4</c></rc>
    <rc><c>S </c><c>   4</c></rc>
    <rc><c>S </c><c>   4</c></rc>
    <rc><c>S </c><c>   4</c></rc>
    <rc><c>S </c><c>   4</c></rc>
    <rc><c>S </c><c>   4</c></rc>
    <rc><c>S </c><c>   4</c></rc>
    <rc><c>O </c><c>   5</c></rc>
    <rc><c>O </c><c>   5</c></rc>
    <rc><c>O </c><c>   5</c></rc>
    <rc><c>O </c><c>   5</c></rc>
    <rc><c>O </c><c>   5</c></rc>
    <rc><c>O </c><c>   5</c></rc>
    <rc><c>O </c><c>   5</c></rc>
    <rc><c>O </c><c>   5</c></rc>
    <rc><c>O </c><c>   5</c></rc>
    <rc><c>O </c><c>   5</c></rc>
    <rc><c>O </c><c>   5</c></rc>
    <rc><c>O </c><c>   5</c></rc>
    <rc><c>O </c><c>   5</c></rc>
    <rc><c>O </c><c>   5</c></rc>
    <rc><c>O </c><c>   5</c></rc>
    <rc><c>O </c><c>   5</c></rc>
   </set>
  </array>
  <array name="atomtypes" >
   <dimension dim="1">type</dimension>
   <field type="int">atomspertype</field>
   <field type="string">element</field>
   <field>mass</field>
   <field>valence</field>
   <field type="string">pseudopotential</field>
   <set>
    <rc><c>   6</c><c>Li</c><c>      7.01000000</c><c>      3.00000000</c><c>  PAW_PBE Li_sv 10Sep2004               </c></rc>
    <rc><c>   5</c><c>Mg</c><c>     24.30500000</c><c>      2.00000000</c><c>  PAW_PBE Mg 13Apr2007                  </c></rc>
    <rc><c>  16</c><c>Bi</c><c>    208.98000000</c><c>     15.00000000</c><c>  PAW_PBE Bi_d 06Sep2000                </c></rc>
    <rc><c>  16</c><c>S </c><c>     32.06600000</c><c>      6.00000000</c><c>  PAW_PBE S 06Sep2000                   </c></rc>
    <rc><c>  16</c><c>O </c><c>     16.00000000</c><c>      6.00000000</c><c>  PAW_PBE O 08Apr2002                   </c></rc>
   </set>
  </array>
 </atominfo>
 <structure name="initialpos" >
  <crystal>
   <varray name="basis" >
    <v>      11.17850000       0.00000000       0.00000000 </v>
    <v>       0.00000000       9.57460000       0.00000000 </v>
    <v>       0.00000000       0.00000000      11.18240000 </v>
   </varray>
   <i name="volume">   1196.84853820 </i>
   <varray name="rec_basis" >
    <v>       0.08945744       0.00000000       0.00000000 </v>
    <v>       0.00000000       0.10444301       0.00000000 </v>
    <v>       0.00000000       0.00000000       0.08942624 </v>
   </varray>
  </crystal>
  <varray name="positions" >
   <v>       0.12461000       0.99984000       0.18687000 </v>
   <v>       0.62461000       0.99984000       0.18687000 </v>
   <v>       0.12539000       0.99984000       0.93687000 </v>
   <v>       0.37539000       0.00017000       0.93687000 </v>
   <v>       0.12461000       0.99984000       0.68687000 </v>
   <v>       0.62539000       0.99984000       0.93687000 </v>
   <v>       0.37461000       0.00017000       0.18687000 </v>
   <v>       0.62539000       0.99984000       0.43687000 </v>
   <v>       0.87539000       0.00017000       0.43687000 </v>
   <v>       0.37461000       0.00017000       0.68687000 </v>
   <v>       0.87539000       0.00017000       0.93687000 </v>
   <v>       0.00013000       0.29519000       0.06281000 </v>
   <v>       0.25013000       0.70481000       0.06281000 </v>
   <v>       0.24987000       0.29519000       0.31282000 </v>
   <v>       0.49987000       0.70481000       0.31282000 </v>
   <v>       0.50013000       0.29519000       0.06281000 </v>
   <v>       0.75013000       0.70481000       0.06281000 </v>
   <v>       0.74987000       0.29519000       0.31282000 </v>
   <v>       0.99987000       0.70481000       0.31282000 </v>
   <v>       0.00013000       0.29519000       0.56281000 </v>
   <v>       0.25013000       0.70481000       0.56281000 </v>
   <v>       0.24987000       0.29519000       0.81282000 </v>
   <v>       0.49987000       0.70481000       0.81282000 </v>
   <v>       0.50013000       0.29519000       0.56281000 </v>
   <v>       0.75013000       0.70481000       0.56281000 </v>
   <v>       0.74987000       0.29519000       0.81282000 </v>
   <v>       0.99987000       0.70481000       0.81282000 </v>
   <v>       0.25005000       0.32677000       0.06286000 </v>
   <v>       0.00005000       0.67323000       0.06286000 </v>
   <v>       0.49995000       0.32677000       0.31286000 </v>
   <v>       0.24995000       0.67323000       0.31286000 </v>
   <v>       0.75005000       0.32677000       0.06286000 </v>
   <v>       0.50005000       0.67323000       0.06286000 </v>
   <v>       0.99995000       0.32677000       0.31286000 </v>
   <v>       0.74995000       0.67323000       0.31286000 </v>
   <v>       0.25005000       0.32677000       0.56286000 </v>
   <v>       0.00005000       0.67323000       0.56286000 </v>
   <v>       0.49995000       0.32677000       0.81286000 </v>
   <v>       0.24995000       0.67323000       0.81286000 </v>
   <v>       0.75005000       0.32677000       0.56286000 </v>
   <v>       0.50005000       0.67323000       0.56286000 </v>
   <v>       0.99995000       0.32677000       0.81286000 </v>
   <v>       0.74995000       0.67323000       0.81286000 </v>
   <v>       0.49987000       0.07798000       0.06246000 </v>
   <v>       0.24987000       0.92202000       0.06246000 </v>
   <v>       0.25013000       0.07798000       0.31246000 </v>
   <v>       0.00013000       0.92202000       0.31246000 </v>
   <v>       0.99987000       0.07798000       0.06246000 </v>
   <v>       0.74987000       0.92202000       0.06246000 </v>
   <v>       0.75013000       0.07798000       0.31246000 </v>
   <v>       0.50013000       0.92202000       0.31246000 </v>
   <v>       0.49987000       0.07798000       0.56246000 </v>
   <v>       0.24987000       0.92202000       0.56246000 </v>
   <v>       0.25013000       0.07798000       0.81246000 </v>
   <v>       0.00013000       0.92202000       0.81246000 </v>
   <v>       0.99987000       0.07798000       0.56246000 </v>
   <v>       0.74987000       0.92202000       0.56246000 </v>
   <v>       0.75013000       0.07798000       0.81246000 </v>
   <v>       0.50013000       0.92202000       0.81246000 </v>
  </varray>
 </structure>
 <calculation>
  <scstep>
   <time name="dav">   60.43   60.58</time>
   <time name="total">   60.52   60.67</time>
   <energy>
    <i name="alphaZ">   1060.66890660 </i>
    <i name="ewald"> -30397.43181190 </i>
    <i name="hartreedc"> -12719.75486460 </i>
    <i name="XCdc">   1247.25566151 </i>
    <i name="pawpsdc">  36635.26894311 </i>
    <i name="pawaedc"> -35972.74895369 </i>
    <i name="eentropy">      0.00000000 </i>
    <i name="bandstr">   1866.75379888 </i>
    <i name="atom">  44026.03258983 </i>
    <i name="e_fr_energy">   5746.04426974 </i>
    <i name="e_wo_entrp">   5746.04426974 </i>
    <i name="e_0_energy">   5746.04426974 </i>
   </energy>
  </scstep>
  <scstep>
   <time name="dav">   61.39   61.45</time>
   <time name="total">   61.40   61.46</time>
   <energy>
    <i name="e_fr_energy">    764.18575095 </i>
    <i name="e_wo_entrp">    764.18575095 </i>
    <i name="e_0_energy">    764.18575095 </i>
   </energy>
  </scstep>
  <scstep>
   <time name="dav">   70.93   71.00</time>
   <time name="total">   70.93   71.00</time>
   <energy>
    <i name="e_fr_energy">   -242.67328805 </i>
    <i name="e_wo_entrp">   -242.67328805 </i>
    <i name="e_0_energy">   -242.67328805 </i>
   </energy>
  </scstep>
  <scstep>
   <time name="dav">   73.12   73.13</time>
   <time name="total">   73.13   73.13</time>
   <energy>
    <i name="e_fr_energy">   -335.57724077 </i>
    <i name="e_wo_entrp">   -335.57724077 </i>
    <i name="e_0_energy">   -335.57724077 </i>
   </energy>
  </scstep>
  <scstep>
   <time name="dav">   95.83   95.89</time>
   <time name="total">   96.55   96.60</time>
   <energy>
    <i name="e_fr_energy">   -342.70289591 </i>
    <i name="e_wo_entrp">   -342.70289591 </i>
    <i name="e_0_energy">   -342.70289591 </i>
   </energy>
  </scstep>
  <scstep>
   <time name="dav">   86.41   86.63</time>
   <time name="total">   87.19   87.42</time>
   <energy>
    <i name="e_fr_energy">   -287.61537694 </i>
    <i name="e_wo_entrp">   -287.61537694 </i>
    <i name="e_0_energy">   -287.61537694 </i>
   </energy>
  </scstep>
  <scstep>
   <time name="dav">   66.99   66.99</time>
   <time name="total">   67.77   67.77</time>
   <energy>
    <i name="e_fr_energy">   -289.94247009 </i>
    <i name="e_wo_entrp">   -289.94247009 </i>
    <i name="e_0_energy">   -289.94247009 </i>
   </energy>
  </scstep>
  <scstep>
   <time name="dav">   75.84   76.00</time>
   <time name="total">   76.62   76.78</time>
   <energy>
    <i name="e_fr_energy">   -288.97032947 </i>
    <i name="e_wo_entrp">   -288.97032947 </i>
    <i name="e_0_energy">   -288.97032947 </i>
   </energy>
  </scstep>
  <scstep>
   <time name="dav">   75.73   75.72</time>
   <time name="total">   76.50   76.50</time>
   <energy>
    <i name="e_fr_energy">   -288.49730923 </i>
    <i name="e_wo_entrp">   -288.49730923 </i>
    <i name="e_0_energy">   -288.49730923 </i>
   </energy>
  </scstep>
  <scstep>
   <time name="dav">   71.66   71.76</time>
   <time name="total">   72.44   72.54</time>
   <energy>
    <i name="e_fr_energy">   -288.51807484 </i>
    <i name="e_wo_entrp">   -288.51807484 </i>
    <i name="e_0_energy">   -288.51807484 </i>
   </energy>
  </scstep>
  <scstep>
   <time name="dav">   83.16   83.28</time>
   <time name="total">   84.02   84.14</time>
   <energy>
    <i name="e_fr_energy">   -288.52235091 </i>
    <i name="e_wo_entrp">   -288.52235091 </i>
    <i name="e_0_energy">   -288.52235091 </i>
   </energy>
  </scstep>
  <scstep>
   <time name="dav">   78.67   78.67</time>
   <time name="total">   79.45   79.45</time>
   <energy>
    <i name="e_fr_energy">   -288.52496862 </i>
    <i name="e_wo_entrp">   -288.52496862 </i>
    <i name="e_0_energy">   -288.52496862 </i>
   </energy>
  </scstep>
  <scstep>
   <time name="dav">   73.13   73.55</time>
   <time name="total">   73.91   74.33</time>
   <energy>
    <i name="e_fr_energy">   -288.52671811 </i>
    <i name="e_wo_entrp">   -288.52671811 </i>
    <i name="e_0_energy">   -288.52671811 </i>
   </energy>
  </scstep>
  <scstep>
   <time name="dav">   83.10   83.21</time>
   <time name="total">   83.88   84.00</time>
   <energy>
    <i name="e_fr_energy">   -288.52692827 </i>
    <i name="e_wo_entrp">   -288.52692827 </i>
    <i name="e_0_energy">   -288.52692827 </i>
   </energy>
  </scstep>
  <scstep>
   <time name="dav">   73.21   73.23</time>
   <time name="total">   73.98   74.01</time>
   <energy>
    <i name="e_fr_energy">   -288.52696861 </i>
    <i name="e_wo_entrp">   -288.52696861 </i>
    <i name="e_0_energy">   -288.52696861 </i>
   </energy>
  </scstep>
  <scstep>
   <time name="dav">   72.22   72.31</time>
   <time name="total">   73.03   73.12</time>
   <energy>
    <i name="e_fr_energy">   -288.52699104 </i>
    <i name="e_wo_entrp">   -288.52699104 </i>
    <i name="e_0_energy">   -288.52699104 </i>
   </energy>
  </scstep>
  <scstep>
   <time name="dav">   67.97   67.98</time>
   <time name="total">   68.75   68.76</time>
   <energy>
    <i name="e_fr_energy">   -288.52699515 </i>
    <i name="e_wo_entrp">   -288.52699515 </i>
    <i name="e_0_energy">   -288.52699515 </i>
   </energy>
  </scstep>
  <scstep>
   <time name="dav">   64.48   64.59</time>
   <time name="total">   64.55   64.66</time>
   <energy>
    <i name="alphaZ">   1060.66890660 </i>
    <i name="ewald"> -30397.43181190 </i>
    <i name="hartreedc"> -12953.07529639 </i>
    <i name="XCdc">   1271.84355844 </i>
    <i name="pawpsdc">  43649.65881138 </i>
    <i name="pawaedc"> -42960.24757415 </i>
    <i name="eentropy">      0.00000000 </i>
    <i name="bandstr">  -3985.97617993 </i>
    <i name="atom">  44026.03258983 </i>
    <i name="e_fr_energy">   -288.52699613 </i>
    <i name="e_wo_entrp">   -288.52699613 </i>
    <i name="e_0_energy">   -288.52699613 </i>
   </energy>
  </scstep>
  <structure>
   <crystal>
    <varray name="basis" >
     <v>      11.17850000       0.00000000       0.00000000 </v>
     <v>       0.00000000       9.57460000       0.00000000 </v>
     <v>       0.00000000       0.00000000      11.18240000 </v>
    </varray>
    <i name="volume">   1196.84853820 </i>
    <varray name="rec_basis" >
     <v>       0.08945744       0.00000000       0.00000000 </v>
     <v>       0.00000000       0.10444301       0.00000000 </v>
     <v>       0.00000000       0.00000000       0.08942624 </v>
    </varray>
   </crystal>
   <varray name="positions" >
    <v>       0.12461000       0.99984000       0.18687000 </v>
    <v>       0.62461000       0.99984000       0.18687000 </v>
    <v>       0.12539000       0.99984000       0.93687000 </v>
    <v>       0.37539000       0.00017000       0.93687000 </v>
    <v>       0.12461000       0.99984000       0.68687000 </v>
    <v>       0.62539000       0.99984000       0.93687000 </v>
    <v>       0.37461000       0.00017000       0.18687000 </v>
    <v>       0.62539000       0.99984000       0.43687000 </v>
    <v>       0.87539000       0.00017000       0.43687000 </v>
    <v>       0.37461000       0.00017000       0.68687000 </v>
    <v>       0.87539000       0.00017000       0.93687000 </v>
    <v>       0.00013000       0.29519000       0.06281000 </v>
    <v>       0.25013000       0.70481000       0.06281000 </v>
    <v>       0.24987000       0.29519000       0.31282000 </v>
    <v>       0.49987000       0.70481000       0.31282000 </v>
    <v>       0.50013000       0.29519000       0.06281000 </v>
    <v>       0.75013000       0.70481000       0.06281000 </v>
    <v>       0.74987000       0.29519000       0.31282000 </v>
    <v>       0.99987000       0.70481000       0.31282000 </v>
    <v>       0.00013000       0.29519000       0.56281000 </v>
    <v>       0.25013000       0.70481000       0.56281000 </v>
    <v>       0.24987000       0.29519000       0.81282000 </v>
    <v>       0.49987000       0.70481000       0.81282000 </v>
    <v>       0.50013000       0.29519000       0.56281000 </v>
    <v>       0.75013000       0.70481000       0.56281000 </v>
    <v>       0.74987000       0.29519000       0.81282000 </v>
    <v>       0.99987000       0.70481000       0.81282000 </v>
    <v>       0.25005000       0.32677000       0.06286000 </v>
    <v>       0.00005000       0.67323000       0.06286000 </v>
    <v>       0.49995000       0.32677000       0.31286000 </v>
    <v>       0.24995000       0.67323000       0.31286000 </v>
    <v>       0.75005000       0.32677000       0.06286000 </v>
    <v>       0.50005000       0.67323000       0.06286000 </v>
    <v>       0.99995000       0.32677000       0.31286000 </v>
    <v>       0.74995000       0.67323000       0.31286000 </v>
    <v>       0.25005000       0.32677000       0.56286000 </v>
    <v>       0.00005000       0.67323000       0.56286000 </v>
    <v>       0.49995000       0.32677000       0.81286000 </v>
    <v>       0.24995000       0.67323000       0.81286000 </v>
    <v>       0.75005000       0.32677000       0.56286000 </v>
    <v>       0.50005000       0.67323000       0.56286000 </v>
    <v>       0.99995000       0.32677000       0.81286000 </v>
    <v>       0.74995000       0.67323000       0.81286000 </v>
    <v>       0.49987000       0.07798000       0.06246000 </v>
    <v>       0.24987000       0.92202000       0.06246000 </v>
    <v>       0.25013000       0.07798000       0.31246000 </v>
    <v>       0.00013000       0.92202000       0.31246000 </v>
    <v>       0.99987000       0.07798000       0.06246000 </v>
    <v>       0.74987000       0.92202000       0.06246000 </v>
    <v>       0.75013000       0.07798000       0.31246000 </v>
    <v>       0.50013000       0.92202000       0.31246000 </v>
    <v>       0.49987000       0.07798000       0.56246000 </v>
    <v>       0.24987000       0.92202000       0.56246000 </v>
    <v>       0.25013000       0.07798000       0.81246000 </v>
    <v>       0.00013000       0.92202000       0.81246000 </v>
    <v>       0.99987000       0.07798000       0.56246000 </v>
    <v>       0.74987000       0.92202000       0.56246000 </v>
    <v>       0.75013000       0.07798000       0.81246000 </v>
    <v>       0.50013000       0.92202000       0.81246000 </v>
   </varray>
  </structure>
  <varray name="forces" >
   <v>      -0.69293875       0.06830793       0.68790566 </v>
   <v>       0.71066966      -0.06716142      -0.28944570 </v>
   <v>      -0.06830370       0.00432765      -0.02101824 </v>
   <v>       0.13122331      -0.06432055      -0.20444961 </v>
   <v>      -0.68791998      -0.06340423      -0.67838000 </v>
   <v>       0.05496501      -0.00676843      -0.53076338 </v>
   <v>      -0.44212743       0.22116451       1.12467894 </v>
   <v>      -1.12915409       0.01036722       1.10739163 </v>
   <v>       1.77227605      -0.12251323       0.31694694 </v>
   <v>       0.57565180      -0.22888812      -1.05835528 </v>
   <v>      -0.17509125       0.11084590      -0.23446951 </v>
   <v>      -0.10392855      -0.00555538       0.22283397 </v>
   <v>      -0.27939981      -1.08265944      -0.00676807 </v>
   <v>      -0.29209348      -0.94698158       0.49431642 </v>
   <v>      -0.23361449      -1.00349349       0.29478275 </v>
   <v>       0.12249670       1.09309375      -0.15289553 </v>
   <v>       0.23527107       0.00394309       0.08001738 </v>
   <v>       0.39731245       1.05891273      -0.17360953 </v>
   <v>       0.16349860       1.03525363       0.10280160 </v>
   <v>       0.10625327      -1.04746347       0.01860631 </v>
   <v>      -0.27121148       0.95648337      -0.37109020 </v>
   <v>      -0.22459670       1.05842542      -0.14316845 </v>
   <v>       0.27543385      -0.01597502      -0.21086686 </v>
   <v>      -0.05968438      -0.09515410       0.05451279 </v>
   <v>       0.20209176      -0.02004272       0.48175674 </v>
   <v>       0.08236032      -0.97595635      -0.39823239 </v>
   <v>      -0.11918178      -0.01244386      -0.37175624 </v>
   <v>       0.21084379       0.12930668      -0.14047928 </v>
   <v>       0.06691486      -0.13930113      -0.15639521 </v>
   <v>       0.17986114       0.05978420      -0.19123647 </v>
   <v>       0.30835704      -0.09071696      -0.34236029 </v>
   <v>      -0.14448917       0.13916039       0.12679784 </v>
   <v>      -0.13567615      -0.06771774       0.11966905 </v>
   <v>      -0.21956072       0.16013818      -0.13073258 </v>
   <v>      -0.27390598      -0.11463129       0.02177568 </v>
   <v>       0.20941413       0.13170697       0.27107645 </v>
   <v>      -0.13881445      -0.19794256       0.06338754 </v>
   <v>      -0.23665759       0.09566964       0.14951840 </v>
   <v>       0.11411737      -0.17716577       0.21771585 </v>
   <v>      -0.16877570       0.11065843      -0.30775144 </v>
   <v>       0.09067422      -0.10173271      -0.08034328 </v>
   <v>       0.16079500       0.17731732       0.22522521 </v>
   <v>      -0.02639832      -0.12986722       0.15196844 </v>
   <v>      -0.55043004      -0.92350134       0.53751645 </v>
   <v>       0.65017777       0.83581874       0.29695577 </v>
   <v>       0.64210031       0.64162631      -1.83055992 </v>
   <v>      -0.57636639      -0.98593606       0.34810124 </v>
   <v>       0.24665853       0.02680749      -1.13716925 </v>
   <v>      -0.29944471      -0.02946790      -0.93259676 </v>
   <v>      -0.84103371      -0.78157828       1.37942176 </v>
   <v>       0.72361768       0.72767769      -0.80022796 </v>
   <v>       0.08985430       0.28407361      -0.09741726 </v>
   <v>       0.55540110      -0.72105505       1.75588610 </v>
   <v>       0.54341451      -0.76767164      -0.22308400 </v>
   <v>       0.28370997      -0.06811732       1.20804584 </v>
   <v>      -0.51538723       1.03408908      -0.42407656 </v>
   <v>      -0.13557304       0.08457305      -2.21893006 </v>
   <v>       0.36885533       0.74168235       1.69819570 </v>
   <v>      -1.23251183       0.05396900       0.30082085 </v>
  </varray>
  <varray name="stress" >
   <v>      -1.71857641       0.22214868       0.78555224 </v>
   <v>       0.22214864     -13.49321308      -0.39271794 </v>
   <v>       0.78555232      -0.39271789     -12.30694975 </v>
  </varray>
  <energy>
   <i name="e_fr_energy">   -301.07477684 </i>
   <i name="e_wo_entrp">   -301.07477684 </i>
   <i name="e_0_energy">      0.00000000 </i>
  </energy>
  <time name="totalsc"> 1463.58 1465.40</time>
 </calculation>
 <calculation>
  <scstep>
   <time name="dav">   61.00   61.22</time>
   <time name="total">   61.78   62.01</time>
   <energy>
    <i name="alphaZ">   1078.71654182 </i>
    <i name="ewald"> -30548.37026594 </i>
    <i name="hartreedc"> -13034.78715524 </i>
    <i name="XCdc">   1281.62174759 </i>
    <i name="pawpsdc">  43649.30181240 </i>
    <i name="pawaedc"> -42959.88782630 </i>
    <i name="eentropy">      0.00000000 </i>
    <i name="bandstr">  -3781.28556385 </i>
    <i name="atom">  44026.03258983 </i>
    <i name="e_fr_energy">   -288.65811969 </i>
    <i name="e_wo_entrp">   -288.65811969 </i>
    <i name="e_0_energy">   -288.65811969 </i>
   </energy>
  </scstep>
  <scstep>
   <time name="dav">   67.84   68.14</time>
   <time name="total">   68.63   68.93</time>
   <energy>
    <i name="e_fr_energy">   -290.39509882 </i>
    <i name="e_wo_entrp">   -290.39509882 </i>
    <i name="e_0_energy">   -290.39509882 </i>
   </energy>
  </scstep>
  <scstep>
   <time name="dav">   88.12   88.51</time>
   <time name="total">   88.90   89.30</time>
   <energy>
    <i name="e_fr_energy">   -290.16441590 </i>
    <i name="e_wo_entrp">   -290.16441590 </i>
    <i name="e_0_energy">   -290.16441590 </i>
   </energy>
  </scstep>
  <scstep>
   <time name="dav">   76.52   76.80</time>
   <time name="total">   77.30   77.58</time>
   <energy>
    <i name="e_fr_energy">   -290.05195440 </i>
    <i name="e_wo_entrp">   -290.05195440 </i>
    <i name="e_0_energy">   -290.05195440 </i>
   </energy>
  </scstep>
  <scstep>
   <time name="dav">   70.96   71.55</time>
   <time name="total">   71.74   72.33</time>
   <energy>
    <i name="e_fr_energy">   -290.05502358 </i>
    <i name="e_wo_entrp">   -290.05502358 </i>
    <i name="e_0_energy">   -290.05502358 </i>
   </energy>
  </scstep>
  <scstep>
   <time name="dav">   79.41   79.70</time>
   <time name="total">   80.19   80.49</time>
   <energy>
    <i name="e_fr_energy">   -290.05365124 </i>
    <i name="e_wo_entrp">   -290.05365124 </i>
    <i name="e_0_energy">   -290.05365124 </i>
   </energy>
  </scstep>
  <scstep>
   <time name="dav">   78.59   78.87</time>
   <time name="total">   79.38   79.66</time>
   <energy>
    <i name="e_fr_energy">   -290.05324098 </i>
    <i name="e_wo_entrp">   -290.05324098 </i>
    <i name="e_0_energy">   -290.05324098 </i>
   </energy>
  </scstep>
  <scstep>
   <time name="dav">   94.55   94.89</time>
   <time name="total">   95.33   95.68</time>
   <energy>
    <i name="e_fr_energy">   -290.05327398 </i>
    <i name="e_wo_entrp">   -290.05327398 </i>
    <i name="e_0_energy">   -290.05327398 </i>
   </energy>
  </scstep>
  <scstep>
   <time name="dav">   72.48   72.74</time>
   <time name="total">   73.27   73.53</time>
   <energy>
    <i name="e_fr_energy">   -290.05331442 </i>
    <i name="e_wo_entrp">   -290.05331442 </i>
    <i name="e_0_energy">   -290.05331442 </i>
   </energy>
  </scstep>
  <scstep>
   <time name="dav">   83.93   84.26</time>
   <time name="total">   84.72   85.06</time>
   <energy>
    <i name="e_fr_energy">   -290.05332026 </i>
    <i name="e_wo_entrp">   -290.05332026 </i>
    <i name="e_0_energy">   -290.05332026 </i>
   </energy>
  </scstep>
  <scstep>
   <time name="dav">   68.20   68.48</time>
   <time name="total">   69.00   69.29</time>
   <energy>
    <i name="e_fr_energy">   -290.05331990 </i>
    <i name="e_wo_entrp">   -290.05331990 </i>
    <i name="e_0_energy">   -290.05331990 </i>
   </energy>
  </scstep>
  <scstep>
   <time name="dav">   60.77   60.98</time>
   <time name="total">   60.84   61.06</time>
   <energy>
    <i name="alphaZ">   1078.71654182 </i>
    <i name="ewald"> -30548.37026594 </i>
    <i name="hartreedc"> -12885.57165680 </i>
    <i name="XCdc">   1274.97117536 </i>
    <i name="pawpsdc">  44030.66454062 </i>
    <i name="pawaedc"> -43344.06595889 </i>
    <i name="eentropy">      0.00000000 </i>
    <i name="bandstr">  -3922.43028606 </i>
    <i name="atom">  44026.03258983 </i>
    <i name="e_fr_energy">   -290.05332007 </i>
    <i name="e_wo_entrp">   -290.05332007 </i>
    <i name="e_0_energy">   -290.05332007 </i>
   </energy>
  </scstep>
  <structure>
   <crystal>
    <varray name="basis" >
     <v>      11.16676562       0.00151682       0.00536372 </v>
     <v>       0.00129919       9.49568786      -0.00229673 </v>
     <v>       0.00536560      -0.00268240      11.09833925 </v>
    </varray>
    <i name="volume">   1176.82447720 </i>
    <varray name="rec_basis" >
     <v>       0.08955147      -0.00001226      -0.00004330 </v>
     <v>      -0.00001432       0.10531097       0.00002546 </v>
     <v>      -0.00004328       0.00002180       0.09010360 </v>
    </varray>
   </crystal>
   <varray name="positions" >
    <v>       0.12161951       0.00018418       0.18983773 </v>
    <v>       0.62767701       0.99950160       0.18562129 </v>
    <v>       0.12509522       0.99986181       0.93677932 </v>
    <v>       0.37595632      -0.00015409       0.93598797 </v>
    <v>       0.12164117       0.99952053       0.68394336 </v>
    <v>       0.62562721       0.99980590       0.93458020 </v>
    <v>       0.37270193       0.00128436       0.19172204 </v>
    <v>       0.62051695       0.99989224       0.44164746 </v>
    <v>       0.88303855      -0.00044730       0.43823736 </v>
    <v>       0.37709432      -0.00098328       0.68230409 </v>
    <v>       0.87463436       0.00072851       0.93585846 </v>
    <v>      -0.00031852       0.29516201       0.06377134 </v>
    <v>       0.24892420       0.69935490       0.06278080 </v>
    <v>       0.24860942       0.29041853       0.31495256 </v>
    <v>       0.49886180       0.69975379       0.31409174 </v>
    <v>       0.50065865       0.30069767       0.06215038 </v>
    <v>       0.75114535       0.70482987       0.06315521 </v>
    <v>       0.75158467       0.30052545       0.31207102 </v>
    <v>       0.00057561       0.71002624       0.31326350 </v>
    <v>       0.00058855       0.28991224       0.56289027 </v>
    <v>       0.24895954       0.70962934       0.56120906 </v>
    <v>       0.24890072       0.30052299       0.81220235 </v>
    <v>       0.50105868       0.70472951       0.81191029 </v>
    <v>       0.49987242       0.29471056       0.56304518 </v>
    <v>       0.75100216       0.70470901       0.56488838 </v>
    <v>       0.75022544       0.29027254       0.81110196 </v>
    <v>       0.99935565       0.70474730       0.81121618 </v>
    <v>       0.25095993       0.32742153       0.06225395 </v>
    <v>       0.00033878       0.67252812       0.06218529 </v>
    <v>       0.50072622       0.32707123       0.31203498 </v>
    <v>       0.25128077       0.67277291       0.31138300 </v>
    <v>       0.74942643       0.32747117       0.06340703 </v>
    <v>       0.49946447       0.67288880       0.06337627 </v>
    <v>       0.99900245       0.32757687       0.31229600 </v>
    <v>       0.74876791       0.67265242       0.31295394 </v>
    <v>       0.25095376       0.32743362       0.56402947 </v>
    <v>      -0.00054908       0.67223265       0.56313346 </v>
    <v>       0.49892867       0.32725204       0.81350505 </v>
    <v>       0.25044249       0.67233733       0.81379926 </v>
    <v>       0.74932162       0.32732756       0.56153231 </v>
    <v>       0.50044132       0.67271741       0.56251339 </v>
    <v>       0.00064394       0.32766343       0.81383166 </v>
    <v>       0.74983607       0.67257565       0.81351562 </v>
    <v>       0.49749453       0.07332684       0.06477893 </v>
    <v>       0.25267595       0.92623136       0.06374111 </v>
    <v>       0.25290109       0.08121290       0.30456267 </v>
    <v>      -0.00235740       0.91705225       0.31396176 </v>
    <v>       0.00093450       0.07811507       0.05755407 </v>
    <v>       0.74857770       0.92187152       0.05843663 </v>
    <v>       0.74650038       0.07404193       0.31841105 </v>
    <v>       0.50325289       0.92568648       0.30900769 </v>
    <v>       0.50025778       0.07941134       0.56203973 </v>
    <v>       0.25226692       0.91838689       0.57003517 </v>
    <v>       0.25247519       0.07411200       0.81149758 </v>
    <v>       0.00135440       0.92167678       0.81767170 </v>
    <v>       0.99764576       0.08319037       0.56063047 </v>
    <v>       0.74928491       0.92244613       0.55288718 </v>
    <v>       0.75172186       0.08171705       0.81978629 </v>
    <v>       0.49481089       0.92229193       0.81375779 </v>
   </varray>
  </structure>
  <varray name="forces" >
   <v>      -0.48718460       0.04093103       0.38153477 </v>
   <v>       0.52058519      -0.02289604      -0.13513180 </v>
   <v>       0.11440810       0.00415105       0.00232025 </v>
   <v>       0.02287902      -0.02771133      -0.04423418 </v>
   <v>      -0.42840029      -0.03362115      -0.37938014 </v>
   <v>      -0.11933008      -0.01128960      -0.33662377 </v>
   <v>       0.19721260      -0.06542605       0.33726559 </v>
   <v>      -0.55530571       0.00145996       0.35473404 </v>
   <v>       0.42064490      -0.02195750       0.01226846 </v>
   <v>       0.40316076      -0.01516945      -0.33238159 </v>
   <v>       0.02803914      -0.01253955       0.04345139 </v>
   <v>      -0.02878138       0.26911007       0.06705371 </v>
   <v>      -0.05820352       0.05256402      -0.09244829 </v>
   <v>      -0.10593279       0.78270905       0.28639506 </v>
   <v>      -0.01550203      -0.04387044       0.02328293 </v>
   <v>      -0.00522983      -0.12636247      -0.03751924 </v>
   <v>       0.07812838      -0.27446078       0.14639150 </v>
   <v>       0.10754077      -0.13987444      -0.05856933 </v>
   <v>       0.03131578      -1.34437232      -0.05280926 </v>
   <v>       0.04086162       1.43546336       0.09619207 </v>
   <v>      -0.15308079      -0.89177577      -0.22534690 </v>
   <v>      -0.07916158      -0.02365236       0.01702588 </v>
   <v>       0.07586830      -0.19816167      -0.00329516 </v>
   <v>       0.01443741       0.68323288       0.00328613 </v>
   <v>       0.08619986      -0.08099685       0.19233850 </v>
   <v>       0.00897951       0.90192743      -0.31646808 </v>
   <v>       0.00146194      -0.33513627      -0.12392197 </v>
   <v>       0.09752813       0.25045486      -0.01652561 </v>
   <v>       0.01652346      -0.14952572      -0.07905785 </v>
   <v>       0.03560456       0.16420360      -0.06538013 </v>
   <v>       0.16244867      -0.05460932      -0.17295693 </v>
   <v>      -0.04641116       0.16094341       0.00835568 </v>
   <v>      -0.06488021      -0.20810371       0.05046998 </v>
   <v>      -0.09109117       0.07303195      -0.02187209 </v>
   <v>      -0.12231609      -0.24374129       0.02867540 </v>
   <v>       0.12651351       0.07737271       0.14700668 </v>
   <v>      -0.08367403      -0.09057923       0.00009820 </v>
   <v>      -0.10745087       0.11859680       0.03335224 </v>
   <v>       0.05870871      -0.28151567       0.05411806 </v>
   <v>      -0.08129910       0.14846813      -0.16009683 </v>
   <v>       0.02658058      -0.05600465      -0.02280715 </v>
   <v>       0.04571114       0.17527266       0.10287183 </v>
   <v>       0.01633340      -0.08900418       0.10117220 </v>
   <v>      -0.28046349       0.37107354       0.30659130 </v>
   <v>       0.25969975      -0.34231237       0.29664629 </v>
   <v>       0.07653476      -0.74404231      -1.05231131 </v>
   <v>      -0.24424911       1.24076485       0.22931812 </v>
   <v>       0.18083656      -0.17456776      -0.75116101 </v>
   <v>      -0.16892613       0.17617928      -0.78330632 </v>
   <v>      -0.38345837       0.43337414       0.99260466 </v>
   <v>       0.42876593      -0.33262305      -0.38051643 </v>
   <v>      -0.07594244      -0.30279133       0.04351577 </v>
   <v>       0.23990951       0.90752970       1.15970091 </v>
   <v>       0.32880805       0.29744949      -0.34479112 </v>
   <v>       0.20324198       0.18557140       0.73014229 </v>
   <v>      -0.20600930      -1.30569648      -0.22540985 </v>
   <v>       0.10499696      -0.07460404      -1.33276122 </v>
   <v>       0.20853608      -0.95032524       1.20536687 </v>
   <v>      -0.77672095       0.11748504       0.09353678 </v>
  </varray>
  <varray name="stress" >
   <v>       4.08034923      -0.60897986      -0.39899588 </v>
   <v>      -0.60897978       9.79762576       1.00597180 </v>
   <v>      -0.39899606       1.00597157       9.78648562 </v>
  </varray>
  <energy>
   <i name="e_fr_energy">   -302.77885250 </i>
   <i name="e_wo_entrp">   -302.77885250 </i>
   <i name="e_0_energy">      0.00000000 </i>
  </energy>
  <time name="totalsc"> 1018.08 1022.21</time>
 </calculation>
 <calculation>
  <scstep>
   <time name="dav">   65.51   65.74</time>
   <time name="total">   66.29   66.52</time>
   <energy>
    <i name="alphaZ">   1081.45806712 </i>
    <i name="ewald"> -30568.96609822 </i>
    <i name="hartreedc"> -12899.82078480 </i>
    <i name="XCdc">   1276.47156610 </i>
    <i name="pawpsdc">  44030.64361154 </i>
    <i name="pawaedc"> -43344.04795516 </i>
    <i name="eentropy">      0.00000000 </i>
    <i name="bandstr">  -3891.79560775 </i>
    <i name="atom">  44026.03258983 </i>
    <i name="e_fr_energy">   -290.02461134 </i>
    <i name="e_wo_entrp">   -290.02461134 </i>
    <i name="e_0_energy">   -290.02461134 </i>
   </energy>
  </scstep>
  <scstep>
   <time name="dav">   67.49   67.74</time>
   <time name="total">   68.27   68.52</time>
   <energy>
    <i name="e_fr_energy">   -290.05427436 </i>
    <i name="e_wo_entrp">   -290.05427436 </i>
    <i name="e_0_energy">   -290.05427436 </i>
   </energy>
  </scstep>
  <scstep>
   <time name="dav">   87.21   87.24</time>
   <time name="total">   88.08   88.12</time>
   <energy>
    <i name="e_fr_energy">   -290.04885888 </i>
    <i name="e_wo_entrp">   -290.04885888 </i>
    <i name="e_0_energy">   -290.04885888 </i>
   </energy>
  </scstep>
  <scstep>
   <time name="dav">   74.49   74.51</time>
   <time name="total">   75.27   75.30</time>
   <energy>
    <i name="e_fr_energy">   -290.04706668 </i>
    <i name="e_wo_entrp">   -290.04706668 </i>
    <i name="e_0_energy">   -290.04706668 </i>
   </energy>
  </scstep>
  <scstep>
   <time name="dav">   76.53   76.55</time>
   <time name="total">   77.36   77.38</time>
   <energy>
    <i name="e_fr_energy">   -290.04714063 </i>
    <i name="e_wo_entrp">   -290.04714063 </i>
    <i name="e_0_energy">   -290.04714063 </i>
   </energy>
  </scstep>
  <scstep>
   <time name="dav">   80.38   80.39</time>
   <time name="total">   81.16   81.18</time>
   <energy>
    <i name="e_fr_energy">   -290.04713632 </i>
    <i name="e_wo_entrp">   -290.04713632 </i>
    <i name="e_0_energy">   -290.04713632 </i>
   </energy>
  </scstep>
  <scstep>
   <time name="dav">   75.18   75.21</time>
   <time name="total">   75.96   75.99</time>
   <energy>
    <i name="e_fr_energy">   -290.04713879 </i>
    <i name="e_wo_entrp">   -290.04713879 </i>
    <i name="e_0_energy">   -290.04713879 </i>
   </energy>
  </scstep>
  <scstep>
   <time name="dav">   86.86   86.88</time>
   <time name="total">   87.64   87.67</time>
   <energy>
    <i name="e_fr_energy">   -290.04714279 </i>
    <i name="e_wo_entrp">   -290.04714279 </i>
    <i name="e_0_energy">   -290.04714279 </i>
   </energy>
  </scstep>
  <scstep>
   <time name="dav">   65.46   65.49</time>
   <time name="total">   66.27   66.31</time>
   <energy>
    <i name="e_fr_energy">   -290.04714389 </i>
    <i name="e_wo_entrp">   -290.04714389 </i>
    <i name="e_0_energy">   -290.04714389 </i>
   </energy>
  </scstep>
  <scstep>
   <time name="dav">   46.65   46.67</time>
   <time name="total">   46.71   46.74</time>
   <energy>
    <i name="alphaZ">   1081.45806712 </i>
    <i name="ewald"> -30568.96609822 </i>
    <i name="hartreedc"> -12877.20686990 </i>
    <i name="XCdc">   1275.45828479 </i>
    <i name="pawpsdc">  44096.37395740 </i>
    <i name="pawaedc"> -43410.34419482 </i>
    <i name="eentropy">      0.00000000 </i>
    <i name="bandstr">  -3912.85288041 </i>
    <i name="atom">  44026.03258983 </i>
    <i name="e_fr_energy">   -290.04714420 </i>
    <i name="e_wo_entrp">   -290.04714420 </i>
    <i name="e_0_energy">   -290.04714420 </i>
   </energy>
  </scstep>
  <structure>
   <crystal>
    <varray name="basis" >
     <v>      11.16500795       0.00174403       0.00616715 </v>
     <v>       0.00149379       9.48386774      -0.00264075 </v>
     <v>       0.00616930      -0.00308419      11.08574793 </v>
    </varray>
    <i name="volume">   1173.84119548 </i>
    <varray name="rec_basis" >
     <v>       0.08956557      -0.00001412      -0.00004985 </v>
     <v>      -0.00001649       0.10544222       0.00002934 </v>
     <v>      -0.00004983       0.00002513       0.09020595 </v>
    </varray>
   </crystal>
   <varray name="positions" >
    <v>       0.12117088       0.00023636       0.19028586 </v>
    <v>       0.62813699       0.99945036       0.18543259 </v>
    <v>       0.12505103       0.99986510       0.93676566 </v>
    <v>       0.37604130      -0.00020308       0.93585480 </v>
    <v>       0.12119622       0.99947223       0.68350187 </v>
    <v>       0.62566295       0.99980064       0.93423460 </v>
    <v>       0.37241545       0.00145292       0.19245450 </v>
    <v>       0.61978591       0.99990045       0.44236885 </v>
    <v>       0.88418533      -0.00054065       0.43844315 </v>
    <v>       0.37746718      -0.00115771       0.68161477 </v>
    <v>       0.87452112       0.00081284       0.93570587 </v>
    <v>      -0.00038584       0.29515783       0.06391646 </v>
    <v>       0.24874350       0.69853103       0.06277631 </v>
    <v>       0.24842033       0.28969800       0.31527435 </v>
    <v>       0.49871062       0.69899021       0.31428359 </v>
    <v>       0.50073788       0.30152947       0.06205097 </v>
    <v>       0.75129757       0.70483286       0.06320723 </v>
    <v>       0.75184173       0.30133120       0.31195803 </v>
    <v>       0.00068128       0.71081406       0.31333055 </v>
    <v>       0.00065740       0.28911512       0.56290219 </v>
    <v>       0.24878407       0.71035719       0.56096767 </v>
    <v>       0.24875533       0.30132845       0.81210937 </v>
    <v>       0.50123699       0.70471728       0.81177290 </v>
    <v>       0.49983379       0.29463816       0.56308067 </v>
    <v>       0.75113279       0.70469383       0.56520198 </v>
    <v>       0.75027895       0.28952976       0.81084249 </v>
    <v>       0.99927864       0.70473777       0.81097417 </v>
    <v>       0.25109640       0.32751988       0.06216244 </v>
    <v>       0.00038215       0.67242207       0.06208341 </v>
    <v>       0.50084267       0.32711667       0.31191041 </v>
    <v>       0.25148042       0.67270378       0.31115998 </v>
    <v>       0.74933288       0.32757711       0.06348965 </v>
    <v>       0.49937664       0.67283730       0.06345422 </v>
    <v>       0.99886040       0.32769874       0.31221097 </v>
    <v>       0.74859067       0.67256522       0.31296819 </v>
    <v>       0.25108918       0.32753388       0.56420592 </v>
    <v>      -0.00063891       0.67208204       0.56317475 </v>
    <v>       0.49877547       0.32732490       0.81360249 </v>
    <v>       0.25051629       0.67220254       0.81394095 </v>
    <v>       0.74921249       0.32741174       0.56133200 </v>
    <v>       0.50050003       0.67263997       0.56246103 </v>
    <v>       0.00074790       0.32779840       0.81397828 </v>
    <v>       0.74981895       0.67247685       0.81361455 </v>
    <v>       0.49713825       0.07262421       0.06512894 </v>
    <v>       0.25309652       0.92686741       0.06393439 </v>
    <v>       0.25331712       0.08170078       0.30337069 </v>
    <v>      -0.00273040       0.91630208       0.31418844 </v>
    <v>       0.00109447       0.07813524       0.05681358 </v>
    <v>       0.74838422       0.92184896       0.05782950 </v>
    <v>       0.74595577       0.07344750       0.31930933 </v>
    <v>       0.50372134       0.92624002       0.30848654 </v>
    <v>       0.50031593       0.07962749       0.56197631 </v>
    <v>       0.25262585       0.91783843       0.57117815 </v>
    <v>       0.25282698       0.07352771       0.81135204 </v>
    <v>       0.00153762       0.92162514       0.81845817 </v>
    <v>       0.99731229       0.08397728       0.56035467 </v>
    <v>       0.74919787       0.92251010       0.55144248 </v>
    <v>       0.75195995       0.08228174       0.82089199 </v>
    <v>       0.49401322       0.92233318       0.81395405 </v>
   </varray>
  </structure>
  <varray name="forces" >
   <v>      -0.45701110       0.03804165       0.33403837 </v>
   <v>       0.49353056      -0.01536560      -0.11272941 </v>
   <v>       0.14480344       0.00435523       0.00596661 </v>
   <v>       0.00429139      -0.02072870      -0.01781392 </v>
   <v>      -0.39097826      -0.03002686      -0.33303366 </v>
   <v>      -0.14720916      -0.01362984      -0.30607288 </v>
   <v>       0.32469204      -0.13072453       0.19295571 </v>
   <v>      -0.47868348      -0.00535699       0.22707842 </v>
   <v>       0.21398040      -0.01165809      -0.03275276 </v>
   <v>       0.38831380       0.02185915      -0.21401965 </v>
   <v>       0.06494829      -0.03681175       0.09300220 </v>
   <v>      -0.01807291       0.31116941       0.04256171 </v>
   <v>      -0.02427568       0.19059625      -0.10487732 </v>
   <v>      -0.08485220       1.10059548       0.27034391 </v>
   <v>       0.01894892       0.07438053      -0.02083863 </v>
   <v>      -0.02493255      -0.27344526      -0.01838037 </v>
   <v>       0.05526540      -0.31768528       0.15738926 </v>
   <v>       0.06035193      -0.28819202      -0.03853606 </v>
   <v>       0.02047536      -1.82685342      -0.08145386 </v>
   <v>       0.03898555       1.94159417       0.11459945 </v>
   <v>      -0.14135323      -1.23859034      -0.21964044 </v>
   <v>      -0.05628733      -0.15624293       0.04262876 </v>
   <v>       0.04620164      -0.22437694       0.02917424 </v>
   <v>       0.02578442       0.81217915      -0.00394895 </v>
   <v>       0.06799258      -0.08440533       0.14742110 </v>
   <v>      -0.00506042       1.25769914      -0.32044568 </v>
   <v>       0.01922582      -0.38433360      -0.08422828 </v>
   <v>       0.08047357       0.26799503       0.00321063 </v>
   <v>       0.00819280      -0.15065718      -0.06706617 </v>
   <v>       0.01371960       0.17880129      -0.04509470 </v>
   <v>       0.13972236      -0.04775604      -0.14550601 </v>
   <v>      -0.03147106       0.16449597      -0.01156816 </v>
   <v>      -0.05440827      -0.22745590       0.03928686 </v>
   <v>      -0.06964270       0.05845843      -0.00300499 </v>
   <v>      -0.09976014      -0.26168795       0.03004970 </v>
   <v>       0.11431016       0.06777883       0.12653266 </v>
   <v>      -0.07527264      -0.07230144      -0.01214008 </v>
   <v>      -0.08816797       0.12107585       0.01433005 </v>
   <v>       0.05043914      -0.29672428       0.02737422 </v>
   <v>      -0.06799019       0.15290139      -0.13697070 </v>
   <v>       0.01665818      -0.04817351      -0.01235484 </v>
   <v>       0.02710835       0.17424569       0.08365914 </v>
   <v>       0.02315286      -0.08314410       0.09446440 </v>
   <v>      -0.23709523       0.53143657       0.26866626 </v>
   <v>       0.19657659      -0.48983615       0.29365603 </v>
   <v>      -0.03355526      -0.98493869      -0.92503037 </v>
   <v>      -0.19725838       1.69138744       0.20899634 </v>
   <v>       0.17030935      -0.20368510      -0.69091782 </v>
   <v>      -0.15097020       0.20716399      -0.75987355 </v>
   <v>      -0.31019983       0.59092190       0.92588144 </v>
   <v>       0.38299050      -0.46790321      -0.31161210 </v>
   <v>      -0.10807297      -0.39350006       0.07165907 </v>
   <v>       0.18744226       1.21030333       1.07719095 </v>
   <v>       0.29383195       0.43079656      -0.36299137 </v>
   <v>       0.19126655       0.22131816       0.65541390 </v>
   <v>      -0.15911962      -1.77826203      -0.19291979 </v>
   <v>       0.15224000      -0.11255885      -1.19253241 </v>
   <v>       0.18092308      -1.26800925       1.14090703 </v>
   <v>      -0.70544803       0.12347061       0.05991651 </v>
  </varray>
  <varray name="stress" >
   <v>       5.12984201      -0.82188950      -0.57068007 </v>
   <v>      -0.82188967      14.72466762       1.38089151 </v>
   <v>      -0.57067983       1.38089176      13.33981753 </v>
  </varray>
  <energy>
   <i name="e_fr_energy">   -302.80075582 </i>
   <i name="e_wo_entrp">   -302.80075582 </i>
   <i name="e_0_energy">      0.00000000 </i>
  </energy>
  <time name="totalsc">  840.49  841.28</time>
 </calculation>
 <calculation>
  <scstep>
   <time name="dav">   68.48   68.57</time>
   <time name="total">   69.27   69.36</time>
   <energy>
    <i name="alphaZ">   1071.90132130 </i>
    <i name="ewald"> -30592.56102500 </i>
    <i name="hartreedc"> -12730.16612783 </i>
    <i name="XCdc">   1269.74222620 </i>
    <i name="pawpsdc">  44096.45727725 </i>
    <i name="pawaedc"> -43410.42847518 </i>
    <i name="eentropy">      0.00000000 </i>
    <i name="bandstr">  -4019.98038140 </i>
    <i name="atom">  44026.03258983 </i>
    <i name="e_fr_energy">   -289.00259483 </i>
    <i name="e_wo_entrp">   -289.00259483 </i>
    <i name="e_0_energy">   -289.00259483 </i>
   </energy>
  </scstep>
  <scstep>
   <time name="dav">   69.98   70.02</time>
   <time name="total">   70.77   70.81</time>
   <energy>
    <i name="e_fr_energy">   -290.96236588 </i>
    <i name="e_wo_entrp">   -290.96236588 </i>
    <i name="e_0_energy">   -290.96236588 </i>
   </energy>
  </scstep>
  <scstep>
   <time name="dav">   86.76   86.87</time>
   <time name="total">   87.56   87.67</time>
   <energy>
    <i name="e_fr_energy">   -290.90083637 </i>
    <i name="e_wo_entrp">   -290.90083637 </i>
    <i name="e_0_energy">   -290.90083637 </i>
   </energy>
  </scstep>
  <scstep>
   <time name="dav">   75.48   75.58</time>
   <time name="total">   76.26   76.36</time>
   <energy>
    <i name="e_fr_energy">   -290.85959566 </i>
    <i name="e_wo_entrp">   -290.85959566 </i>
    <i name="e_0_energy">   -290.85959566 </i>
   </energy>
  </scstep>
  <scstep>
   <time name="dav">   74.27   74.30</time>
   <time name="total">   75.05   75.09</time>
   <energy>
    <i name="e_fr_energy">   -290.83771501 </i>
    <i name="e_wo_entrp">   -290.83771501 </i>
    <i name="e_0_energy">   -290.83771501 </i>
   </energy>
  </scstep>
  <scstep>
   <time name="dav">   70.84   71.03</time>
   <time name="total">   71.62   71.82</time>
   <energy>
    <i name="e_fr_energy">   -290.83780674 </i>
    <i name="e_wo_entrp">   -290.83780674 </i>
    <i name="e_0_energy">   -290.83780674 </i>
   </energy>
  </scstep>
  <scstep>
   <time name="dav">   78.66   78.70</time>
   <time name="total">   79.45   79.49</time>
   <energy>
    <i name="e_fr_energy">   -290.83787195 </i>
    <i name="e_wo_entrp">   -290.83787195 </i>
    <i name="e_0_energy">   -290.83787195 </i>
   </energy>
  </scstep>
  <scstep>
   <time name="dav">   89.16   89.62</time>
   <time name="total">   89.95   90.42</time>
   <energy>
    <i name="e_fr_energy">   -290.83783260 </i>
    <i name="e_wo_entrp">   -290.83783260 </i>
    <i name="e_0_energy">   -290.83783260 </i>
   </energy>
  </scstep>
  <scstep>
   <time name="dav">   73.23   74.35</time>
   <time name="total">   74.01   75.14</time>
   <energy>
    <i name="e_fr_energy">   -290.83782310 </i>
    <i name="e_wo_entrp">   -290.83782310 </i>
    <i name="e_0_energy">   -290.83782310 </i>
   </energy>
  </scstep>
  <scstep>
   <time name="dav">   80.85   82.34</time>
   <time name="total">   81.63   83.13</time>
   <energy>
    <i name="e_fr_energy">   -290.83782725 </i>
    <i name="e_wo_entrp">   -290.83782725 </i>
    <i name="e_0_energy">   -290.83782725 </i>
   </energy>
  </scstep>
  <scstep>
   <time name="dav">   68.81   69.49</time>
   <time name="total">   69.59   70.28</time>
   <energy>
    <i name="e_fr_energy">   -290.83782959 </i>
    <i name="e_wo_entrp">   -290.83782959 </i>
    <i name="e_0_energy">   -290.83782959 </i>
   </energy>
  </scstep>
  <scstep>
   <time name="dav">   61.24   61.39</time>
   <time name="total">   62.03   62.18</time>
   <energy>
    <i name="e_fr_energy">   -290.83783195 </i>
    <i name="e_wo_entrp">   -290.83783195 </i>
    <i name="e_0_energy">   -290.83783195 </i>
   </energy>
  </scstep>
  <scstep>
   <time name="dav">   47.77   47.96</time>
   <time name="total">   47.84   48.04</time>
   <energy>
    <i name="alphaZ">   1071.90132130 </i>
    <i name="ewald"> -30592.56102500 </i>
    <i name="hartreedc"> -12809.10725534 </i>
    <i name="XCdc">   1273.37213714 </i>
    <i name="pawpsdc">  43715.30141434 </i>
    <i name="pawaedc"> -43024.38528356 </i>
    <i name="eentropy">      0.00000000 </i>
    <i name="bandstr">  -3951.39173147 </i>
    <i name="atom">  44026.03258983 </i>
    <i name="e_fr_energy">   -290.83783277 </i>
    <i name="e_wo_entrp">   -290.83783277 </i>
    <i name="e_0_energy">   -290.83783277 </i>
   </energy>
  </scstep>
  <structure>
   <crystal>
    <varray name="basis" >
     <v>      11.19147382      -0.00271989       0.00585276 </v>
     <v>      -0.00230294       9.51646898       0.00366356 </v>
     <v>       0.00585298       0.00428144      11.11991110 </v>
    </varray>
    <i name="volume">   1184.30680618 </i>
    <varray name="rec_basis" >
     <v>       0.08935377       0.00002164      -0.00004704 </v>
     <v>       0.00002556       0.10508101      -0.00004047 </v>
     <v>      -0.00004704      -0.00003463       0.08992881 </v>
    </varray>
   </crystal>
   <varray name="positions" >
    <v>       0.11728370       0.00065371       0.19365657 </v>
    <v>       0.63222876       0.99915174       0.18413295 </v>
    <v>       0.12548125       0.99990115       0.93673228 </v>
    <v>       0.37642515      -0.00051855       0.93520482 </v>
    <v>       0.11760966       0.99911273       0.68016636 </v>
    <v>       0.62518689       0.99970892       0.93142734 </v>
    <v>       0.37257398       0.00151935       0.19643805 </v>
    <v>       0.61459201       0.99990967       0.44645413 </v>
    <v>       0.89003199      -0.00100152       0.43918655 </v>
    <v>       0.38073413      -0.00179900       0.67772414 </v>
    <v>       0.87431233       0.00099021       0.93545027 </v>
    <v>      -0.00075304       0.29670905       0.06472500 </v>
    <v>       0.24786283       0.69594625       0.06230479 </v>
    <v>       0.24724255       0.29214731       0.31782685 </v>
    <v>       0.49814185       0.69607903       0.31501927 </v>
    <v>       0.50097186       0.30373046       0.06154367 </v>
    <v>       0.75218853       0.70324397       0.06410952 </v>
    <v>       0.75320565       0.30334563       0.31130507 </v>
    <v>       0.00122465       0.70499261       0.31326552 </v>
    <v>       0.00111883       0.29547514       0.56344995 </v>
    <v>       0.24742562       0.70724380       0.55898043 </v>
    <v>       0.24788917       0.30400718       0.81189324 </v>
    <v>       0.50220155       0.70353321       0.81130711 </v>
    <v>       0.49977761       0.29842200       0.56321731 </v>
    <v>       0.75198521       0.70420306       0.56718718 </v>
    <v>       0.75048736       0.29267447       0.80834495 </v>
    <v>       0.99903047       0.70275860       0.80956886 </v>
    <v>       0.25202763       0.32929445       0.06178258 </v>
    <v>       0.00060396       0.67120587       0.06135548 </v>
    <v>       0.50140206       0.32821374       0.31118001 </v>
    <v>       0.25293769       0.67216508       0.30957209 </v>
    <v>       0.74879577       0.32886256       0.06379563 </v>
    <v>       0.49876605       0.67146884       0.06395901 </v>
    <v>       0.99795138       0.32851804       0.31183241 </v>
    <v>       0.74740148       0.67087050       0.31315909 </v>
    <v>       0.25216057       0.32830724       0.56551088 </v>
    <v>      -0.00134744       0.67106933       0.56330014 </v>
    <v>       0.49773905       0.32824911       0.81408404 </v>
    <v>       0.25104968       0.67012619       0.81466827 </v>
    <v>       0.74845239       0.32854484       0.55987953 </v>
    <v>       0.50082387       0.67206371       0.56218230 </v>
    <v>       0.00131061       0.32925799       0.81497027 </v>
    <v>       0.74984434       0.67163253       0.81444764 </v>
    <v>       0.49458998       0.07228072       0.06779533 </v>
    <v>       0.25574611       0.92713503       0.06603182 </v>
    <v>       0.25496514       0.07883236       0.29424958 </v>
    <v>      -0.00518051       0.92160291       0.31606799 </v>
    <v>       0.00251368       0.07719368       0.05064580 </v>
    <v>       0.74690764       0.92279543       0.05193950 </v>
    <v>       0.74228295       0.07387067       0.32717062 </v>
    <v>       0.50737688       0.92626203       0.30489810 </v>
    <v>       0.50010312       0.07857369       0.56201236 </v>
    <v>       0.25496805       0.92158252       0.58074443 </v>
    <v>       0.25559858       0.07318455       0.80915945 </v>
    <v>       0.00314259       0.92251977       0.82466969 </v>
    <v>       0.99519879       0.07839689       0.55833407 </v>
    <v>       0.74947910       0.92221576       0.54008060 </v>
    <v>       0.75375623       0.07831972       0.83056996 </v>
    <v>       0.48756203       0.92313409       0.81505917 </v>
   </varray>
  </structure>
  <varray name="forces" >
[...]
       <r>    8.8272    0.0000 </r>
       <r>    8.8931    0.0000 </r>
       <r>    8.9071    0.0000 </r>
       <r>    8.9461    0.0000 </r>
       <r>    8.9860    0.0000 </r>
       <r>    9.0372    0.0000 </r>
       <r>    9.0654    0.0000 </r>
       <r>   10.0121    0.0000 </r>
       <r>   10.1435    0.0000 </r>
      </set>
     </set>
    </set>
   </array>
  </eigenvalues>
  <separator name="orbital magnetization" >
   <v name="MAGDIPOLOUT">      0.00000000      0.00000000      0.00000000</v>
  </separator>
  <dos>
   <i name="efermi">      4.22535922 </i>
   <total>
    <array>
     <dimension dim="1">gridpoints</dimension>
     <dimension dim="2">spin</dimension>
     <field>energy</field>
     <field>total</field>
     <field>integrated</field>
     <set>
      <set comment="spin 1">
       <r>   -42.6299     0.0000     0.0000 </r>
       <r>   -42.4456     0.0000     0.0000 </r>
       <r>   -42.2613     0.0000     0.0000 </r>
       <r>   -42.0770     0.0000     0.0000 </r>
       <r>   -41.8928     0.0000     0.0000 </r>
       <r>   -41.7085     0.0000     0.0000 </r>
       <r>   -41.5242     0.0000     0.0000 </r>
       <r>   -41.3399     0.0000     0.0000 </r>
       <r>   -41.1556     0.0000     0.0000 </r>
       <r>   -40.9713     0.0000     0.0000 </r>
       <r>   -40.7870     0.0000     0.0000 </r>
       <r>   -40.6027     0.0000     0.0000 </r>
       <r>   -40.4185     0.0000     0.0000 </r>
       <r>   -40.2342     0.0000     0.0000 </r>
       <r>   -40.0499     0.0000     2.0000 </r>
       <r>   -39.8656     0.0000     2.0000 </r>
       <r>   -39.6813     0.0000    10.0000 </r>
       <r>   -39.4970     0.0000    10.0000 </r>
       <r>   -39.3127     0.0000    10.0000 </r>
       <r>   -39.1284     0.0000    12.0000 </r>
       <r>   -38.9441     0.0000    12.0000 </r>
       <r>   -38.7599     0.0000    12.0000 </r>
       <r>   -38.5756     0.0000    12.0000 </r>
       <r>   -38.3913     0.0000    12.0000 </r>
       <r>   -38.2070     0.0000    12.0000 </r>
       <r>   -38.0227     0.0000    12.0000 </r>
       <r>   -37.8384     0.0000    12.0000 </r>
       <r>   -37.6541     0.0000    12.0000 </r>
       <r>   -37.4698     0.0000    12.0000 </r>
       <r>   -37.2856     0.0000    12.0000 </r>
       <r>   -37.1013     0.0000    12.0000 </r>
       <r>   -36.9170     0.0000    12.0000 </r>
       <r>   -36.7327     0.0000    12.0000 </r>
       <r>   -36.5484     0.0000    12.0000 </r>
       <r>   -36.3641     0.0000    12.0000 </r>
       <r>   -36.1798     0.0000    12.0000 </r>
       <r>   -35.9955     0.0000    12.0000 </r>
       <r>   -35.8112     0.0000    12.0000 </r>
       <r>   -35.6270     0.0000    12.0000 </r>
       <r>   -35.4427     0.0000    12.0000 </r>
       <r>   -35.2584     0.0000    12.0000 </r>
       <r>   -35.0741     0.0000    12.0000 </r>
       <r>   -34.8898     0.0000    12.0000 </r>
       <r>   -34.7055     0.0000    12.0000 </r>
       <r>   -34.5212     0.0000    12.0000 </r>
       <r>   -34.3369     0.0000    12.0000 </r>
       <r>   -34.1527     0.0000    12.0000 </r>
       <r>   -33.9684     0.0000    12.0000 </r>
       <r>   -33.7841     0.0000    12.0000 </r>
       <r>   -33.5998     0.0000    12.0000 </r>
       <r>   -33.4155     0.0000    12.0000 </r>
       <r>   -33.2312     0.0000    12.0000 </r>
       <r>   -33.0469     0.0000    12.0000 </r>
       <r>   -32.8626     0.0000    12.0000 </r>
       <r>   -32.6783     0.0000    12.0000 </r>
       <r>   -32.4941     0.0000    12.0000 </r>
       <r>   -32.3098     0.0000    12.0000 </r>
       <r>   -32.1255     0.0000    12.0000 </r>
       <r>   -31.9412     0.0000    12.0000 </r>
       <r>   -31.7569     0.0000    12.0000 </r>
       <r>   -31.5726     0.0000    12.0000 </r>
       <r>   -31.3883     0.0000    12.0000 </r>
       <r>   -31.2040     0.0000    12.0000 </r>
       <r>   -31.0198     0.0000    12.0000 </r>
       <r>   -30.8355     0.0000    12.0000 </r>
       <r>   -30.6512     0.0000    12.0000 </r>
       <r>   -30.4669     0.0000    12.0000 </r>
       <r>   -30.2826     0.0000    12.0000 </r>
       <r>   -30.0983     0.0000    12.0000 </r>
       <r>   -29.9140     0.0000    12.0000 </r>
       <r>   -29.7297     0.0000    12.0000 </r>
       <r>   -29.5454     0.0000    12.0000 </r>
       <r>   -29.3612     0.0000    12.0000 </r>
       <r>   -29.1769     0.0000    12.0000 </r>
       <r>   -28.9926     0.0000    12.0000 </r>
       <r>   -28.8083     0.0000    12.0000 </r>
       <r>   -28.6240     0.0000    12.0000 </r>
       <r>   -28.4397     0.0000    12.0000 </r>
       <r>   -28.2554     0.0000    12.0000 </r>
       <r>   -28.0711     0.0000    12.0000 </r>
       <r>   -27.8869     0.0000    12.0000 </r>
       <r>   -27.7026     0.0000    12.0000 </r>
       <r>   -27.5183     0.0000    12.0000 </r>
       <r>   -27.3340     0.0000    12.0000 </r>
       <r>   -27.1497     0.0000    12.0000 </r>
       <r>   -26.9654     0.0000    12.0000 </r>
       <r>   -26.7811     0.0000    12.0000 </r>
       <r>   -26.5968     0.0000    12.0000 </r>
       <r>   -26.4125     0.0000    12.0000 </r>
       <r>   -26.2283     0.0000    12.0000 </r>
       <r>   -26.0440     0.0000    12.0000 </r>
       <r>   -25.8597     0.0000    12.0000 </r>
       <r>   -25.6754     0.0000    12.0000 </r>
       <r>   -25.4911     0.0000    12.0000 </r>
       <r>   -25.3068     0.0000    12.0000 </r>
       <r>   -25.1225     0.0000    12.0000 </r>
       <r>   -24.9382     0.0000    12.0000 </r>
       <r>   -24.7540     0.0000    12.0000 </r>
       <r>   -24.5697     0.0000    12.0000 </r>
       <r>   -24.3854     0.0000    12.0000 </r>
       <r>   -24.2011     0.0000    12.0000 </r>
       <r>   -24.0168     0.0000    12.0000 </r>
       <r>   -23.8325     0.0000    12.0000 </r>
       <r>   -23.6482     0.0000    12.0000 </r>
       <r>   -23.4639     0.0000    12.0000 </r>
       <r>   -23.2797     0.0000    12.0000 </r>
       <r>   -23.0954     0.0000    12.0000 </r>
       <r>   -22.9111     0.0000    12.0000 </r>
       <r>   -22.7268     0.0000    12.0000 </r>
       <r>   -22.5425     0.0000    12.0000 </r>
       <r>   -22.3582     0.0000    12.0000 </r>
       <r>   -22.1739     0.0000    12.0000 </r>
       <r>   -21.9896     0.0000    12.0000 </r>
       <r>   -21.8053     0.0000    12.0000 </r>
       <r>   -21.6211     0.0000    12.0000 </r>
       <r>   -21.4368     0.0000    12.0000 </r>
       <r>   -21.2525     0.0000    12.0000 </r>
       <r>   -21.0682     0.0000    12.0000 </r>
       <r>   -20.8839     0.0000    12.0000 </r>
       <r>   -20.6996     0.0000    12.0000 </r>
       <r>   -20.5153     0.0000    12.0000 </r>
       <r>   -20.3310     0.0000    12.0000 </r>
       <r>   -20.1468     0.0000    12.0000 </r>
       <r>   -19.9625     0.0000    12.0000 </r>
       <r>   -19.7782     0.0000    12.0000 </r>
       <r>   -19.5939     0.0000    12.0000 </r>
       <r>   -19.4096     0.0000    12.0000 </r>
       <r>   -19.2253     0.0000    12.0000 </r>
       <r>   -19.0410     0.0000    12.0000 </r>
       <r>   -18.8567     0.0000    12.0000 </r>
       <r>   -18.6724     0.0000    52.0000 </r>
       <r>   -18.4882     0.0000   144.0000 </r>
       <r>   -18.3039     0.0000   172.0000 </r>
       <r>   -18.1196     0.0000   172.0000 </r>
       <r>   -17.9353     0.0000   172.0000 </r>
       <r>   -17.7510     0.0000   172.0000 </r>
       <r>   -17.5667     0.0000   172.0000 </r>
       <r>   -17.3824     0.0000   172.0000 </r>
       <r>   -17.1981     0.0000   172.0000 </r>
       <r>   -17.0139     0.0000   172.0000 </r>
       <r>   -16.8296     0.0000   172.0000 </r>
       <r>   -16.6453     0.0000   172.0000 </r>
       <r>   -16.4610     0.0000   172.0000 </r>
       <r>   -16.2767     0.0000   172.0000 </r>
       <r>   -16.0924     0.0000   172.0000 </r>
       <r>   -15.9081     0.0000   172.0000 </r>
       <r>   -15.7238     0.0000   172.0000 </r>
       <r>   -15.5395     0.0000   172.0000 </r>
       <r>   -15.3553     0.0000   172.0000 </r>
       <r>   -15.1710     0.0000   172.0000 </r>
       <r>   -14.9867     0.0000   172.0000 </r>
       <r>   -14.8024     0.0000   172.0000 </r>
       <r>   -14.6181     0.0000   172.0000 </r>
       <r>   -14.4338     0.0000   172.0000 </r>
       <r>   -14.2495     0.0000   172.0000 </r>
       <r>   -14.0652     0.0000   172.0000 </r>
       <r>   -13.8810     0.0000   172.0000 </r>
       <r>   -13.6967     0.0000   172.0000 </r>
       <r>   -13.5124     0.0000   172.0000 </r>
       <r>   -13.3281     0.0000   172.0000 </r>
       <r>   -13.1438     0.0000   174.0000 </r>
       <r>   -12.9595     0.0000   178.0000 </r>
       <r>   -12.7752    71.9368   186.4856 </r>
       <r>   -12.5909     0.0000   200.0000 </r>
       <r>   -12.4066     0.0000   204.0000 </r>
       <r>   -12.2224     0.0000   204.0000 </r>
       <r>   -12.0381     0.0000   204.0000 </r>
       <r>   -11.8538     0.0000   204.0000 </r>
       <r>   -11.6695     0.0000   204.0000 </r>
       <r>   -11.4852     0.0000   204.0000 </r>
       <r>   -11.3009     0.0000   204.0000 </r>
       <r>   -11.1166     0.0000   204.0000 </r>
       <r>   -10.9323     0.0000   204.0000 </r>
       <r>   -10.7481     0.0000   204.0000 </r>
       <r>   -10.5638     0.0000   204.0000 </r>
       <r>   -10.3795     0.0000   204.0000 </r>
       <r>   -10.1952     0.0000   204.0000 </r>
       <r>   -10.0109     0.0000   204.0000 </r>
       <r>    -9.8266     0.0000   204.0000 </r>
       <r>    -9.6423     0.0000   204.0000 </r>
       <r>    -9.4580     1.2606   204.0130 </r>
       <r>    -9.2737     9.7134   205.4149 </r>
       <r>    -9.0895    10.2062   207.3786 </r>
       <r>    -8.9052     7.3715   208.3258 </r>
       <r>    -8.7209    14.0938   211.6747 </r>
       <r>    -8.5366    45.7160   214.3808 </r>
       <r>    -8.3523    16.8614   219.0655 </r>
       <r>    -8.1680    18.8585   220.4052 </r>
       <r>    -7.9837    31.2735   226.2802 </r>
       <r>    -7.7994    28.6485   231.4022 </r>
       <r>    -7.6152    24.7025   233.7114 </r>
       <r>    -7.4309     0.0000   236.0000 </r>
       <r>    -7.2466     0.0000   236.0000 </r>
       <r>    -7.0623     0.0000   236.0000 </r>
       <r>    -6.8780     0.0000   236.0000 </r>
       <r>    -6.6937     0.0000   236.0000 </r>
       <r>    -6.5094     0.0000   236.0000 </r>
       <r>    -6.3251     5.2615   236.1932 </r>
       <r>    -6.1409    27.6366   239.1592 </r>
       <r>    -5.9566     1.9876   244.0182 </r>
       <r>    -5.7723    30.8169   247.3000 </r>
       <r>    -5.5880    25.5940   252.3576 </r>
       <r>    -5.4037    22.1528   256.8675 </r>
       <r>    -5.2194     9.8431   259.4031 </r>
       <r>    -5.0351     2.7838   260.0842 </r>
       <r>    -4.8508    12.2221   261.5030 </r>
       <r>    -4.6665     9.3382   263.8607 </r>
       <r>    -4.4823     4.8462   264.7565 </r>
       <r>    -4.2980     8.0974   265.9196 </r>
       <r>    -4.1137     3.8060   267.3748 </r>
       <r>    -3.9294     1.6155   267.8087 </r>
       <r>    -3.7451     0.3356   267.9880 </r>
       <r>    -3.5608     0.0000   268.0000 </r>
       <r>    -3.3765     0.0000   268.0000 </r>
       <r>    -3.1922     0.0000   268.0000 </r>
       <r>    -3.0080     0.0000   268.0000 </r>
       <r>    -2.8237     0.0000   268.0000 </r>
       <r>    -2.6394     0.0000   268.0000 </r>
       <r>    -2.4551     0.0000   268.0000 </r>
       <r>    -2.2708     0.0000   268.0000 </r>
       <r>    -2.0865     0.0000   268.0000 </r>
       <r>    -1.9022     0.0000   268.0000 </r>
       <r>    -1.7179     0.0000   268.0000 </r>
       <r>    -1.5336     0.0000   268.0000 </r>
       <r>    -1.3494     2.1542   268.0555 </r>
       <r>    -1.1651     8.5573   269.2762 </r>
       <r>    -0.9808     5.9551   270.4850 </r>
       <r>    -0.7965    13.8625   272.3442 </r>
       <r>    -0.6122     9.2322   274.5914 </r>
       <r>    -0.4279    18.5331   276.6939 </r>
       <r>    -0.2436    24.3781   281.3473 </r>
       <r>    -0.0593    49.8910   287.8816 </r>
       <r>     0.1249    29.8101   295.2166 </r>
       <r>     0.3092    51.4610   302.8842 </r>
       <r>     0.4935    26.6845   309.3454 </r>
       <r>     0.6778    22.5061   316.1028 </r>
       <r>     0.8621    42.9703   323.0259 </r>
       <r>     1.0464    48.8866   330.6825 </r>
       <r>     1.2307    54.9011   339.5305 </r>
       <r>     1.4150    40.6667   347.7241 </r>
       <r>     1.5993    42.6797   355.8162 </r>
       <r>     1.7835    39.9574   364.1972 </r>
       <r>     1.9678    43.6894   372.5436 </r>
       <r>     2.1521    33.8114   381.7353 </r>
       <r>     2.3364    59.3393   390.7529 </r>
       <r>     2.5207    61.4953   402.8948 </r>
       <r>     2.7050    47.2056   413.6460 </r>
       <r>     2.8893    64.2118   426.3258 </r>
       <r>     3.0736    40.0525   437.7500 </r>
       <r>     3.2578    27.3286   444.4993 </r>
       <r>     3.4421    36.8957   450.5706 </r>
       <r>     3.6264    17.8563   455.6483 </r>
       <r>     3.8107    10.6134   458.1756 </r>
       <r>     3.9950     4.8512   459.6005 </r>
       <r>     4.1793     0.1911   459.9972 </r>
       <r>     4.3636     0.0000   460.0000 </r>
       <r>     4.5479     0.0000   460.0000 </r>
       <r>     4.7322     0.0000   460.0000 </r>
       <r>     4.9164     0.0000   460.0000 </r>
       <r>     5.1007     0.0000   460.0000 </r>
       <r>     5.2850     3.2728   460.1965 </r>
       <r>     5.4693     8.9187   461.3200 </r>
       <r>     5.6536     9.9969   463.2021 </r>
       <r>     5.8379    30.0196   466.4590 </r>
       <r>     6.0222    13.9546   469.7756 </r>
       <r>     6.2065    12.8697   472.2188 </r>
       <r>     6.3907    13.5396   474.6181 </r>
       <r>     6.5750    15.2150   477.2672 </r>
       <r>     6.7593    17.3712   480.2561 </r>
       <r>     6.9436    20.8322   483.7329 </r>
       <r>     7.1279    24.9380   487.9625 </r>
       <r>     7.3122    30.1437   492.9052 </r>
       <r>     7.4965    30.5680   498.7162 </r>
       <r>     7.6808    33.1093   504.5227 </r>
       <r>     7.8651    29.0648   510.5759 </r>
       <r>     8.0493    38.3996   517.1924 </r>
       <r>     8.2336    31.3455   523.6971 </r>
       <r>     8.4179    19.8220   528.3012 </r>
       <r>     8.6022    27.9872   532.6970 </r>
       <r>     8.7865    39.2780   538.3275 </r>
       <r>     8.9708    32.7994   544.4961 </r>
       <r>     9.1551    26.2560   550.2458 </r>
       <r>     9.3394    14.1040   554.0736 </r>
       <r>     9.5236     0.0000   556.0000 </r>
       <r>     9.7079     9.0820   556.7756 </r>
       <r>     9.8922     9.3535   558.4305 </r>
       <r>    10.0765     4.9511   559.8407 </r>
       <r>    10.2608     0.0000   560.0000 </r>
       <r>    10.4451     0.0000   560.0000 </r>
       <r>    10.6294     0.0000   560.0000 </r>
       <r>    10.8137     0.0000   560.0000 </r>
       <r>    10.9979     0.0000   560.0000 </r>
       <r>    11.1822     0.0000   560.0000 </r>
       <r>    11.3665     0.0000   560.0000 </r>
       <r>    11.5508     0.0000   560.0000 </r>
       <r>    11.7351     0.0000   560.0000 </r>
       <r>    11.9194     0.0000   560.0000 </r>
       <r>    12.1037     0.0000   560.0000 </r>
       <r>    12.2880     0.0000   560.0000 </r>
       <r>    12.4723     0.0000   560.0000 </r>
       <r>    12.6565     0.0000   560.0000 </r>
      </set>
     </set>
    </array>
   </total>
  </dos>
 </calculation>
 <structure name="finalpos" >
  <crystal>
   <varray name="basis" >
    <v>      11.15150770      -0.01340394      -0.00563420 </v>
    <v>      -0.01069692       9.58332601      -0.03040460 </v>
    <v>      -0.00577646      -0.03480570      11.20548416 </v>
   </varray>
   <i name="volume">   1197.49993909 </i>
   <varray name="rec_basis" >
    <v>       0.08967412       0.00010024       0.00004654 </v>
    <v>       0.00012559       0.10434907       0.00032419 </v>
    <v>       0.00004543       0.00028319       0.08924292 </v>
   </varray>
  </crystal>
  <varray name="positions" >
   <v>       0.08219089       0.02701571       0.21564395 </v>
   <v>       0.65790649       0.99869517       0.18082727 </v>
   <v>       0.14725628       0.00008111       0.93887651 </v>
   <v>       0.38319320      -0.00001780       0.94063637 </v>
   <v>       0.08048524       0.97346507       0.65360085 </v>
   <v>       0.63043242       0.98888668       0.91818078 </v>
   <v>       0.37966832      -0.00689170       0.18848722 </v>
   <v>       0.59779009      -0.00032353       0.43985553 </v>
   <v>       0.86797857       0.00292034       0.43014871 </v>
   <v>       0.38164694       0.00365373       0.69119819 </v>
   <v>       0.88729182      -0.00457340       0.94765690 </v>
   <v>       0.00400809       0.30613055       0.05949401 </v>
   <v>       0.25556846       0.69190352       0.06096736 </v>
   <v>       0.24760694       0.29801672       0.30947970 </v>
   <v>       0.49972356       0.68874562       0.30935459 </v>
   <v>       0.50160724       0.30328792       0.06366709 </v>
   <v>       0.75368377       0.69152775       0.05933413 </v>
   <v>       0.74666245       0.31389648       0.31620939 </v>
   <v>      -0.00225774       0.70413779       0.31261010 </v>
   <v>      -0.00383498       0.29717754       0.56167263 </v>
   <v>       0.24755306       0.70251208       0.56754371 </v>
   <v>       0.25598511       0.30886156       0.81479151 </v>
   <v>       0.50044333       0.69583905       0.81250906 </v>
   <v>       0.49630761       0.30800119       0.56575191 </v>
   <v>       0.74798093       0.69313215       0.55844885 </v>
   <v>       0.75613219       0.29683243       0.81769692 </v>
   <v>       0.00321453       0.69420745       0.81678438 </v>
   <v>       0.25275098       0.36041953       0.06419368 </v>
   <v>       0.00149442       0.65552533       0.06494522 </v>
   <v>       0.49807943       0.34907390       0.31120496 </v>
   <v>       0.25473264       0.68787112       0.31058509 </v>
   <v>       0.75150791       0.34893050       0.06193885 </v>
   <v>       0.50248385       0.64463621       0.06448251 </v>
   <v>       0.99880690       0.32387701       0.31045402 </v>
   <v>       0.75268638       0.63755141       0.31381581 </v>
   <v>       0.25084678       0.33170939       0.56490344 </v>
   <v>      -0.00072227       0.68056114       0.56496121 </v>
   <v>       0.50272709       0.34895418       0.81108298 </v>
   <v>       0.25457527       0.63870739       0.81305095 </v>
   <v>       0.74990431       0.35314259       0.55939353 </v>
   <v>       0.49921813       0.66545003       0.56357148 </v>
   <v>       0.00124233       0.34399558       0.81141015 </v>
   <v>       0.75359678       0.66090984       0.81545905 </v>
   <v>       0.49749222       0.08354722       0.07184506 </v>
   <v>       0.27765937       0.90899893       0.05382123 </v>
   <v>       0.24690656       0.09064059       0.26807222 </v>
   <v>      -0.02481941       0.91539100       0.31091291 </v>
   <v>       0.01548846       0.08881266       0.04824968 </v>
   <v>       0.75023836       0.90952601       0.04677246 </v>
   <v>       0.72745322       0.09369111       0.33573354 </v>
   <v>       0.51264647       0.91200166       0.29577184 </v>
   <v>       0.49275893       0.08831686       0.56481145 </v>
   <v>       0.24500324       0.90905152       0.61271129 </v>
   <v>       0.27848277       0.09249541       0.82435790 </v>
   <v>       0.01381291       0.90989698       0.83778818 </v>
   <v>       0.97672588       0.08526131       0.55361025 </v>
   <v>       0.73597736       0.90156402       0.51279493 </v>
   <v>       0.76241149       0.08909635       0.85240408 </v>
   <v>       0.48699642       0.91316204       0.81919245 </v>
  </varray>
 </structure>
</modeling>
