<?xml version="1.0" encoding="ISO-8859-1"?>
<modeling>
 <generator>
  <i name="program" type="string">vasp </i>
  <i name="version" type="string">5.4.4.18Apr17-6-g9f103f2a35  </i>
  <i name="subversion" type="string">(build Jul 31 2017 11:33:29) complex            parallel </i>
  <i name="platform" type="string">LinuxIFC </i>
  <i name="date" type="string">2021 09 29 </i>
  <i name="time" type="string">18:52:28 </i>
 </generator>
 <incar>
  <i type="string" name="SYSTEM"> La2O2S</i>
  <i type="string" name="PREC">normal</i>
  <i type="int" name="NELMIN">     4</i>
  <i type="int" name="IBRION">     2</i>
  <i type="int" name="NFREE">    10</i>
  <i name="EDIFF">      0.00000100</i>
  <i name="EDIFFG">     -0.01000000</i>
  <i type="int" name="NSW">     1</i>
  <i type="int" name="ISIF">     2</i>
  <i name="ENCUT">    600.00000000</i>
  <i name="ENAUG">    900.00000000</i>
  <i type="int" name="ISMEAR">    -5</i>
  <i type="logical" name="LWAVE"> F  </i>
  <i type="logical" name="LCHARG"> F  </i>
  <v type="int" name="KPOINT_BSE">    -1     0     0     0</v>
 </incar>
 <structure name="primitive_cell" >
  <crystal>
   <varray name="basis" >
    <v>      11.17850000       0.00000000       0.00000000 </v>
    <v>       0.00000000       9.57460000       0.00000000 </v>
    <v>       0.00000000       0.00000000      11.18240000 </v>
   </varray>
   <i name="volume">   1196.84853820 </i>
   <varray name="rec_basis" >
    <v>       0.08945744       0.00000000       0.00000000 </v>
    <v>       0.00000000       0.10444301       0.00000000 </v>
    <v>       0.00000000       0.00000000       0.08942624 </v>
   </varray>
  </crystal>
  <varray name="positions" >
   <v>       0.37539000       0.00017000       0.43687000 </v>
   <v>      -0.49987000      -0.07798000       0.31246000 </v>
   <v>       0.25013000       0.07798000       0.31246000 </v>
   <v>       0.49987000       0.07798000      -0.43754000 </v>
   <v>       0.24987000      -0.07798000      -0.43754000 </v>
   <v>      -0.37461000      -0.00016000       0.43687000 </v>
   <v>       0.37461000       0.00017000      -0.31313000 </v>
   <v>       0.49987000      -0.29519000       0.31282000 </v>
   <v>       0.24987000       0.29519000       0.31282000 </v>
   <v>      -0.49987000       0.29519000      -0.43719000 </v>
   <v>       0.25013000      -0.29519000      -0.43719000 </v>
   <v>       0.49995000       0.32677000       0.31286000 </v>
   <v>       0.24995000      -0.32677000       0.31286000 </v>
   <v>      -0.49995000      -0.32677000      -0.43714000 </v>
   <v>       0.25005000       0.32677000      -0.43714000 </v>
   <v>      -0.37539000      -0.00016000      -0.31313000 </v>
   <v>      -0.37539000      -0.00016000       0.18687000 </v>
   <v>       0.12461000      -0.00016000      -0.31313000 </v>
   <v>       0.12461000      -0.00016000       0.18687000 </v>
   <v>       0.49987000       0.07798000       0.06246000 </v>
   <v>      -0.24987000       0.07798000       0.31246000 </v>
   <v>      -0.25013000      -0.07798000      -0.43754000 </v>
   <v>       0.24987000      -0.07798000       0.06246000 </v>
   <v>       0.00013000      -0.07798000       0.31246000 </v>
   <v>      -0.49987000      -0.07798000      -0.18754000 </v>
   <v>      -0.00013000       0.07798000      -0.43754000 </v>
   <v>       0.25013000       0.07798000      -0.18754000 </v>
   <v>      -0.49987000       0.29519000       0.06281000 </v>
   <v>      -0.25013000       0.29519000       0.31282000 </v>
   <v>       0.25013000      -0.29519000       0.06281000 </v>
   <v>      -0.24987000      -0.29519000      -0.43719000 </v>
   <v>      -0.00013000      -0.29519000       0.31282000 </v>
   <v>       0.00013000       0.29519000      -0.43719000 </v>
   <v>       0.49987000      -0.29519000      -0.18718000 </v>
   <v>       0.24987000       0.29519000      -0.18718000 </v>
   <v>      -0.49995000      -0.32677000       0.06286000 </v>
   <v>       0.25005000       0.32677000       0.06286000 </v>
   <v>      -0.25005000      -0.32677000       0.31286000 </v>
   <v>      -0.24995000       0.32677000      -0.43714000 </v>
   <v>      -0.00005000       0.32677000       0.31286000 </v>
   <v>       0.00005000      -0.32677000      -0.43714000 </v>
   <v>       0.49995000       0.32677000      -0.18714000 </v>
   <v>       0.24995000      -0.32677000      -0.18714000 </v>
   <v>      -0.12461000       0.00017000       0.43687000 </v>
   <v>       0.37539000       0.00017000      -0.06313000 </v>
   <v>      -0.25013000      -0.07798000       0.06246000 </v>
   <v>      -0.00013000       0.07798000       0.06246000 </v>
   <v>      -0.24987000       0.07798000      -0.18754000 </v>
   <v>       0.00013000      -0.07798000      -0.18754000 </v>
   <v>      -0.12539000       0.00017000       0.18687000 </v>
   <v>      -0.12539000       0.00017000      -0.31313000 </v>
   <v>      -0.24987000      -0.29519000       0.06281000 </v>
   <v>       0.00013000       0.29519000       0.06281000 </v>
   <v>      -0.25013000       0.29519000      -0.18718000 </v>
   <v>      -0.00013000      -0.29519000      -0.18718000 </v>
   <v>      -0.24995000       0.32677000       0.06286000 </v>
   <v>       0.00005000      -0.32677000       0.06286000 </v>
   <v>      -0.25005000      -0.32677000      -0.18714000 </v>
   <v>      -0.00005000       0.32677000      -0.18714000 </v>
   <v>      -0.12461000       0.00017000      -0.06313000 </v>
  </varray>
 </structure>
 <varray name="primitive_index" >
  <v type="int" >        1 </v>
  <v type="int" >       52 </v>
  <v type="int" >       47 </v>
  <v type="int" >       53 </v>
  <v type="int" >       54 </v>
  <v type="int" >        2 </v>
  <v type="int" >        6 </v>
  <v type="int" >       16 </v>
  <v type="int" >       15 </v>
  <v type="int" >       25 </v>
  <v type="int" >       22 </v>
  <v type="int" >       31 </v>
  <v type="int" >       32 </v>
  <v type="int" >       42 </v>
  <v type="int" >       37 </v>
  <v type="int" >        7 </v>
  <v type="int" >       10 </v>
  <v type="int" >        5 </v>
  <v type="int" >        9 </v>
  <v type="int" >       45 </v>
  <v type="int" >       51 </v>
  <v type="int" >       58 </v>
  <v type="int" >       46 </v>
  <v type="int" >       48 </v>
  <v type="int" >       60 </v>
  <v type="int" >       57 </v>
  <v type="int" >       55 </v>
  <v type="int" >       17 </v>
  <v type="int" >       19 </v>
  <v type="int" >       14 </v>
  <v type="int" >       26 </v>
  <v type="int" >       20 </v>
  <v type="int" >       21 </v>
  <v type="int" >       24 </v>
  <v type="int" >       23 </v>
  <v type="int" >       34 </v>
  <v type="int" >       29 </v>
  <v type="int" >       36 </v>
  <v type="int" >       41 </v>
  <v type="int" >       35 </v>
  <v type="int" >       38 </v>
  <v type="int" >       39 </v>
  <v type="int" >       40 </v>
  <v type="int" >        3 </v>
  <v type="int" >       11 </v>
  <v type="int" >       50 </v>
  <v type="int" >       49 </v>
  <v type="int" >       59 </v>
  <v type="int" >       56 </v>
  <v type="int" >        4 </v>
  <v type="int" >        8 </v>
  <v type="int" >       18 </v>
  <v type="int" >       13 </v>
  <v type="int" >       27 </v>
  <v type="int" >       28 </v>
  <v type="int" >       33 </v>
  <v type="int" >       30 </v>
  <v type="int" >       44 </v>
  <v type="int" >       43 </v>
  <v type="int" >       12 </v>
 </varray>
 <kpoints>
  <generation param="Gamma">
   <v type="int" name="divisions">       2        2        2 </v>
   <v name="usershift">      0.00000000       0.00000000       0.00000000 </v>
   <v name="genvec1">      0.50000000       0.00000000       0.00000000 </v>
   <v name="genvec2">      0.00000000       0.50000000       0.00000000 </v>
   <v name="genvec3">      0.00000000       0.00000000       0.50000000 </v>
   <v name="shift">      0.00000000       0.00000000       0.00000000 </v>
  </generation>
  <varray name="kpointlist" >
   <v>       0.00000000       0.00000000       0.00000000 </v>
   <v>       0.50000000       0.00000000       0.00000000 </v>
   <v>       0.00000000       0.50000000       0.00000000 </v>
   <v>       0.50000000       0.50000000       0.00000000 </v>
   <v>       0.00000000       0.00000000       0.50000000 </v>
   <v>       0.50000000       0.00000000       0.50000000 </v>
   <v>       0.00000000       0.50000000       0.50000000 </v>
   <v>       0.50000000       0.50000000       0.50000000 </v>
  </varray>
  <varray name="weights" >
   <v>       0.12500000 </v>
   <v>       0.12500000 </v>
   <v>       0.12500000 </v>
   <v>       0.12500000 </v>
   <v>       0.12500000 </v>
   <v>       0.12500000 </v>
   <v>       0.12500000 </v>
   <v>       0.12500000 </v>
  </varray>
  <varray name="tetrahedronlist"  type="int" >
   <v type="int" >        2        1        2        4        5 </v>
   <v type="int" >        2        1        3        4        5 </v>
   <v type="int" >        2        3        4        5        7 </v>
   <v type="int" >        2        2        4        5        6 </v>
   <v type="int" >        2        4        5        6        8 </v>
   <v type="int" >        2        4        5        7        8 </v>
   <v type="int" >        2        1        2        3        6 </v>
   <v type="int" >        2        2        3        4        6 </v>
   <v type="int" >        2        3        4        6        8 </v>
   <v type="int" >        2        1        3        5        6 </v>
   <v type="int" >        2        3        5        6        7 </v>
   <v type="int" >        2        3        6        7        8 </v>
   <v type="int" >        2        2        3        4        7 </v>
   <v type="int" >        2        1        2        3        7 </v>
   <v type="int" >        2        1        2        5        7 </v>
   <v type="int" >        2        2        4        7        8 </v>
   <v type="int" >        2        2        6        7        8 </v>
   <v type="int" >        2        2        5        6        7 </v>
   <v type="int" >        2        1        3        4        8 </v>
   <v type="int" >        2        1        2        4        8 </v>
   <v type="int" >        2        1        2        6        8 </v>
   <v type="int" >        2        1        3        7        8 </v>
   <v type="int" >        2        1        5        7        8 </v>
   <v type="int" >        2        1        5        6        8 </v>
  </varray>
  <i name="volumeweight">      0.02083333 </i>
 </kpoints>
 <parameters>
  <separator name="general" >
   <i type="string" name="SYSTEM">La2O2S</i>
   <i type="logical" name="LCOMPAT"> F  </i>
  </separator>
  <separator name="electronic" >
   <i type="string" name="PREC">normal</i>
   <i name="ENMAX">    600.00000000</i>
   <i name="ENAUG">    900.00000000</i>
   <i name="EDIFF">      0.00000100</i>
   <i type="int" name="IALGO">    38</i>
   <i type="int" name="IWAVPR">    11</i>
   <i type="int" name="NBANDS">   280</i>
   <i name="NELECT">    464.00000000</i>
   <i type="int" name="TURBO">     0</i>
   <i type="int" name="IRESTART">     0</i>
   <i type="int" name="NREBOOT">     0</i>
   <i type="int" name="NMIN">     0</i>
   <i name="EREF">      0.00000000</i>
   <separator name="electronic smearing" >
    <i type="int" name="ISMEAR">    -5</i>
    <i name="SIGMA">      0.20000000</i>
    <i name="KSPACING">      0.50000000</i>
    <i type="logical" name="KGAMMA"> T  </i>
   </separator>
   <separator name="electronic projectors" >
    <i type="logical" name="LREAL"> F  </i>
    <v name="ROPT">      0.00000000      0.00000000      0.00000000      0.00000000      0.00000000</v>
    <i type="int" name="LMAXPAW">  -100</i>
    <i type="int" name="LMAXMIX">     2</i>
    <i type="logical" name="NLSPLINE"> F  </i>
   </separator>
   <separator name="electronic startup" >
    <i type="int" name="ISTART">     0</i>
    <i type="int" name="ICHARG">     2</i>
    <i type="int" name="INIWAV">     1</i>
   </separator>
   <separator name="electronic spin" >
    <i type="int" name="ISPIN">     1</i>
    <i type="logical" name="LNONCOLLINEAR"> F  </i>
    <v name="MAGMOM">      1.00000000      1.00000000      1.00000000      1.00000000      1.00000000      1.00000000      1.00000000      1.00000000      1.00000000      1.00000000      1.00000000      1.00000000      1.00000000      1.00000000      1.00000000      1.00000000      1.00000000      1.00000000      1.00000000      1.00000000
      1.00000000      1.00000000      1.00000000      1.00000000      1.00000000      1.00000000      1.00000000      1.00000000      1.00000000      1.00000000      1.00000000      1.00000000      1.00000000      1.00000000      1.00000000      1.00000000      1.00000000      1.00000000      1.00000000      1.00000000
      1.00000000      1.00000000      1.00000000      1.00000000      1.00000000      1.00000000      1.00000000      1.00000000      1.00000000      1.00000000      1.00000000      1.00000000      1.00000000      1.00000000      1.00000000      1.00000000      1.00000000      1.00000000      1.00000000      1.00000000
</v>
    <i name="NUPDOWN">     -1.00000000</i>
    <i type="logical" name="LSORBIT"> F  </i>
    <v name="SAXIS">      0.00000000      0.00000000      1.00000000</v>
    <i type="logical" name="LSPIRAL"> F  </i>
    <v name="QSPIRAL">      0.00000000      0.00000000      0.00000000</v>
    <i type="logical" name="LZEROZ"> F  </i>
   </separator>
   <separator name="electronic exchange-correlation" >
    <i type="logical" name="LASPH"> F  </i>
    <i type="logical" name="LMETAGGA"> F  </i>
   </separator>
   <separator name="electronic convergence" >
    <i type="int" name="NELM">    60</i>
    <i type="int" name="NELMDL">    -5</i>
    <i type="int" name="NELMIN">     4</i>
    <i name="ENINI">    600.00000000</i>
    <separator name="electronic convergence detail" >
     <i type="logical" name="LDIAG"> T  </i>
     <i type="logical" name="LSUBROT"> F  </i>
     <i name="WEIMIN">      0.00100000</i>
     <i name="EBREAK">      0.00000000</i>
     <i name="DEPER">      0.30000000</i>
     <i type="int" name="NRMM">     4</i>
     <i name="TIME">      0.40000000</i>
    </separator>
   </separator>
   <separator name="electronic mixer" >
    <i name="AMIX">      0.40000000</i>
    <i name="BMIX">      1.00000000</i>
    <i name="AMIN">      0.10000000</i>
    <i name="AMIX_MAG">      1.60000000</i>
    <i name="BMIX_MAG">      1.00000000</i>
    <separator name="electronic mixer details" >
     <i type="int" name="IMIX">     4</i>
     <i type="logical" name="MIXFIRST"> F  </i>
     <i type="int" name="MAXMIX">   -45</i>
     <i name="WC">    100.00000000</i>
     <i type="int" name="INIMIX">     1</i>
     <i type="int" name="MIXPRE">     1</i>
     <i type="int" name="MREMOVE">     5</i>
    </separator>
   </separator>
   <separator name="electronic dipolcorrection" >
    <i type="logical" name="LDIPOL"> F  </i>
    <i type="logical" name="LMONO"> F  </i>
    <i type="int" name="IDIPOL">     0</i>
    <i name="EPSILON">      1.00000000</i>
    <v name="DIPOL">   -100.00000000   -100.00000000   -100.00000000</v>
    <i name="EFIELD">      0.00000000</i>
   </separator>
  </separator>
  <separator name="grids" >
   <i type="int" name="NGX">    70</i>
   <i type="int" name="NGY">    60</i>
   <i type="int" name="NGZ">    70</i>
   <i type="int" name="NGXF">   140</i>
   <i type="int" name="NGYF">   120</i>
   <i type="int" name="NGZF">   140</i>
   <i type="logical" name="ADDGRID"> F  </i>
  </separator>
  <separator name="ionic" >
   <i type="int" name="NSW">     1</i>
   <i type="int" name="IBRION">     2</i>
   <i type="int" name="MDALGO">     0</i>
   <i type="int" name="ISIF">     2</i>
   <i name="PSTRESS">      0.00000000</i>
   <i name="EDIFFG">     -0.01000000</i>
   <i type="int" name="NFREE">    10</i>
   <i name="POTIM">      0.50000000</i>
   <i name="SMASS">     -3.00000000</i>
   <i name="SCALEE">      1.00000000</i>
  </separator>
  <separator name="ionic md" >
   <i name="TEBEG">      0.00010000</i>
   <i name="TEEND">      0.00010000</i>
   <i type="int" name="NBLOCK">     1</i>
   <i type="int" name="KBLOCK">     1</i>
   <i type="int" name="NPACO">   256</i>
   <i name="APACO">     16.00000000</i>
  </separator>
  <separator name="symmetry" >
   <i type="int" name="ISYM">     2</i>
   <i name="SYMPREC">      0.00001000</i>
  </separator>
  <separator name="dos" >
   <i type="int" name="LORBIT">     0</i>
   <v name="RWIGS">     -1.00000000     -1.00000000     -1.00000000     -1.00000000     -1.00000000</v>
   <i type="int" name="NEDOS">   301</i>
   <i name="EMIN">     10.00000000</i>
   <i name="EMAX">    -10.00000000</i>
   <i name="EFERMI">      0.00000000</i>
  </separator>
  <separator name="writing" >
   <i type="int" name="NWRITE">     2</i>
   <i type="logical" name="LWAVE"> F  </i>
   <i type="logical" name="LDOWNSAMPLE"> F  </i>
   <i type="logical" name="LCHARG"> F  </i>
   <i type="logical" name="LPARD"> F  </i>
   <i type="logical" name="LVTOT"> F  </i>
   <i type="logical" name="LVHAR"> F  </i>
   <i type="logical" name="LELF"> F  </i>
   <i type="logical" name="LOPTICS"> F  </i>
   <v name="STM">      0.00000000      0.00000000      0.00000000      0.00000000      0.00000000      0.00000000      0.00000000</v>
  </separator>
  <separator name="performance" >
   <i type="int" name="NPAR">    28</i>
   <i type="int" name="NSIM">     4</i>
   <i type="int" name="NBLK">    -1</i>
   <i type="logical" name="LPLANE"> T  </i>
   <i type="logical" name="LSCALAPACK"> T  </i>
   <i type="logical" name="LSCAAWARE"> F  </i>
   <i type="logical" name="LSCALU"> F  </i>
   <i type="logical" name="LASYNC"> F  </i>
   <i type="logical" name="LORBITALREAL"> F  </i>
  </separator>
  <separator name="miscellaneous" >
   <i type="int" name="IDIOT">     3</i>
   <i type="int" name="ISPECIAL">     0</i>
   <i type="logical" name="LMUSIC"> F  </i>
   <v name="POMASS">      7.01000000     24.30500000    208.98000000     32.06600000     16.00000000</v>
   <v name="DARWINR">      0.00000000      0.00000000      0.00000000      0.00000000      0.00000000</v>
   <v name="DARWINV">      1.00000000      1.00000000      1.00000000      1.00000000      1.00000000</v>
   <i type="logical" name="LCORR"> T  </i>
  </separator>
  <i type="logical" name="GGA_COMPAT"> T  </i>
  <i type="logical" name="LBERRY"> F  </i>
  <i type="int" name="ICORELEVEL">     0</i>
  <i type="logical" name="LDAU"> F  </i>
  <i type="int" name="I_CONSTRAINED_M">     0</i>
  <separator name="electronic exchange-correlation" >
   <i type="string" name="GGA">--</i>
   <i type="int" name="VOSKOWN">     0</i>
   <i type="logical" name="LHFCALC"> F  </i>
   <i type="string" name="PRECFOCK"></i>
   <i type="logical" name="LSYMGRAD"> F  </i>
   <i type="logical" name="LHFONE"> F  </i>
   <i type="logical" name="LRHFCALC"> F  </i>
   <i type="logical" name="LTHOMAS"> F  </i>
   <i type="logical" name="LMODELHF"> F  </i>
   <i name="ENCUT4O">     -1.00000000</i>
   <i type="int" name="EXXOEP">     0</i>
   <i type="int" name="FOURORBIT">     0</i>
   <i name="AEXX">      0.00000000</i>
   <i name="HFALPHA">      0.00000000</i>
   <i name="MCALPHA">      0.00000000</i>
   <i name="ALDAX">      1.00000000</i>
   <i name="AGGAX">      1.00000000</i>
   <i name="ALDAC">      1.00000000</i>
   <i name="AGGAC">      1.00000000</i>
   <i type="int" name="NKREDX">     1</i>
   <i type="int" name="NKREDY">     1</i>
   <i type="int" name="NKREDZ">     1</i>
   <i type="logical" name="SHIFTRED"> F  </i>
   <i type="logical" name="ODDONLY"> F  </i>
   <i type="logical" name="EVENONLY"> F  </i>
   <i type="int" name="LMAXFOCK">     0</i>
   <i type="int" name="NMAXFOCKAE">     0</i>
   <i type="logical" name="LFOCKAEDFT"> F  </i>
   <i name="HFSCREEN">      0.00000000</i>
   <i name="HFSCREENC">      0.00000000</i>
   <i type="int" name="NBANDSGWLOW">     0</i>
  </separator>
  <separator name="vdW DFT" >
   <i type="logical" name="LUSE_VDW"> F  </i>
   <i name="Zab_VDW">     -0.84910000</i>
   <i name="PARAM1">      0.12340000</i>
   <i name="PARAM2">      1.00000000</i>
   <i name="PARAM3">      0.00000000</i>
  </separator>
  <separator name="model GW" >
   <i type="int" name="MODEL_GW">     0</i>
   <i name="MODEL_EPS0">     11.96848538</i>
   <i name="MODEL_ALPHA">      1.00000000</i>
  </separator>
  <separator name="linear response parameters" >
   <i type="logical" name="LEPSILON"> F  </i>
   <i type="logical" name="LRPA"> F  </i>
   <i type="logical" name="LNABLA"> F  </i>
   <i type="logical" name="LVEL"> F  </i>
   <i type="int" name="KINTER">     0</i>
   <i name="CSHIFT">      0.10000000</i>
   <i name="OMEGAMAX">     -1.00000000</i>
   <i name="DEG_THRESHOLD">      0.00200000</i>
   <i name="RTIME">     -0.10000000</i>
   <i name="WPLASMAI">      0.00000000</i>
   <v name="DFIELD">      0.00000000      0.00000000      0.00000000</v>
   <v name="WPLASMA">      0.00000000      0.00000000      0.00000000      0.00000000      0.00000000      0.00000000      0.00000000      0.00000000      0.00000000</v>
  </separator>
  <separator name="orbital magnetization" >
   <i type="logical" name="NUCIND"> F  </i>
   <v name="MAGPOS">      0.00000000      0.00000000      0.00000000</v>
   <i type="logical" name="LNICSALL"> T  </i>
   <i type="logical" name="ORBITALMAG"> F  </i>
   <i type="logical" name="LMAGBLOCH"> F  </i>
   <i type="logical" name="LCHIMAG"> F  </i>
   <i type="logical" name="LGAUGE"> T  </i>
   <i type="int" name="MAGATOM">     0</i>
   <v name="MAGDIPOL">      0.00000000      0.00000000      0.00000000</v>
   <v name="AVECCONST">      0.00000000      0.00000000      0.00000000</v>
  </separator>
  <separator name="response functions" >
   <i type="logical" name="LADDER"> F  </i>
   <i type="logical" name="LRPAFORCE"> F  </i>
   <i type="logical" name="LFXC"> F  </i>
   <i type="logical" name="LHARTREE"> T  </i>
   <i type="int" name="IBSE">     0</i>
   <v type="int" name="KPOINT">    -1     0     0     0</v>
   <i type="logical" name="LTCTE"> F  </i>
   <i type="logical" name="LTETE"> F  </i>
   <i type="logical" name="LTRIPLET"> F  </i>
   <i type="logical" name="LFXCEPS"> F  </i>
   <i type="logical" name="LFXHEG"> F  </i>
   <i type="int" name="NATURALO">     2</i>
   <i type="logical" name="L2ORDER"> F  </i>
   <i type="logical" name="LMP2LT"> F  </i>
   <i type="logical" name="LUSEW"> F  </i>
   <i name="ENCUTGW">     -2.00000000</i>
   <i name="ENCUTGWSOFT">     -2.00000000</i>
   <i name="ENCUTLF">     -1.00000000</i>
   <i type="int" name="LMAXMP2">    -1</i>
   <i name="SCISSOR">      0.00000000</i>
   <i type="int" name="NOMEGA">     0</i>
   <i type="int" name="NOMEGAR">     0</i>
   <i type="int" name="NBANDSGW">    -1</i>
   <i type="int" name="NBANDSO">    -1</i>
   <i type="int" name="NBANDSV">    -1</i>
   <i type="int" name="NELM">     1</i>
   <i type="int" name="NELMHF">     1</i>
   <i type="int" name="DIM">     3</i>
   <i type="int" name="ANTIRES">     0</i>
   <i name="OMEGAMAX">    -30.00000000</i>
   <i name="OMEGAMIN">    -30.00000000</i>
   <i name="OMEGATL">   -200.00000000</i>
   <i type="int" name="OMEGAGRID">   140</i>
   <i name="CSHIFT">     -0.10000000</i>
   <i type="logical" name="SELFENERGY"> F  </i>
   <i type="logical" name="LSPECTRAL"> F  </i>
   <i type="logical" name="LSPECTRALGW"> F  </i>
   <i type="logical" name="LSINGLES"> F  </i>
   <i type="logical" name="LFERMIGW"> F  </i>
   <i type="logical" name="ODDONLYGW"> F  </i>
   <i type="logical" name="EVENONLYGW"> F  </i>
   <i type="int" name="NKREDLFX">     1</i>
   <i type="int" name="NKREDLFY">     1</i>
   <i type="int" name="NKREDLFZ">     1</i>
   <i type="int" name="MAXMEM">  2800</i>
   <i type="int" name="TELESCOPE">     0</i>
   <i type="int" name="TAUPAR">     1</i>
   <i type="int" name="OMEGAPAR">    -1</i>
   <i name="LAMBDA">      1.00000000</i>
  </separator>
  <separator name="External order field" >
   <i name="OFIELD_KAPPA">      0.00000000</i>
   <v name="OFIELD_K">      0.00000000      0.00000000      0.00000000</v>
   <i name="OFIELD_Q6_NEAR">      0.00000000</i>
   <i name="OFIELD_Q6_FAR">      0.00000000</i>
   <i name="OFIELD_A">      0.00000000</i>
  </separator>
 </parameters>
 <atominfo>
  <atoms>      60 </atoms>
  <types>       5 </types>
  <array name="atoms" >
   <dimension dim="1">ion</dimension>
   <field type="string">element</field>
   <field type="int">atomtype</field>
   <set>
    <rc><c>Li</c><c>   1</c></rc>
    <rc><c>Li</c><c>   1</c></rc>
    <rc><c>Li</c><c>   1</c></rc>
    <rc><c>Li</c><c>   1</c></rc>
    <rc><c>Li</c><c>   1</c></rc>
    <rc><c>Li</c><c>   1</c></rc>
    <rc><c>Li</c><c>   1</c></rc>
    <rc><c>Li</c><c>   1</c></rc>
    <rc><c>Mg</c><c>   2</c></rc>
    <rc><c>Mg</c><c>   2</c></rc>
    <rc><c>Mg</c><c>   2</c></rc>
    <rc><c>Mg</c><c>   2</c></rc>
    <rc><c>Bi</c><c>   3</c></rc>
    <rc><c>Bi</c><c>   3</c></rc>
    <rc><c>Bi</c><c>   3</c></rc>
    <rc><c>Bi</c><c>   3</c></rc>
    <rc><c>Bi</c><c>   3</c></rc>
    <rc><c>Bi</c><c>   3</c></rc>
    <rc><c>Bi</c><c>   3</c></rc>
    <rc><c>Bi</c><c>   3</c></rc>
    <rc><c>Bi</c><c>   3</c></rc>
    <rc><c>Bi</c><c>   3</c></rc>
    <rc><c>Bi</c><c>   3</c></rc>
    <rc><c>Bi</c><c>   3</c></rc>
    <rc><c>Bi</c><c>   3</c></rc>
    <rc><c>Bi</c><c>   3</c></rc>
    <rc><c>Bi</c><c>   3</c></rc>
    <rc><c>Bi</c><c>   3</c></rc>
    <rc><c>S </c><c>   4</c></rc>
    <rc><c>S </c><c>   4</c></rc>
    <rc><c>S </c><c>   4</c></rc>
    <rc><c>S </c><c>   4</c></rc>
    <rc><c>S </c><c>   4</c></rc>
    <rc><c>S </c><c>   4</c></rc>
    <rc><c>S </c><c>   4</c></rc>
    <rc><c>S </c><c>   4</c></rc>
    <rc><c>S </c><c>   4</c></rc>
    <rc><c>S </c><c>   4</c></rc>
    <rc><c>S </c><c>   4</c></rc>
    <rc><c>S </c><c>   4</c></rc>
    <rc><c>S </c><c>   4</c></rc>
    <rc><c>S </c><c>   4</c></rc>
    <rc><c>S </c><c>   4</c></rc>
    <rc><c>S </c><c>   4</c></rc>
    <rc><c>O </c><c>   5</c></rc>
    <rc><c>O </c><c>   5</c></rc>
    <rc><c>O </c><c>   5</c></rc>
    <rc><c>O </c><c>   5</c></rc>
    <rc><c>O </c><c>   5</c></rc>
    <rc><c>O </c><c>   5</c></rc>
    <rc><c>O </c><c>   5</c></rc>
    <rc><c>O </c><c>   5</c></rc>
    <rc><c>O </c><c>   5</c></rc>
    <rc><c>O </c><c>   5</c></rc>
    <rc><c>O </c><c>   5</c></rc>
    <rc><c>O </c><c>   5</c></rc>
    <rc><c>O </c><c>   5</c></rc>
    <rc><c>O </c><c>   5</c></rc>
    <rc><c>O </c><c>   5</c></rc>
    <rc><c>O </c><c>   5</c></rc>
   </set>
  </array>
  <array name="atomtypes" >
   <dimension dim="1">type</dimension>
   <field type="int">atomspertype</field>
   <field type="string">element</field>
   <field>mass</field>
   <field>valence</field>
   <field type="string">pseudopotential</field>
   <set>
    <rc><c>   8</c><c>Li</c><c>      7.01000000</c><c>      3.00000000</c><c>  PAW_PBE Li_sv 10Sep2004               </c></rc>
    <rc><c>   4</c><c>Mg</c><c>     24.30500000</c><c>      2.00000000</c><c>  PAW_PBE Mg 13Apr2007                  </c></rc>
    <rc><c>  16</c><c>Bi</c><c>    208.98000000</c><c>     15.00000000</c><c>  PAW_PBE Bi_d 06Sep2000                </c></rc>
    <rc><c>  16</c><c>S </c><c>     32.06600000</c><c>      6.00000000</c><c>  PAW_PBE S 06Sep2000                   </c></rc>
    <rc><c>  16</c><c>O </c><c>     16.00000000</c><c>      6.00000000</c><c>  PAW_PBE O 08Apr2002                   </c></rc>
   </set>
  </array>
 </atominfo>
 <structure name="initialpos" >
  <crystal>
   <varray name="basis" >
    <v>      11.17850000       0.00000000       0.00000000 </v>
    <v>       0.00000000       9.57460000       0.00000000 </v>
    <v>       0.00000000       0.00000000      11.18240000 </v>
   </varray>
   <i name="volume">   1196.84853820 </i>
   <varray name="rec_basis" >
    <v>       0.08945744       0.00000000       0.00000000 </v>
    <v>       0.00000000       0.10444301       0.00000000 </v>
    <v>       0.00000000       0.00000000       0.08942624 </v>
   </varray>
  </crystal>
  <varray name="positions" >
   <v>       0.37539000       0.00017000       0.43687000 </v>
   <v>       0.62539000       0.99984000       0.43687000 </v>
   <v>       0.87539000       0.00017000       0.43687000 </v>
   <v>       0.87461000       0.00017000       0.18687000 </v>
   <v>       0.12461000       0.99984000       0.68687000 </v>
   <v>       0.37461000       0.00017000       0.68687000 </v>
   <v>       0.62461000       0.99984000       0.68687000 </v>
   <v>       0.87461000       0.00017000       0.68687000 </v>
   <v>       0.12461000       0.99984000       0.18687000 </v>
   <v>       0.62461000       0.99984000       0.18687000 </v>
   <v>       0.37539000       0.00017000       0.93687000 </v>
   <v>       0.87539000       0.00017000       0.93687000 </v>
   <v>       0.00013000       0.29519000       0.06281000 </v>
   <v>       0.25013000       0.70481000       0.06281000 </v>
   <v>       0.24987000       0.29519000       0.31282000 </v>
   <v>       0.49987000       0.70481000       0.31282000 </v>
   <v>       0.50013000       0.29519000       0.06281000 </v>
   <v>       0.75013000       0.70481000       0.06281000 </v>
   <v>       0.74987000       0.29519000       0.31282000 </v>
   <v>       0.99987000       0.70481000       0.31282000 </v>
   <v>       0.00013000       0.29519000       0.56281000 </v>
   <v>       0.25013000       0.70481000       0.56281000 </v>
   <v>       0.24987000       0.29519000       0.81282000 </v>
   <v>       0.49987000       0.70481000       0.81282000 </v>
   <v>       0.50013000       0.29519000       0.56281000 </v>
   <v>       0.75013000       0.70481000       0.56281000 </v>
   <v>       0.74987000       0.29519000       0.81282000 </v>
   <v>       0.99987000       0.70481000       0.81282000 </v>
   <v>       0.25005000       0.32677000       0.06286000 </v>
   <v>       0.00005000       0.67323000       0.06286000 </v>
   <v>       0.49995000       0.32677000       0.31286000 </v>
   <v>       0.24995000       0.67323000       0.31286000 </v>
   <v>       0.75005000       0.32677000       0.06286000 </v>
   <v>       0.50005000       0.67323000       0.06286000 </v>
   <v>       0.99995000       0.32677000       0.31286000 </v>
   <v>       0.74995000       0.67323000       0.31286000 </v>
   <v>       0.25005000       0.32677000       0.56286000 </v>
   <v>       0.00005000       0.67323000       0.56286000 </v>
   <v>       0.49995000       0.32677000       0.81286000 </v>
   <v>       0.24995000       0.67323000       0.81286000 </v>
   <v>       0.75005000       0.32677000       0.56286000 </v>
   <v>       0.50005000       0.67323000       0.56286000 </v>
   <v>       0.99995000       0.32677000       0.81286000 </v>
   <v>       0.74995000       0.67323000       0.81286000 </v>
   <v>       0.49987000       0.07798000       0.06246000 </v>
   <v>       0.24987000       0.92202000       0.06246000 </v>
   <v>       0.25013000       0.07798000       0.31246000 </v>
   <v>       0.00013000       0.92202000       0.31246000 </v>
   <v>       0.99987000       0.07798000       0.06246000 </v>
   <v>       0.74987000       0.92202000       0.06246000 </v>
   <v>       0.75013000       0.07798000       0.31246000 </v>
   <v>       0.50013000       0.92202000       0.31246000 </v>
   <v>       0.49987000       0.07798000       0.56246000 </v>
   <v>       0.24987000       0.92202000       0.56246000 </v>
   <v>       0.25013000       0.07798000       0.81246000 </v>
   <v>       0.00013000       0.92202000       0.81246000 </v>
   <v>       0.99987000       0.07798000       0.56246000 </v>
   <v>       0.74987000       0.92202000       0.56246000 </v>
   <v>       0.75013000       0.07798000       0.81246000 </v>
   <v>       0.50013000       0.92202000       0.81246000 </v>
  </varray>
 </structure>
 <calculation>
  <scstep>
   <time name="dav">   60.09   60.13</time>
   <time name="total">   60.17   60.21</time>
   <energy>
    <i name="alphaZ">   1067.11773629 </i>
    <i name="ewald"> -30635.39641874 </i>
    <i name="hartreedc"> -12718.25635473 </i>
    <i name="XCdc">   1321.05352480 </i>
    <i name="pawpsdc">  36729.48549953 </i>
    <i name="pawaedc"> -36149.63912807 </i>
    <i name="eentropy">      0.00000000 </i>
    <i name="bandstr">   1840.04896258 </i>
    <i name="atom">  44408.54722957 </i>
    <i name="e_fr_energy">   5862.96105122 </i>
    <i name="e_wo_entrp">   5862.96105122 </i>
    <i name="e_0_energy">   5862.96105122 </i>
   </energy>
  </scstep>
  <scstep>
   <time name="dav">   60.69   60.81</time>
   <time name="total">   60.70   60.82</time>
   <energy>
    <i name="e_fr_energy">    783.68830215 </i>
    <i name="e_wo_entrp">    783.68830215 </i>
    <i name="e_0_energy">    783.68830215 </i>
   </energy>
  </scstep>
  <scstep>
   <time name="dav">   69.84   69.92</time>
   <time name="total">   69.84   69.92</time>
   <energy>
    <i name="e_fr_energy">   -243.05477724 </i>
    <i name="e_wo_entrp">   -243.05477724 </i>
    <i name="e_0_energy">   -243.05477724 </i>
   </energy>
  </scstep>
  <scstep>
   <time name="dav">   72.33   72.53</time>
   <time name="total">   72.33   72.53</time>
   <energy>
    <i name="e_fr_energy">   -341.75749499 </i>
    <i name="e_wo_entrp">   -341.75749499 </i>
    <i name="e_0_energy">   -341.75749499 </i>
   </energy>
  </scstep>
  <scstep>
   <time name="dav">   95.37   95.61</time>
   <time name="total">   96.09   96.33</time>
   <energy>
    <i name="e_fr_energy">   -349.88339812 </i>
    <i name="e_wo_entrp">   -349.88339812 </i>
    <i name="e_0_energy">   -349.88339812 </i>
   </energy>
  </scstep>
  <scstep>
   <time name="dav">   85.45   85.52</time>
   <time name="total">   86.24   86.31</time>
   <energy>
    <i name="e_fr_energy">   -292.59782802 </i>
    <i name="e_wo_entrp">   -292.59782802 </i>
    <i name="e_0_energy">   -292.59782802 </i>
   </energy>
  </scstep>
  <scstep>
   <time name="dav">   65.63   66.05</time>
   <time name="total">   66.41   66.84</time>
   <energy>
    <i name="e_fr_energy">   -295.22648478 </i>
    <i name="e_wo_entrp">   -295.22648478 </i>
    <i name="e_0_energy">   -295.22648478 </i>
   </energy>
  </scstep>
  <scstep>
   <time name="dav">   78.77   79.26</time>
   <time name="total">   79.55   80.04</time>
   <energy>
    <i name="e_fr_energy">   -294.07248885 </i>
    <i name="e_wo_entrp">   -294.07248885 </i>
    <i name="e_0_energy">   -294.07248885 </i>
   </energy>
  </scstep>
  <scstep>
   <time name="dav">   73.34   73.65</time>
   <time name="total">   74.13   74.43</time>
   <energy>
    <i name="e_fr_energy">   -293.46240754 </i>
    <i name="e_wo_entrp">   -293.46240754 </i>
    <i name="e_0_energy">   -293.46240754 </i>
   </energy>
  </scstep>
  <scstep>
   <time name="dav">   74.73   75.08</time>
   <time name="total">   75.52   75.87</time>
   <energy>
    <i name="e_fr_energy">   -293.48732343 </i>
    <i name="e_wo_entrp">   -293.48732343 </i>
    <i name="e_0_energy">   -293.48732343 </i>
   </energy>
  </scstep>
  <scstep>
   <time name="dav">   78.87   79.17</time>
   <time name="total">   79.66   79.96</time>
   <energy>
    <i name="e_fr_energy">   -293.49459539 </i>
    <i name="e_wo_entrp">   -293.49459539 </i>
    <i name="e_0_energy">   -293.49459539 </i>
   </energy>
  </scstep>
  <scstep>
   <time name="dav">   79.30   79.62</time>
   <time name="total">   80.09   80.41</time>
   <energy>
    <i name="e_fr_energy">   -293.49747341 </i>
    <i name="e_wo_entrp">   -293.49747341 </i>
    <i name="e_0_energy">   -293.49747341 </i>
   </energy>
  </scstep>
  <scstep>
   <time name="dav">   74.20   74.43</time>
   <time name="total">   74.99   75.22</time>
   <energy>
    <i name="e_fr_energy">   -293.49878026 </i>
    <i name="e_wo_entrp">   -293.49878026 </i>
    <i name="e_0_energy">   -293.49878026 </i>
   </energy>
  </scstep>
  <scstep>
   <time name="dav">   76.42   76.58</time>
   <time name="total">   77.20   77.37</time>
   <energy>
    <i name="e_fr_energy">   -293.49897627 </i>
    <i name="e_wo_entrp">   -293.49897627 </i>
    <i name="e_0_energy">   -293.49897627 </i>
   </energy>
  </scstep>
  <scstep>
   <time name="dav">   77.16   77.56</time>
   <time name="total">   77.95   78.35</time>
   <energy>
    <i name="e_fr_energy">   -293.49901566 </i>
    <i name="e_wo_entrp">   -293.49901566 </i>
    <i name="e_0_energy">   -293.49901566 </i>
   </energy>
  </scstep>
  <scstep>
   <time name="dav">   64.13   64.60</time>
   <time name="total">   64.92   65.38</time>
   <energy>
    <i name="e_fr_energy">   -293.49903887 </i>
    <i name="e_wo_entrp">   -293.49903887 </i>
    <i name="e_0_energy">   -293.49903887 </i>
   </energy>
  </scstep>
  <scstep>
   <time name="dav">   71.52   71.74</time>
   <time name="total">   72.31   72.53</time>
   <energy>
    <i name="e_fr_energy">   -293.49904166 </i>
    <i name="e_wo_entrp">   -293.49904166 </i>
    <i name="e_0_energy">   -293.49904166 </i>
   </energy>
  </scstep>
  <scstep>
   <time name="dav">   61.86   62.16</time>
   <time name="total">   61.93   62.24</time>
   <energy>
    <i name="alphaZ">   1067.11773629 </i>
    <i name="ewald"> -30635.39641874 </i>
    <i name="hartreedc"> -12959.17821324 </i>
    <i name="XCdc">   1345.28910121 </i>
    <i name="pawpsdc">  43760.85218301 </i>
    <i name="pawaedc"> -43155.06428894 </i>
    <i name="eentropy">      0.00000000 </i>
    <i name="bandstr">  -4125.66637127 </i>
    <i name="atom">  44408.54722957 </i>
    <i name="e_fr_energy">   -293.49904210 </i>
    <i name="e_wo_entrp">   -293.49904210 </i>
    <i name="e_0_energy">   -293.49904210 </i>
   </energy>
  </scstep>
  <structure>
   <crystal>
    <varray name="basis" >
     <v>      11.17850000       0.00000000       0.00000000 </v>
     <v>       0.00000000       9.57460000       0.00000000 </v>
     <v>       0.00000000       0.00000000      11.18240000 </v>
    </varray>
    <i name="volume">   1196.84853820 </i>
    <varray name="rec_basis" >
     <v>       0.08945744       0.00000000       0.00000000 </v>
     <v>       0.00000000       0.10444301       0.00000000 </v>
     <v>       0.00000000       0.00000000       0.08942624 </v>
    </varray>
   </crystal>
   <varray name="positions" >
    <v>       0.37539000       0.00017000       0.43687000 </v>
    <v>       0.62539000       0.99984000       0.43687000 </v>
    <v>       0.87539000       0.00017000       0.43687000 </v>
    <v>       0.87461000       0.00017000       0.18687000 </v>
    <v>       0.12461000       0.99984000       0.68687000 </v>
    <v>       0.37461000       0.00017000       0.68687000 </v>
    <v>       0.62461000       0.99984000       0.68687000 </v>
    <v>       0.87461000       0.00017000       0.68687000 </v>
    <v>       0.12461000       0.99984000       0.18687000 </v>
    <v>       0.62461000       0.99984000       0.18687000 </v>
    <v>       0.37539000       0.00017000       0.93687000 </v>
    <v>       0.87539000       0.00017000       0.93687000 </v>
    <v>       0.00013000       0.29519000       0.06281000 </v>
    <v>       0.25013000       0.70481000       0.06281000 </v>
    <v>       0.24987000       0.29519000       0.31282000 </v>
    <v>       0.49987000       0.70481000       0.31282000 </v>
    <v>       0.50013000       0.29519000       0.06281000 </v>
    <v>       0.75013000       0.70481000       0.06281000 </v>
    <v>       0.74987000       0.29519000       0.31282000 </v>
    <v>       0.99987000       0.70481000       0.31282000 </v>
    <v>       0.00013000       0.29519000       0.56281000 </v>
    <v>       0.25013000       0.70481000       0.56281000 </v>
    <v>       0.24987000       0.29519000       0.81282000 </v>
    <v>       0.49987000       0.70481000       0.81282000 </v>
    <v>       0.50013000       0.29519000       0.56281000 </v>
    <v>       0.75013000       0.70481000       0.56281000 </v>
    <v>       0.74987000       0.29519000       0.81282000 </v>
    <v>       0.99987000       0.70481000       0.81282000 </v>
    <v>       0.25005000       0.32677000       0.06286000 </v>
    <v>       0.00005000       0.67323000       0.06286000 </v>
    <v>       0.49995000       0.32677000       0.31286000 </v>
    <v>       0.24995000       0.67323000       0.31286000 </v>
    <v>       0.75005000       0.32677000       0.06286000 </v>
    <v>       0.50005000       0.67323000       0.06286000 </v>
    <v>       0.99995000       0.32677000       0.31286000 </v>
    <v>       0.74995000       0.67323000       0.31286000 </v>
    <v>       0.25005000       0.32677000       0.56286000 </v>
    <v>       0.00005000       0.67323000       0.56286000 </v>
    <v>       0.49995000       0.32677000       0.81286000 </v>
    <v>       0.24995000       0.67323000       0.81286000 </v>
    <v>       0.75005000       0.32677000       0.56286000 </v>
    <v>       0.50005000       0.67323000       0.56286000 </v>
    <v>       0.99995000       0.32677000       0.81286000 </v>
    <v>       0.74995000       0.67323000       0.81286000 </v>
    <v>       0.49987000       0.07798000       0.06246000 </v>
    <v>       0.24987000       0.92202000       0.06246000 </v>
    <v>       0.25013000       0.07798000       0.31246000 </v>
    <v>       0.00013000       0.92202000       0.31246000 </v>
    <v>       0.99987000       0.07798000       0.06246000 </v>
    <v>       0.74987000       0.92202000       0.06246000 </v>
    <v>       0.75013000       0.07798000       0.31246000 </v>
    <v>       0.50013000       0.92202000       0.31246000 </v>
    <v>       0.49987000       0.07798000       0.56246000 </v>
    <v>       0.24987000       0.92202000       0.56246000 </v>
    <v>       0.25013000       0.07798000       0.81246000 </v>
    <v>       0.00013000       0.92202000       0.81246000 </v>
    <v>       0.99987000       0.07798000       0.56246000 </v>
    <v>       0.74987000       0.92202000       0.56246000 </v>
    <v>       0.75013000       0.07798000       0.81246000 </v>
    <v>       0.50013000       0.92202000       0.81246000 </v>
   </varray>
  </structure>
  <varray name="forces" >
   <v>      -0.54053928       0.00186075      -0.28945600 </v>
   <v>      -0.20703101      -0.06316314       0.37342649 </v>
   <v>       0.53220872      -0.00365359       0.21831197 </v>
   <v>       0.20637901      -0.06176827       0.35669134 </v>
   <v>       0.04200856       0.00323618      -0.19155169 </v>
   <v>      -0.19272155      -0.06042781      -0.33592911 </v>
   <v>      -0.02259510      -0.00004806       0.30995747 </v>
   <v>       0.19511623       0.06104333      -0.33525176 </v>
   <v>       1.09359138      -0.00251477       0.44907486 </v>
   <v>      -1.05734616       0.00958548      -0.54469762 </v>
   <v>      -0.09226321      -0.00670038       0.58547509 </v>
   <v>       0.04385655      -0.00124774      -0.42590879 </v>
   <v>       0.30962284       1.02667551      -0.12733285 </v>
   <v>       0.04587640       0.08503526       0.04082355 </v>
   <v>       0.06336257      -1.05347371       0.27787734 </v>
   <v>      -0.41789920      -0.03144536       0.13228179 </v>
   <v>      -0.20378565      -0.06034116      -0.00002111 </v>
   <v>      -0.16965953      -1.02001708      -0.17776953 </v>
   <v>       0.09118718       1.07732169       0.31462164 </v>
   <v>       0.28579042      -0.02069016       0.46458706 </v>
   <v>       0.27811177      -1.00277953      -0.11490579 </v>
   <v>      -0.15288373       1.02143751      -0.14691616 </v>
   <v>      -0.17892079      -0.00684746      -0.19911822 </v>
   <v>       0.04612109       0.01044943      -0.15948569 </v>
   <v>      -0.19891565       0.01961707       0.00870901 </v>
   <v>       0.04333248      -0.03593842       0.04789286 </v>
   <v>      -0.17674683       0.01353108      -0.19658822 </v>
   <v>       0.33549293      -0.01430088      -0.23921841 </v>
   <v>      -0.09290652       0.09604657      -0.10517390 </v>
   <v>      -0.18752447      -0.06080359       0.00761748 </v>
   <v>       0.33572306       0.12049444      -0.08882733 </v>
   <v>      -0.05303830      -0.14960223      -0.19616040 </v>
   <v>       0.09860545       0.01232483       0.09762710 </v>
   <v>       0.17742030      -0.05052390       0.01165704 </v>
   <v>      -0.23853880       0.12738015      -0.30119687 </v>
   <v>      -0.04449446      -0.11038932      -0.19097107 </v>
   <v>       0.11657632       0.23100803       0.12006334 </v>
   <v>      -0.19193104      -0.19768997       0.01159377 </v>
   <v>       0.02047518       0.14466537       0.08547907 </v>
   <v>       0.06141323      -0.18457388       0.18595880 </v>
   <v>      -0.10455806       0.19371201      -0.09212343 </v>
   <v>       0.18234259      -0.22977557      -0.00973760 </v>
   <v>      -0.14205255       0.14161005       0.28314014 </v>
   <v>       0.06289655      -0.10432695       0.17872495 </v>
   <v>       0.16402404       0.22100293       0.03698603 </v>
   <v>      -0.04644724      -0.28028653      -0.06509958 </v>
   <v>      -0.52966436       0.97614233      -0.61654990 </v>
   <v>      -0.35360526       0.01826086      -1.29830950 </v>
   <v>      -0.81352329      -0.72028768       0.58963772 </v>
   <v>       0.71527672       0.78074882       0.69143229 </v>
   <v>      -0.48812601      -0.86683541      -0.66291068 </v>
   <v>       1.33469771       0.01164596       0.03046373 </v>
   <v>       0.16527176       0.02565201      -0.00631456 </v>
   <v>       0.66469958      -0.87700077       0.65938837 </v>
   <v>       1.11885141       0.09994233       0.00049794 </v>
   <v>      -1.20752075      -0.03552366       0.09211428 </v>
   <v>      -0.73467346       0.82364668       0.59402343 </v>
   <v>      -0.06640631       0.02902611      -0.08189356 </v>
   <v>       1.10247312      -0.00856635       0.01943185 </v>
   <v>      -1.02648658      -0.06155948      -0.07614845 </v>
  </varray>
  <varray name="stress" >
   <v>     -10.67699964      -0.21984301      -0.62980788 </v>
   <v>      -0.21984286     -13.66439685       0.00572749 </v>
   <v>      -0.62980794       0.00572739      -8.27470696 </v>
  </varray>
  <energy>
   <i name="e_fr_energy">   -307.07170079 </i>
   <i name="e_wo_entrp">   -307.07170079 </i>
   <i name="e_0_energy">      0.00000000 </i>
  </energy>
  <time name="totalsc"> 1437.65 1443.26</time>
  <eigenvalues>
   <array>
    <dimension dim="1">band</dimension>
    <dimension dim="2">kpoint</dimension>
    <dimension dim="3">spin</dimension>
    <field>eigene</field>
    <field>occ</field>
    <set>
     <set comment="spin 1">
      <set comment="kpoint 1">
       <r>  -40.5414    1.0000 </r>
       <r>  -40.0370    1.0000 </r>
       <r>  -39.7962    1.0000 </r>
       <r>  -39.7775    1.0000 </r>
       <r>  -39.7041    1.0000 </r>
       <r>  -39.6089    1.0000 </r>
       <r>  -39.3512    1.0000 </r>
       <r>  -39.3394    1.0000 </r>
       <r>  -19.0158    1.0000 </r>
       <r>  -18.9447    1.0000 </r>
       <r>  -18.9412    1.0000 </r>
       <r>  -18.9366    1.0000 </r>
       <r>  -18.9331    1.0000 </r>
       <r>  -18.8757    1.0000 </r>
       <r>  -18.8691    1.0000 </r>
       <r>  -18.8605    1.0000 </r>
       <r>  -18.8519    1.0000 </r>
       <r>  -18.8431    1.0000 </r>
       <r>  -18.8243    1.0000 </r>
       <r>  -18.7688    1.0000 </r>
       <r>  -18.7672    1.0000 </r>
       <r>  -18.7555    1.0000 </r>
       <r>  -18.7456    1.0000 </r>
       <r>  -18.7262    1.0000 </r>
       <r>  -18.7149    1.0000 </r>
       <r>  -18.7123    1.0000 </r>
       <r>  -18.7082    1.0000 </r>
       <r>  -18.7025    1.0000 </r>
       <r>  -18.6876    1.0000 </r>
       <r>  -18.6806    1.0000 </r>
       <r>  -18.6722    1.0000 </r>
       <r>  -18.6674    1.0000 </r>
       <r>  -18.6647    1.0000 </r>
       <r>  -18.6635    1.0000 </r>
       <r>  -18.6611    1.0000 </r>
       <r>  -18.6559    1.0000 </r>
       <r>  -18.6534    1.0000 </r>
       <r>  -18.6523    1.0000 </r>
       <r>  -18.6521    1.0000 </r>
       <r>  -18.6487    1.0000 </r>
       <r>  -18.6456    1.0000 </r>
       <r>  -18.6387    1.0000 </r>
       <r>  -18.6355    1.0000 </r>
       <r>  -18.6321    1.0000 </r>
       <r>  -18.6197    1.0000 </r>
       <r>  -18.6127    1.0000 </r>
       <r>  -18.6039    1.0000 </r>
       <r>  -18.5854    1.0000 </r>
       <r>  -18.5753    1.0000 </r>
       <r>  -18.5723    1.0000 </r>
       <r>  -18.5695    1.0000 </r>
       <r>  -18.5653    1.0000 </r>
       <r>  -18.5620    1.0000 </r>
       <r>  -18.5574    1.0000 </r>
       <r>  -18.5513    1.0000 </r>
       <r>  -18.5464    1.0000 </r>
       <r>  -18.5346    1.0000 </r>
       <r>  -18.5163    1.0000 </r>
       <r>  -18.5138    1.0000 </r>
       <r>  -18.5058    1.0000 </r>
       <r>  -18.5026    1.0000 </r>
       <r>  -18.5012    1.0000 </r>
       <r>  -18.4981    1.0000 </r>
       <r>  -18.4948    1.0000 </r>
       <r>  -18.4903    1.0000 </r>
       <r>  -18.4854    1.0000 </r>
       <r>  -18.4849    1.0000 </r>
       <r>  -18.4729    1.0000 </r>
       <r>  -18.4507    1.0000 </r>
       <r>  -18.4194    1.0000 </r>
       <r>  -18.4162    1.0000 </r>
       <r>  -18.4139    1.0000 </r>
       <r>  -18.4057    1.0000 </r>
       <r>  -18.4019    1.0000 </r>
       <r>  -18.3997    1.0000 </r>
       <r>  -18.3980    1.0000 </r>
       <r>  -18.3854    1.0000 </r>
       <r>  -18.3406    1.0000 </r>
       <r>  -18.3283    1.0000 </r>
       <r>  -18.3215    1.0000 </r>
       <r>  -18.3098    1.0000 </r>
       <r>  -18.2460    1.0000 </r>
       <r>  -18.2044    1.0000 </r>
       <r>  -18.2032    1.0000 </r>
       <r>  -18.1901    1.0000 </r>
       <r>  -18.1752    1.0000 </r>
       <r>  -18.1295    1.0000 </r>
       <r>  -18.1194    1.0000 </r>
       <r>  -13.6715    1.0000 </r>
       <r>  -13.5251    1.0000 </r>
       <r>  -13.5024    1.0000 </r>
       <r>  -12.8901    1.0000 </r>
       <r>  -12.8309    1.0000 </r>
       <r>  -12.7669    1.0000 </r>
       <r>  -12.7521    1.0000 </r>
       <r>  -12.7257    1.0000 </r>
       <r>  -12.7132    1.0000 </r>
       <r>  -12.6688    1.0000 </r>
       <r>  -12.6490    1.0000 </r>
       <r>  -12.5918    1.0000 </r>
       <r>  -12.5621    1.0000 </r>
       <r>  -11.9994    1.0000 </r>
       <r>  -11.9453    1.0000 </r>
       <r>  -11.8589    1.0000 </r>
       <r>   -9.3515    1.0000 </r>
       <r>   -9.0582    1.0000 </r>
       <r>   -8.5385    1.0000 </r>
       <r>   -8.5373    1.0000 </r>
       <r>   -8.4795    1.0000 </r>
       <r>   -8.4753    1.0000 </r>
       <r>   -8.3164    1.0000 </r>
       <r>   -8.3144    1.0000 </r>
       <r>   -8.2611    1.0000 </r>
       <r>   -8.2499    1.0000 </r>
       <r>   -8.0372    1.0000 </r>
       <r>   -8.0123    1.0000 </r>
       <r>   -8.0024    1.0000 </r>
       <r>   -7.9699    1.0000 </r>
       <r>   -7.3644    1.0000 </r>
       <r>   -7.3603    1.0000 </r>
       <r>   -6.3933    1.0000 </r>
       <r>   -6.3909    1.0000 </r>
       <r>   -6.3592    1.0000 </r>
       <r>   -6.3589    1.0000 </r>
       <r>   -5.5537    1.0000 </r>
       <r>   -5.5502    1.0000 </r>
       <r>   -5.3823    1.0000 </r>
       <r>   -5.3602    1.0000 </r>
       <r>   -5.2857    1.0000 </r>
       <r>   -5.2775    1.0000 </r>
       <r>   -5.2031    1.0000 </r>
       <r>   -5.1607    1.0000 </r>
       <r>   -5.0900    1.0000 </r>
       <r>   -5.0617    1.0000 </r>
       <r>   -3.8087    1.0000 </r>
       <r>   -3.6559    1.0000 </r>
       <r>   -1.5129    1.0000 </r>
       <r>   -1.3171    1.0000 </r>
       <r>   -1.1412    1.0000 </r>
       <r>   -1.0047    1.0000 </r>
       <r>   -0.5678    1.0000 </r>
       <r>   -0.5603    1.0000 </r>
       <r>   -0.5149    1.0000 </r>
       <r>   -0.5098    1.0000 </r>
       <r>   -0.1937    1.0000 </r>
       <r>   -0.1866    1.0000 </r>
       <r>   -0.1797    1.0000 </r>
       <r>   -0.1704    1.0000 </r>
       <r>   -0.0252    1.0000 </r>
       <r>    0.0133    1.0000 </r>
       <r>    0.1660    1.0000 </r>
       <r>    0.3245    1.0000 </r>
       <r>    0.3864    1.0000 </r>
       <r>    0.4885    1.0000 </r>
       <r>    0.5333    1.0000 </r>
       <r>    0.5395    1.0000 </r>
       <r>    0.6304    1.0000 </r>
       <r>    0.7211    1.0000 </r>
       <r>    0.7355    1.0000 </r>
       <r>    0.7446    1.0000 </r>
       <r>    0.7687    1.0000 </r>
       <r>    0.8135    1.0000 </r>
       <r>    0.8718    1.0000 </r>
       <r>    0.9455    1.0000 </r>
       <r>    0.9706    1.0000 </r>
       <r>    0.9846    1.0000 </r>
       <r>    1.0313    1.0000 </r>
       <r>    1.0370    1.0000 </r>
       <r>    1.1062    1.0000 </r>
       <r>    1.1463    1.0000 </r>
       <r>    1.2114    1.0000 </r>
       <r>    1.2896    1.0000 </r>
       <r>    1.3088    1.0000 </r>
       <r>    1.3281    1.0000 </r>
       <r>    1.3500    1.0000 </r>
       <r>    1.4381    1.0000 </r>
       <r>    1.5271    1.0000 </r>
       <r>    1.5385    1.0000 </r>
       <r>    1.5655    1.0000 </r>
       <r>    1.5849    1.0000 </r>
       <r>    1.6464    1.0000 </r>
       <r>    1.7143    1.0000 </r>
       <r>    1.7618    1.0000 </r>
       <r>    1.8273    1.0000 </r>
       <r>    1.8636    1.0000 </r>
       <r>    1.8816    1.0000 </r>
       <r>    1.9911    1.0000 </r>
       <r>    2.0273    1.0000 </r>
       <r>    2.0950    1.0000 </r>
       <r>    2.1386    1.0000 </r>
       <r>    2.1947    1.0000 </r>
       <r>    2.2668    1.0000 </r>
       <r>    2.3306    1.0000 </r>
       <r>    2.3660    1.0000 </r>
       <r>    2.4715    1.0000 </r>
       <r>    2.5400    1.0000 </r>
       <r>    2.5497    1.0000 </r>
       <r>    2.5570    1.0000 </r>
       <r>    2.5652    1.0000 </r>
       <r>    2.5777    1.0000 </r>
       <r>    2.6100    1.0000 </r>
       <r>    2.6293    1.0000 </r>
       <r>    2.6832    1.0000 </r>
       <r>    2.7244    1.0000 </r>
       <r>    2.7529    1.0000 </r>
       <r>    2.7944    1.0000 </r>
       <r>    2.8337    1.0000 </r>
       <r>    2.8363    1.0000 </r>
       <r>    2.8616    1.0000 </r>
       <r>    2.9197    1.0000 </r>
       <r>    2.9553    1.0000 </r>
       <r>    2.9720    1.0000 </r>
       <r>    3.0232    1.0000 </r>
       <r>    3.0524    1.0000 </r>
       <r>    3.1127    1.0000 </r>
       <r>    3.1185    1.0000 </r>
       <r>    3.1416    1.0000 </r>
       <r>    3.1618    1.0000 </r>
       <r>    3.1859    1.0000 </r>
       <r>    3.2094    1.0000 </r>
       <r>    3.2180    1.0000 </r>
       <r>    3.2907    1.0000 </r>
       <r>    3.3310    1.0000 </r>
       <r>    3.3737    1.0000 </r>
       <r>    3.4090    1.0000 </r>
       <r>    3.4292    1.0000 </r>
       <r>    3.5603    1.0000 </r>
       <r>    3.7207    1.0000 </r>
       <r>    4.1740    1.0000 </r>
       <r>    4.1925    1.0000 </r>
       <r>    4.2285    1.0000 </r>
       <r>    4.2366    1.0000 </r>
       <r>    5.0125    0.0000 </r>
       <r>    5.0197    0.0000 </r>
       <r>    5.1616    0.0000 </r>
       <r>    5.1812    0.0000 </r>
       <r>    5.7095    0.0000 </r>
       <r>    5.7138    0.0000 </r>
       <r>    5.8023    0.0000 </r>
       <r>    5.8222    0.0000 </r>
       <r>    6.1117    0.0000 </r>
       <r>    6.1131    0.0000 </r>
       <r>    6.1328    0.0000 </r>
       <r>    6.1439    0.0000 </r>
       <r>    6.2408    0.0000 </r>
       <r>    6.2515    0.0000 </r>
       <r>    6.2591    0.0000 </r>
       <r>    6.2716    0.0000 </r>
       <r>    7.0332    0.0000 </r>
       <r>    7.0421    0.0000 </r>
       <r>    7.2728    0.0000 </r>
       <r>    7.3062    0.0000 </r>
       <r>    7.7573    0.0000 </r>
       <r>    7.8255    0.0000 </r>
       <r>    7.8817    0.0000 </r>
       <r>    7.9490    0.0000 </r>
       <r>    7.9584    0.0000 </r>
       <r>    8.0216    0.0000 </r>
       <r>    8.1013    0.0000 </r>
       <r>    8.1297    0.0000 </r>
       <r>    8.3699    0.0000 </r>
       <r>    8.6282    0.0000 </r>
       <r>    8.6809    0.0000 </r>
       <r>    8.7886    0.0000 </r>
       <r>    8.7978    0.0000 </r>
       <r>    8.8109    0.0000 </r>
       <r>    8.9047    0.0000 </r>
       <r>    8.9410    0.0000 </r>
       <r>    9.0054    0.0000 </r>
       <r>    9.0400    0.0000 </r>
       <r>    9.0492    0.0000 </r>
       <r>    9.1280    0.0000 </r>
       <r>    9.1355    0.0000 </r>
       <r>    9.1727    0.0000 </r>
       <r>    9.2105    0.0000 </r>
       <r>    9.2356    0.0000 </r>
       <r>    9.3857    0.0000 </r>
       <r>    9.4790    0.0000 </r>
       <r>    9.5693    0.0000 </r>
       <r>    9.6943    0.0000 </r>
      </set>
      <set comment="kpoint 2">
       <r>  -40.5414    1.0000 </r>
       <r>  -40.0370    1.0000 </r>
       <r>  -39.7962    1.0000 </r>
       <r>  -39.7775    1.0000 </r>
       <r>  -39.7041    1.0000 </r>
       <r>  -39.6089    1.0000 </r>
       <r>  -39.3512    1.0000 </r>
       <r>  -39.3394    1.0000 </r>
       <r>  -19.0158    1.0000 </r>
       <r>  -18.9447    1.0000 </r>
       <r>  -18.9412    1.0000 </r>
       <r>  -18.9366    1.0000 </r>
       <r>  -18.9331    1.0000 </r>
       <r>  -18.8756    1.0000 </r>
       <r>  -18.8691    1.0000 </r>
       <r>  -18.8607    1.0000 </r>
       <r>  -18.8520    1.0000 </r>
       <r>  -18.8431    1.0000 </r>
       <r>  -18.8243    1.0000 </r>
       <r>  -18.7688    1.0000 </r>
       <r>  -18.7672    1.0000 </r>
       <r>  -18.7555    1.0000 </r>
       <r>  -18.7456    1.0000 </r>
       <r>  -18.7262    1.0000 </r>
       <r>  -18.7149    1.0000 </r>
       <r>  -18.7122    1.0000 </r>
       <r>  -18.7081    1.0000 </r>
       <r>  -18.7025    1.0000 </r>
       <r>  -18.6877    1.0000 </r>
       <r>  -18.6757    1.0000 </r>
       <r>  -18.6739    1.0000 </r>
       <r>  -18.6679    1.0000 </r>
       <r>  -18.6653    1.0000 </r>
       <r>  -18.6616    1.0000 </r>
       <r>  -18.6612    1.0000 </r>
       <r>  -18.6592    1.0000 </r>
       <r>  -18.6566    1.0000 </r>
       <r>  -18.6555    1.0000 </r>
       <r>  -18.6527    1.0000 </r>
       <r>  -18.6497    1.0000 </r>
       <r>  -18.6430    1.0000 </r>
       <r>  -18.6387    1.0000 </r>
       <r>  -18.6336    1.0000 </r>
       <r>  -18.6253    1.0000 </r>
       <r>  -18.6200    1.0000 </r>
       <r>  -18.6159    1.0000 </r>
       <r>  -18.6044    1.0000 </r>
       <r>  -18.5855    1.0000 </r>
       <r>  -18.5753    1.0000 </r>
       <r>  -18.5722    1.0000 </r>
       <r>  -18.5695    1.0000 </r>
       <r>  -18.5653    1.0000 </r>
       <r>  -18.5620    1.0000 </r>
       <r>  -18.5574    1.0000 </r>
       <r>  -18.5513    1.0000 </r>
       <r>  -18.5464    1.0000 </r>
       <r>  -18.5346    1.0000 </r>
       <r>  -18.5163    1.0000 </r>
       <r>  -18.5138    1.0000 </r>
       <r>  -18.5058    1.0000 </r>
       <r>  -18.5025    1.0000 </r>
       <r>  -18.5014    1.0000 </r>
       <r>  -18.4982    1.0000 </r>
       <r>  -18.4947    1.0000 </r>
       <r>  -18.4903    1.0000 </r>
       <r>  -18.4853    1.0000 </r>
       <r>  -18.4849    1.0000 </r>
       <r>  -18.4729    1.0000 </r>
       <r>  -18.4507    1.0000 </r>
       <r>  -18.4194    1.0000 </r>
       <r>  -18.4162    1.0000 </r>
       <r>  -18.4140    1.0000 </r>
       <r>  -18.4057    1.0000 </r>
       <r>  -18.4019    1.0000 </r>
       <r>  -18.3996    1.0000 </r>
       <r>  -18.3980    1.0000 </r>
       <r>  -18.3855    1.0000 </r>
       <r>  -18.3406    1.0000 </r>
       <r>  -18.3283    1.0000 </r>
       <r>  -18.3215    1.0000 </r>
       <r>  -18.3098    1.0000 </r>
       <r>  -18.2460    1.0000 </r>
       <r>  -18.2045    1.0000 </r>
       <r>  -18.2032    1.0000 </r>
       <r>  -18.1901    1.0000 </r>
       <r>  -18.1752    1.0000 </r>
       <r>  -18.1295    1.0000 </r>
       <r>  -18.1194    1.0000 </r>
       <r>  -13.6707    1.0000 </r>
       <r>  -13.5260    1.0000 </r>
       <r>  -13.5023    1.0000 </r>
       <r>  -12.8831    1.0000 </r>
       <r>  -12.8416    1.0000 </r>
       <r>  -12.7649    1.0000 </r>
       <r>  -12.7556    1.0000 </r>
       <r>  -12.7282    1.0000 </r>
       <r>  -12.7020    1.0000 </r>
       <r>  -12.6640    1.0000 </r>
       <r>  -12.6574    1.0000 </r>
       <r>  -12.5914    1.0000 </r>
       <r>  -12.5623    1.0000 </r>
       <r>  -11.9995    1.0000 </r>
       <r>  -11.9456    1.0000 </r>
       <r>  -11.8586    1.0000 </r>
       <r>   -9.2068    1.0000 </r>
       <r>   -9.0492    1.0000 </r>
       <r>   -8.9338    1.0000 </r>
       <r>   -8.7725    1.0000 </r>
       <r>   -8.4107    1.0000 </r>
       <r>   -8.3973    1.0000 </r>
       <r>   -8.2730    1.0000 </r>
       <r>   -8.2618    1.0000 </r>
       <r>   -8.2086    1.0000 </r>
       <r>   -8.2002    1.0000 </r>
       <r>   -8.0723    1.0000 </r>
       <r>   -8.0611    1.0000 </r>
       <r>   -7.7548    1.0000 </r>
       <r>   -7.6470    1.0000 </r>
       <r>   -7.6364    1.0000 </r>
       <r>   -7.5280    1.0000 </r>
       <r>   -6.0586    1.0000 </r>
       <r>   -6.0354    1.0000 </r>
       <r>   -5.9432    1.0000 </r>
       <r>   -5.8538    1.0000 </r>
       <r>   -5.8361    1.0000 </r>
       <r>   -5.8115    1.0000 </r>
       <r>   -5.7142    1.0000 </r>
       <r>   -5.6893    1.0000 </r>
       <r>   -5.6567    1.0000 </r>
       <r>   -5.6223    1.0000 </r>
       <r>   -5.4894    1.0000 </r>
       <r>   -5.4298    1.0000 </r>
       <r>   -4.5074    1.0000 </r>
       <r>   -4.3493    1.0000 </r>
       <r>   -4.3410    1.0000 </r>
       <r>   -4.1750    1.0000 </r>
       <r>   -1.2742    1.0000 </r>
       <r>   -1.0849    1.0000 </r>
       <r>   -0.9132    1.0000 </r>
       <r>   -0.7398    1.0000 </r>
       <r>   -0.5551    1.0000 </r>
       <r>   -0.3974    1.0000 </r>
       <r>   -0.0908    1.0000 </r>
       <r>   -0.0509    1.0000 </r>
       <r>    0.0029    1.0000 </r>
       <r>    0.0241    1.0000 </r>
       <r>    0.0754    1.0000 </r>
       <r>    0.1565    1.0000 </r>
       <r>    0.1845    1.0000 </r>
       <r>    0.2252    1.0000 </r>
       <r>    0.3151    1.0000 </r>
       <r>    0.3572    1.0000 </r>
       <r>    0.4114    1.0000 </r>
       <r>    0.4757    1.0000 </r>
       <r>    0.5185    1.0000 </r>
       <r>    0.5663    1.0000 </r>
       <r>    0.5978    1.0000 </r>
       <r>    0.6263    1.0000 </r>
       <r>    0.6372    1.0000 </r>
       <r>    0.6812    1.0000 </r>
       <r>    0.6952    1.0000 </r>
       <r>    0.7625    1.0000 </r>
       <r>    0.7711    1.0000 </r>
       <r>    0.8317    1.0000 </r>
       <r>    0.9144    1.0000 </r>
       <r>    0.9935    1.0000 </r>
       <r>    1.0394    1.0000 </r>
       <r>    1.0789    1.0000 </r>
       <r>    1.2135    1.0000 </r>
       <r>    1.2213    1.0000 </r>
       <r>    1.2297    1.0000 </r>
       <r>    1.2556    1.0000 </r>
       <r>    1.2721    1.0000 </r>
       <r>    1.2998    1.0000 </r>
       <r>    1.3666    1.0000 </r>
       <r>    1.3960    1.0000 </r>
       <r>    1.4484    1.0000 </r>
       <r>    1.4673    1.0000 </r>
       <r>    1.4840    1.0000 </r>
       <r>    1.5608    1.0000 </r>
       <r>    1.6106    1.0000 </r>
       <r>    1.6542    1.0000 </r>
       <r>    1.6775    1.0000 </r>
       <r>    1.7560    1.0000 </r>
       <r>    1.7916    1.0000 </r>
       <r>    1.8484    1.0000 </r>
       <r>    1.8577    1.0000 </r>
       <r>    1.9017    1.0000 </r>
       <r>    2.0137    1.0000 </r>
       <r>    2.0228    1.0000 </r>
       <r>    2.0430    1.0000 </r>
       <r>    2.1179    1.0000 </r>
       <r>    2.1233    1.0000 </r>
       <r>    2.1742    1.0000 </r>
       <r>    2.2230    1.0000 </r>
       <r>    2.2584    1.0000 </r>
       <r>    2.2819    1.0000 </r>
       <r>    2.3705    1.0000 </r>
       <r>    2.3942    1.0000 </r>
       <r>    2.4824    1.0000 </r>
       <r>    2.5082    1.0000 </r>
       <r>    2.5270    1.0000 </r>
       <r>    2.5786    1.0000 </r>
       <r>    2.5944    1.0000 </r>
       <r>    2.6011    1.0000 </r>
       <r>    2.6484    1.0000 </r>
       <r>    2.6962    1.0000 </r>
       <r>    2.7301    1.0000 </r>
       <r>    2.7902    1.0000 </r>
       <r>    2.8040    1.0000 </r>
       <r>    2.8406    1.0000 </r>
       <r>    2.8445    1.0000 </r>
       <r>    2.9048    1.0000 </r>
       <r>    2.9451    1.0000 </r>
       <r>    3.0213    1.0000 </r>
       <r>    3.0313    1.0000 </r>
       <r>    3.0708    1.0000 </r>
       <r>    3.1059    1.0000 </r>
       <r>    3.1395    1.0000 </r>
       <r>    3.1588    1.0000 </r>
       <r>    3.1981    1.0000 </r>
       <r>    3.2790    1.0000 </r>
       <r>    3.3159    1.0000 </r>
       <r>    3.4216    1.0000 </r>
       <r>    3.4445    1.0000 </r>
       <r>    3.5038    1.0000 </r>
       <r>    3.5309    1.0000 </r>
       <r>    3.5487    1.0000 </r>
       <r>    3.6277    1.0000 </r>
       <r>    3.6681    1.0000 </r>
       <r>    3.7654    1.0000 </r>
       <r>    3.8229    1.0000 </r>
       <r>    5.5457    0.0000 </r>
       <r>    5.5518    0.0000 </r>
       <r>    5.7020    0.0000 </r>
       <r>    5.7106    0.0000 </r>
       <r>    5.7337    0.0000 </r>
       <r>    5.7407    0.0000 </r>
       <r>    5.8976    0.0000 </r>
       <r>    5.8980    0.0000 </r>
       <r>    7.1318    0.0000 </r>
       <r>    7.1646    0.0000 </r>
       <r>    7.2116    0.0000 </r>
       <r>    7.2808    0.0000 </r>
       <r>    7.3462    0.0000 </r>
       <r>    7.3776    0.0000 </r>
       <r>    7.4139    0.0000 </r>
       <r>    7.4343    0.0000 </r>
       <r>    7.4513    0.0000 </r>
       <r>    7.4879    0.0000 </r>
       <r>    7.5933    0.0000 </r>
       <r>    7.6082    0.0000 </r>
       <r>    7.7977    0.0000 </r>
       <r>    7.8050    0.0000 </r>
       <r>    7.8327    0.0000 </r>
       <r>    7.8584    0.0000 </r>
       <r>    7.8896    0.0000 </r>
       <r>    7.9014    0.0000 </r>
       <r>    7.9166    0.0000 </r>
       <r>    7.9669    0.0000 </r>
       <r>    7.9846    0.0000 </r>
       <r>    8.0148    0.0000 </r>
       <r>    8.0273    0.0000 </r>
       <r>    8.1395    0.0000 </r>
       <r>    8.2503    0.0000 </r>
       <r>    8.3442    0.0000 </r>
       <r>    8.4452    0.0000 </r>
       <r>    8.5121    0.0000 </r>
       <r>    8.6487    0.0000 </r>
       <r>    8.7277    0.0000 </r>
       <r>    8.7373    0.0000 </r>
       <r>    8.7498    0.0000 </r>
       <r>    8.7639    0.0000 </r>
       <r>    8.8560    0.0000 </r>
       <r>    8.9244    0.0000 </r>
       <r>    8.9400    0.0000 </r>
       <r>    9.0860    0.0000 </r>
       <r>    9.2666    0.0000 </r>
       <r>    9.3039    0.0000 </r>
       <r>    9.3537    0.0000 </r>
      </set>
      <set comment="kpoint 3">
       <r>  -40.5414    1.0000 </r>
       <r>  -40.0370    1.0000 </r>
       <r>  -39.7962    1.0000 </r>
       <r>  -39.7775    1.0000 </r>
       <r>  -39.7041    1.0000 </r>
       <r>  -39.6089    1.0000 </r>
       <r>  -39.3512    1.0000 </r>
       <r>  -39.3394    1.0000 </r>
       <r>  -19.0158    1.0000 </r>
       <r>  -18.9447    1.0000 </r>
       <r>  -18.9412    1.0000 </r>
       <r>  -18.9367    1.0000 </r>
       <r>  -18.9331    1.0000 </r>
       <r>  -18.8757    1.0000 </r>
       <r>  -18.8691    1.0000 </r>
       <r>  -18.8605    1.0000 </r>
       <r>  -18.8519    1.0000 </r>
       <r>  -18.8431    1.0000 </r>
       <r>  -18.8243    1.0000 </r>
       <r>  -18.7688    1.0000 </r>
       <r>  -18.7672    1.0000 </r>
       <r>  -18.7555    1.0000 </r>
       <r>  -18.7456    1.0000 </r>
       <r>  -18.7262    1.0000 </r>
       <r>  -18.7149    1.0000 </r>
       <r>  -18.7123    1.0000 </r>
       <r>  -18.7082    1.0000 </r>
       <r>  -18.7025    1.0000 </r>
       <r>  -18.6877    1.0000 </r>
       <r>  -18.6806    1.0000 </r>
       <r>  -18.6722    1.0000 </r>
       <r>  -18.6673    1.0000 </r>
       <r>  -18.6647    1.0000 </r>
       <r>  -18.6635    1.0000 </r>
       <r>  -18.6611    1.0000 </r>
       <r>  -18.6559    1.0000 </r>
       <r>  -18.6534    1.0000 </r>
       <r>  -18.6523    1.0000 </r>
       <r>  -18.6521    1.0000 </r>
       <r>  -18.6487    1.0000 </r>
       <r>  -18.6456    1.0000 </r>
       <r>  -18.6387    1.0000 </r>
       <r>  -18.6355    1.0000 </r>
       <r>  -18.6321    1.0000 </r>
       <r>  -18.6197    1.0000 </r>
       <r>  -18.6127    1.0000 </r>
       <r>  -18.6039    1.0000 </r>
       <r>  -18.5854    1.0000 </r>
       <r>  -18.5753    1.0000 </r>
       <r>  -18.5723    1.0000 </r>
       <r>  -18.5695    1.0000 </r>
       <r>  -18.5653    1.0000 </r>
       <r>  -18.5620    1.0000 </r>
       <r>  -18.5574    1.0000 </r>
       <r>  -18.5513    1.0000 </r>
       <r>  -18.5464    1.0000 </r>
       <r>  -18.5346    1.0000 </r>
       <r>  -18.5163    1.0000 </r>
       <r>  -18.5138    1.0000 </r>
       <r>  -18.5058    1.0000 </r>
       <r>  -18.5026    1.0000 </r>
       <r>  -18.5012    1.0000 </r>
       <r>  -18.4981    1.0000 </r>
       <r>  -18.4948    1.0000 </r>
       <r>  -18.4903    1.0000 </r>
       <r>  -18.4854    1.0000 </r>
       <r>  -18.4849    1.0000 </r>
       <r>  -18.4729    1.0000 </r>
       <r>  -18.4507    1.0000 </r>
       <r>  -18.4194    1.0000 </r>
       <r>  -18.4162    1.0000 </r>
       <r>  -18.4139    1.0000 </r>
       <r>  -18.4057    1.0000 </r>
       <r>  -18.4019    1.0000 </r>
       <r>  -18.3997    1.0000 </r>
       <r>  -18.3980    1.0000 </r>
       <r>  -18.3854    1.0000 </r>
       <r>  -18.3406    1.0000 </r>
       <r>  -18.3283    1.0000 </r>
       <r>  -18.3215    1.0000 </r>
       <r>  -18.3098    1.0000 </r>
       <r>  -18.2460    1.0000 </r>
       <r>  -18.2045    1.0000 </r>
       <r>  -18.2032    1.0000 </r>
       <r>  -18.1901    1.0000 </r>
       <r>  -18.1752    1.0000 </r>
       <r>  -18.1295    1.0000 </r>
       <r>  -18.1194    1.0000 </r>
       <r>  -13.6712    1.0000 </r>
       <r>  -13.5251    1.0000 </r>
       <r>  -13.5026    1.0000 </r>
       <r>  -12.8887    1.0000 </r>
       <r>  -12.8306    1.0000 </r>
       <r>  -12.7673    1.0000 </r>
       <r>  -12.7521    1.0000 </r>
       <r>  -12.7260    1.0000 </r>
       <r>  -12.7133    1.0000 </r>
       <r>  -12.6690    1.0000 </r>
       <r>  -12.6490    1.0000 </r>
       <r>  -12.5929    1.0000 </r>
       <r>  -12.5625    1.0000 </r>
       <r>  -11.9991    1.0000 </r>
       <r>  -11.9454    1.0000 </r>
       <r>  -11.8601    1.0000 </r>
       <r>   -9.3418    1.0000 </r>
       <r>   -9.0648    1.0000 </r>
       <r>   -8.5563    1.0000 </r>
       <r>   -8.5555    1.0000 </r>
       <r>   -8.4968    1.0000 </r>
       <r>   -8.4920    1.0000 </r>
       <r>   -8.2961    1.0000 </r>
       <r>   -8.2953    1.0000 </r>
       <r>   -8.2427    1.0000 </r>
       <r>   -8.2310    1.0000 </r>
       <r>   -8.0413    1.0000 </r>
       <r>   -8.0155    1.0000 </r>
       <r>   -8.0051    1.0000 </r>
       <r>   -7.9723    1.0000 </r>
       <r>   -7.3671    1.0000 </r>
       <r>   -7.3631    1.0000 </r>
       <r>   -6.3833    1.0000 </r>
       <r>   -6.3814    1.0000 </r>
       <r>   -6.3520    1.0000 </r>
       <r>   -6.3470    1.0000 </r>
       <r>   -5.5578    1.0000 </r>
       <r>   -5.5542    1.0000 </r>
       <r>   -5.4180    1.0000 </r>
       <r>   -5.4016    1.0000 </r>
       <r>   -5.3089    1.0000 </r>
       <r>   -5.3010    1.0000 </r>
       <r>   -5.1476    1.0000 </r>
       <r>   -5.1202    1.0000 </r>
       <r>   -5.0406    1.0000 </r>
       <r>   -5.0188    1.0000 </r>
       <r>   -3.8819    1.0000 </r>
       <r>   -3.5711    1.0000 </r>
       <r>   -1.3937    1.0000 </r>
       <r>   -1.3036    1.0000 </r>
       <r>   -1.2744    1.0000 </r>
       <r>   -1.0619    1.0000 </r>
       <r>   -0.4817    1.0000 </r>
       <r>   -0.4615    1.0000 </r>
       <r>   -0.4256    1.0000 </r>
       <r>   -0.4177    1.0000 </r>
       <r>   -0.3862    1.0000 </r>
       <r>   -0.3728    1.0000 </r>
       <r>   -0.3078    1.0000 </r>
       <r>   -0.3029    1.0000 </r>
       <r>   -0.1877    1.0000 </r>
       <r>   -0.0727    1.0000 </r>
       <r>   -0.0389    1.0000 </r>
       <r>    0.1778    1.0000 </r>
       <r>    0.2536    1.0000 </r>
       <r>    0.2779    1.0000 </r>
       <r>    0.3384    1.0000 </r>
       <r>    0.4215    1.0000 </r>
       <r>    0.5318    1.0000 </r>
       <r>    0.5748    1.0000 </r>
       <r>    0.6947    1.0000 </r>
       <r>    0.7165    1.0000 </r>
       <r>    0.7403    1.0000 </r>
       <r>    0.7966    1.0000 </r>
       <r>    0.8224    1.0000 </r>
       <r>    0.8318    1.0000 </r>
       <r>    0.9269    1.0000 </r>
       <r>    0.9954    1.0000 </r>
       <r>    1.0518    1.0000 </r>
       <r>    1.0716    1.0000 </r>
       <r>    1.2289    1.0000 </r>
       <r>    1.2754    1.0000 </r>
       <r>    1.3147    1.0000 </r>
       <r>    1.3488    1.0000 </r>
       <r>    1.4067    1.0000 </r>
       <r>    1.4846    1.0000 </r>
       <r>    1.5001    1.0000 </r>
       <r>    1.5229    1.0000 </r>
       <r>    1.6272    1.0000 </r>
       <r>    1.6470    1.0000 </r>
       <r>    1.6850    1.0000 </r>
       <r>    1.7132    1.0000 </r>
       <r>    1.7790    1.0000 </r>
       <r>    1.8941    1.0000 </r>
       <r>    1.9192    1.0000 </r>
       <r>    1.9485    1.0000 </r>
       <r>    2.0227    1.0000 </r>
       <r>    2.0426    1.0000 </r>
       <r>    2.0599    1.0000 </r>
       <r>    2.1368    1.0000 </r>
       <r>    2.1955    1.0000 </r>
       <r>    2.2154    1.0000 </r>
       <r>    2.2604    1.0000 </r>
       <r>    2.3661    1.0000 </r>
       <r>    2.3874    1.0000 </r>
       <r>    2.4488    1.0000 </r>
       <r>    2.4649    1.0000 </r>
       <r>    2.5065    1.0000 </r>
       <r>    2.5428    1.0000 </r>
       <r>    2.5568    1.0000 </r>
       <r>    2.5660    1.0000 </r>
       <r>    2.5749    1.0000 </r>
       <r>    2.5902    1.0000 </r>
       <r>    2.5984    1.0000 </r>
       <r>    2.6297    1.0000 </r>
       <r>    2.6850    1.0000 </r>
       <r>    2.7172    1.0000 </r>
       <r>    2.7640    1.0000 </r>
       <r>    2.8154    1.0000 </r>
       <r>    2.8501    1.0000 </r>
       <r>    2.8774    1.0000 </r>
       <r>    2.9174    1.0000 </r>
       <r>    2.9406    1.0000 </r>
       <r>    2.9682    1.0000 </r>
       <r>    2.9816    1.0000 </r>
       <r>    3.0172    1.0000 </r>
       <r>    3.0406    1.0000 </r>
       <r>    3.0529    1.0000 </r>
       <r>    3.0906    1.0000 </r>
       <r>    3.1607    1.0000 </r>
       <r>    3.2850    1.0000 </r>
       <r>    3.3359    1.0000 </r>
       <r>    3.3555    1.0000 </r>
       <r>    3.3787    1.0000 </r>
       <r>    3.4188    1.0000 </r>
       <r>    3.4466    1.0000 </r>
       <r>    3.4754    1.0000 </r>
       <r>    3.4819    1.0000 </r>
       <r>    3.5761    1.0000 </r>
       <r>    3.6792    1.0000 </r>
       <r>    4.2222    1.0000 </r>
       <r>    4.2431    1.0000 </r>
       <r>    4.2838    1.0000 </r>
       <r>    4.2853    1.0000 </r>
       <r>    5.0888    0.0000 </r>
       <r>    5.0962    0.0000 </r>
       <r>    5.2275    0.0000 </r>
       <r>    5.2395    0.0000 </r>
       <r>    5.7175    0.0000 </r>
       <r>    5.7229    0.0000 </r>
       <r>    5.8108    0.0000 </r>
       <r>    5.8300    0.0000 </r>
       <r>    6.1622    0.0000 </r>
       <r>    6.1700    0.0000 </r>
       <r>    6.1836    0.0000 </r>
       <r>    6.1847    0.0000 </r>
       <r>    6.2570    0.0000 </r>
       <r>    6.2621    0.0000 </r>
       <r>    6.2720    0.0000 </r>
       <r>    6.2910    0.0000 </r>
       <r>    6.6859    0.0000 </r>
       <r>    6.7349    0.0000 </r>
       <r>    6.9468    0.0000 </r>
       <r>    7.0420    0.0000 </r>
       <r>    7.1897    0.0000 </r>
       <r>    7.3354    0.0000 </r>
       <r>    7.4245    0.0000 </r>
       <r>    7.4650    0.0000 </r>
       <r>    7.8110    0.0000 </r>
       <r>    7.8495    0.0000 </r>
       <r>    7.8797    0.0000 </r>
       <r>    7.9803    0.0000 </r>
       <r>    7.9968    0.0000 </r>
       <r>    8.3493    0.0000 </r>
       <r>    8.3694    0.0000 </r>
       <r>    8.4275    0.0000 </r>
       <r>    8.6264    0.0000 </r>
       <r>    8.7526    0.0000 </r>
       <r>    8.9008    0.0000 </r>
       <r>    8.9566    0.0000 </r>
       <r>    8.9875    0.0000 </r>
       <r>    9.0283    0.0000 </r>
       <r>    9.0684    0.0000 </r>
       <r>    9.0850    0.0000 </r>
       <r>    9.1063    0.0000 </r>
       <r>    9.1508    0.0000 </r>
       <r>    9.1688    0.0000 </r>
       <r>    9.1741    0.0000 </r>
       <r>    9.4738    0.0000 </r>
       <r>    9.4820    0.0000 </r>
       <r>    9.6612    0.0000 </r>
       <r>    9.7491    0.0000 </r>
      </set>
      <set comment="kpoint 4">
       <r>  -40.5414    1.0000 </r>
       <r>  -40.0370    1.0000 </r>
       <r>  -39.7962    1.0000 </r>
       <r>  -39.7775    1.0000 </r>
       <r>  -39.7041    1.0000 </r>
       <r>  -39.6088    1.0000 </r>
       <r>  -39.3512    1.0000 </r>
       <r>  -39.3394    1.0000 </r>
       <r>  -19.0158    1.0000 </r>
       <r>  -18.9447    1.0000 </r>
       <r>  -18.9411    1.0000 </r>
       <r>  -18.9367    1.0000 </r>
       <r>  -18.9331    1.0000 </r>
       <r>  -18.8756    1.0000 </r>
       <r>  -18.8691    1.0000 </r>
       <r>  -18.8607    1.0000 </r>
       <r>  -18.8520    1.0000 </r>
       <r>  -18.8431    1.0000 </r>
       <r>  -18.8243    1.0000 </r>
       <r>  -18.7688    1.0000 </r>
       <r>  -18.7672    1.0000 </r>
       <r>  -18.7555    1.0000 </r>
       <r>  -18.7456    1.0000 </r>
       <r>  -18.7262    1.0000 </r>
       <r>  -18.7149    1.0000 </r>
       <r>  -18.7122    1.0000 </r>
       <r>  -18.7081    1.0000 </r>
       <r>  -18.7025    1.0000 </r>
       <r>  -18.6877    1.0000 </r>
       <r>  -18.6757    1.0000 </r>
       <r>  -18.6739    1.0000 </r>
       <r>  -18.6679    1.0000 </r>
       <r>  -18.6653    1.0000 </r>
       <r>  -18.6616    1.0000 </r>
       <r>  -18.6612    1.0000 </r>
       <r>  -18.6592    1.0000 </r>
       <r>  -18.6566    1.0000 </r>
       <r>  -18.6554    1.0000 </r>
       <r>  -18.6527    1.0000 </r>
       <r>  -18.6497    1.0000 </r>
       <r>  -18.6430    1.0000 </r>
       <r>  -18.6387    1.0000 </r>
       <r>  -18.6336    1.0000 </r>
       <r>  -18.6253    1.0000 </r>
       <r>  -18.6200    1.0000 </r>
       <r>  -18.6159    1.0000 </r>
       <r>  -18.6044    1.0000 </r>
       <r>  -18.5855    1.0000 </r>
       <r>  -18.5753    1.0000 </r>
       <r>  -18.5722    1.0000 </r>
       <r>  -18.5695    1.0000 </r>
       <r>  -18.5653    1.0000 </r>
       <r>  -18.5620    1.0000 </r>
       <r>  -18.5574    1.0000 </r>
       <r>  -18.5513    1.0000 </r>
       <r>  -18.5464    1.0000 </r>
       <r>  -18.5346    1.0000 </r>
       <r>  -18.5163    1.0000 </r>
       <r>  -18.5138    1.0000 </r>
       <r>  -18.5058    1.0000 </r>
       <r>  -18.5025    1.0000 </r>
       <r>  -18.5013    1.0000 </r>
       <r>  -18.4982    1.0000 </r>
       <r>  -18.4947    1.0000 </r>
       <r>  -18.4903    1.0000 </r>
       <r>  -18.4853    1.0000 </r>
       <r>  -18.4849    1.0000 </r>
       <r>  -18.4729    1.0000 </r>
       <r>  -18.4507    1.0000 </r>
       <r>  -18.4194    1.0000 </r>
       <r>  -18.4162    1.0000 </r>
       <r>  -18.4140    1.0000 </r>
       <r>  -18.4057    1.0000 </r>
       <r>  -18.4019    1.0000 </r>
       <r>  -18.3996    1.0000 </r>
       <r>  -18.3980    1.0000 </r>
       <r>  -18.3855    1.0000 </r>
       <r>  -18.3406    1.0000 </r>
       <r>  -18.3283    1.0000 </r>
[...]
       <r>    8.8238    0.0000 </r>
       <r>    8.8591    0.0000 </r>
       <r>    8.8934    0.0000 </r>
       <r>    8.9092    0.0000 </r>
       <r>    8.9269    0.0000 </r>
       <r>    8.9436    0.0000 </r>
       <r>    8.9503    0.0000 </r>
      </set>
     </set>
    </set>
   </array>
  </eigenvalues>
  <separator name="orbital magnetization" >
   <v name="MAGDIPOLOUT">      0.00000000      0.00000000      0.00000000</v>
  </separator>
  <dos>
   <i name="efermi">      4.38055499 </i>
   <total>
    <array>
     <dimension dim="1">gridpoints</dimension>
     <dimension dim="2">spin</dimension>
     <field>energy</field>
     <field>total</field>
     <field>integrated</field>
     <set>
      <set comment="spin 1">
       <r>   -43.0559     0.0000     0.0000 </r>
       <r>   -42.8715     0.0000     0.0000 </r>
       <r>   -42.6871     0.0000     0.0000 </r>
       <r>   -42.5027     0.0000     0.0000 </r>
       <r>   -42.3183     0.0000     0.0000 </r>
       <r>   -42.1339     0.0000     0.0000 </r>
       <r>   -41.9495     0.0000     0.0000 </r>
       <r>   -41.7651     0.0000     0.0000 </r>
       <r>   -41.5807     0.0000     0.0000 </r>
       <r>   -41.3963     0.0000     0.0000 </r>
       <r>   -41.2119     0.0000     0.0000 </r>
       <r>   -41.0275     0.0000     0.0000 </r>
       <r>   -40.8431     0.0000     0.0000 </r>
       <r>   -40.6587     0.0000     0.0000 </r>
       <r>   -40.4743     0.0000     2.0000 </r>
       <r>   -40.2899     0.0000     2.0000 </r>
       <r>   -40.1055     0.0000     2.0000 </r>
       <r>   -39.9211     0.0000     4.0000 </r>
       <r>   -39.7367     0.0000     8.0000 </r>
       <r>   -39.5523     0.0000    12.0000 </r>
       <r>   -39.3679     0.0000    12.0000 </r>
       <r>   -39.1836     0.0000    16.0000 </r>
       <r>   -38.9992     0.0000    16.0000 </r>
       <r>   -38.8148     0.0000    16.0000 </r>
       <r>   -38.6304     0.0000    16.0000 </r>
       <r>   -38.4460     0.0000    16.0000 </r>
       <r>   -38.2616     0.0000    16.0000 </r>
       <r>   -38.0772     0.0000    16.0000 </r>
       <r>   -37.8928     0.0000    16.0000 </r>
       <r>   -37.7084     0.0000    16.0000 </r>
       <r>   -37.5240     0.0000    16.0000 </r>
       <r>   -37.3396     0.0000    16.0000 </r>
       <r>   -37.1552     0.0000    16.0000 </r>
       <r>   -36.9708     0.0000    16.0000 </r>
       <r>   -36.7864     0.0000    16.0000 </r>
       <r>   -36.6020     0.0000    16.0000 </r>
       <r>   -36.4176     0.0000    16.0000 </r>
       <r>   -36.2332     0.0000    16.0000 </r>
       <r>   -36.0488     0.0000    16.0000 </r>
       <r>   -35.8644     0.0000    16.0000 </r>
       <r>   -35.6800     0.0000    16.0000 </r>
       <r>   -35.4956     0.0000    16.0000 </r>
       <r>   -35.3112     0.0000    16.0000 </r>
       <r>   -35.1268     0.0000    16.0000 </r>
       <r>   -34.9424     0.0000    16.0000 </r>
       <r>   -34.7580     0.0000    16.0000 </r>
       <r>   -34.5736     0.0000    16.0000 </r>
       <r>   -34.3892     0.0000    16.0000 </r>
       <r>   -34.2048     0.0000    16.0000 </r>
       <r>   -34.0204     0.0000    16.0000 </r>
       <r>   -33.8360     0.0000    16.0000 </r>
       <r>   -33.6516     0.0000    16.0000 </r>
       <r>   -33.4672     0.0000    16.0000 </r>
       <r>   -33.2828     0.0000    16.0000 </r>
       <r>   -33.0984     0.0000    16.0000 </r>
       <r>   -32.9140     0.0000    16.0000 </r>
       <r>   -32.7296     0.0000    16.0000 </r>
       <r>   -32.5452     0.0000    16.0000 </r>
       <r>   -32.3608     0.0000    16.0000 </r>
       <r>   -32.1764     0.0000    16.0000 </r>
       <r>   -31.9920     0.0000    16.0000 </r>
       <r>   -31.8076     0.0000    16.0000 </r>
       <r>   -31.6232     0.0000    16.0000 </r>
       <r>   -31.4388     0.0000    16.0000 </r>
       <r>   -31.2544     0.0000    16.0000 </r>
       <r>   -31.0700     0.0000    16.0000 </r>
       <r>   -30.8856     0.0000    16.0000 </r>
       <r>   -30.7012     0.0000    16.0000 </r>
       <r>   -30.5168     0.0000    16.0000 </r>
       <r>   -30.3324     0.0000    16.0000 </r>
       <r>   -30.1480     0.0000    16.0000 </r>
       <r>   -29.9636     0.0000    16.0000 </r>
       <r>   -29.7792     0.0000    16.0000 </r>
       <r>   -29.5948     0.0000    16.0000 </r>
       <r>   -29.4104     0.0000    16.0000 </r>
       <r>   -29.2260     0.0000    16.0000 </r>
       <r>   -29.0416     0.0000    16.0000 </r>
       <r>   -28.8572     0.0000    16.0000 </r>
       <r>   -28.6728     0.0000    16.0000 </r>
       <r>   -28.4884     0.0000    16.0000 </r>
       <r>   -28.3040     0.0000    16.0000 </r>
       <r>   -28.1197     0.0000    16.0000 </r>
       <r>   -27.9353     0.0000    16.0000 </r>
       <r>   -27.7509     0.0000    16.0000 </r>
       <r>   -27.5665     0.0000    16.0000 </r>
       <r>   -27.3821     0.0000    16.0000 </r>
       <r>   -27.1977     0.0000    16.0000 </r>
       <r>   -27.0133     0.0000    16.0000 </r>
       <r>   -26.8289     0.0000    16.0000 </r>
       <r>   -26.6445     0.0000    16.0000 </r>
       <r>   -26.4601     0.0000    16.0000 </r>
       <r>   -26.2757     0.0000    16.0000 </r>
       <r>   -26.0913     0.0000    16.0000 </r>
       <r>   -25.9069     0.0000    16.0000 </r>
       <r>   -25.7225     0.0000    16.0000 </r>
       <r>   -25.5381     0.0000    16.0000 </r>
       <r>   -25.3537     0.0000    16.0000 </r>
       <r>   -25.1693     0.0000    16.0000 </r>
       <r>   -24.9849     0.0000    16.0000 </r>
       <r>   -24.8005     0.0000    16.0000 </r>
       <r>   -24.6161     0.0000    16.0000 </r>
       <r>   -24.4317     0.0000    16.0000 </r>
       <r>   -24.2473     0.0000    16.0000 </r>
       <r>   -24.0629     0.0000    16.0000 </r>
       <r>   -23.8785     0.0000    16.0000 </r>
       <r>   -23.6941     0.0000    16.0000 </r>
       <r>   -23.5097     0.0000    16.0000 </r>
       <r>   -23.3253     0.0000    16.0000 </r>
       <r>   -23.1409     0.0000    16.0000 </r>
       <r>   -22.9565     0.0000    16.0000 </r>
       <r>   -22.7721     0.0000    16.0000 </r>
       <r>   -22.5877     0.0000    16.0000 </r>
       <r>   -22.4033     0.0000    16.0000 </r>
       <r>   -22.2189     0.0000    16.0000 </r>
       <r>   -22.0345     0.0000    16.0000 </r>
       <r>   -21.8501     0.0000    16.0000 </r>
       <r>   -21.6657     0.0000    16.0000 </r>
       <r>   -21.4813     0.0000    16.0000 </r>
       <r>   -21.2969     0.0000    16.0000 </r>
       <r>   -21.1125     0.0000    16.0000 </r>
       <r>   -20.9281     0.0000    16.0000 </r>
       <r>   -20.7437     0.0000    16.0000 </r>
       <r>   -20.5593     0.0000    16.0000 </r>
       <r>   -20.3749     0.0000    16.0000 </r>
       <r>   -20.1905     0.0000    16.0000 </r>
       <r>   -20.0061     0.0000    16.0000 </r>
       <r>   -19.8217     0.0000    16.0000 </r>
       <r>   -19.6373     0.0000    16.0000 </r>
       <r>   -19.4529     0.0000    16.0000 </r>
       <r>   -19.2685     0.0000    16.0000 </r>
       <r>   -19.0841     0.0000    16.0000 </r>
       <r>   -18.8997     0.0000    26.0000 </r>
       <r>   -18.7153     0.0000    48.0000 </r>
       <r>   -18.5309     0.0000   114.0000 </r>
       <r>   -18.3465     0.0000   154.0000 </r>
       <r>   -18.1621     0.0000   172.0000 </r>
       <r>   -17.9777     0.0000   176.0000 </r>
       <r>   -17.7933     0.0000   176.0000 </r>
       <r>   -17.6089     0.0000   176.0000 </r>
       <r>   -17.4245     0.0000   176.0000 </r>
       <r>   -17.2401     0.0000   176.0000 </r>
       <r>   -17.0558     0.0000   176.0000 </r>
       <r>   -16.8714     0.0000   176.0000 </r>
       <r>   -16.6870     0.0000   176.0000 </r>
       <r>   -16.5026     0.0000   176.0000 </r>
       <r>   -16.3182     0.0000   176.0000 </r>
       <r>   -16.1338     0.0000   176.0000 </r>
       <r>   -15.9494     0.0000   176.0000 </r>
       <r>   -15.7650     0.0000   176.0000 </r>
       <r>   -15.5806     0.0000   176.0000 </r>
       <r>   -15.3962     0.0000   176.0000 </r>
       <r>   -15.2118     0.0000   176.0000 </r>
       <r>   -15.0274     0.0000   176.0000 </r>
       <r>   -14.8430     0.0000   176.0000 </r>
       <r>   -14.6586     0.0000   176.0000 </r>
       <r>   -14.4742     0.0000   176.0000 </r>
       <r>   -14.2898     0.0000   176.0000 </r>
       <r>   -14.1054     0.0000   176.0000 </r>
       <r>   -13.9210     0.0000   176.0000 </r>
       <r>   -13.7366     0.0000   176.0000 </r>
       <r>   -13.5522     0.0000   178.0000 </r>
       <r>   -13.3678     0.0000   182.0000 </r>
       <r>   -13.1834     0.0000   182.0000 </r>
       <r>   -12.9990     0.0000   182.0000 </r>
       <r>   -12.8146     0.0000   186.0000 </r>
       <r>   -12.6302     0.0000   198.0000 </r>
       <r>   -12.4458     0.0000   202.0000 </r>
       <r>   -12.2614     0.0000   202.0000 </r>
       <r>   -12.0770     0.0000   202.0000 </r>
       <r>   -11.8926     0.0000   206.0000 </r>
       <r>   -11.7082     0.0000   208.0000 </r>
       <r>   -11.5238     0.0000   208.0000 </r>
       <r>   -11.3394     0.0000   208.0000 </r>
       <r>   -11.1550     0.0000   208.0000 </r>
       <r>   -10.9706     0.0000   208.0000 </r>
       <r>   -10.7862     0.0000   208.0000 </r>
       <r>   -10.6018     0.0000   208.0000 </r>
       <r>   -10.4174     0.0000   208.0000 </r>
       <r>   -10.2330     0.0000   208.0000 </r>
       <r>   -10.0486     0.0000   208.0000 </r>
       <r>    -9.8642     0.0000   208.0000 </r>
       <r>    -9.6798     0.0000   208.0000 </r>
       <r>    -9.4954     0.0000   208.0000 </r>
       <r>    -9.3110     3.7704   208.0676 </r>
       <r>    -9.1266     5.7175   209.8518 </r>
       <r>    -8.9422     4.1648   211.9454 </r>
       <r>    -8.7578    15.9699   214.3248 </r>
       <r>    -8.5734    14.4305   216.7535 </r>
       <r>    -8.3890    13.2083   221.1426 </r>
       <r>    -8.2046    35.2927   224.8066 </r>
       <r>    -8.0202    29.0962   228.8007 </r>
       <r>    -7.8358    18.9910   232.6689 </r>
       <r>    -7.6514    11.4808   235.9778 </r>
       <r>    -7.4670    13.8552   239.2794 </r>
       <r>    -7.2826     0.0000   240.0000 </r>
       <r>    -7.0982     0.0000   240.0000 </r>
       <r>    -6.9138     0.0000   240.0000 </r>
       <r>    -6.7294     0.0000   240.0000 </r>
       <r>    -6.5450     0.0000   240.0000 </r>
       <r>    -6.3606     2.2041   240.0298 </r>
       <r>    -6.1762    22.8234   242.3915 </r>
       <r>    -5.9919    14.2480   246.3145 </r>
       <r>    -5.8075    18.6290   249.8874 </r>
       <r>    -5.6231    22.5800   254.4497 </r>
       <r>    -5.4387    18.3713   258.0664 </r>
       <r>    -5.2543    16.5501   261.8525 </r>
       <r>    -5.0699     3.6628   263.8723 </r>
       <r>    -4.8855     6.9058   264.6544 </r>
       <r>    -4.7011     8.9403   266.1395 </r>
       <r>    -4.5167     7.6634   267.8962 </r>
       <r>    -4.3323     6.2108   269.2976 </r>
       <r>    -4.1479     6.5289   270.5260 </r>
       <r>    -3.9635     3.6610   271.4822 </r>
       <r>    -3.7791     1.2136   271.8974 </r>
       <r>    -3.5947     0.0240   271.9998 </r>
       <r>    -3.4103     0.0000   272.0000 </r>
       <r>    -3.2259     0.0000   272.0000 </r>
       <r>    -3.0415     0.0000   272.0000 </r>
       <r>    -2.8571     0.0000   272.0000 </r>
       <r>    -2.6727     0.0000   272.0000 </r>
       <r>    -2.4883     0.0000   272.0000 </r>
       <r>    -2.3039     0.0000   272.0000 </r>
       <r>    -2.1195     0.0000   272.0000 </r>
       <r>    -1.9351     0.0000   272.0000 </r>
       <r>    -1.7507     0.0000   272.0000 </r>
       <r>    -1.5663     0.0000   272.0000 </r>
       <r>    -1.3819     2.2776   272.1002 </r>
       <r>    -1.1975     8.6933   273.1296 </r>
       <r>    -1.0131    12.0253   275.1435 </r>
       <r>    -0.8287    11.6539   277.3845 </r>
       <r>    -0.6443     6.0813   278.9895 </r>
       <r>    -0.4599    16.4976   280.9656 </r>
       <r>    -0.2755    21.9271   284.8483 </r>
       <r>    -0.0911    37.9838   290.5081 </r>
       <r>     0.0933    27.6660   296.9337 </r>
       <r>     0.2777    42.7680   302.6123 </r>
       <r>     0.4621    40.5868   309.9039 </r>
       <r>     0.6465    38.1638   316.4484 </r>
       <r>     0.8309    37.8899   324.4194 </r>
       <r>     1.0153    46.5928   332.1175 </r>
       <r>     1.1997    43.8483   339.1737 </r>
       <r>     1.3841    39.7675   348.5716 </r>
       <r>     1.5685    53.7863   357.4851 </r>
       <r>     1.7529    42.0931   365.9143 </r>
       <r>     1.9373    42.8374   373.1975 </r>
       <r>     2.1217    44.5701   381.2717 </r>
       <r>     2.3061    47.5887   389.6607 </r>
       <r>     2.4905    61.4110   399.3782 </r>
       <r>     2.6749    57.2807   410.5810 </r>
       <r>     2.8593    60.7254   421.2596 </r>
       <r>     3.0437    54.3911   433.0896 </r>
       <r>     3.2281    39.9539   442.6430 </r>
       <r>     3.4125    43.2980   449.9713 </r>
       <r>     3.5969    21.8161   456.1120 </r>
       <r>     3.7813    18.2697   459.4709 </r>
       <r>     3.9657    11.2749   462.4409 </r>
       <r>     4.1501     3.6699   463.8191 </r>
       <r>     4.3345     0.0000   464.0000 </r>
       <r>     4.5189     0.0000   464.0000 </r>
       <r>     4.7033     0.0000   464.0000 </r>
       <r>     4.8877     0.0000   464.0000 </r>
       <r>     5.0720     0.2408   464.0045 </r>
       <r>     5.2564     2.9832   464.2609 </r>
       <r>     5.4408     7.2591   465.2050 </r>
       <r>     5.6252     8.6019   466.8089 </r>
       <r>     5.8096    11.4024   469.5875 </r>
       <r>     5.9940    13.6509   472.9583 </r>
       <r>     6.1784    11.6006   475.2539 </r>
       <r>     6.3628    12.8544   477.4652 </r>
       <r>     6.5472    14.9673   480.0308 </r>
       <r>     6.7316    16.9370   482.9772 </r>
       <r>     6.9160    19.4158   486.3117 </r>
       <r>     7.1004    24.8419   490.3085 </r>
       <r>     7.2848    33.0582   495.6324 </r>
       <r>     7.4692    35.2087   502.4294 </r>
       <r>     7.6536    28.3000   507.6457 </r>
       <r>     7.8380    53.4864   514.9228 </r>
       <r>     8.0224    31.5536   523.8023 </r>
       <r>     8.2068    20.4721   528.4617 </r>
       <r>     8.3912    19.1139   531.9428 </r>
       <r>     8.5756    23.8615   535.8311 </r>
       <r>     8.7600    35.2179   540.7135 </r>
       <r>     8.9444    37.6737   548.6626 </r>
       <r>     9.1288    18.6842   553.9396 </r>
       <r>     9.3132    13.8983   556.8471 </r>
       <r>     9.4976     8.2074   558.9752 </r>
       <r>     9.6820     2.3234   559.9456 </r>
       <r>     9.8664     0.0000   560.0000 </r>
       <r>    10.0508     0.0000   560.0000 </r>
       <r>    10.2352     0.0000   560.0000 </r>
       <r>    10.4196     0.0000   560.0000 </r>
       <r>    10.6040     0.0000   560.0000 </r>
       <r>    10.7884     0.0000   560.0000 </r>
       <r>    10.9728     0.0000   560.0000 </r>
       <r>    11.1572     0.0000   560.0000 </r>
       <r>    11.3416     0.0000   560.0000 </r>
       <r>    11.5260     0.0000   560.0000 </r>
       <r>    11.7104     0.0000   560.0000 </r>
       <r>    11.8948     0.0000   560.0000 </r>
       <r>    12.0792     0.0000   560.0000 </r>
       <r>    12.2636     0.0000   560.0000 </r>
      </set>
     </set>
    </array>
   </total>
  </dos>
 </calculation>
 <structure name="finalpos" >
  <crystal>
   <varray name="basis" >
    <v>      11.17850000       0.00000000       0.00000000 </v>
    <v>       0.00000000       9.57460000       0.00000000 </v>
    <v>       0.00000000       0.00000000      11.18240000 </v>
   </varray>
   <i name="volume">   1196.84853820 </i>
   <varray name="rec_basis" >
    <v>       0.08945744       0.00000000       0.00000000 </v>
    <v>       0.00000000       0.10444301       0.00000000 </v>
    <v>       0.00000000       0.00000000       0.08942624 </v>
   </varray>
  </crystal>
  <varray name="positions" >
   <v>       0.37539000       0.00017000       0.43687000 </v>
   <v>       0.62539000       0.99984000       0.43687000 </v>
   <v>       0.87539000       0.00017000       0.43687000 </v>
   <v>       0.87461000       0.00017000       0.18687000 </v>
   <v>       0.12461000       0.99984000       0.68687000 </v>
   <v>       0.37461000       0.00017000       0.68687000 </v>
   <v>       0.62461000       0.99984000       0.68687000 </v>
   <v>       0.87461000       0.00017000       0.68687000 </v>
   <v>       0.12461000       0.99984000       0.18687000 </v>
   <v>       0.62461000       0.99984000       0.18687000 </v>
   <v>       0.37539000       0.00017000       0.93687000 </v>
   <v>       0.87539000       0.00017000       0.93687000 </v>
   <v>       0.00013000       0.29519000       0.06281000 </v>
   <v>       0.25013000       0.70481000       0.06281000 </v>
   <v>       0.24987000       0.29519000       0.31282000 </v>
   <v>       0.49987000       0.70481000       0.31282000 </v>
   <v>       0.50013000       0.29519000       0.06281000 </v>
   <v>       0.75013000       0.70481000       0.06281000 </v>
   <v>       0.74987000       0.29519000       0.31282000 </v>
   <v>       0.99987000       0.70481000       0.31282000 </v>
   <v>       0.00013000       0.29519000       0.56281000 </v>
   <v>       0.25013000       0.70481000       0.56281000 </v>
   <v>       0.24987000       0.29519000       0.81282000 </v>
   <v>       0.49987000       0.70481000       0.81282000 </v>
   <v>       0.50013000       0.29519000       0.56281000 </v>
   <v>       0.75013000       0.70481000       0.56281000 </v>
   <v>       0.74987000       0.29519000       0.81282000 </v>
   <v>       0.99987000       0.70481000       0.81282000 </v>
   <v>       0.25005000       0.32677000       0.06286000 </v>
   <v>       0.00005000       0.67323000       0.06286000 </v>
   <v>       0.49995000       0.32677000       0.31286000 </v>
   <v>       0.24995000       0.67323000       0.31286000 </v>
   <v>       0.75005000       0.32677000       0.06286000 </v>
   <v>       0.50005000       0.67323000       0.06286000 </v>
   <v>       0.99995000       0.32677000       0.31286000 </v>
   <v>       0.74995000       0.67323000       0.31286000 </v>
   <v>       0.25005000       0.32677000       0.56286000 </v>
   <v>       0.00005000       0.67323000       0.56286000 </v>
   <v>       0.49995000       0.32677000       0.81286000 </v>
   <v>       0.24995000       0.67323000       0.81286000 </v>
   <v>       0.75005000       0.32677000       0.56286000 </v>
   <v>       0.50005000       0.67323000       0.56286000 </v>
   <v>       0.99995000       0.32677000       0.81286000 </v>
   <v>       0.74995000       0.67323000       0.81286000 </v>
   <v>       0.49987000       0.07798000       0.06246000 </v>
   <v>       0.24987000       0.92202000       0.06246000 </v>
   <v>       0.25013000       0.07798000       0.31246000 </v>
   <v>       0.00013000       0.92202000       0.31246000 </v>
   <v>       0.99987000       0.07798000       0.06246000 </v>
   <v>       0.74987000       0.92202000       0.06246000 </v>
   <v>       0.75013000       0.07798000       0.31246000 </v>
   <v>       0.50013000       0.92202000       0.31246000 </v>
   <v>       0.49987000       0.07798000       0.56246000 </v>
   <v>       0.24987000       0.92202000       0.56246000 </v>
   <v>       0.25013000       0.07798000       0.81246000 </v>
   <v>       0.00013000       0.92202000       0.81246000 </v>
   <v>       0.99987000       0.07798000       0.56246000 </v>
   <v>       0.74987000       0.92202000       0.56246000 </v>
   <v>       0.75013000       0.07798000       0.81246000 </v>
   <v>       0.50013000       0.92202000       0.81246000 </v>
  </varray>
 </structure>
</modeling>
