<?xml version="1.0" encoding="ISO-8859-1"?>
<modeling>
 <generator>
  <i name="program" type="string">vasp </i>
  <i name="version" type="string">5.4.4.18Apr17-6-g9f103f2a35  </i>
  <i name="subversion" type="string">(build Jul 31 2017 11:33:29) complex            parallel </i>
  <i name="platform" type="string">LinuxIFC </i>
  <i name="date" type="string">2021 09 29 </i>
  <i name="time" type="string">05:45:40 </i>
 </generator>
 <incar>
  <i type="string" name="SYSTEM"> La2O2S</i>
  <i type="string" name="PREC">normal</i>
  <i type="int" name="NELMIN">     4</i>
  <i type="int" name="IBRION">     2</i>
  <i type="int" name="NFREE">    10</i>
  <i name="EDIFF">      0.00000100</i>
  <i name="EDIFFG">     -0.01000000</i>
  <i type="int" name="NSW">     1</i>
  <i type="int" name="ISIF">     2</i>
  <i name="ENCUT">    600.00000000</i>
  <i name="ENAUG">    900.00000000</i>
  <i type="int" name="ISMEAR">    -5</i>
  <i type="logical" name="LWAVE"> F  </i>
  <i type="logical" name="LCHARG"> F  </i>
  <v type="int" name="KPOINT_BSE">    -1     0     0     0</v>
 </incar>
 <structure name="primitive_cell" >
  <crystal>
   <varray name="basis" >
    <v>      11.17850000       0.00000000       0.00000000 </v>
    <v>       0.00000000       9.57460000       0.00000000 </v>
    <v>       0.00000000       0.00000000      11.18240000 </v>
   </varray>
   <i name="volume">   1196.84853820 </i>
   <varray name="rec_basis" >
    <v>       0.08945744       0.00000000       0.00000000 </v>
    <v>       0.00000000       0.10444301       0.00000000 </v>
    <v>       0.00000000       0.00000000       0.08942624 </v>
   </varray>
  </crystal>
  <varray name="positions" >
   <v>       0.37539000       0.00017000       0.43687000 </v>
   <v>      -0.49987000      -0.07798000       0.31246000 </v>
   <v>       0.25013000       0.07798000       0.31246000 </v>
   <v>       0.49987000       0.07798000      -0.43754000 </v>
   <v>       0.24987000      -0.07798000      -0.43754000 </v>
   <v>      -0.37461000      -0.00016000       0.43687000 </v>
   <v>       0.37461000       0.00017000       0.18687000 </v>
   <v>       0.37461000       0.00017000      -0.31313000 </v>
   <v>       0.49987000      -0.29519000       0.31282000 </v>
   <v>       0.24987000       0.29519000       0.31282000 </v>
   <v>      -0.49987000       0.29519000      -0.43719000 </v>
   <v>       0.25013000      -0.29519000      -0.43719000 </v>
   <v>       0.49995000       0.32677000       0.31286000 </v>
   <v>       0.24995000      -0.32677000       0.31286000 </v>
   <v>      -0.49995000      -0.32677000      -0.43714000 </v>
   <v>       0.25005000       0.32677000      -0.43714000 </v>
   <v>      -0.37539000      -0.00016000       0.18687000 </v>
   <v>       0.12461000      -0.00016000       0.18687000 </v>
   <v>       0.12461000      -0.00016000      -0.31313000 </v>
   <v>       0.49987000       0.07798000       0.06246000 </v>
   <v>      -0.24987000       0.07798000       0.31246000 </v>
   <v>      -0.25013000      -0.07798000      -0.43754000 </v>
   <v>       0.24987000      -0.07798000       0.06246000 </v>
   <v>       0.00013000      -0.07798000       0.31246000 </v>
   <v>      -0.49987000      -0.07798000      -0.18754000 </v>
   <v>      -0.00013000       0.07798000      -0.43754000 </v>
   <v>       0.25013000       0.07798000      -0.18754000 </v>
   <v>      -0.49987000       0.29519000       0.06281000 </v>
   <v>      -0.25013000       0.29519000       0.31282000 </v>
   <v>       0.25013000      -0.29519000       0.06281000 </v>
   <v>      -0.24987000      -0.29519000      -0.43719000 </v>
   <v>      -0.00013000      -0.29519000       0.31282000 </v>
   <v>       0.00013000       0.29519000      -0.43719000 </v>
   <v>       0.49987000      -0.29519000      -0.18718000 </v>
   <v>       0.24987000       0.29519000      -0.18718000 </v>
   <v>      -0.49995000      -0.32677000       0.06286000 </v>
   <v>       0.25005000       0.32677000       0.06286000 </v>
   <v>      -0.25005000      -0.32677000       0.31286000 </v>
   <v>      -0.24995000       0.32677000      -0.43714000 </v>
   <v>      -0.00005000       0.32677000       0.31286000 </v>
   <v>       0.00005000      -0.32677000      -0.43714000 </v>
   <v>       0.49995000       0.32677000      -0.18714000 </v>
   <v>       0.24995000      -0.32677000      -0.18714000 </v>
   <v>      -0.12461000       0.00017000       0.43687000 </v>
   <v>       0.37539000       0.00017000      -0.06313000 </v>
   <v>      -0.25013000      -0.07798000       0.06246000 </v>
   <v>      -0.00013000       0.07798000       0.06246000 </v>
   <v>      -0.24987000       0.07798000      -0.18754000 </v>
   <v>       0.00013000      -0.07798000      -0.18754000 </v>
   <v>      -0.12539000       0.00017000       0.18687000 </v>
   <v>      -0.12539000       0.00017000      -0.31313000 </v>
   <v>       0.12539000      -0.00016000      -0.06313000 </v>
   <v>      -0.37461000      -0.00016000      -0.06313000 </v>
   <v>      -0.24987000      -0.29519000       0.06281000 </v>
   <v>       0.00013000       0.29519000       0.06281000 </v>
   <v>      -0.25013000       0.29519000      -0.18718000 </v>
   <v>      -0.00013000      -0.29519000      -0.18718000 </v>
   <v>      -0.24995000       0.32677000       0.06286000 </v>
   <v>       0.00005000      -0.32677000       0.06286000 </v>
   <v>      -0.25005000      -0.32677000      -0.18714000 </v>
   <v>      -0.00005000       0.32677000      -0.18714000 </v>
   <v>      -0.12461000       0.00017000      -0.06313000 </v>
  </varray>
 </structure>
 <varray name="primitive_index" >
  <v type="int" >        1 </v>
  <v type="int" >       54 </v>
  <v type="int" >       49 </v>
  <v type="int" >       55 </v>
  <v type="int" >       56 </v>
  <v type="int" >        4 </v>
  <v type="int" >        3 </v>
  <v type="int" >       14 </v>
  <v type="int" >       18 </v>
  <v type="int" >       17 </v>
  <v type="int" >       27 </v>
  <v type="int" >       24 </v>
  <v type="int" >       33 </v>
  <v type="int" >       34 </v>
  <v type="int" >       44 </v>
  <v type="int" >       39 </v>
  <v type="int" >        5 </v>
  <v type="int" >        2 </v>
  <v type="int" >        9 </v>
  <v type="int" >       47 </v>
  <v type="int" >       53 </v>
  <v type="int" >       60 </v>
  <v type="int" >       48 </v>
  <v type="int" >       50 </v>
  <v type="int" >       62 </v>
  <v type="int" >       59 </v>
  <v type="int" >       57 </v>
  <v type="int" >       19 </v>
  <v type="int" >       21 </v>
  <v type="int" >       16 </v>
  <v type="int" >       28 </v>
  <v type="int" >       22 </v>
  <v type="int" >       23 </v>
  <v type="int" >       26 </v>
  <v type="int" >       25 </v>
  <v type="int" >       36 </v>
  <v type="int" >       31 </v>
  <v type="int" >       38 </v>
  <v type="int" >       43 </v>
  <v type="int" >       37 </v>
  <v type="int" >       40 </v>
  <v type="int" >       41 </v>
  <v type="int" >       42 </v>
  <v type="int" >       13 </v>
  <v type="int" >        8 </v>
  <v type="int" >       52 </v>
  <v type="int" >       51 </v>
  <v type="int" >       61 </v>
  <v type="int" >       58 </v>
  <v type="int" >        6 </v>
  <v type="int" >       12 </v>
  <v type="int" >        7 </v>
  <v type="int" >       10 </v>
  <v type="int" >       20 </v>
  <v type="int" >       15 </v>
  <v type="int" >       29 </v>
  <v type="int" >       30 </v>
  <v type="int" >       35 </v>
  <v type="int" >       32 </v>
  <v type="int" >       46 </v>
  <v type="int" >       45 </v>
  <v type="int" >       11 </v>
 </varray>
 <kpoints>
  <generation param="Gamma">
   <v type="int" name="divisions">       2        2        2 </v>
   <v name="usershift">      0.00000000       0.00000000       0.00000000 </v>
   <v name="genvec1">      0.50000000       0.00000000       0.00000000 </v>
   <v name="genvec2">      0.00000000       0.50000000       0.00000000 </v>
   <v name="genvec3">      0.00000000       0.00000000       0.50000000 </v>
   <v name="shift">      0.00000000       0.00000000       0.00000000 </v>
  </generation>
  <varray name="kpointlist" >
   <v>       0.00000000       0.00000000       0.00000000 </v>
   <v>       0.50000000       0.00000000       0.00000000 </v>
   <v>       0.00000000       0.50000000       0.00000000 </v>
   <v>       0.50000000       0.50000000       0.00000000 </v>
   <v>       0.00000000       0.00000000       0.50000000 </v>
   <v>       0.50000000       0.00000000       0.50000000 </v>
   <v>       0.00000000       0.50000000       0.50000000 </v>
   <v>       0.50000000       0.50000000       0.50000000 </v>
  </varray>
  <varray name="weights" >
   <v>       0.12500000 </v>
   <v>       0.12500000 </v>
   <v>       0.12500000 </v>
   <v>       0.12500000 </v>
   <v>       0.12500000 </v>
   <v>       0.12500000 </v>
   <v>       0.12500000 </v>
   <v>       0.12500000 </v>
  </varray>
  <varray name="tetrahedronlist"  type="int" >
   <v type="int" >        2        1        2        4        5 </v>
   <v type="int" >        2        1        3        4        5 </v>
   <v type="int" >        2        3        4        5        7 </v>
   <v type="int" >        2        2        4        5        6 </v>
   <v type="int" >        2        4        5        6        8 </v>
   <v type="int" >        2        4        5        7        8 </v>
   <v type="int" >        2        1        2        3        6 </v>
   <v type="int" >        2        2        3        4        6 </v>
   <v type="int" >        2        3        4        6        8 </v>
   <v type="int" >        2        1        3        5        6 </v>
   <v type="int" >        2        3        5        6        7 </v>
   <v type="int" >        2        3        6        7        8 </v>
   <v type="int" >        2        2        3        4        7 </v>
   <v type="int" >        2        1        2        3        7 </v>
   <v type="int" >        2        1        2        5        7 </v>
   <v type="int" >        2        2        4        7        8 </v>
   <v type="int" >        2        2        6        7        8 </v>
   <v type="int" >        2        2        5        6        7 </v>
   <v type="int" >        2        1        3        4        8 </v>
   <v type="int" >        2        1        2        4        8 </v>
   <v type="int" >        2        1        2        6        8 </v>
   <v type="int" >        2        1        3        7        8 </v>
   <v type="int" >        2        1        5        7        8 </v>
   <v type="int" >        2        1        5        6        8 </v>
  </varray>
  <i name="volumeweight">      0.02083333 </i>
 </kpoints>
 <parameters>
  <separator name="general" >
   <i type="string" name="SYSTEM">La2O2S</i>
   <i type="logical" name="LCOMPAT"> F  </i>
  </separator>
  <separator name="electronic" >
   <i type="string" name="PREC">normal</i>
   <i name="ENMAX">    600.00000000</i>
   <i name="ENAUG">    900.00000000</i>
   <i name="EDIFF">      0.00000100</i>
   <i type="int" name="IALGO">    38</i>
   <i type="int" name="IWAVPR">    11</i>
   <i type="int" name="NBANDS">   308</i>
   <i name="NELECT">    472.00000000</i>
   <i type="int" name="TURBO">     0</i>
   <i type="int" name="IRESTART">     0</i>
   <i type="int" name="NREBOOT">     0</i>
   <i type="int" name="NMIN">     0</i>
   <i name="EREF">      0.00000000</i>
   <separator name="electronic smearing" >
    <i type="int" name="ISMEAR">    -5</i>
    <i name="SIGMA">      0.20000000</i>
    <i name="KSPACING">      0.50000000</i>
    <i type="logical" name="KGAMMA"> T  </i>
   </separator>
   <separator name="electronic projectors" >
    <i type="logical" name="LREAL"> F  </i>
    <v name="ROPT">      0.00000000      0.00000000      0.00000000      0.00000000      0.00000000</v>
    <i type="int" name="LMAXPAW">  -100</i>
    <i type="int" name="LMAXMIX">     2</i>
    <i type="logical" name="NLSPLINE"> F  </i>
   </separator>
   <separator name="electronic startup" >
    <i type="int" name="ISTART">     0</i>
    <i type="int" name="ICHARG">     2</i>
    <i type="int" name="INIWAV">     1</i>
   </separator>
   <separator name="electronic spin" >
    <i type="int" name="ISPIN">     1</i>
    <i type="logical" name="LNONCOLLINEAR"> F  </i>
    <v name="MAGMOM">      1.00000000      1.00000000      1.00000000      1.00000000      1.00000000      1.00000000      1.00000000      1.00000000      1.00000000      1.00000000      1.00000000      1.00000000      1.00000000      1.00000000      1.00000000      1.00000000      1.00000000      1.00000000      1.00000000      1.00000000
      1.00000000      1.00000000      1.00000000      1.00000000      1.00000000      1.00000000      1.00000000      1.00000000      1.00000000      1.00000000      1.00000000      1.00000000      1.00000000      1.00000000      1.00000000      1.00000000      1.00000000      1.00000000      1.00000000      1.00000000
      1.00000000      1.00000000      1.00000000      1.00000000      1.00000000      1.00000000      1.00000000      1.00000000      1.00000000      1.00000000      1.00000000      1.00000000      1.00000000      1.00000000      1.00000000      1.00000000      1.00000000      1.00000000      1.00000000      1.00000000
      1.00000000      1.00000000</v>
    <i name="NUPDOWN">     -1.00000000</i>
    <i type="logical" name="LSORBIT"> F  </i>
    <v name="SAXIS">      0.00000000      0.00000000      1.00000000</v>
    <i type="logical" name="LSPIRAL"> F  </i>
    <v name="QSPIRAL">      0.00000000      0.00000000      0.00000000</v>
    <i type="logical" name="LZEROZ"> F  </i>
   </separator>
   <separator name="electronic exchange-correlation" >
    <i type="logical" name="LASPH"> F  </i>
    <i type="logical" name="LMETAGGA"> F  </i>
   </separator>
   <separator name="electronic convergence" >
    <i type="int" name="NELM">    60</i>
    <i type="int" name="NELMDL">    -5</i>
    <i type="int" name="NELMIN">     4</i>
    <i name="ENINI">    600.00000000</i>
    <separator name="electronic convergence detail" >
     <i type="logical" name="LDIAG"> T  </i>
     <i type="logical" name="LSUBROT"> F  </i>
     <i name="WEIMIN">      0.00100000</i>
     <i name="EBREAK">      0.00000000</i>
     <i name="DEPER">      0.30000000</i>
     <i type="int" name="NRMM">     4</i>
     <i name="TIME">      0.40000000</i>
    </separator>
   </separator>
   <separator name="electronic mixer" >
    <i name="AMIX">      0.40000000</i>
    <i name="BMIX">      1.00000000</i>
    <i name="AMIN">      0.10000000</i>
    <i name="AMIX_MAG">      1.60000000</i>
    <i name="BMIX_MAG">      1.00000000</i>
    <separator name="electronic mixer details" >
     <i type="int" name="IMIX">     4</i>
     <i type="logical" name="MIXFIRST"> F  </i>
     <i type="int" name="MAXMIX">   -45</i>
     <i name="WC">    100.00000000</i>
     <i type="int" name="INIMIX">     1</i>
     <i type="int" name="MIXPRE">     1</i>
     <i type="int" name="MREMOVE">     5</i>
    </separator>
   </separator>
   <separator name="electronic dipolcorrection" >
    <i type="logical" name="LDIPOL"> F  </i>
    <i type="logical" name="LMONO"> F  </i>
    <i type="int" name="IDIPOL">     0</i>
    <i name="EPSILON">      1.00000000</i>
    <v name="DIPOL">   -100.00000000   -100.00000000   -100.00000000</v>
    <i name="EFIELD">      0.00000000</i>
   </separator>
  </separator>
  <separator name="grids" >
   <i type="int" name="NGX">    70</i>
   <i type="int" name="NGY">    60</i>
   <i type="int" name="NGZ">    70</i>
   <i type="int" name="NGXF">   140</i>
   <i type="int" name="NGYF">   120</i>
   <i type="int" name="NGZF">   140</i>
   <i type="logical" name="ADDGRID"> F  </i>
  </separator>
  <separator name="ionic" >
   <i type="int" name="NSW">     1</i>
   <i type="int" name="IBRION">     2</i>
   <i type="int" name="MDALGO">     0</i>
   <i type="int" name="ISIF">     2</i>
   <i name="PSTRESS">      0.00000000</i>
   <i name="EDIFFG">     -0.01000000</i>
   <i type="int" name="NFREE">    10</i>
   <i name="POTIM">      0.50000000</i>
   <i name="SMASS">     -3.00000000</i>
   <i name="SCALEE">      1.00000000</i>
  </separator>
  <separator name="ionic md" >
   <i name="TEBEG">      0.00010000</i>
   <i name="TEEND">      0.00010000</i>
   <i type="int" name="NBLOCK">     1</i>
   <i type="int" name="KBLOCK">     1</i>
   <i type="int" name="NPACO">   256</i>
   <i name="APACO">     16.00000000</i>
  </separator>
  <separator name="symmetry" >
   <i type="int" name="ISYM">     2</i>
   <i name="SYMPREC">      0.00001000</i>
  </separator>
  <separator name="dos" >
   <i type="int" name="LORBIT">     0</i>
   <v name="RWIGS">     -1.00000000     -1.00000000     -1.00000000     -1.00000000     -1.00000000</v>
   <i type="int" name="NEDOS">   301</i>
   <i name="EMIN">     10.00000000</i>
   <i name="EMAX">    -10.00000000</i>
   <i name="EFERMI">      0.00000000</i>
  </separator>
  <separator name="writing" >
   <i type="int" name="NWRITE">     2</i>
   <i type="logical" name="LWAVE"> F  </i>
   <i type="logical" name="LDOWNSAMPLE"> F  </i>
   <i type="logical" name="LCHARG"> F  </i>
   <i type="logical" name="LPARD"> F  </i>
   <i type="logical" name="LVTOT"> F  </i>
   <i type="logical" name="LVHAR"> F  </i>
   <i type="logical" name="LELF"> F  </i>
   <i type="logical" name="LOPTICS"> F  </i>
   <v name="STM">      0.00000000      0.00000000      0.00000000      0.00000000      0.00000000      0.00000000      0.00000000</v>
  </separator>
  <separator name="performance" >
   <i type="int" name="NPAR">    28</i>
   <i type="int" name="NSIM">     4</i>
   <i type="int" name="NBLK">    -1</i>
   <i type="logical" name="LPLANE"> T  </i>
   <i type="logical" name="LSCALAPACK"> T  </i>
   <i type="logical" name="LSCAAWARE"> F  </i>
   <i type="logical" name="LSCALU"> F  </i>
   <i type="logical" name="LASYNC"> F  </i>
   <i type="logical" name="LORBITALREAL"> F  </i>
  </separator>
  <separator name="miscellaneous" >
   <i type="int" name="IDIOT">     3</i>
   <i type="int" name="ISPECIAL">     0</i>
   <i type="logical" name="LMUSIC"> F  </i>
   <v name="POMASS">      7.01000000     24.30500000    208.98000000     32.06600000     16.00000000</v>
   <v name="DARWINR">      0.00000000      0.00000000      0.00000000      0.00000000      0.00000000</v>
   <v name="DARWINV">      1.00000000      1.00000000      1.00000000      1.00000000      1.00000000</v>
   <i type="logical" name="LCORR"> T  </i>
  </separator>
  <i type="logical" name="GGA_COMPAT"> T  </i>
  <i type="logical" name="LBERRY"> F  </i>
  <i type="int" name="ICORELEVEL">     0</i>
  <i type="logical" name="LDAU"> F  </i>
  <i type="int" name="I_CONSTRAINED_M">     0</i>
  <separator name="electronic exchange-correlation" >
   <i type="string" name="GGA">--</i>
   <i type="int" name="VOSKOWN">     0</i>
   <i type="logical" name="LHFCALC"> F  </i>
   <i type="string" name="PRECFOCK"></i>
   <i type="logical" name="LSYMGRAD"> F  </i>
   <i type="logical" name="LHFONE"> F  </i>
   <i type="logical" name="LRHFCALC"> F  </i>
   <i type="logical" name="LTHOMAS"> F  </i>
   <i type="logical" name="LMODELHF"> F  </i>
   <i name="ENCUT4O">     -1.00000000</i>
   <i type="int" name="EXXOEP">     0</i>
   <i type="int" name="FOURORBIT">     0</i>
   <i name="AEXX">      0.00000000</i>
   <i name="HFALPHA">      0.00000000</i>
   <i name="MCALPHA">      0.00000000</i>
   <i name="ALDAX">      1.00000000</i>
   <i name="AGGAX">      1.00000000</i>
   <i name="ALDAC">      1.00000000</i>
   <i name="AGGAC">      1.00000000</i>
   <i type="int" name="NKREDX">     1</i>
   <i type="int" name="NKREDY">     1</i>
   <i type="int" name="NKREDZ">     1</i>
   <i type="logical" name="SHIFTRED"> F  </i>
   <i type="logical" name="ODDONLY"> F  </i>
   <i type="logical" name="EVENONLY"> F  </i>
   <i type="int" name="LMAXFOCK">     0</i>
   <i type="int" name="NMAXFOCKAE">     0</i>
   <i type="logical" name="LFOCKAEDFT"> F  </i>
   <i name="HFSCREEN">      0.00000000</i>
   <i name="HFSCREENC">      0.00000000</i>
   <i type="int" name="NBANDSGWLOW">     0</i>
  </separator>
  <separator name="vdW DFT" >
   <i type="logical" name="LUSE_VDW"> F  </i>
   <i name="Zab_VDW">     -0.84910000</i>
   <i name="PARAM1">      0.12340000</i>
   <i name="PARAM2">      1.00000000</i>
   <i name="PARAM3">      0.00000000</i>
  </separator>
  <separator name="model GW" >
   <i type="int" name="MODEL_GW">     0</i>
   <i name="MODEL_EPS0">     11.58240521</i>
   <i name="MODEL_ALPHA">      1.00000000</i>
  </separator>
  <separator name="linear response parameters" >
   <i type="logical" name="LEPSILON"> F  </i>
   <i type="logical" name="LRPA"> F  </i>
   <i type="logical" name="LNABLA"> F  </i>
   <i type="logical" name="LVEL"> F  </i>
   <i type="int" name="KINTER">     0</i>
   <i name="CSHIFT">      0.10000000</i>
   <i name="OMEGAMAX">     -1.00000000</i>
   <i name="DEG_THRESHOLD">      0.00200000</i>
   <i name="RTIME">     -0.10000000</i>
   <i name="WPLASMAI">      0.00000000</i>
   <v name="DFIELD">      0.00000000      0.00000000      0.00000000</v>
   <v name="WPLASMA">      0.00000000      0.00000000      0.00000000      0.00000000      0.00000000      0.00000000      0.00000000      0.00000000      0.00000000</v>
  </separator>
  <separator name="orbital magnetization" >
   <i type="logical" name="NUCIND"> F  </i>
   <v name="MAGPOS">      0.00000000      0.00000000      0.00000000</v>
   <i type="logical" name="LNICSALL"> T  </i>
   <i type="logical" name="ORBITALMAG"> F  </i>
   <i type="logical" name="LMAGBLOCH"> F  </i>
   <i type="logical" name="LCHIMAG"> F  </i>
   <i type="logical" name="LGAUGE"> T  </i>
   <i type="int" name="MAGATOM">     0</i>
   <v name="MAGDIPOL">      0.00000000      0.00000000      0.00000000</v>
   <v name="AVECCONST">      0.00000000      0.00000000      0.00000000</v>
  </separator>
  <separator name="response functions" >
   <i type="logical" name="LADDER"> F  </i>
   <i type="logical" name="LRPAFORCE"> F  </i>
   <i type="logical" name="LFXC"> F  </i>
   <i type="logical" name="LHARTREE"> T  </i>
   <i type="int" name="IBSE">     0</i>
   <v type="int" name="KPOINT">    -1     0     0     0</v>
   <i type="logical" name="LTCTE"> F  </i>
   <i type="logical" name="LTETE"> F  </i>
   <i type="logical" name="LTRIPLET"> F  </i>
   <i type="logical" name="LFXCEPS"> F  </i>
   <i type="logical" name="LFXHEG"> F  </i>
   <i type="int" name="NATURALO">     2</i>
   <i type="logical" name="L2ORDER"> F  </i>
   <i type="logical" name="LMP2LT"> F  </i>
   <i type="logical" name="LUSEW"> F  </i>
   <i name="ENCUTGW">     -2.00000000</i>
   <i name="ENCUTGWSOFT">     -2.00000000</i>
   <i name="ENCUTLF">     -1.00000000</i>
   <i type="int" name="LMAXMP2">    -1</i>
   <i name="SCISSOR">      0.00000000</i>
   <i type="int" name="NOMEGA">     0</i>
   <i type="int" name="NOMEGAR">     0</i>
   <i type="int" name="NBANDSGW">    -1</i>
   <i type="int" name="NBANDSO">    -1</i>
   <i type="int" name="NBANDSV">    -1</i>
   <i type="int" name="NELM">     1</i>
   <i type="int" name="NELMHF">     1</i>
   <i type="int" name="DIM">     3</i>
   <i type="int" name="ANTIRES">     0</i>
   <i name="OMEGAMAX">    -30.00000000</i>
   <i name="OMEGAMIN">    -30.00000000</i>
   <i name="OMEGATL">   -200.00000000</i>
   <i type="int" name="OMEGAGRID">   140</i>
   <i name="CSHIFT">     -0.10000000</i>
   <i type="logical" name="SELFENERGY"> F  </i>
   <i type="logical" name="LSPECTRAL"> F  </i>
   <i type="logical" name="LSPECTRALGW"> F  </i>
   <i type="logical" name="LSINGLES"> F  </i>
   <i type="logical" name="LFERMIGW"> F  </i>
   <i type="logical" name="ODDONLYGW"> F  </i>
   <i type="logical" name="EVENONLYGW"> F  </i>
   <i type="int" name="NKREDLFX">     1</i>
   <i type="int" name="NKREDLFY">     1</i>
   <i type="int" name="NKREDLFZ">     1</i>
   <i type="int" name="MAXMEM">  2800</i>
   <i type="int" name="TELESCOPE">     0</i>
   <i type="int" name="TAUPAR">     1</i>
   <i type="int" name="OMEGAPAR">    -1</i>
   <i name="LAMBDA">      1.00000000</i>
  </separator>
  <separator name="External order field" >
   <i name="OFIELD_KAPPA">      0.00000000</i>
   <v name="OFIELD_K">      0.00000000      0.00000000      0.00000000</v>
   <i name="OFIELD_Q6_NEAR">      0.00000000</i>
   <i name="OFIELD_Q6_FAR">      0.00000000</i>
   <i name="OFIELD_A">      0.00000000</i>
  </separator>
 </parameters>
 <atominfo>
  <atoms>      62 </atoms>
  <types>       5 </types>
  <array name="atoms" >
   <dimension dim="1">ion</dimension>
   <field type="string">element</field>
   <field type="int">atomtype</field>
   <set>
    <rc><c>Li</c><c>   1</c></rc>
    <rc><c>Li</c><c>   1</c></rc>
    <rc><c>Li</c><c>   1</c></rc>
    <rc><c>Li</c><c>   1</c></rc>
    <rc><c>Li</c><c>   1</c></rc>
    <rc><c>Li</c><c>   1</c></rc>
    <rc><c>Li</c><c>   1</c></rc>
    <rc><c>Li</c><c>   1</c></rc>
    <rc><c>Li</c><c>   1</c></rc>
    <rc><c>Li</c><c>   1</c></rc>
    <rc><c>Li</c><c>   1</c></rc>
    <rc><c>Li</c><c>   1</c></rc>
    <rc><c>Mg</c><c>   2</c></rc>
    <rc><c>Mg</c><c>   2</c></rc>
    <rc><c>Bi</c><c>   3</c></rc>
    <rc><c>Bi</c><c>   3</c></rc>
    <rc><c>Bi</c><c>   3</c></rc>
    <rc><c>Bi</c><c>   3</c></rc>
    <rc><c>Bi</c><c>   3</c></rc>
    <rc><c>Bi</c><c>   3</c></rc>
    <rc><c>Bi</c><c>   3</c></rc>
    <rc><c>Bi</c><c>   3</c></rc>
    <rc><c>Bi</c><c>   3</c></rc>
    <rc><c>Bi</c><c>   3</c></rc>
    <rc><c>Bi</c><c>   3</c></rc>
    <rc><c>Bi</c><c>   3</c></rc>
    <rc><c>Bi</c><c>   3</c></rc>
    <rc><c>Bi</c><c>   3</c></rc>
    <rc><c>Bi</c><c>   3</c></rc>
    <rc><c>Bi</c><c>   3</c></rc>
    <rc><c>S </c><c>   4</c></rc>
    <rc><c>S </c><c>   4</c></rc>
    <rc><c>S </c><c>   4</c></rc>
    <rc><c>S </c><c>   4</c></rc>
    <rc><c>S </c><c>   4</c></rc>
    <rc><c>S </c><c>   4</c></rc>
    <rc><c>S </c><c>   4</c></rc>
    <rc><c>S </c><c>   4</c></rc>
    <rc><c>S </c><c>   4</c></rc>
    <rc><c>S </c><c>   4</c></rc>
    <rc><c>S </c><c>   4</c></rc>
    <rc><c>S </c><c>   4</c></rc>
    <rc><c>S </c><c>   4</c></rc>
    <rc><c>S </c><c>   4</c></rc>
    <rc><c>S </c><c>   4</c></rc>
    <rc><c>S </c><c>   4</c></rc>
    <rc><c>O </c><c>   5</c></rc>
    <rc><c>O </c><c>   5</c></rc>
    <rc><c>O </c><c>   5</c></rc>
    <rc><c>O </c><c>   5</c></rc>
    <rc><c>O </c><c>   5</c></rc>
    <rc><c>O </c><c>   5</c></rc>
    <rc><c>O </c><c>   5</c></rc>
    <rc><c>O </c><c>   5</c></rc>
    <rc><c>O </c><c>   5</c></rc>
    <rc><c>O </c><c>   5</c></rc>
    <rc><c>O </c><c>   5</c></rc>
    <rc><c>O </c><c>   5</c></rc>
    <rc><c>O </c><c>   5</c></rc>
    <rc><c>O </c><c>   5</c></rc>
    <rc><c>O </c><c>   5</c></rc>
    <rc><c>O </c><c>   5</c></rc>
   </set>
  </array>
  <array name="atomtypes" >
   <dimension dim="1">type</dimension>
   <field type="int">atomspertype</field>
   <field type="string">element</field>
   <field>mass</field>
   <field>valence</field>
   <field type="string">pseudopotential</field>
   <set>
    <rc><c>  12</c><c>Li</c><c>      7.01000000</c><c>      3.00000000</c><c>  PAW_PBE Li_sv 10Sep2004               </c></rc>
    <rc><c>   2</c><c>Mg</c><c>     24.30500000</c><c>      2.00000000</c><c>  PAW_PBE Mg 13Apr2007                  </c></rc>
    <rc><c>  16</c><c>Bi</c><c>    208.98000000</c><c>     15.00000000</c><c>  PAW_PBE Bi_d 06Sep2000                </c></rc>
    <rc><c>  16</c><c>S </c><c>     32.06600000</c><c>      6.00000000</c><c>  PAW_PBE S 06Sep2000                   </c></rc>
    <rc><c>  16</c><c>O </c><c>     16.00000000</c><c>      6.00000000</c><c>  PAW_PBE O 08Apr2002                   </c></rc>
   </set>
  </array>
 </atominfo>
 <structure name="initialpos" >
  <crystal>
   <varray name="basis" >
    <v>      11.17850000       0.00000000       0.00000000 </v>
    <v>       0.00000000       9.57460000       0.00000000 </v>
    <v>       0.00000000       0.00000000      11.18240000 </v>
   </varray>
   <i name="volume">   1196.84853820 </i>
   <varray name="rec_basis" >
    <v>       0.08945744       0.00000000       0.00000000 </v>
    <v>       0.00000000       0.10444301       0.00000000 </v>
    <v>       0.00000000       0.00000000       0.08942624 </v>
   </varray>
  </crystal>
  <varray name="positions" >
   <v>       0.37539000       0.00017000       0.43687000 </v>
   <v>       0.12461000       0.99984000       0.18687000 </v>
   <v>       0.37461000       0.00017000       0.18687000 </v>
   <v>       0.62539000       0.99984000       0.43687000 </v>
   <v>       0.62461000       0.99984000       0.18687000 </v>
   <v>       0.87461000       0.00017000       0.18687000 </v>
   <v>       0.12539000       0.99984000       0.93687000 </v>
   <v>       0.37539000       0.00017000       0.93687000 </v>
   <v>       0.12461000       0.99984000       0.68687000 </v>
   <v>       0.62539000       0.99984000       0.93687000 </v>
   <v>       0.87539000       0.00017000       0.93687000 </v>
   <v>       0.87461000       0.00017000       0.68687000 </v>
   <v>       0.87539000       0.00017000       0.43687000 </v>
   <v>       0.37461000       0.00017000       0.68687000 </v>
   <v>       0.00013000       0.29519000       0.06281000 </v>
   <v>       0.25013000       0.70481000       0.06281000 </v>
   <v>       0.24987000       0.29519000       0.31282000 </v>
   <v>       0.49987000       0.70481000       0.31282000 </v>
   <v>       0.50013000       0.29519000       0.06281000 </v>
   <v>       0.75013000       0.70481000       0.06281000 </v>
   <v>       0.74987000       0.29519000       0.31282000 </v>
   <v>       0.99987000       0.70481000       0.31282000 </v>
   <v>       0.00013000       0.29519000       0.56281000 </v>
   <v>       0.25013000       0.70481000       0.56281000 </v>
   <v>       0.24987000       0.29519000       0.81282000 </v>
   <v>       0.49987000       0.70481000       0.81282000 </v>
   <v>       0.50013000       0.29519000       0.56281000 </v>
   <v>       0.75013000       0.70481000       0.56281000 </v>
   <v>       0.74987000       0.29519000       0.81282000 </v>
   <v>       0.99987000       0.70481000       0.81282000 </v>
   <v>       0.25005000       0.32677000       0.06286000 </v>
   <v>       0.00005000       0.67323000       0.06286000 </v>
   <v>       0.49995000       0.32677000       0.31286000 </v>
   <v>       0.24995000       0.67323000       0.31286000 </v>
   <v>       0.75005000       0.32677000       0.06286000 </v>
   <v>       0.50005000       0.67323000       0.06286000 </v>
   <v>       0.99995000       0.32677000       0.31286000 </v>
   <v>       0.74995000       0.67323000       0.31286000 </v>
   <v>       0.25005000       0.32677000       0.56286000 </v>
   <v>       0.00005000       0.67323000       0.56286000 </v>
   <v>       0.49995000       0.32677000       0.81286000 </v>
   <v>       0.24995000       0.67323000       0.81286000 </v>
   <v>       0.75005000       0.32677000       0.56286000 </v>
   <v>       0.50005000       0.67323000       0.56286000 </v>
   <v>       0.99995000       0.32677000       0.81286000 </v>
   <v>       0.74995000       0.67323000       0.81286000 </v>
   <v>       0.49987000       0.07798000       0.06246000 </v>
   <v>       0.24987000       0.92202000       0.06246000 </v>
   <v>       0.25013000       0.07798000       0.31246000 </v>
   <v>       0.00013000       0.92202000       0.31246000 </v>
   <v>       0.99987000       0.07798000       0.06246000 </v>
   <v>       0.74987000       0.92202000       0.06246000 </v>
   <v>       0.75013000       0.07798000       0.31246000 </v>
   <v>       0.50013000       0.92202000       0.31246000 </v>
   <v>       0.49987000       0.07798000       0.56246000 </v>
   <v>       0.24987000       0.92202000       0.56246000 </v>
   <v>       0.25013000       0.07798000       0.81246000 </v>
   <v>       0.00013000       0.92202000       0.81246000 </v>
   <v>       0.99987000       0.07798000       0.56246000 </v>
   <v>       0.74987000       0.92202000       0.56246000 </v>
   <v>       0.75013000       0.07798000       0.81246000 </v>
   <v>       0.50013000       0.92202000       0.81246000 </v>
  </varray>
 </structure>
 <calculation>
  <scstep>
   <time name="dav">   64.87   64.91</time>
   <time name="total">   64.96   65.00</time>
   <energy>
    <i name="alphaZ">   1079.87189334 </i>
    <i name="ewald"> -31109.62429602 </i>
    <i name="hartreedc"> -12715.37750177 </i>
    <i name="XCdc">   1468.88537920 </i>
    <i name="pawpsdc">  36917.91861236 </i>
    <i name="pawaedc"> -36503.41947684 </i>
    <i name="eentropy">      0.00000000 </i>
    <i name="bandstr">   1588.80410379 </i>
    <i name="atom">  45173.57650906 </i>
    <i name="e_fr_energy">   5900.63522313 </i>
    <i name="e_wo_entrp">   5900.63522313 </i>
    <i name="e_0_energy">   5900.63522313 </i>
   </energy>
  </scstep>
  <scstep>
   <time name="dav">   65.19   65.34</time>
   <time name="total">   65.20   65.35</time>
   <energy>
    <i name="e_fr_energy">    749.75138699 </i>
    <i name="e_wo_entrp">    749.75138699 </i>
    <i name="e_0_energy">    749.75138699 </i>
   </energy>
  </scstep>
  <scstep>
   <time name="dav">   71.61   71.78</time>
   <time name="total">   71.61   71.79</time>
   <energy>
    <i name="e_fr_energy">   -244.90234286 </i>
    <i name="e_wo_entrp">   -244.90234286 </i>
    <i name="e_0_energy">   -244.90234286 </i>
   </energy>
  </scstep>
  <scstep>
   <time name="dav">   79.51   79.84</time>
   <time name="total">   79.51   79.85</time>
   <energy>
    <i name="e_fr_energy">   -352.59124887 </i>
    <i name="e_wo_entrp">   -352.59124887 </i>
    <i name="e_0_energy">   -352.59124887 </i>
   </energy>
  </scstep>
  <scstep>
   <time name="dav">  103.56  104.18</time>
   <time name="total">  104.27  104.93</time>
   <energy>
    <i name="e_fr_energy">   -361.16959228 </i>
    <i name="e_wo_entrp">   -361.16959228 </i>
    <i name="e_0_energy">   -361.16959228 </i>
   </energy>
  </scstep>
  <scstep>
   <time name="dav">   90.37   91.36</time>
   <time name="total">   91.17   92.16</time>
   <energy>
    <i name="e_fr_energy">   -301.42912502 </i>
    <i name="e_wo_entrp">   -301.42912502 </i>
    <i name="e_0_energy">   -301.42912502 </i>
   </energy>
  </scstep>
  <scstep>
   <time name="dav">   72.11   72.22</time>
   <time name="total">   72.93   73.04</time>
   <energy>
    <i name="e_fr_energy">   -303.63380280 </i>
    <i name="e_wo_entrp">   -303.63380280 </i>
    <i name="e_0_energy">   -303.63380280 </i>
   </energy>
  </scstep>
  <scstep>
   <time name="dav">   82.11   83.03</time>
   <time name="total">   82.90   83.84</time>
   <energy>
    <i name="e_fr_energy">   -302.26808418 </i>
    <i name="e_wo_entrp">   -302.26808418 </i>
    <i name="e_0_energy">   -302.26808418 </i>
   </energy>
  </scstep>
  <scstep>
   <time name="dav">   93.05   94.57</time>
   <time name="total">   93.85   95.37</time>
   <energy>
    <i name="e_fr_energy">   -301.65807789 </i>
    <i name="e_wo_entrp">   -301.65807789 </i>
    <i name="e_0_energy">   -301.65807789 </i>
   </energy>
  </scstep>
  <scstep>
   <time name="dav">   77.40   77.55</time>
   <time name="total">   78.20   78.35</time>
   <energy>
    <i name="e_fr_energy">   -301.62573400 </i>
    <i name="e_wo_entrp">   -301.62573400 </i>
    <i name="e_0_energy">   -301.62573400 </i>
   </energy>
  </scstep>
  <scstep>
   <time name="dav">   83.40   83.42</time>
   <time name="total">   84.20   84.23</time>
   <energy>
    <i name="e_fr_energy">   -301.63914425 </i>
    <i name="e_wo_entrp">   -301.63914425 </i>
    <i name="e_0_energy">   -301.63914425 </i>
   </energy>
  </scstep>
  <scstep>
   <time name="dav">   82.02   82.11</time>
   <time name="total">   82.82   82.92</time>
   <energy>
    <i name="e_fr_energy">   -301.64347067 </i>
    <i name="e_wo_entrp">   -301.64347067 </i>
    <i name="e_0_energy">   -301.64347067 </i>
   </energy>
  </scstep>
  <scstep>
   <time name="dav">   80.01   80.11</time>
   <time name="total">   80.81   80.91</time>
   <energy>
    <i name="e_fr_energy">   -301.64456224 </i>
    <i name="e_wo_entrp">   -301.64456224 </i>
    <i name="e_0_energy">   -301.64456224 </i>
   </energy>
  </scstep>
  <scstep>
   <time name="dav">   80.38   80.63</time>
   <time name="total">   81.17   81.43</time>
   <energy>
    <i name="e_fr_energy">   -301.64472831 </i>
    <i name="e_wo_entrp">   -301.64472831 </i>
    <i name="e_0_energy">   -301.64472831 </i>
   </energy>
  </scstep>
  <scstep>
   <time name="dav">   91.09   91.25</time>
   <time name="total">   91.89   92.05</time>
   <energy>
    <i name="e_fr_energy">   -301.64475995 </i>
    <i name="e_wo_entrp">   -301.64475995 </i>
    <i name="e_0_energy">   -301.64475995 </i>
   </energy>
  </scstep>
  <scstep>
   <time name="dav">   69.69   69.74</time>
   <time name="total">   70.51   70.56</time>
   <energy>
    <i name="e_fr_energy">   -301.64477580 </i>
    <i name="e_wo_entrp">   -301.64477580 </i>
    <i name="e_0_energy">   -301.64477580 </i>
   </energy>
  </scstep>
  <scstep>
   <time name="dav">   72.14   72.94</time>
   <time name="total">   72.95   73.75</time>
   <energy>
    <i name="e_fr_energy">   -301.64477713 </i>
    <i name="e_wo_entrp">   -301.64477713 </i>
    <i name="e_0_energy">   -301.64477713 </i>
   </energy>
  </scstep>
  <scstep>
   <time name="dav">   55.79   56.19</time>
   <time name="total">   55.87   56.26</time>
   <energy>
    <i name="alphaZ">   1079.87189334 </i>
    <i name="ewald"> -31109.62429602 </i>
    <i name="hartreedc"> -12951.26484899 </i>
    <i name="XCdc">   1491.85542547 </i>
    <i name="pawpsdc">  43944.19478046 </i>
    <i name="pawaedc"> -43505.05796524 </i>
    <i name="eentropy">      0.00000000 </i>
    <i name="bandstr">  -4425.19627570 </i>
    <i name="atom">  45173.57650906 </i>
    <i name="e_fr_energy">   -301.64477761 </i>
    <i name="e_wo_entrp">   -301.64477761 </i>
    <i name="e_0_energy">   -301.64477761 </i>
   </energy>
  </scstep>
  <structure>
   <crystal>
    <varray name="basis" >
     <v>      11.17850000       0.00000000       0.00000000 </v>
     <v>       0.00000000       9.57460000       0.00000000 </v>
     <v>       0.00000000       0.00000000      11.18240000 </v>
    </varray>
    <i name="volume">   1196.84853820 </i>
    <varray name="rec_basis" >
     <v>       0.08945744       0.00000000       0.00000000 </v>
     <v>       0.00000000       0.10444301       0.00000000 </v>
     <v>       0.00000000       0.00000000       0.08942624 </v>
    </varray>
   </crystal>
   <varray name="positions" >
    <v>       0.37539000       0.00017000       0.43687000 </v>
    <v>       0.12461000       0.99984000       0.18687000 </v>
    <v>       0.37461000       0.00017000       0.18687000 </v>
    <v>       0.62539000       0.99984000       0.43687000 </v>
    <v>       0.62461000       0.99984000       0.18687000 </v>
    <v>       0.87461000       0.00017000       0.18687000 </v>
    <v>       0.12539000       0.99984000       0.93687000 </v>
    <v>       0.37539000       0.00017000       0.93687000 </v>
    <v>       0.12461000       0.99984000       0.68687000 </v>
    <v>       0.62539000       0.99984000       0.93687000 </v>
    <v>       0.87539000       0.00017000       0.93687000 </v>
    <v>       0.87461000       0.00017000       0.68687000 </v>
    <v>       0.87539000       0.00017000       0.43687000 </v>
    <v>       0.37461000       0.00017000       0.68687000 </v>
    <v>       0.00013000       0.29519000       0.06281000 </v>
    <v>       0.25013000       0.70481000       0.06281000 </v>
    <v>       0.24987000       0.29519000       0.31282000 </v>
    <v>       0.49987000       0.70481000       0.31282000 </v>
    <v>       0.50013000       0.29519000       0.06281000 </v>
    <v>       0.75013000       0.70481000       0.06281000 </v>
    <v>       0.74987000       0.29519000       0.31282000 </v>
    <v>       0.99987000       0.70481000       0.31282000 </v>
    <v>       0.00013000       0.29519000       0.56281000 </v>
    <v>       0.25013000       0.70481000       0.56281000 </v>
    <v>       0.24987000       0.29519000       0.81282000 </v>
    <v>       0.49987000       0.70481000       0.81282000 </v>
    <v>       0.50013000       0.29519000       0.56281000 </v>
    <v>       0.75013000       0.70481000       0.56281000 </v>
    <v>       0.74987000       0.29519000       0.81282000 </v>
    <v>       0.99987000       0.70481000       0.81282000 </v>
    <v>       0.25005000       0.32677000       0.06286000 </v>
    <v>       0.00005000       0.67323000       0.06286000 </v>
    <v>       0.49995000       0.32677000       0.31286000 </v>
    <v>       0.24995000       0.67323000       0.31286000 </v>
    <v>       0.75005000       0.32677000       0.06286000 </v>
    <v>       0.50005000       0.67323000       0.06286000 </v>
    <v>       0.99995000       0.32677000       0.31286000 </v>
    <v>       0.74995000       0.67323000       0.31286000 </v>
    <v>       0.25005000       0.32677000       0.56286000 </v>
    <v>       0.00005000       0.67323000       0.56286000 </v>
    <v>       0.49995000       0.32677000       0.81286000 </v>
    <v>       0.24995000       0.67323000       0.81286000 </v>
    <v>       0.75005000       0.32677000       0.56286000 </v>
    <v>       0.50005000       0.67323000       0.56286000 </v>
    <v>       0.99995000       0.32677000       0.81286000 </v>
    <v>       0.74995000       0.67323000       0.81286000 </v>
    <v>       0.49987000       0.07798000       0.06246000 </v>
    <v>       0.24987000       0.92202000       0.06246000 </v>
    <v>       0.25013000       0.07798000       0.31246000 </v>
    <v>       0.00013000       0.92202000       0.31246000 </v>
    <v>       0.99987000       0.07798000       0.06246000 </v>
    <v>       0.74987000       0.92202000       0.06246000 </v>
    <v>       0.75013000       0.07798000       0.31246000 </v>
    <v>       0.50013000       0.92202000       0.31246000 </v>
    <v>       0.49987000       0.07798000       0.56246000 </v>
    <v>       0.24987000       0.92202000       0.56246000 </v>
    <v>       0.25013000       0.07798000       0.81246000 </v>
    <v>       0.00013000       0.92202000       0.81246000 </v>
    <v>       0.99987000       0.07798000       0.56246000 </v>
    <v>       0.74987000       0.92202000       0.56246000 </v>
    <v>       0.75013000       0.07798000       0.81246000 </v>
    <v>       0.50013000       0.92202000       0.81246000 </v>
   </varray>
  </structure>
  <varray name="forces" >
   <v>      -0.33996441       0.06632762      -0.30416123 </v>
   <v>       0.08514583       0.06784069       0.42309897 </v>
   <v>      -0.16143584       0.06450537       0.16451233 </v>
   <v>      -0.41255451      -0.06443084       0.43040829 </v>
   <v>      -0.07405630      -0.06392008      -0.08827983 </v>
   <v>       0.17924587      -0.06333220      -0.31524145 </v>
   <v>      -0.08819528      -0.06433791       0.09787060 </v>
   <v>       0.16905740      -0.06339412       0.32275291 </v>
   <v>      -0.39494882      -0.06345982      -0.41952399 </v>
   <v>       0.06658877       0.06764123      -0.41134528 </v>
   <v>      -0.17492555       0.06408518      -0.14801688 </v>
   <v>      -0.33012364       0.06490147       0.31941772 </v>
   <v>       0.76393588      -0.11846618       0.25319293 </v>
   <v>       0.80655849      -0.11609732      -0.19030544 </v>
   <v>      -0.01435257       0.00389225      -0.02782732 </v>
   <v>       0.00412071      -0.00660897       0.09863708 </v>
   <v>      -0.07679647      -1.02030432       0.07857755 </v>
   <v>      -0.10628306      -0.02210593      -0.03303277 </v>
   <v>      -0.01691127       0.00339753       0.01955676 </v>
   <v>       0.00210056      -0.00784020      -0.10676929 </v>
   <v>      -0.08880454       1.03299248      -0.11168677 </v>
   <v>       0.29476531       0.02942903       0.01963794 </v>
   <v>       0.17445743      -0.01864937      -0.03499900 </v>
   <v>      -0.18943745      -0.02388456      -0.30195988 </v>
   <v>      -0.08376860       1.02805675       0.10686702 </v>
   <v>       0.28904798       0.03948622      -0.03101060 </v>
   <v>       0.18109843      -0.02984307       0.02775106 </v>
   <v>      -0.19143409      -0.00447564       0.29137365 </v>
   <v>      -0.07787201      -1.00678289      -0.09056443 </v>
   <v>      -0.10602130      -0.02264733       0.02455877 </v>
   <v>      -0.00434213       0.18867089      -0.18717029 </v>
   <v>       0.00171704      -0.18364060      -0.00609526 </v>
   <v>       0.19034310       0.19279024      -0.00576645 </v>
   <v>       0.02369252      -0.16726278      -0.02063976 </v>
   <v>      -0.00320991       0.18743754       0.18480849 </v>
   <v>       0.00187388      -0.18392806       0.00675871 </v>
   <v>      -0.24147951       0.11631893       0.02608427 </v>
   <v>       0.03379170      -0.15143520       0.03852978 </v>
   <v>       0.05500098       0.12317746       0.24319072 </v>
   <v>      -0.05639194      -0.13959649      -0.02325954 </v>
   <v>      -0.23835217       0.11830915      -0.02479726 </v>
   <v>       0.03149688      -0.15187231      -0.04068770 </v>
   <v>       0.05773238       0.12564744      -0.24167656 </v>
   <v>      -0.06119127      -0.13965584       0.02145034 </v>
   <v>       0.18770456       0.19181509       0.00412776 </v>
   <v>       0.02486015      -0.16669902       0.02129880 </v>
   <v>       0.00374587      -0.02071384      -0.00033864 </v>
   <v>       0.00769744       0.01636102      -0.15311468 </v>
   <v>       0.60528593       0.80265677      -0.61099420 </v>
   <v>      -1.23740600      -0.02051272      -0.14285737 </v>
   <v>       0.00228202      -0.02111371      -0.00225622 </v>
   <v>       0.00850738       0.01758227       0.14994444 </v>
   <v>       0.46114570      -0.77540226       0.45582438 </v>
   <v>       0.14406917       0.01950261      -0.00646067 </v>
   <v>      -1.08432550       0.05528698      -0.13507243 </v>
   <v>       1.04725555       0.07076349       1.19658070 </v>
   <v>       0.45892826      -0.77620465      -0.46813942 </v>
   <v>       0.14349367       0.02082377       0.00273516 </v>
   <v>      -1.08341617       0.04737730       0.12938851 </v>
   <v>       1.07197195       0.07290988      -1.21532854 </v>
   <v>       0.60828854       0.79627504       0.61410490 </v>
   <v>      -1.24900705      -0.01764345       0.12633863 </v>
  </varray>
  <varray name="stress" >
   <v>      -9.87276205       0.06609119       0.00492200 </v>
   <v>       0.06609149     -14.68326902       0.05453780 </v>
   <v>       0.00492233       0.05453789      -7.55292977 </v>
  </varray>
  <energy>
   <i name="e_fr_energy">   -317.49604325 </i>
   <i name="e_wo_entrp">   -317.49604325 </i>
   <i name="e_0_energy">      0.00000000 </i>
  </energy>
  <time name="totalsc"> 1539.78 1546.95</time>
  <eigenvalues>
   <array>
    <dimension dim="1">band</dimension>
    <dimension dim="2">kpoint</dimension>
    <dimension dim="3">spin</dimension>
    <field>eigene</field>
    <field>occ</field>
    <set>
     <set comment="spin 1">
      <set comment="kpoint 1">
       <r>  -39.9856    1.0000 </r>
       <r>  -39.9831    1.0000 </r>
       <r>  -39.9566    1.0000 </r>
       <r>  -39.9539    1.0000 </r>
       <r>  -39.9415    1.0000 </r>
       <r>  -39.9386    1.0000 </r>
       <r>  -39.6288    1.0000 </r>
       <r>  -39.6264    1.0000 </r>
       <r>  -39.6165    1.0000 </r>
       <r>  -39.6143    1.0000 </r>
       <r>  -39.5800    1.0000 </r>
       <r>  -39.5782    1.0000 </r>
       <r>  -18.8205    1.0000 </r>
       <r>  -18.8190    1.0000 </r>
       <r>  -18.7575    1.0000 </r>
       <r>  -18.7546    1.0000 </r>
       <r>  -18.7513    1.0000 </r>
       <r>  -18.7466    1.0000 </r>
       <r>  -18.6572    1.0000 </r>
       <r>  -18.6467    1.0000 </r>
       <r>  -18.6446    1.0000 </r>
       <r>  -18.6440    1.0000 </r>
       <r>  -18.6393    1.0000 </r>
       <r>  -18.6388    1.0000 </r>
       <r>  -18.6331    1.0000 </r>
       <r>  -18.6321    1.0000 </r>
       <r>  -18.6313    1.0000 </r>
       <r>  -18.6291    1.0000 </r>
       <r>  -18.6257    1.0000 </r>
       <r>  -18.6230    1.0000 </r>
       <r>  -18.6204    1.0000 </r>
       <r>  -18.6169    1.0000 </r>
       <r>  -18.6168    1.0000 </r>
       <r>  -18.6164    1.0000 </r>
       <r>  -18.6160    1.0000 </r>
       <r>  -18.6143    1.0000 </r>
       <r>  -18.6126    1.0000 </r>
       <r>  -18.6122    1.0000 </r>
       <r>  -18.6107    1.0000 </r>
       <r>  -18.6105    1.0000 </r>
       <r>  -18.6099    1.0000 </r>
       <r>  -18.6082    1.0000 </r>
       <r>  -18.6064    1.0000 </r>
       <r>  -18.6060    1.0000 </r>
       <r>  -18.6054    1.0000 </r>
       <r>  -18.6023    1.0000 </r>
       <r>  -18.6006    1.0000 </r>
       <r>  -18.5999    1.0000 </r>
       <r>  -18.5997    1.0000 </r>
       <r>  -18.5983    1.0000 </r>
       <r>  -18.5980    1.0000 </r>
       <r>  -18.5952    1.0000 </r>
       <r>  -18.5906    1.0000 </r>
       <r>  -18.5903    1.0000 </r>
       <r>  -18.5882    1.0000 </r>
       <r>  -18.5877    1.0000 </r>
       <r>  -18.5868    1.0000 </r>
       <r>  -18.5798    1.0000 </r>
       <r>  -18.4756    1.0000 </r>
       <r>  -18.4743    1.0000 </r>
       <r>  -18.4721    1.0000 </r>
       <r>  -18.4720    1.0000 </r>
       <r>  -18.4656    1.0000 </r>
       <r>  -18.4640    1.0000 </r>
       <r>  -18.4593    1.0000 </r>
       <r>  -18.4579    1.0000 </r>
       <r>  -18.4575    1.0000 </r>
       <r>  -18.4562    1.0000 </r>
       <r>  -18.4557    1.0000 </r>
       <r>  -18.4548    1.0000 </r>
       <r>  -18.4544    1.0000 </r>
       <r>  -18.4542    1.0000 </r>
       <r>  -18.4503    1.0000 </r>
       <r>  -18.4494    1.0000 </r>
       <r>  -18.4489    1.0000 </r>
       <r>  -18.4481    1.0000 </r>
       <r>  -18.4453    1.0000 </r>
       <r>  -18.4449    1.0000 </r>
       <r>  -18.4442    1.0000 </r>
       <r>  -18.4439    1.0000 </r>
       <r>  -18.4430    1.0000 </r>
       <r>  -18.4414    1.0000 </r>
       <r>  -18.4348    1.0000 </r>
       <r>  -18.4311    1.0000 </r>
       <r>  -18.4225    1.0000 </r>
       <r>  -18.4174    1.0000 </r>
       <r>  -18.3477    1.0000 </r>
       <r>  -18.3435    1.0000 </r>
       <r>  -18.2287    1.0000 </r>
       <r>  -18.2250    1.0000 </r>
       <r>  -18.2200    1.0000 </r>
       <r>  -18.2163    1.0000 </r>
       <r>  -13.3869    1.0000 </r>
       <r>  -13.3807    1.0000 </r>
       <r>  -12.8358    1.0000 </r>
       <r>  -12.7577    1.0000 </r>
       <r>  -12.7306    1.0000 </r>
       <r>  -12.7175    1.0000 </r>
       <r>  -12.6628    1.0000 </r>
       <r>  -12.6549    1.0000 </r>
       <r>  -12.6424    1.0000 </r>
       <r>  -12.6357    1.0000 </r>
       <r>  -12.6310    1.0000 </r>
       <r>  -12.6035    1.0000 </r>
       <r>  -12.5816    1.0000 </r>
       <r>  -12.5728    1.0000 </r>
       <r>  -11.9943    1.0000 </r>
       <r>  -11.9843    1.0000 </r>
       <r>   -9.2831    1.0000 </r>
       <r>   -8.9873    1.0000 </r>
       <r>   -8.5181    1.0000 </r>
       <r>   -8.4554    1.0000 </r>
       <r>   -8.4534    1.0000 </r>
       <r>   -8.3910    1.0000 </r>
       <r>   -8.2925    1.0000 </r>
       <r>   -8.2285    1.0000 </r>
       <r>   -8.2270    1.0000 </r>
       <r>   -8.1639    1.0000 </r>
       <r>   -8.0027    1.0000 </r>
       <r>   -8.0018    1.0000 </r>
       <r>   -7.9908    1.0000 </r>
       <r>   -7.9902    1.0000 </r>
       <r>   -7.3322    1.0000 </r>
       <r>   -7.3256    1.0000 </r>
       <r>   -6.3349    1.0000 </r>
       <r>   -6.3211    1.0000 </r>
       <r>   -6.3147    1.0000 </r>
       <r>   -6.3050    1.0000 </r>
       <r>   -5.4352    1.0000 </r>
       <r>   -5.4295    1.0000 </r>
       <r>   -5.3835    1.0000 </r>
       <r>   -5.3094    1.0000 </r>
       <r>   -5.3081    1.0000 </r>
       <r>   -5.2470    1.0000 </r>
       <r>   -5.2100    1.0000 </r>
       <r>   -5.1383    1.0000 </r>
       <r>   -5.1375    1.0000 </r>
       <r>   -4.9900    1.0000 </r>
       <r>   -3.7841    1.0000 </r>
       <r>   -3.6290    1.0000 </r>
       <r>   -1.3292    1.0000 </r>
       <r>   -1.3283    1.0000 </r>
       <r>   -1.0133    1.0000 </r>
       <r>   -1.0125    1.0000 </r>
       <r>   -0.5036    1.0000 </r>
       <r>   -0.4733    1.0000 </r>
       <r>   -0.4457    1.0000 </r>
       <r>   -0.4027    1.0000 </r>
       <r>   -0.1530    1.0000 </r>
       <r>   -0.1355    1.0000 </r>
       <r>   -0.1307    1.0000 </r>
       <r>   -0.0908    1.0000 </r>
       <r>    0.2353    1.0000 </r>
       <r>    0.2467    1.0000 </r>
       <r>    0.4665    1.0000 </r>
       <r>    0.4718    1.0000 </r>
       <r>    0.5867    1.0000 </r>
       <r>    0.6390    1.0000 </r>
       <r>    0.6729    1.0000 </r>
       <r>    0.7448    1.0000 </r>
       <r>    0.7676    1.0000 </r>
       <r>    0.7720    1.0000 </r>
       <r>    0.7754    1.0000 </r>
       <r>    0.8115    1.0000 </r>
       <r>    0.8190    1.0000 </r>
       <r>    0.8403    1.0000 </r>
       <r>    0.9983    1.0000 </r>
       <r>    1.0000    1.0000 </r>
       <r>    1.0392    1.0000 </r>
       <r>    1.0489    1.0000 </r>
       <r>    1.1952    1.0000 </r>
       <r>    1.2186    1.0000 </r>
       <r>    1.2351    1.0000 </r>
       <r>    1.2578    1.0000 </r>
       <r>    1.2730    1.0000 </r>
       <r>    1.2946    1.0000 </r>
       <r>    1.3473    1.0000 </r>
       <r>    1.3586    1.0000 </r>
       <r>    1.4832    1.0000 </r>
       <r>    1.5878    1.0000 </r>
       <r>    1.6089    1.0000 </r>
       <r>    1.6162    1.0000 </r>
       <r>    1.6356    1.0000 </r>
       <r>    1.6470    1.0000 </r>
       <r>    1.6699    1.0000 </r>
       <r>    1.7243    1.0000 </r>
       <r>    1.7908    1.0000 </r>
       <r>    1.8222    1.0000 </r>
       <r>    1.8752    1.0000 </r>
       <r>    1.9533    1.0000 </r>
       <r>    1.9863    1.0000 </r>
       <r>    2.0108    1.0000 </r>
       <r>    2.0614    1.0000 </r>
       <r>    2.1052    1.0000 </r>
       <r>    2.2305    1.0000 </r>
       <r>    2.2415    1.0000 </r>
       <r>    2.3232    1.0000 </r>
       <r>    2.5251    1.0000 </r>
       <r>    2.5487    1.0000 </r>
       <r>    2.5773    1.0000 </r>
       <r>    2.6102    1.0000 </r>
       <r>    2.6161    1.0000 </r>
       <r>    2.6180    1.0000 </r>
       <r>    2.6242    1.0000 </r>
       <r>    2.6567    1.0000 </r>
       <r>    2.6682    1.0000 </r>
       <r>    2.7152    1.0000 </r>
       <r>    2.7433    1.0000 </r>
       <r>    2.7478    1.0000 </r>
       <r>    2.7966    1.0000 </r>
       <r>    2.8285    1.0000 </r>
       <r>    2.8775    1.0000 </r>
       <r>    2.9097    1.0000 </r>
       <r>    2.9137    1.0000 </r>
       <r>    2.9414    1.0000 </r>
       <r>    2.9462    1.0000 </r>
       <r>    2.9885    1.0000 </r>
       <r>    2.9969    1.0000 </r>
       <r>    3.0663    1.0000 </r>
       <r>    3.0901    1.0000 </r>
       <r>    3.0913    1.0000 </r>
       <r>    3.1011    1.0000 </r>
       <r>    3.1544    1.0000 </r>
       <r>    3.2051    1.0000 </r>
       <r>    3.2141    1.0000 </r>
       <r>    3.2496    1.0000 </r>
       <r>    3.2625    1.0000 </r>
       <r>    3.2918    1.0000 </r>
       <r>    3.3739    1.0000 </r>
       <r>    3.4918    1.0000 </r>
       <r>    3.5094    1.0000 </r>
       <r>    3.5269    1.0000 </r>
       <r>    4.2201    1.0000 </r>
       <r>    4.2222    1.0000 </r>
       <r>    4.2321    1.0000 </r>
       <r>    4.2471    1.0000 </r>
       <r>    5.1385    0.0000 </r>
       <r>    5.1397    0.0000 </r>
       <r>    5.1576    0.0000 </r>
       <r>    5.1591    0.0000 </r>
       <r>    5.8117    0.0000 </r>
       <r>    5.8129    0.0000 </r>
       <r>    5.8306    0.0000 </r>
       <r>    5.8313    0.0000 </r>
       <r>    6.1121    0.0000 </r>
       <r>    6.1417    0.0000 </r>
       <r>    6.1420    0.0000 </r>
       <r>    6.1655    0.0000 </r>
       <r>    6.2511    0.0000 </r>
       <r>    6.2717    0.0000 </r>
       <r>    6.2733    0.0000 </r>
       <r>    6.2908    0.0000 </r>
       <r>    7.2374    0.0000 </r>
       <r>    7.2725    0.0000 </r>
       <r>    7.3132    0.0000 </r>
       <r>    7.3238    0.0000 </r>
       <r>    7.7296    0.0000 </r>
       <r>    7.9529    0.0000 </r>
       <r>    7.9543    0.0000 </r>
       <r>    7.9818    0.0000 </r>
       <r>    8.0461    0.0000 </r>
       <r>    8.0935    0.0000 </r>
       <r>    8.1340    0.0000 </r>
       <r>    8.3532    0.0000 </r>
       <r>    8.5341    0.0000 </r>
       <r>    8.5888    0.0000 </r>
       <r>    8.7073    0.0000 </r>
       <r>    8.7470    0.0000 </r>
       <r>    8.7940    0.0000 </r>
       <r>    8.9960    0.0000 </r>
       <r>    9.0244    0.0000 </r>
       <r>    9.0541    0.0000 </r>
       <r>    9.0687    0.0000 </r>
       <r>    9.0783    0.0000 </r>
       <r>    9.0812    0.0000 </r>
       <r>    9.1508    0.0000 </r>
       <r>    9.1525    0.0000 </r>
       <r>    9.2062    0.0000 </r>
       <r>    9.2233    0.0000 </r>
       <r>    9.2722    0.0000 </r>
       <r>    9.5277    0.0000 </r>
       <r>    9.5331    0.0000 </r>
       <r>    9.5426    0.0000 </r>
       <r>    9.6618    0.0000 </r>
       <r>    9.6740    0.0000 </r>
       <r>    9.6881    0.0000 </r>
       <r>    9.6977    0.0000 </r>
       <r>    9.8499    0.0000 </r>
       <r>   10.1703    0.0000 </r>
       <r>   10.2616    0.0000 </r>
       <r>   10.2874    0.0000 </r>
       <r>   10.2990    0.0000 </r>
       <r>   10.5129    0.0000 </r>
       <r>   10.5747    0.0000 </r>
       <r>   10.6146    0.0000 </r>
       <r>   10.6192    0.0000 </r>
       <r>   10.7115    0.0000 </r>
       <r>   10.8604    0.0000 </r>
       <r>   11.1238    0.0000 </r>
       <r>   11.3071    0.0000 </r>
       <r>   11.4174    0.0000 </r>
       <r>   11.4891    0.0000 </r>
       <r>   11.6027    0.0000 </r>
       <r>   11.6043    0.0000 </r>
       <r>   11.6813    0.0000 </r>
       <r>   11.8001    0.0000 </r>
       <r>   11.9437    0.0000 </r>
       <r>   11.9559    0.0000 </r>
      </set>
      <set comment="kpoint 2">
       <r>  -39.9856    1.0000 </r>
       <r>  -39.9831    1.0000 </r>
       <r>  -39.9566    1.0000 </r>
       <r>  -39.9539    1.0000 </r>
       <r>  -39.9415    1.0000 </r>
       <r>  -39.9386    1.0000 </r>
       <r>  -39.6288    1.0000 </r>
       <r>  -39.6264    1.0000 </r>
       <r>  -39.6165    1.0000 </r>
       <r>  -39.6143    1.0000 </r>
       <r>  -39.5800    1.0000 </r>
       <r>  -39.5782    1.0000 </r>
       <r>  -18.8201    1.0000 </r>
       <r>  -18.8194    1.0000 </r>
       <r>  -18.7562    1.0000 </r>
       <r>  -18.7558    1.0000 </r>
       <r>  -18.7492    1.0000 </r>
       <r>  -18.7488    1.0000 </r>
       <r>  -18.6479    1.0000 </r>
       <r>  -18.6465    1.0000 </r>
       <r>  -18.6446    1.0000 </r>
       <r>  -18.6440    1.0000 </r>
       <r>  -18.6393    1.0000 </r>
       <r>  -18.6390    1.0000 </r>
       <r>  -18.6388    1.0000 </r>
       <r>  -18.6375    1.0000 </r>
       <r>  -18.6311    1.0000 </r>
       <r>  -18.6285    1.0000 </r>
       <r>  -18.6244    1.0000 </r>
       <r>  -18.6243    1.0000 </r>
       <r>  -18.6235    1.0000 </r>
       <r>  -18.6232    1.0000 </r>
       <r>  -18.6200    1.0000 </r>
       <r>  -18.6182    1.0000 </r>
       <r>  -18.6167    1.0000 </r>
       <r>  -18.6165    1.0000 </r>
       <r>  -18.6156    1.0000 </r>
       <r>  -18.6129    1.0000 </r>
       <r>  -18.6089    1.0000 </r>
       <r>  -18.6077    1.0000 </r>
       <r>  -18.6052    1.0000 </r>
       <r>  -18.6045    1.0000 </r>
       <r>  -18.6037    1.0000 </r>
       <r>  -18.6022    1.0000 </r>
       <r>  -18.6015    1.0000 </r>
       <r>  -18.6001    1.0000 </r>
       <r>  -18.6001    1.0000 </r>
       <r>  -18.5992    1.0000 </r>
       <r>  -18.5986    1.0000 </r>
       <r>  -18.5958    1.0000 </r>
       <r>  -18.5952    1.0000 </r>
       <r>  -18.5943    1.0000 </r>
       <r>  -18.5902    1.0000 </r>
       <r>  -18.5900    1.0000 </r>
       <r>  -18.5898    1.0000 </r>
       <r>  -18.5890    1.0000 </r>
       <r>  -18.5884    1.0000 </r>
       <r>  -18.5880    1.0000 </r>
       <r>  -18.4755    1.0000 </r>
       <r>  -18.4741    1.0000 </r>
       <r>  -18.4721    1.0000 </r>
       <r>  -18.4719    1.0000 </r>
       <r>  -18.4658    1.0000 </r>
       <r>  -18.4643    1.0000 </r>
       <r>  -18.4593    1.0000 </r>
       <r>  -18.4583    1.0000 </r>
       <r>  -18.4582    1.0000 </r>
       <r>  -18.4559    1.0000 </r>
       <r>  -18.4556    1.0000 </r>
       <r>  -18.4547    1.0000 </r>
       <r>  -18.4534    1.0000 </r>
       <r>  -18.4533    1.0000 </r>
       <r>  -18.4502    1.0000 </r>
       <r>  -18.4496    1.0000 </r>
       <r>  -18.4494    1.0000 </r>
       <r>  -18.4483    1.0000 </r>
       <r>  -18.4452    1.0000 </r>
       <r>  -18.4449    1.0000 </r>
       <r>  -18.4440    1.0000 </r>
       <r>  -18.4440    1.0000 </r>
       <r>  -18.4431    1.0000 </r>
       <r>  -18.4414    1.0000 </r>
       <r>  -18.4345    1.0000 </r>
       <r>  -18.4314    1.0000 </r>
       <r>  -18.4215    1.0000 </r>
       <r>  -18.4184    1.0000 </r>
       <r>  -18.3476    1.0000 </r>
       <r>  -18.3436    1.0000 </r>
       <r>  -18.2287    1.0000 </r>
       <r>  -18.2250    1.0000 </r>
       <r>  -18.2200    1.0000 </r>
       <r>  -18.2163    1.0000 </r>
       <r>  -13.3852    1.0000 </r>
       <r>  -13.3822    1.0000 </r>
       <r>  -12.8100    1.0000 </r>
       <r>  -12.8041    1.0000 </r>
       <r>  -12.7123    1.0000 </r>
       <r>  -12.7089    1.0000 </r>
       <r>  -12.6644    1.0000 </r>
       <r>  -12.6589    1.0000 </r>
       <r>  -12.6527    1.0000 </r>
       <r>  -12.6476    1.0000 </r>
       <r>  -12.6048    1.0000 </r>
       <r>  -12.6013    1.0000 </r>
       <r>  -12.5817    1.0000 </r>
       <r>  -12.5802    1.0000 </r>
       <r>  -11.9943    1.0000 </r>
       <r>  -11.9843    1.0000 </r>
       <r>   -9.0721    1.0000 </r>
       <r>   -9.0710    1.0000 </r>
       <r>   -8.7957    1.0000 </r>
       <r>   -8.7946    1.0000 </r>
       <r>   -8.2922    1.0000 </r>
       <r>   -8.2919    1.0000 </r>
       <r>   -8.2873    1.0000 </r>
       <r>   -8.2872    1.0000 </r>
       <r>   -8.1041    1.0000 </r>
       <r>   -8.1036    1.0000 </r>
       <r>   -8.0995    1.0000 </r>
       <r>   -8.0993    1.0000 </r>
       <r>   -7.6645    1.0000 </r>
       <r>   -7.6637    1.0000 </r>
       <r>   -7.5517    1.0000 </r>
       <r>   -7.5509    1.0000 </r>
       <r>   -5.9022    1.0000 </r>
       <r>   -5.9014    1.0000 </r>
       <r>   -5.8599    1.0000 </r>
       <r>   -5.8584    1.0000 </r>
       <r>   -5.7537    1.0000 </r>
       <r>   -5.7522    1.0000 </r>
       <r>   -5.7091    1.0000 </r>
       <r>   -5.7076    1.0000 </r>
       <r>   -5.6150    1.0000 </r>
       <r>   -5.6138    1.0000 </r>
       <r>   -5.4849    1.0000 </r>
       <r>   -5.4829    1.0000 </r>
       <r>   -4.3999    1.0000 </r>
       <r>   -4.3988    1.0000 </r>
       <r>   -4.2297    1.0000 </r>
       <r>   -4.2286    1.0000 </r>
       <r>   -1.0916    1.0000 </r>
       <r>   -1.0904    1.0000 </r>
       <r>   -0.7723    1.0000 </r>
       <r>   -0.7712    1.0000 </r>
       <r>   -0.2848    1.0000 </r>
       <r>   -0.2838    1.0000 </r>
       <r>    0.1054    1.0000 </r>
       <r>    0.1064    1.0000 </r>
       <r>    0.1404    1.0000 </r>
       <r>    0.1409    1.0000 </r>
       <r>    0.2671    1.0000 </r>
       <r>    0.2682    1.0000 </r>
       <r>    0.3147    1.0000 </r>
       <r>    0.3156    1.0000 </r>
       <r>    0.3599    1.0000 </r>
       <r>    0.3606    1.0000 </r>
       <r>    0.5304    1.0000 </r>
       <r>    0.5321    1.0000 </r>
       <r>    0.6060    1.0000 </r>
       <r>    0.6077    1.0000 </r>
       <r>    0.6374    1.0000 </r>
       <r>    0.6382    1.0000 </r>
       <r>    0.6633    1.0000 </r>
       <r>    0.6636    1.0000 </r>
       <r>    0.8539    1.0000 </r>
       <r>    0.8550    1.0000 </r>
       <r>    1.0403    1.0000 </r>
       <r>    1.0417    1.0000 </r>
       <r>    1.1103    1.0000 </r>
       <r>    1.1120    1.0000 </r>
       <r>    1.1518    1.0000 </r>
       <r>    1.1527    1.0000 </r>
       <r>    1.2556    1.0000 </r>
       <r>    1.2587    1.0000 </r>
       <r>    1.2888    1.0000 </r>
       <r>    1.2907    1.0000 </r>
       <r>    1.4041    1.0000 </r>
       <r>    1.4044    1.0000 </r>
       <r>    1.4605    1.0000 </r>
       <r>    1.4623    1.0000 </r>
       <r>    1.5389    1.0000 </r>
       <r>    1.5409    1.0000 </r>
       <r>    1.6087    1.0000 </r>
       <r>    1.6103    1.0000 </r>
       <r>    1.7192    1.0000 </r>
       <r>    1.7207    1.0000 </r>
       <r>    1.7351    1.0000 </r>
       <r>    1.7373    1.0000 </r>
       <r>    1.8846    1.0000 </r>
       <r>    1.8859    1.0000 </r>
       <r>    1.9316    1.0000 </r>
       <r>    1.9338    1.0000 </r>
       <r>    2.0124    1.0000 </r>
       <r>    2.0170    1.0000 </r>
       <r>    2.0841    1.0000 </r>
       <r>    2.0865    1.0000 </r>
       <r>    2.1672    1.0000 </r>
       <r>    2.1683    1.0000 </r>
       <r>    2.2494    1.0000 </r>
       <r>    2.2514    1.0000 </r>
       <r>    2.3564    1.0000 </r>
       <r>    2.3583    1.0000 </r>
       <r>    2.4306    1.0000 </r>
       <r>    2.4326    1.0000 </r>
       <r>    2.5167    1.0000 </r>
       <r>    2.5176    1.0000 </r>
       <r>    2.6309    1.0000 </r>
       <r>    2.6327    1.0000 </r>
       <r>    2.6782    1.0000 </r>
       <r>    2.6789    1.0000 </r>
       <r>    2.6830    1.0000 </r>
       <r>    2.6836    1.0000 </r>
       <r>    2.8475    1.0000 </r>
       <r>    2.8521    1.0000 </r>
       <r>    2.9035    1.0000 </r>
       <r>    2.9044    1.0000 </r>
       <r>    2.9353    1.0000 </r>
       <r>    2.9360    1.0000 </r>
       <r>    2.9702    1.0000 </r>
       <r>    2.9714    1.0000 </r>
       <r>    3.0247    1.0000 </r>
       <r>    3.0254    1.0000 </r>
       <r>    3.1318    1.0000 </r>
       <r>    3.1364    1.0000 </r>
       <r>    3.1630    1.0000 </r>
       <r>    3.1658    1.0000 </r>
       <r>    3.3142    1.0000 </r>
       <r>    3.3179    1.0000 </r>
       <r>    3.5359    1.0000 </r>
       <r>    3.5362    1.0000 </r>
       <r>    3.5668    1.0000 </r>
       <r>    3.5680    1.0000 </r>
       <r>    3.5789    1.0000 </r>
       <r>    3.5809    1.0000 </r>
       <r>    3.6429    1.0000 </r>
       <r>    3.6455    1.0000 </r>
       <r>    5.7079    0.0000 </r>
       <r>    5.7089    0.0000 </r>
       <r>    5.7211    0.0000 </r>
       <r>    5.7224    0.0000 </r>
       <r>    5.7973    0.0000 </r>
       <r>    5.7979    0.0000 </r>
       <r>    5.8211    0.0000 </r>
       <r>    5.8220    0.0000 </r>
       <r>    7.3308    0.0000 </r>
       <r>    7.3314    0.0000 </r>
       <r>    7.3773    0.0000 </r>
       <r>    7.3784    0.0000 </r>
       <r>    7.4543    0.0000 </r>
       <r>    7.4547    0.0000 </r>
       <r>    7.5014    0.0000 </r>
       <r>    7.5019    0.0000 </r>
       <r>    7.5056    0.0000 </r>
       <r>    7.5066    0.0000 </r>
       <r>    7.5477    0.0000 </r>
       <r>    7.5484    0.0000 </r>
       <r>    7.8688    0.0000 </r>
       <r>    7.8696    0.0000 </r>
       <r>    7.8941    0.0000 </r>
       <r>    7.8947    0.0000 </r>
       <r>    7.9147    0.0000 </r>
       <r>    7.9151    0.0000 </r>
       <r>    7.9787    0.0000 </r>
       <r>    7.9793    0.0000 </r>
       <r>    8.0232    0.0000 </r>
       <r>    8.0242    0.0000 </r>
       <r>    8.1447    0.0000 </r>
       <r>    8.1450    0.0000 </r>
       <r>    8.3585    0.0000 </r>
       <r>    8.3602    0.0000 </r>
       <r>    8.5589    0.0000 </r>
       <r>    8.5605    0.0000 </r>
       <r>    8.6964    0.0000 </r>
       <r>    8.6966    0.0000 </r>
       <r>    8.7905    0.0000 </r>
       <r>    8.7911    0.0000 </r>
       <r>    8.8504    0.0000 </r>
       <r>    8.8510    0.0000 </r>
       <r>    8.9497    0.0000 </r>
       <r>    8.9498    0.0000 </r>
       <r>    9.2394    0.0000 </r>
       <r>    9.2406    0.0000 </r>
       <r>    9.4996    0.0000 </r>
       <r>    9.5010    0.0000 </r>
       <r>    9.6004    0.0000 </r>
       <r>    9.6026    0.0000 </r>
       <r>   10.2978    0.0000 </r>
       <r>   10.2986    0.0000 </r>
       <r>   10.5277    0.0000 </r>
       <r>   10.5282    0.0000 </r>
       <r>   10.5882    0.0000 </r>
       <r>   10.5891    0.0000 </r>
       <r>   10.7854    0.0000 </r>
       <r>   10.7858    0.0000 </r>
       <r>   10.8360    0.0000 </r>
       <r>   10.8364    0.0000 </r>
       <r>   10.8947    0.0000 </r>
       <r>   10.8957    0.0000 </r>
       <r>   10.9547    0.0000 </r>
       <r>   10.9577    0.0000 </r>
       <r>   11.3048    0.0000 </r>
       <r>   11.3056    0.0000 </r>
       <r>   11.3649    0.0000 </r>
       <r>   11.3656    0.0000 </r>
       <r>   11.4760    0.0000 </r>
       <r>   11.4787    0.0000 </r>
       <r>   11.5633    0.0000 </r>
       <r>   11.5667    0.0000 </r>
      </set>
      <set comment="kpoint 3">
       <r>  -39.9856    1.0000 </r>
       <r>  -39.9831    1.0000 </r>
       <r>  -39.9566    1.0000 </r>
       <r>  -39.9539    1.0000 </r>
       <r>  -39.9415    1.0000 </r>
       <r>  -39.9386    1.0000 </r>
       <r>  -39.6288    1.0000 </r>
       <r>  -39.6264    1.0000 </r>
       <r>  -39.6165    1.0000 </r>
       <r>  -39.6143    1.0000 </r>
       <r>  -39.5800    1.0000 </r>
       <r>  -39.5782    1.0000 </r>
       <r>  -18.8205    1.0000 </r>
       <r>  -18.8190    1.0000 </r>
       <r>  -18.7575    1.0000 </r>
       <r>  -18.7546    1.0000 </r>
       <r>  -18.7513    1.0000 </r>
       <r>  -18.7466    1.0000 </r>
       <r>  -18.6571    1.0000 </r>
       <r>  -18.6467    1.0000 </r>
       <r>  -18.6446    1.0000 </r>
       <r>  -18.6441    1.0000 </r>
       <r>  -18.6393    1.0000 </r>
       <r>  -18.6388    1.0000 </r>
       <r>  -18.6331    1.0000 </r>
       <r>  -18.6321    1.0000 </r>
       <r>  -18.6313    1.0000 </r>
       <r>  -18.6292    1.0000 </r>
       <r>  -18.6257    1.0000 </r>
       <r>  -18.6230    1.0000 </r>
       <r>  -18.6204    1.0000 </r>
       <r>  -18.6169    1.0000 </r>
       <r>  -18.6168    1.0000 </r>
       <r>  -18.6164    1.0000 </r>
       <r>  -18.6160    1.0000 </r>
       <r>  -18.6144    1.0000 </r>
       <r>  -18.6126    1.0000 </r>
       <r>  -18.6122    1.0000 </r>
       <r>  -18.6107    1.0000 </r>
       <r>  -18.6105    1.0000 </r>
       <r>  -18.6099    1.0000 </r>
       <r>  -18.6082    1.0000 </r>
       <r>  -18.6064    1.0000 </r>
       <r>  -18.6060    1.0000 </r>
       <r>  -18.6054    1.0000 </r>
       <r>  -18.6023    1.0000 </r>
       <r>  -18.6006    1.0000 </r>
       <r>  -18.5999    1.0000 </r>
       <r>  -18.5997    1.0000 </r>
       <r>  -18.5982    1.0000 </r>
       <r>  -18.5980    1.0000 </r>
       <r>  -18.5952    1.0000 </r>
       <r>  -18.5907    1.0000 </r>
       <r>  -18.5902    1.0000 </r>
       <r>  -18.5882    1.0000 </r>
       <r>  -18.5877    1.0000 </r>
       <r>  -18.5868    1.0000 </r>
       <r>  -18.5798    1.0000 </r>
       <r>  -18.4756    1.0000 </r>
       <r>  -18.4743    1.0000 </r>
       <r>  -18.4721    1.0000 </r>
       <r>  -18.4720    1.0000 </r>
       <r>  -18.4656    1.0000 </r>
       <r>  -18.4640    1.0000 </r>
       <r>  -18.4593    1.0000 </r>
       <r>  -18.4579    1.0000 </r>
       <r>  -18.4575    1.0000 </r>
       <r>  -18.4562    1.0000 </r>
       <r>  -18.4557    1.0000 </r>
       <r>  -18.4548    1.0000 </r>
       <r>  -18.4545    1.0000 </r>
       <r>  -18.4542    1.0000 </r>
       <r>  -18.4503    1.0000 </r>
       <r>  -18.4494    1.0000 </r>
       <r>  -18.4489    1.0000 </r>
       <r>  -18.4481    1.0000 </r>
       <r>  -18.4452    1.0000 </r>
       <r>  -18.4449    1.0000 </r>
       <r>  -18.4442    1.0000 </r>
       <r>  -18.4439    1.0000 </r>
       <r>  -18.4430    1.0000 </r>
       <r>  -18.4414    1.0000 </r>
       <r>  -18.4348    1.0000 </r>
       <r>  -18.4311    1.0000 </r>
       <r>  -18.4225    1.0000 </r>
       <r>  -18.4175    1.0000 </r>
       <r>  -18.3477    1.0000 </r>
       <r>  -18.3435    1.0000 </r>
       <r>  -18.2287    1.0000 </r>
       <r>  -18.2250    1.0000 </r>
       <r>  -18.2200    1.0000 </r>
       <r>  -18.2163    1.0000 </r>
       <r>  -13.3867    1.0000 </r>
       <r>  -13.3806    1.0000 </r>
       <r>  -12.8345    1.0000 </r>
       <r>  -12.7574    1.0000 </r>
       <r>  -12.7297    1.0000 </r>
       <r>  -12.7173    1.0000 </r>
       <r>  -12.6628    1.0000 </r>
       <r>  -12.6549    1.0000 </r>
       <r>  -12.6424    1.0000 </r>
       <r>  -12.6365    1.0000 </r>
       <r>  -12.6310    1.0000 </r>
       <r>  -12.6044    1.0000 </r>
       <r>  -12.5822    1.0000 </r>
       <r>  -12.5742    1.0000 </r>
       <r>  -11.9946    1.0000 </r>
       <r>  -11.9847    1.0000 </r>
       <r>   -9.2733    1.0000 </r>
       <r>   -8.9942    1.0000 </r>
       <r>   -8.5369    1.0000 </r>
       <r>   -8.4735    1.0000 </r>
       <r>   -8.4717    1.0000 </r>
       <r>   -8.4085    1.0000 </r>
       <r>   -8.2708    1.0000 </r>
       <r>   -8.2077    1.0000 </r>
       <r>   -8.2060    1.0000 </r>
       <r>   -8.1439    1.0000 </r>
       <r>   -8.0068    1.0000 </r>
       <r>   -8.0057    1.0000 </r>
       <r>   -7.9947    1.0000 </r>
       <r>   -7.9941    1.0000 </r>
       <r>   -7.3350    1.0000 </r>
       <r>   -7.3285    1.0000 </r>
       <r>   -6.3253    1.0000 </r>
       <r>   -6.3119    1.0000 </r>
       <r>   -6.3045    1.0000 </r>
       <r>   -6.2948    1.0000 </r>
       <r>   -5.4768    1.0000 </r>
       <r>   -5.4210    1.0000 </r>
       <r>   -5.3753    1.0000 </r>
       <r>   -5.3553    1.0000 </r>
       <r>   -5.3546    1.0000 </r>
       <r>   -5.2776    1.0000 </r>
       <r>   -5.1586    1.0000 </r>
       <r>   -5.0829    1.0000 </r>
       <r>   -5.0815    1.0000 </r>
       <r>   -4.9505    1.0000 </r>
       <r>   -3.8558    1.0000 </r>
       <r>   -3.5458    1.0000 </r>
       <r>   -1.2768    1.0000 </r>
       <r>   -1.2760    1.0000 </r>
       <r>   -1.0844    1.0000 </r>
       <r>   -1.0833    1.0000 </r>
       <r>   -0.3973    1.0000 </r>
       <r>   -0.3806    1.0000 </r>
       <r>   -0.3763    1.0000 </r>
       <r>   -0.3438    1.0000 </r>
       <r>   -0.3047    1.0000 </r>
       <r>   -0.2744    1.0000 </r>
       <r>   -0.2269    1.0000 </r>
       <r>   -0.1718    1.0000 </r>
       <r>    0.0449    1.0000 </r>
       <r>    0.0597    1.0000 </r>
       <r>    0.2453    1.0000 </r>
       <r>    0.2719    1.0000 </r>
       <r>    0.3381    1.0000 </r>
       <r>    0.3445    1.0000 </r>
       <r>    0.4240    1.0000 </r>
       <r>    0.4748    1.0000 </r>
       <r>    0.4839    1.0000 </r>
       <r>    0.6756    1.0000 </r>
       <r>    0.7765    1.0000 </r>
       <r>    0.7925    1.0000 </r>
       <r>    0.8234    1.0000 </r>
       <r>    0.8313    1.0000 </r>
       <r>    0.8397    1.0000 </r>
       <r>    0.9167    1.0000 </r>
       <r>    1.1825    1.0000 </r>
       <r>    1.2351    1.0000 </r>
       <r>    1.2431    1.0000 </r>
       <r>    1.2894    1.0000 </r>
       <r>    1.2909    1.0000 </r>
       <r>    1.4031    1.0000 </r>
       <r>    1.4508    1.0000 </r>
       <r>    1.4533    1.0000 </r>
       <r>    1.5721    1.0000 </r>
       <r>    1.6334    1.0000 </r>
       <r>    1.6401    1.0000 </r>
       <r>    1.7239    1.0000 </r>
       <r>    1.7704    1.0000 </r>
       <r>    1.8021    1.0000 </r>
       <r>    1.8209    1.0000 </r>
       <r>    1.8309    1.0000 </r>
       <r>    1.8472    1.0000 </r>
       <r>    1.8491    1.0000 </r>
       <r>    1.8852    1.0000 </r>
       <r>    1.8970    1.0000 </r>
       <r>    1.9549    1.0000 </r>
       <r>    1.9727    1.0000 </r>
       <r>    2.0229    1.0000 </r>
       <r>    2.0449    1.0000 </r>
       <r>    2.0943    1.0000 </r>
       <r>    2.1511    1.0000 </r>
       <r>    2.2633    1.0000 </r>
       <r>    2.2729    1.0000 </r>
       <r>    2.5362    1.0000 </r>
       <r>    2.5385    1.0000 </r>
       <r>    2.5575    1.0000 </r>
       <r>    2.5744    1.0000 </r>
       <r>    2.5912    1.0000 </r>
       <r>    2.6063    1.0000 </r>
       <r>    2.6070    1.0000 </r>
       <r>    2.6166    1.0000 </r>
       <r>    2.6179    1.0000 </r>
       <r>    2.6563    1.0000 </r>
       <r>    2.6989    1.0000 </r>
       <r>    2.7035    1.0000 </r>
       <r>    2.7817    1.0000 </r>
       <r>    2.8011    1.0000 </r>
       <r>    2.8281    1.0000 </r>
       <r>    2.8469    1.0000 </r>
       <r>    2.8556    1.0000 </r>
       <r>    2.8638    1.0000 </r>
       <r>    2.8767    1.0000 </r>
       <r>    2.9098    1.0000 </r>
       <r>    2.9675    1.0000 </r>
       <r>    2.9860    1.0000 </r>
       <r>    3.0100    1.0000 </r>
       <r>    3.0207    1.0000 </r>
       <r>    3.0458    1.0000 </r>
       <r>    3.0681    1.0000 </r>
       <r>    3.1863    1.0000 </r>
       <r>    3.2046    1.0000 </r>
       <r>    3.3309    1.0000 </r>
       <r>    3.3932    1.0000 </r>
       <r>    3.4250    1.0000 </r>
       <r>    3.4256    1.0000 </r>
       <r>    3.4438    1.0000 </r>
       <r>    3.5192    1.0000 </r>
       <r>    3.5217    1.0000 </r>
       <r>    3.6193    1.0000 </r>
       <r>    4.2681    1.0000 </r>
       <r>    4.2709    1.0000 </r>
       <r>    4.2809    1.0000 </r>
       <r>    4.2991    1.0000 </r>
       <r>    5.2055    0.0000 </r>
       <r>    5.2070    0.0000 </r>
       <r>    5.2243    0.0000 </r>
       <r>    5.2251    0.0000 </r>
       <r>    5.8187    0.0000 </r>
       <r>    5.8200    0.0000 </r>
       <r>    5.8383    0.0000 </r>
       <r>    5.8386    0.0000 </r>
       <r>    6.1759    0.0000 </r>
       <r>    6.1990    0.0000 </r>
       <r>    6.1992    0.0000 </r>
       <r>    6.2157    0.0000 </r>
       <r>    6.2570    0.0000 </r>
       <r>    6.2802    0.0000 </r>
       <r>    6.2811    0.0000 </r>
       <r>    6.3044    0.0000 </r>
       <r>    6.9277    0.0000 </r>
       <r>    6.9554    0.0000 </r>
       <r>    7.0786    0.0000 </r>
       <r>    7.0963    0.0000 </r>
       <r>    7.2041    0.0000 </r>
       <r>    7.4309    0.0000 </r>
       <r>    7.4605    0.0000 </r>
       <r>    7.6294    0.0000 </r>
       <r>    7.7536    0.0000 </r>
       <r>    7.8775    0.0000 </r>
       <r>    7.9652    0.0000 </r>
       <r>    7.9659    0.0000 </r>
       <r>    8.1281    0.0000 </r>
       <r>    8.2644    0.0000 </r>
       <r>    8.3168    0.0000 </r>
       <r>    8.5128    0.0000 </r>
       <r>    8.7364    0.0000 </r>
       <r>    8.9238    0.0000 </r>
       <r>    8.9399    0.0000 </r>
       <r>    9.0299    0.0000 </r>
       <r>    9.0359    0.0000 </r>
       <r>    9.0768    0.0000 </r>
       <r>    9.1119    0.0000 </r>
       <r>    9.1140    0.0000 </r>
       <r>    9.1549    0.0000 </r>
       <r>    9.1674    0.0000 </r>
       <r>    9.1708    0.0000 </r>
       <r>    9.2358    0.0000 </r>
       <r>    9.4940    0.0000 </r>
       <r>    9.5034    0.0000 </r>
       <r>    9.7307    0.0000 </r>
       <r>    9.7405    0.0000 </r>
       <r>    9.8093    0.0000 </r>
       <r>    9.8098    0.0000 </r>
[...]
       <r>   11.3389    0.0000 </r>
       <r>   11.3404    0.0000 </r>
       <r>   11.4957    0.0000 </r>
       <r>   11.4962    0.0000 </r>
      </set>
     </set>
    </set>
   </array>
  </eigenvalues>
  <separator name="orbital magnetization" >
   <v name="MAGDIPOLOUT">      0.00000000      0.00000000      0.00000000</v>
  </separator>
  <dos>
   <i name="efermi">      4.46419075 </i>
   <total>
    <array>
     <dimension dim="1">gridpoints</dimension>
     <dimension dim="2">spin</dimension>
     <field>energy</field>
     <field>total</field>
     <field>integrated</field>
     <set>
      <set comment="spin 1">
       <r>   -42.6040     0.0000     0.0000 </r>
       <r>   -42.4120     0.0000     0.0000 </r>
       <r>   -42.2199     0.0000     0.0000 </r>
       <r>   -42.0279     0.0000     0.0000 </r>
       <r>   -41.8359     0.0000     0.0000 </r>
       <r>   -41.6439     0.0000     0.0000 </r>
       <r>   -41.4519     0.0000     0.0000 </r>
       <r>   -41.2599     0.0000     0.0000 </r>
       <r>   -41.0678     0.0000     0.0000 </r>
       <r>   -40.8758     0.0000     0.0000 </r>
       <r>   -40.6838     0.0000     0.0000 </r>
       <r>   -40.4918     0.0000     0.0000 </r>
       <r>   -40.2998     0.0000     0.0000 </r>
       <r>   -40.1078     0.0000     0.0000 </r>
       <r>   -39.9157     0.0000    12.0000 </r>
       <r>   -39.7237     0.0000    12.0000 </r>
       <r>   -39.5317     0.0000    24.0000 </r>
       <r>   -39.3397     0.0000    24.0000 </r>
       <r>   -39.1477     0.0000    24.0000 </r>
       <r>   -38.9557     0.0000    24.0000 </r>
       <r>   -38.7636     0.0000    24.0000 </r>
       <r>   -38.5716     0.0000    24.0000 </r>
       <r>   -38.3796     0.0000    24.0000 </r>
       <r>   -38.1876     0.0000    24.0000 </r>
       <r>   -37.9956     0.0000    24.0000 </r>
       <r>   -37.8036     0.0000    24.0000 </r>
       <r>   -37.6115     0.0000    24.0000 </r>
       <r>   -37.4195     0.0000    24.0000 </r>
       <r>   -37.2275     0.0000    24.0000 </r>
       <r>   -37.0355     0.0000    24.0000 </r>
       <r>   -36.8435     0.0000    24.0000 </r>
       <r>   -36.6515     0.0000    24.0000 </r>
       <r>   -36.4594     0.0000    24.0000 </r>
       <r>   -36.2674     0.0000    24.0000 </r>
       <r>   -36.0754     0.0000    24.0000 </r>
       <r>   -35.8834     0.0000    24.0000 </r>
       <r>   -35.6914     0.0000    24.0000 </r>
       <r>   -35.4993     0.0000    24.0000 </r>
       <r>   -35.3073     0.0000    24.0000 </r>
       <r>   -35.1153     0.0000    24.0000 </r>
       <r>   -34.9233     0.0000    24.0000 </r>
       <r>   -34.7313     0.0000    24.0000 </r>
       <r>   -34.5393     0.0000    24.0000 </r>
       <r>   -34.3472     0.0000    24.0000 </r>
       <r>   -34.1552     0.0000    24.0000 </r>
       <r>   -33.9632     0.0000    24.0000 </r>
       <r>   -33.7712     0.0000    24.0000 </r>
       <r>   -33.5792     0.0000    24.0000 </r>
       <r>   -33.3872     0.0000    24.0000 </r>
       <r>   -33.1951     0.0000    24.0000 </r>
       <r>   -33.0031     0.0000    24.0000 </r>
       <r>   -32.8111     0.0000    24.0000 </r>
       <r>   -32.6191     0.0000    24.0000 </r>
       <r>   -32.4271     0.0000    24.0000 </r>
       <r>   -32.2351     0.0000    24.0000 </r>
       <r>   -32.0430     0.0000    24.0000 </r>
       <r>   -31.8510     0.0000    24.0000 </r>
       <r>   -31.6590     0.0000    24.0000 </r>
       <r>   -31.4670     0.0000    24.0000 </r>
       <r>   -31.2750     0.0000    24.0000 </r>
       <r>   -31.0830     0.0000    24.0000 </r>
       <r>   -30.8909     0.0000    24.0000 </r>
       <r>   -30.6989     0.0000    24.0000 </r>
       <r>   -30.5069     0.0000    24.0000 </r>
       <r>   -30.3149     0.0000    24.0000 </r>
       <r>   -30.1229     0.0000    24.0000 </r>
       <r>   -29.9309     0.0000    24.0000 </r>
       <r>   -29.7388     0.0000    24.0000 </r>
       <r>   -29.5468     0.0000    24.0000 </r>
       <r>   -29.3548     0.0000    24.0000 </r>
       <r>   -29.1628     0.0000    24.0000 </r>
       <r>   -28.9708     0.0000    24.0000 </r>
       <r>   -28.7788     0.0000    24.0000 </r>
       <r>   -28.5867     0.0000    24.0000 </r>
       <r>   -28.3947     0.0000    24.0000 </r>
       <r>   -28.2027     0.0000    24.0000 </r>
       <r>   -28.0107     0.0000    24.0000 </r>
       <r>   -27.8187     0.0000    24.0000 </r>
       <r>   -27.6267     0.0000    24.0000 </r>
       <r>   -27.4346     0.0000    24.0000 </r>
       <r>   -27.2426     0.0000    24.0000 </r>
       <r>   -27.0506     0.0000    24.0000 </r>
       <r>   -26.8586     0.0000    24.0000 </r>
       <r>   -26.6666     0.0000    24.0000 </r>
       <r>   -26.4745     0.0000    24.0000 </r>
       <r>   -26.2825     0.0000    24.0000 </r>
       <r>   -26.0905     0.0000    24.0000 </r>
       <r>   -25.8985     0.0000    24.0000 </r>
       <r>   -25.7065     0.0000    24.0000 </r>
       <r>   -25.5145     0.0000    24.0000 </r>
       <r>   -25.3224     0.0000    24.0000 </r>
       <r>   -25.1304     0.0000    24.0000 </r>
       <r>   -24.9384     0.0000    24.0000 </r>
       <r>   -24.7464     0.0000    24.0000 </r>
       <r>   -24.5544     0.0000    24.0000 </r>
       <r>   -24.3624     0.0000    24.0000 </r>
       <r>   -24.1703     0.0000    24.0000 </r>
       <r>   -23.9783     0.0000    24.0000 </r>
       <r>   -23.7863     0.0000    24.0000 </r>
       <r>   -23.5943     0.0000    24.0000 </r>
       <r>   -23.4023     0.0000    24.0000 </r>
       <r>   -23.2103     0.0000    24.0000 </r>
       <r>   -23.0182     0.0000    24.0000 </r>
       <r>   -22.8262     0.0000    24.0000 </r>
       <r>   -22.6342     0.0000    24.0000 </r>
       <r>   -22.4422     0.0000    24.0000 </r>
       <r>   -22.2502     0.0000    24.0000 </r>
       <r>   -22.0582     0.0000    24.0000 </r>
       <r>   -21.8661     0.0000    24.0000 </r>
       <r>   -21.6741     0.0000    24.0000 </r>
       <r>   -21.4821     0.0000    24.0000 </r>
       <r>   -21.2901     0.0000    24.0000 </r>
       <r>   -21.0981     0.0000    24.0000 </r>
       <r>   -20.9061     0.0000    24.0000 </r>
       <r>   -20.7140     0.0000    24.0000 </r>
       <r>   -20.5220     0.0000    24.0000 </r>
       <r>   -20.3300     0.0000    24.0000 </r>
       <r>   -20.1380     0.0000    24.0000 </r>
       <r>   -19.9460     0.0000    24.0000 </r>
       <r>   -19.7540     0.0000    24.0000 </r>
       <r>   -19.5619     0.0000    24.0000 </r>
       <r>   -19.3699     0.0000    24.0000 </r>
       <r>   -19.1779     0.0000    24.0000 </r>
       <r>   -18.9859     0.0000    24.0000 </r>
       <r>   -18.7939     0.0000    28.0000 </r>
       <r>   -18.6019  2040.1858    91.0318 </r>
       <r>   -18.4098     0.0000   172.0000 </r>
       <r>   -18.2178     0.0000   182.0000 </r>
       <r>   -18.0258     0.0000   184.0000 </r>
       <r>   -17.8338     0.0000   184.0000 </r>
       <r>   -17.6418     0.0000   184.0000 </r>
       <r>   -17.4498     0.0000   184.0000 </r>
       <r>   -17.2577     0.0000   184.0000 </r>
       <r>   -17.0657     0.0000   184.0000 </r>
       <r>   -16.8737     0.0000   184.0000 </r>
       <r>   -16.6817     0.0000   184.0000 </r>
       <r>   -16.4897     0.0000   184.0000 </r>
       <r>   -16.2976     0.0000   184.0000 </r>
       <r>   -16.1056     0.0000   184.0000 </r>
       <r>   -15.9136     0.0000   184.0000 </r>
       <r>   -15.7216     0.0000   184.0000 </r>
       <r>   -15.5296     0.0000   184.0000 </r>
       <r>   -15.3376     0.0000   184.0000 </r>
       <r>   -15.1455     0.0000   184.0000 </r>
       <r>   -14.9535     0.0000   184.0000 </r>
       <r>   -14.7615     0.0000   184.0000 </r>
       <r>   -14.5695     0.0000   184.0000 </r>
       <r>   -14.3775     0.0000   184.0000 </r>
       <r>   -14.1855     0.0000   184.0000 </r>
       <r>   -13.9934     0.0000   184.0000 </r>
       <r>   -13.8014     0.0000   184.0000 </r>
       <r>   -13.6094     0.0000   184.0000 </r>
       <r>   -13.4174     0.0000   184.0000 </r>
       <r>   -13.2254     0.0000   188.0000 </r>
       <r>   -13.0334     0.0000   188.0000 </r>
       <r>   -12.8413     0.0000   188.0000 </r>
       <r>   -12.6493   111.1387   199.9520 </r>
       <r>   -12.4573     0.0000   212.0000 </r>
       <r>   -12.2653     0.0000   212.0000 </r>
       <r>   -12.0733     0.0000   212.0000 </r>
       <r>   -11.8813     0.0000   216.0000 </r>
       <r>   -11.6892     0.0000   216.0000 </r>
       <r>   -11.4972     0.0000   216.0000 </r>
       <r>   -11.3052     0.0000   216.0000 </r>
       <r>   -11.1132     0.0000   216.0000 </r>
       <r>   -10.9212     0.0000   216.0000 </r>
       <r>   -10.7292     0.0000   216.0000 </r>
       <r>   -10.5371     0.0000   216.0000 </r>
       <r>   -10.3451     0.0000   216.0000 </r>
       <r>   -10.1531     0.0000   216.0000 </r>
       <r>    -9.9611     0.0000   216.0000 </r>
       <r>    -9.7691     0.0000   216.0000 </r>
       <r>    -9.5771     0.0000   216.0000 </r>
       <r>    -9.3850     0.0000   216.0000 </r>
       <r>    -9.1930     4.3071   216.1836 </r>
       <r>    -9.0010    22.0289   218.8788 </r>
       <r>    -8.8090    37.3070   220.4546 </r>
       <r>    -8.6170     8.9357   223.5593 </r>
       <r>    -8.4250    25.8239   226.4531 </r>
       <r>    -8.2329     3.3922   231.9708 </r>
       <r>    -8.0409    33.2466   235.2644 </r>
       <r>    -7.8489    20.2683   239.8101 </r>
       <r>    -7.6569     1.3072   244.0035 </r>
       <r>    -7.4649    13.3429   247.1022 </r>
       <r>    -7.2728     0.0000   248.0000 </r>
       <r>    -7.0808     0.0000   248.0000 </r>
       <r>    -6.8888     0.0000   248.0000 </r>
       <r>    -6.6968     0.0000   248.0000 </r>
       <r>    -6.5048     0.0000   248.0000 </r>
       <r>    -6.3128     0.5106   248.0039 </r>
       <r>    -6.1207    16.8785   249.6450 </r>
       <r>    -5.9287    34.6756   254.5382 </r>
       <r>    -5.7367    30.0121   258.4375 </r>
       <r>    -5.5447    23.5059   263.6130 </r>
       <r>    -5.3527    19.8466   267.7469 </r>
       <r>    -5.1607    12.5115   271.0035 </r>
       <r>    -4.9686     2.0245   272.1323 </r>
       <r>    -4.7766     7.7864   273.2317 </r>
       <r>    -4.5846    10.1818   274.9165 </r>
       <r>    -4.3926     4.7888   276.8351 </r>
       <r>    -4.2006     7.4448   278.0090 </r>
       <r>    -4.0086     4.8228   279.2655 </r>
       <r>    -3.8165     1.3895   279.8489 </r>
       <r>    -3.6245     0.2106   279.9945 </r>
       <r>    -3.4325     0.0000   280.0000 </r>
       <r>    -3.2405     0.0000   280.0000 </r>
       <r>    -3.0485     0.0000   280.0000 </r>
       <r>    -2.8565     0.0000   280.0000 </r>
       <r>    -2.6644     0.0000   280.0000 </r>
       <r>    -2.4724     0.0000   280.0000 </r>
       <r>    -2.2804     0.0000   280.0000 </r>
       <r>    -2.0884     0.0000   280.0000 </r>
       <r>    -1.8964     0.0000   280.0000 </r>
       <r>    -1.7044     0.0000   280.0000 </r>
       <r>    -1.5123     0.0000   280.0000 </r>
       <r>    -1.3203     0.0352   280.0001 </r>
       <r>    -1.1283     8.9257   280.7850 </r>
       <r>    -0.9363    11.7248   282.6044 </r>
       <r>    -0.7443    10.3103   285.1199 </r>
       <r>    -0.5523     6.6595   286.7493 </r>
       <r>    -0.3602    11.9802   288.0617 </r>
       <r>    -0.1682    28.4493   292.2381 </r>
       <r>     0.0238    39.7371   298.7829 </r>
       <r>     0.2158    35.4885   305.7606 </r>
       <r>     0.4078    40.1703   313.3623 </r>
       <r>     0.5998    37.8574   320.7060 </r>
       <r>     0.7919    14.0811   327.4910 </r>
       <r>     0.9839    24.8858   333.1496 </r>
       <r>     1.1759    56.9721   341.4328 </r>
       <r>     1.3679    52.0720   351.0191 </r>
       <r>     1.5599    46.4661   360.1861 </r>
       <r>     1.7520    59.5105   370.5836 </r>
       <r>     1.9440    59.0353   381.5641 </r>
       <r>     2.1360    47.3202   390.1487 </r>
       <r>     2.3280    32.8911   396.7254 </r>
       <r>     2.5200    68.4650   406.3378 </r>
       <r>     2.7120    68.9712   419.3522 </r>
       <r>     2.9041    59.9740   431.2065 </r>
       <r>     3.0961    51.0760   446.6383 </r>
       <r>     3.2881    34.6988   454.4716 </r>
       <r>     3.4801    35.3162   460.6492 </r>
       <r>     3.6721    14.5707   467.7411 </r>
       <r>     3.8641     9.7807   470.0791 </r>
       <r>     4.0562     4.9892   471.4972 </r>
       <r>     4.2482     0.2993   471.9959 </r>
       <r>     4.4402     0.0000   472.0000 </r>
       <r>     4.6322     0.0000   472.0000 </r>
       <r>     4.8242     0.0000   472.0000 </r>
       <r>     5.0162     0.0000   472.0000 </r>
       <r>     5.2083     0.5510   472.0115 </r>
       <r>     5.4003     4.4286   472.4876 </r>
       <r>     5.5923     8.3319   473.7127 </r>
       <r>     5.7843     7.1718   475.5013 </r>
       <r>     5.9763    13.8685   480.0154 </r>
       <r>     6.1683    11.6398   482.4557 </r>
       <r>     6.3604    12.1015   484.6849 </r>
       <r>     6.5524    13.6684   487.1593 </r>
       <r>     6.7444    15.2177   489.9329 </r>
       <r>     6.9364    16.8676   493.0057 </r>
       <r>     7.1284    21.4697   496.5671 </r>
       <r>     7.3204    38.4526   501.9833 </r>
       <r>     7.5125    39.0035   510.9032 </r>
       <r>     7.7045    32.2861   516.0879 </r>
       <r>     7.8965    39.7606   523.9965 </r>
       <r>     8.0885    32.4637   532.4685 </r>
       <r>     8.2805    19.0235   537.0537 </r>
       <r>     8.4725    19.9028   540.5683 </r>
       <r>     8.6646    27.0614   545.1121 </r>
       <r>     8.8566    52.1613   550.7753 </r>
       <r>     9.0486    29.8278   559.1925 </r>
       <r>     9.2406    14.6215   563.2225 </r>
       <r>     9.4326    10.3618   565.6046 </r>
       <r>     9.6246    15.4632   567.7860 </r>
       <r>     9.8167    16.1484   571.2544 </r>
       <r>    10.0087     4.2939   572.3938 </r>
       <r>    10.2007    16.3258   574.0876 </r>
       <r>    10.3927    19.5391   577.9283 </r>
       <r>    10.5847    21.4106   582.8154 </r>
       <r>    10.7767    51.5177   589.9720 </r>
       <r>    10.9688    23.6833   597.1216 </r>
       <r>    11.1608    18.4587   601.2288 </r>
       <r>    11.3528    22.6649   605.4872 </r>
       <r>    11.5448    20.1851   609.6910 </r>
       <r>    11.7368    12.4322   612.7757 </r>
       <r>    11.9289     7.5678   614.6918 </r>
       <r>    12.1209     3.1746   615.7068 </r>
       <r>    12.3129     0.2241   615.9951 </r>
       <r>    12.5049     0.0000   616.0000 </r>
       <r>    12.6969     0.0000   616.0000 </r>
       <r>    12.8889     0.0000   616.0000 </r>
       <r>    13.0810     0.0000   616.0000 </r>
       <r>    13.2730     0.0000   616.0000 </r>
       <r>    13.4650     0.0000   616.0000 </r>
       <r>    13.6570     0.0000   616.0000 </r>
       <r>    13.8490     0.0000   616.0000 </r>
       <r>    14.0410     0.0000   616.0000 </r>
       <r>    14.2331     0.0000   616.0000 </r>
       <r>    14.4251     0.0000   616.0000 </r>
       <r>    14.6171     0.0000   616.0000 </r>
       <r>    14.8091     0.0000   616.0000 </r>
       <r>    15.0011     0.0000   616.0000 </r>
      </set>
     </set>
    </array>
   </total>
  </dos>
 </calculation>
 <structure name="finalpos" >
  <crystal>
   <varray name="basis" >
    <v>      11.17850000       0.00000000       0.00000000 </v>
    <v>       0.00000000       9.57460000       0.00000000 </v>
    <v>       0.00000000       0.00000000      11.18240000 </v>
   </varray>
   <i name="volume">   1196.84853820 </i>
   <varray name="rec_basis" >
    <v>       0.08945744       0.00000000       0.00000000 </v>
    <v>       0.00000000       0.10444301       0.00000000 </v>
    <v>       0.00000000       0.00000000       0.08942624 </v>
   </varray>
  </crystal>
  <varray name="positions" >
   <v>       0.37539000       0.00017000       0.43687000 </v>
   <v>       0.12461000       0.99984000       0.18687000 </v>
   <v>       0.37461000       0.00017000       0.18687000 </v>
   <v>       0.62539000       0.99984000       0.43687000 </v>
   <v>       0.62461000       0.99984000       0.18687000 </v>
   <v>       0.87461000       0.00017000       0.18687000 </v>
   <v>       0.12539000       0.99984000       0.93687000 </v>
   <v>       0.37539000       0.00017000       0.93687000 </v>
   <v>       0.12461000       0.99984000       0.68687000 </v>
   <v>       0.62539000       0.99984000       0.93687000 </v>
   <v>       0.87539000       0.00017000       0.93687000 </v>
   <v>       0.87461000       0.00017000       0.68687000 </v>
   <v>       0.87539000       0.00017000       0.43687000 </v>
   <v>       0.37461000       0.00017000       0.68687000 </v>
   <v>       0.00013000       0.29519000       0.06281000 </v>
   <v>       0.25013000       0.70481000       0.06281000 </v>
   <v>       0.24987000       0.29519000       0.31282000 </v>
   <v>       0.49987000       0.70481000       0.31282000 </v>
   <v>       0.50013000       0.29519000       0.06281000 </v>
   <v>       0.75013000       0.70481000       0.06281000 </v>
   <v>       0.74987000       0.29519000       0.31282000 </v>
   <v>       0.99987000       0.70481000       0.31282000 </v>
   <v>       0.00013000       0.29519000       0.56281000 </v>
   <v>       0.25013000       0.70481000       0.56281000 </v>
   <v>       0.24987000       0.29519000       0.81282000 </v>
   <v>       0.49987000       0.70481000       0.81282000 </v>
   <v>       0.50013000       0.29519000       0.56281000 </v>
   <v>       0.75013000       0.70481000       0.56281000 </v>
   <v>       0.74987000       0.29519000       0.81282000 </v>
   <v>       0.99987000       0.70481000       0.81282000 </v>
   <v>       0.25005000       0.32677000       0.06286000 </v>
   <v>       0.00005000       0.67323000       0.06286000 </v>
   <v>       0.49995000       0.32677000       0.31286000 </v>
   <v>       0.24995000       0.67323000       0.31286000 </v>
   <v>       0.75005000       0.32677000       0.06286000 </v>
   <v>       0.50005000       0.67323000       0.06286000 </v>
   <v>       0.99995000       0.32677000       0.31286000 </v>
   <v>       0.74995000       0.67323000       0.31286000 </v>
   <v>       0.25005000       0.32677000       0.56286000 </v>
   <v>       0.00005000       0.67323000       0.56286000 </v>
   <v>       0.49995000       0.32677000       0.81286000 </v>
   <v>       0.24995000       0.67323000       0.81286000 </v>
   <v>       0.75005000       0.32677000       0.56286000 </v>
   <v>       0.50005000       0.67323000       0.56286000 </v>
   <v>       0.99995000       0.32677000       0.81286000 </v>
   <v>       0.74995000       0.67323000       0.81286000 </v>
   <v>       0.49987000       0.07798000       0.06246000 </v>
   <v>       0.24987000       0.92202000       0.06246000 </v>
   <v>       0.25013000       0.07798000       0.31246000 </v>
   <v>       0.00013000       0.92202000       0.31246000 </v>
   <v>       0.99987000       0.07798000       0.06246000 </v>
   <v>       0.74987000       0.92202000       0.06246000 </v>
   <v>       0.75013000       0.07798000       0.31246000 </v>
   <v>       0.50013000       0.92202000       0.31246000 </v>
   <v>       0.49987000       0.07798000       0.56246000 </v>
   <v>       0.24987000       0.92202000       0.56246000 </v>
   <v>       0.25013000       0.07798000       0.81246000 </v>
   <v>       0.00013000       0.92202000       0.81246000 </v>
   <v>       0.99987000       0.07798000       0.56246000 </v>
   <v>       0.74987000       0.92202000       0.56246000 </v>
   <v>       0.75013000       0.07798000       0.81246000 </v>
   <v>       0.50013000       0.92202000       0.81246000 </v>
  </varray>
 </structure>
</modeling>
