<?xml version="1.0" encoding="ISO-8859-1"?>
<modeling>
 <generator>
  <i name="program" type="string">vasp </i>
  <i name="version" type="string">5.4.4.18Apr17-6-g9f103f2a35  </i>
  <i name="subversion" type="string">(build Jul 31 2017 11:33:29) complex            parallel </i>
  <i name="platform" type="string">LinuxIFC </i>
  <i name="date" type="string">2021 09 29 </i>
  <i name="time" type="string">04:55:54 </i>
 </generator>
 <incar>
  <i type="string" name="SYSTEM"> La2O2S</i>
  <i type="string" name="PREC">normal</i>
  <i type="int" name="NELMIN">     4</i>
  <i type="int" name="IBRION">     2</i>
  <i type="int" name="NFREE">    10</i>
  <i name="EDIFF">      0.00000100</i>
  <i name="EDIFFG">     -0.01000000</i>
  <i type="int" name="NSW">     1</i>
  <i type="int" name="ISIF">     2</i>
  <i name="ENCUT">    600.00000000</i>
  <i name="ENAUG">    900.00000000</i>
  <i type="int" name="ISMEAR">    -5</i>
  <i type="logical" name="LWAVE"> F  </i>
  <i type="logical" name="LCHARG"> F  </i>
  <v type="int" name="KPOINT_BSE">    -1     0     0     0</v>
 </incar>
 <structure name="primitive_cell" >
  <crystal>
   <varray name="basis" >
    <v>      11.17850000       0.00000000       0.00000000 </v>
    <v>       0.00000000       9.57460000       0.00000000 </v>
    <v>       0.00000000       0.00000000      11.18240000 </v>
   </varray>
   <i name="volume">   1196.84853820 </i>
   <varray name="rec_basis" >
    <v>       0.08945744       0.00000000       0.00000000 </v>
    <v>       0.00000000       0.10444301       0.00000000 </v>
    <v>       0.00000000       0.00000000       0.08942624 </v>
   </varray>
  </crystal>
  <varray name="positions" >
   <v>       0.37539000       0.00017000       0.43687000 </v>
   <v>      -0.49987000      -0.07798000       0.31246000 </v>
   <v>       0.25013000       0.07798000       0.31246000 </v>
   <v>       0.49987000       0.07798000      -0.43754000 </v>
   <v>       0.24987000      -0.07798000      -0.43754000 </v>
   <v>      -0.37461000      -0.00016000       0.43687000 </v>
   <v>       0.37461000       0.00017000       0.18687000 </v>
   <v>       0.37461000       0.00017000      -0.31313000 </v>
   <v>       0.49987000      -0.29519000       0.31282000 </v>
   <v>       0.24987000       0.29519000       0.31282000 </v>
   <v>      -0.49987000       0.29519000      -0.43719000 </v>
   <v>       0.25013000      -0.29519000      -0.43719000 </v>
   <v>       0.49995000       0.32677000       0.31286000 </v>
   <v>       0.24995000      -0.32677000       0.31286000 </v>
   <v>      -0.49995000      -0.32677000      -0.43714000 </v>
   <v>       0.25005000       0.32677000      -0.43714000 </v>
   <v>      -0.37539000      -0.00016000       0.18687000 </v>
   <v>      -0.37539000      -0.00016000      -0.31313000 </v>
   <v>       0.12461000      -0.00016000       0.18687000 </v>
   <v>       0.12461000      -0.00016000      -0.31313000 </v>
   <v>       0.49987000       0.07798000       0.06246000 </v>
   <v>      -0.24987000       0.07798000       0.31246000 </v>
   <v>      -0.25013000      -0.07798000      -0.43754000 </v>
   <v>       0.24987000      -0.07798000       0.06246000 </v>
   <v>       0.00013000      -0.07798000       0.31246000 </v>
   <v>      -0.49987000      -0.07798000      -0.18754000 </v>
   <v>      -0.00013000       0.07798000      -0.43754000 </v>
   <v>       0.25013000       0.07798000      -0.18754000 </v>
   <v>      -0.49987000       0.29519000       0.06281000 </v>
   <v>      -0.25013000       0.29519000       0.31282000 </v>
   <v>       0.25013000      -0.29519000       0.06281000 </v>
   <v>      -0.24987000      -0.29519000      -0.43719000 </v>
   <v>      -0.00013000      -0.29519000       0.31282000 </v>
   <v>       0.00013000       0.29519000      -0.43719000 </v>
   <v>       0.49987000      -0.29519000      -0.18718000 </v>
   <v>       0.24987000       0.29519000      -0.18718000 </v>
   <v>      -0.49995000      -0.32677000       0.06286000 </v>
   <v>       0.25005000       0.32677000       0.06286000 </v>
   <v>      -0.25005000      -0.32677000       0.31286000 </v>
   <v>      -0.24995000       0.32677000      -0.43714000 </v>
   <v>      -0.00005000       0.32677000       0.31286000 </v>
   <v>       0.00005000      -0.32677000      -0.43714000 </v>
   <v>       0.49995000       0.32677000      -0.18714000 </v>
   <v>       0.24995000      -0.32677000      -0.18714000 </v>
   <v>      -0.12461000       0.00017000       0.43687000 </v>
   <v>       0.37539000       0.00017000      -0.06313000 </v>
   <v>      -0.25013000      -0.07798000       0.06246000 </v>
   <v>      -0.00013000       0.07798000       0.06246000 </v>
   <v>      -0.24987000       0.07798000      -0.18754000 </v>
   <v>       0.00013000      -0.07798000      -0.18754000 </v>
   <v>      -0.12539000       0.00017000      -0.31313000 </v>
   <v>      -0.12539000       0.00017000       0.18687000 </v>
   <v>      -0.37461000      -0.00016000      -0.06313000 </v>
   <v>      -0.24987000      -0.29519000       0.06281000 </v>
   <v>       0.00013000       0.29519000       0.06281000 </v>
   <v>      -0.25013000       0.29519000      -0.18718000 </v>
   <v>      -0.00013000      -0.29519000      -0.18718000 </v>
   <v>      -0.24995000       0.32677000       0.06286000 </v>
   <v>       0.00005000      -0.32677000       0.06286000 </v>
   <v>      -0.25005000      -0.32677000      -0.18714000 </v>
   <v>      -0.00005000       0.32677000      -0.18714000 </v>
   <v>      -0.12461000       0.00017000      -0.06313000 </v>
  </varray>
 </structure>
 <varray name="primitive_index" >
  <v type="int" >        1 </v>
  <v type="int" >       54 </v>
  <v type="int" >       49 </v>
  <v type="int" >       55 </v>
  <v type="int" >       56 </v>
  <v type="int" >        4 </v>
  <v type="int" >        3 </v>
  <v type="int" >        8 </v>
  <v type="int" >       18 </v>
  <v type="int" >       17 </v>
  <v type="int" >       27 </v>
  <v type="int" >       24 </v>
  <v type="int" >       33 </v>
  <v type="int" >       34 </v>
  <v type="int" >       44 </v>
  <v type="int" >       39 </v>
  <v type="int" >        6 </v>
  <v type="int" >       11 </v>
  <v type="int" >        2 </v>
  <v type="int" >       14 </v>
  <v type="int" >       47 </v>
  <v type="int" >       53 </v>
  <v type="int" >       60 </v>
  <v type="int" >       48 </v>
  <v type="int" >       50 </v>
  <v type="int" >       62 </v>
  <v type="int" >       59 </v>
  <v type="int" >       57 </v>
  <v type="int" >       19 </v>
  <v type="int" >       21 </v>
  <v type="int" >       16 </v>
  <v type="int" >       28 </v>
  <v type="int" >       22 </v>
  <v type="int" >       23 </v>
  <v type="int" >       26 </v>
  <v type="int" >       25 </v>
  <v type="int" >       36 </v>
  <v type="int" >       31 </v>
  <v type="int" >       38 </v>
  <v type="int" >       43 </v>
  <v type="int" >       37 </v>
  <v type="int" >       40 </v>
  <v type="int" >       41 </v>
  <v type="int" >       42 </v>
  <v type="int" >        5 </v>
  <v type="int" >        7 </v>
  <v type="int" >       52 </v>
  <v type="int" >       51 </v>
  <v type="int" >       61 </v>
  <v type="int" >       58 </v>
  <v type="int" >       12 </v>
  <v type="int" >       13 </v>
  <v type="int" >        9 </v>
  <v type="int" >       20 </v>
  <v type="int" >       15 </v>
  <v type="int" >       29 </v>
  <v type="int" >       30 </v>
  <v type="int" >       35 </v>
  <v type="int" >       32 </v>
  <v type="int" >       46 </v>
  <v type="int" >       45 </v>
  <v type="int" >       10 </v>
 </varray>
 <kpoints>
  <generation param="Gamma">
   <v type="int" name="divisions">       2        2        2 </v>
   <v name="usershift">      0.00000000       0.00000000       0.00000000 </v>
   <v name="genvec1">      0.50000000       0.00000000       0.00000000 </v>
   <v name="genvec2">      0.00000000       0.50000000       0.00000000 </v>
   <v name="genvec3">      0.00000000       0.00000000       0.50000000 </v>
   <v name="shift">      0.00000000       0.00000000       0.00000000 </v>
  </generation>
  <varray name="kpointlist" >
   <v>       0.00000000       0.00000000       0.00000000 </v>
   <v>       0.50000000       0.00000000       0.00000000 </v>
   <v>       0.00000000       0.50000000       0.00000000 </v>
   <v>       0.50000000       0.50000000       0.00000000 </v>
   <v>       0.00000000       0.00000000       0.50000000 </v>
   <v>       0.50000000       0.00000000       0.50000000 </v>
   <v>       0.00000000       0.50000000       0.50000000 </v>
   <v>       0.50000000       0.50000000       0.50000000 </v>
  </varray>
  <varray name="weights" >
   <v>       0.12500000 </v>
   <v>       0.12500000 </v>
   <v>       0.12500000 </v>
   <v>       0.12500000 </v>
   <v>       0.12500000 </v>
   <v>       0.12500000 </v>
   <v>       0.12500000 </v>
   <v>       0.12500000 </v>
  </varray>
  <varray name="tetrahedronlist"  type="int" >
   <v type="int" >        2        1        2        4        5 </v>
   <v type="int" >        2        1        3        4        5 </v>
   <v type="int" >        2        3        4        5        7 </v>
   <v type="int" >        2        2        4        5        6 </v>
   <v type="int" >        2        4        5        6        8 </v>
   <v type="int" >        2        4        5        7        8 </v>
   <v type="int" >        2        1        2        3        6 </v>
   <v type="int" >        2        2        3        4        6 </v>
   <v type="int" >        2        3        4        6        8 </v>
   <v type="int" >        2        1        3        5        6 </v>
   <v type="int" >        2        3        5        6        7 </v>
   <v type="int" >        2        3        6        7        8 </v>
   <v type="int" >        2        2        3        4        7 </v>
   <v type="int" >        2        1        2        3        7 </v>
   <v type="int" >        2        1        2        5        7 </v>
   <v type="int" >        2        2        4        7        8 </v>
   <v type="int" >        2        2        6        7        8 </v>
   <v type="int" >        2        2        5        6        7 </v>
   <v type="int" >        2        1        3        4        8 </v>
   <v type="int" >        2        1        2        4        8 </v>
   <v type="int" >        2        1        2        6        8 </v>
   <v type="int" >        2        1        3        7        8 </v>
   <v type="int" >        2        1        5        7        8 </v>
   <v type="int" >        2        1        5        6        8 </v>
  </varray>
  <i name="volumeweight">      0.02083333 </i>
 </kpoints>
 <parameters>
  <separator name="general" >
   <i type="string" name="SYSTEM">La2O2S</i>
   <i type="logical" name="LCOMPAT"> F  </i>
  </separator>
  <separator name="electronic" >
   <i type="string" name="PREC">normal</i>
   <i name="ENMAX">    600.00000000</i>
   <i name="ENAUG">    900.00000000</i>
   <i name="EDIFF">      0.00000100</i>
   <i type="int" name="IALGO">    38</i>
   <i type="int" name="IWAVPR">    11</i>
   <i type="int" name="NBANDS">   308</i>
   <i name="NELECT">    472.00000000</i>
   <i type="int" name="TURBO">     0</i>
   <i type="int" name="IRESTART">     0</i>
   <i type="int" name="NREBOOT">     0</i>
   <i type="int" name="NMIN">     0</i>
   <i name="EREF">      0.00000000</i>
   <separator name="electronic smearing" >
    <i type="int" name="ISMEAR">    -5</i>
    <i name="SIGMA">      0.20000000</i>
    <i name="KSPACING">      0.50000000</i>
    <i type="logical" name="KGAMMA"> T  </i>
   </separator>
   <separator name="electronic projectors" >
    <i type="logical" name="LREAL"> F  </i>
    <v name="ROPT">      0.00000000      0.00000000      0.00000000      0.00000000      0.00000000</v>
    <i type="int" name="LMAXPAW">  -100</i>
    <i type="int" name="LMAXMIX">     2</i>
    <i type="logical" name="NLSPLINE"> F  </i>
   </separator>
   <separator name="electronic startup" >
    <i type="int" name="ISTART">     0</i>
    <i type="int" name="ICHARG">     2</i>
    <i type="int" name="INIWAV">     1</i>
   </separator>
   <separator name="electronic spin" >
    <i type="int" name="ISPIN">     1</i>
    <i type="logical" name="LNONCOLLINEAR"> F  </i>
    <v name="MAGMOM">      1.00000000      1.00000000      1.00000000      1.00000000      1.00000000      1.00000000      1.00000000      1.00000000      1.00000000      1.00000000      1.00000000      1.00000000      1.00000000      1.00000000      1.00000000      1.00000000      1.00000000      1.00000000      1.00000000      1.00000000
      1.00000000      1.00000000      1.00000000      1.00000000      1.00000000      1.00000000      1.00000000      1.00000000      1.00000000      1.00000000      1.00000000      1.00000000      1.00000000      1.00000000      1.00000000      1.00000000      1.00000000      1.00000000      1.00000000      1.00000000
      1.00000000      1.00000000      1.00000000      1.00000000      1.00000000      1.00000000      1.00000000      1.00000000      1.00000000      1.00000000      1.00000000      1.00000000      1.00000000      1.00000000      1.00000000      1.00000000      1.00000000      1.00000000      1.00000000      1.00000000
      1.00000000      1.00000000</v>
    <i name="NUPDOWN">     -1.00000000</i>
    <i type="logical" name="LSORBIT"> F  </i>
    <v name="SAXIS">      0.00000000      0.00000000      1.00000000</v>
    <i type="logical" name="LSPIRAL"> F  </i>
    <v name="QSPIRAL">      0.00000000      0.00000000      0.00000000</v>
    <i type="logical" name="LZEROZ"> F  </i>
   </separator>
   <separator name="electronic exchange-correlation" >
    <i type="logical" name="LASPH"> F  </i>
    <i type="logical" name="LMETAGGA"> F  </i>
   </separator>
   <separator name="electronic convergence" >
    <i type="int" name="NELM">    60</i>
    <i type="int" name="NELMDL">    -5</i>
    <i type="int" name="NELMIN">     4</i>
    <i name="ENINI">    600.00000000</i>
    <separator name="electronic convergence detail" >
     <i type="logical" name="LDIAG"> T  </i>
     <i type="logical" name="LSUBROT"> F  </i>
     <i name="WEIMIN">      0.00100000</i>
     <i name="EBREAK">      0.00000000</i>
     <i name="DEPER">      0.30000000</i>
     <i type="int" name="NRMM">     4</i>
     <i name="TIME">      0.40000000</i>
    </separator>
   </separator>
   <separator name="electronic mixer" >
    <i name="AMIX">      0.40000000</i>
    <i name="BMIX">      1.00000000</i>
    <i name="AMIN">      0.10000000</i>
    <i name="AMIX_MAG">      1.60000000</i>
    <i name="BMIX_MAG">      1.00000000</i>
    <separator name="electronic mixer details" >
     <i type="int" name="IMIX">     4</i>
     <i type="logical" name="MIXFIRST"> F  </i>
     <i type="int" name="MAXMIX">   -45</i>
     <i name="WC">    100.00000000</i>
     <i type="int" name="INIMIX">     1</i>
     <i type="int" name="MIXPRE">     1</i>
     <i type="int" name="MREMOVE">     5</i>
    </separator>
   </separator>
   <separator name="electronic dipolcorrection" >
    <i type="logical" name="LDIPOL"> F  </i>
    <i type="logical" name="LMONO"> F  </i>
    <i type="int" name="IDIPOL">     0</i>
    <i name="EPSILON">      1.00000000</i>
    <v name="DIPOL">   -100.00000000   -100.00000000   -100.00000000</v>
    <i name="EFIELD">      0.00000000</i>
   </separator>
  </separator>
  <separator name="grids" >
   <i type="int" name="NGX">    70</i>
   <i type="int" name="NGY">    60</i>
   <i type="int" name="NGZ">    70</i>
   <i type="int" name="NGXF">   140</i>
   <i type="int" name="NGYF">   120</i>
   <i type="int" name="NGZF">   140</i>
   <i type="logical" name="ADDGRID"> F  </i>
  </separator>
  <separator name="ionic" >
   <i type="int" name="NSW">     1</i>
   <i type="int" name="IBRION">     2</i>
   <i type="int" name="MDALGO">     0</i>
   <i type="int" name="ISIF">     2</i>
   <i name="PSTRESS">      0.00000000</i>
   <i name="EDIFFG">     -0.01000000</i>
   <i type="int" name="NFREE">    10</i>
   <i name="POTIM">      0.50000000</i>
   <i name="SMASS">     -3.00000000</i>
   <i name="SCALEE">      1.00000000</i>
  </separator>
  <separator name="ionic md" >
   <i name="TEBEG">      0.00010000</i>
   <i name="TEEND">      0.00010000</i>
   <i type="int" name="NBLOCK">     1</i>
   <i type="int" name="KBLOCK">     1</i>
   <i type="int" name="NPACO">   256</i>
   <i name="APACO">     16.00000000</i>
  </separator>
  <separator name="symmetry" >
   <i type="int" name="ISYM">     2</i>
   <i name="SYMPREC">      0.00001000</i>
  </separator>
  <separator name="dos" >
   <i type="int" name="LORBIT">     0</i>
   <v name="RWIGS">     -1.00000000     -1.00000000     -1.00000000     -1.00000000     -1.00000000</v>
   <i type="int" name="NEDOS">   301</i>
   <i name="EMIN">     10.00000000</i>
   <i name="EMAX">    -10.00000000</i>
   <i name="EFERMI">      0.00000000</i>
  </separator>
  <separator name="writing" >
   <i type="int" name="NWRITE">     2</i>
   <i type="logical" name="LWAVE"> F  </i>
   <i type="logical" name="LDOWNSAMPLE"> F  </i>
   <i type="logical" name="LCHARG"> F  </i>
   <i type="logical" name="LPARD"> F  </i>
   <i type="logical" name="LVTOT"> F  </i>
   <i type="logical" name="LVHAR"> F  </i>
   <i type="logical" name="LELF"> F  </i>
   <i type="logical" name="LOPTICS"> F  </i>
   <v name="STM">      0.00000000      0.00000000      0.00000000      0.00000000      0.00000000      0.00000000      0.00000000</v>
  </separator>
  <separator name="performance" >
   <i type="int" name="NPAR">    28</i>
   <i type="int" name="NSIM">     4</i>
   <i type="int" name="NBLK">    -1</i>
   <i type="logical" name="LPLANE"> T  </i>
   <i type="logical" name="LSCALAPACK"> T  </i>
   <i type="logical" name="LSCAAWARE"> F  </i>
   <i type="logical" name="LSCALU"> F  </i>
   <i type="logical" name="LASYNC"> F  </i>
   <i type="logical" name="LORBITALREAL"> F  </i>
  </separator>
  <separator name="miscellaneous" >
   <i type="int" name="IDIOT">     3</i>
   <i type="int" name="ISPECIAL">     0</i>
   <i type="logical" name="LMUSIC"> F  </i>
   <v name="POMASS">      7.01000000     24.30500000    208.98000000     32.06600000     16.00000000</v>
   <v name="DARWINR">      0.00000000      0.00000000      0.00000000      0.00000000      0.00000000</v>
   <v name="DARWINV">      1.00000000      1.00000000      1.00000000      1.00000000      1.00000000</v>
   <i type="logical" name="LCORR"> T  </i>
  </separator>
  <i type="logical" name="GGA_COMPAT"> T  </i>
  <i type="logical" name="LBERRY"> F  </i>
  <i type="int" name="ICORELEVEL">     0</i>
  <i type="logical" name="LDAU"> F  </i>
  <i type="int" name="I_CONSTRAINED_M">     0</i>
  <separator name="electronic exchange-correlation" >
   <i type="string" name="GGA">--</i>
   <i type="int" name="VOSKOWN">     0</i>
   <i type="logical" name="LHFCALC"> F  </i>
   <i type="string" name="PRECFOCK"></i>
   <i type="logical" name="LSYMGRAD"> F  </i>
   <i type="logical" name="LHFONE"> F  </i>
   <i type="logical" name="LRHFCALC"> F  </i>
   <i type="logical" name="LTHOMAS"> F  </i>
   <i type="logical" name="LMODELHF"> F  </i>
   <i name="ENCUT4O">     -1.00000000</i>
   <i type="int" name="EXXOEP">     0</i>
   <i type="int" name="FOURORBIT">     0</i>
   <i name="AEXX">      0.00000000</i>
   <i name="HFALPHA">      0.00000000</i>
   <i name="MCALPHA">      0.00000000</i>
   <i name="ALDAX">      1.00000000</i>
   <i name="AGGAX">      1.00000000</i>
   <i name="ALDAC">      1.00000000</i>
   <i name="AGGAC">      1.00000000</i>
   <i type="int" name="NKREDX">     1</i>
   <i type="int" name="NKREDY">     1</i>
   <i type="int" name="NKREDZ">     1</i>
   <i type="logical" name="SHIFTRED"> F  </i>
   <i type="logical" name="ODDONLY"> F  </i>
   <i type="logical" name="EVENONLY"> F  </i>
   <i type="int" name="LMAXFOCK">     0</i>
   <i type="int" name="NMAXFOCKAE">     0</i>
   <i type="logical" name="LFOCKAEDFT"> F  </i>
   <i name="HFSCREEN">      0.00000000</i>
   <i name="HFSCREENC">      0.00000000</i>
   <i type="int" name="NBANDSGWLOW">     0</i>
  </separator>
  <separator name="vdW DFT" >
   <i type="logical" name="LUSE_VDW"> F  </i>
   <i name="Zab_VDW">     -0.84910000</i>
   <i name="PARAM1">      0.12340000</i>
   <i name="PARAM2">      1.00000000</i>
   <i name="PARAM3">      0.00000000</i>
  </separator>
  <separator name="model GW" >
   <i type="int" name="MODEL_GW">     0</i>
   <i name="MODEL_EPS0">     11.58240521</i>
   <i name="MODEL_ALPHA">      1.00000000</i>
  </separator>
  <separator name="linear response parameters" >
   <i type="logical" name="LEPSILON"> F  </i>
   <i type="logical" name="LRPA"> F  </i>
   <i type="logical" name="LNABLA"> F  </i>
   <i type="logical" name="LVEL"> F  </i>
   <i type="int" name="KINTER">     0</i>
   <i name="CSHIFT">      0.10000000</i>
   <i name="OMEGAMAX">     -1.00000000</i>
   <i name="DEG_THRESHOLD">      0.00200000</i>
   <i name="RTIME">     -0.10000000</i>
   <i name="WPLASMAI">      0.00000000</i>
   <v name="DFIELD">      0.00000000      0.00000000      0.00000000</v>
   <v name="WPLASMA">      0.00000000      0.00000000      0.00000000      0.00000000      0.00000000      0.00000000      0.00000000      0.00000000      0.00000000</v>
  </separator>
  <separator name="orbital magnetization" >
   <i type="logical" name="NUCIND"> F  </i>
   <v name="MAGPOS">      0.00000000      0.00000000      0.00000000</v>
   <i type="logical" name="LNICSALL"> T  </i>
   <i type="logical" name="ORBITALMAG"> F  </i>
   <i type="logical" name="LMAGBLOCH"> F  </i>
   <i type="logical" name="LCHIMAG"> F  </i>
   <i type="logical" name="LGAUGE"> T  </i>
   <i type="int" name="MAGATOM">     0</i>
   <v name="MAGDIPOL">      0.00000000      0.00000000      0.00000000</v>
   <v name="AVECCONST">      0.00000000      0.00000000      0.00000000</v>
  </separator>
  <separator name="response functions" >
   <i type="logical" name="LADDER"> F  </i>
   <i type="logical" name="LRPAFORCE"> F  </i>
   <i type="logical" name="LFXC"> F  </i>
   <i type="logical" name="LHARTREE"> T  </i>
   <i type="int" name="IBSE">     0</i>
   <v type="int" name="KPOINT">    -1     0     0     0</v>
   <i type="logical" name="LTCTE"> F  </i>
   <i type="logical" name="LTETE"> F  </i>
   <i type="logical" name="LTRIPLET"> F  </i>
   <i type="logical" name="LFXCEPS"> F  </i>
   <i type="logical" name="LFXHEG"> F  </i>
   <i type="int" name="NATURALO">     2</i>
   <i type="logical" name="L2ORDER"> F  </i>
   <i type="logical" name="LMP2LT"> F  </i>
   <i type="logical" name="LUSEW"> F  </i>
   <i name="ENCUTGW">     -2.00000000</i>
   <i name="ENCUTGWSOFT">     -2.00000000</i>
   <i name="ENCUTLF">     -1.00000000</i>
   <i type="int" name="LMAXMP2">    -1</i>
   <i name="SCISSOR">      0.00000000</i>
   <i type="int" name="NOMEGA">     0</i>
   <i type="int" name="NOMEGAR">     0</i>
   <i type="int" name="NBANDSGW">    -1</i>
   <i type="int" name="NBANDSO">    -1</i>
   <i type="int" name="NBANDSV">    -1</i>
   <i type="int" name="NELM">     1</i>
   <i type="int" name="NELMHF">     1</i>
   <i type="int" name="DIM">     3</i>
   <i type="int" name="ANTIRES">     0</i>
   <i name="OMEGAMAX">    -30.00000000</i>
   <i name="OMEGAMIN">    -30.00000000</i>
   <i name="OMEGATL">   -200.00000000</i>
   <i type="int" name="OMEGAGRID">   140</i>
   <i name="CSHIFT">     -0.10000000</i>
   <i type="logical" name="SELFENERGY"> F  </i>
   <i type="logical" name="LSPECTRAL"> F  </i>
   <i type="logical" name="LSPECTRALGW"> F  </i>
   <i type="logical" name="LSINGLES"> F  </i>
   <i type="logical" name="LFERMIGW"> F  </i>
   <i type="logical" name="ODDONLYGW"> F  </i>
   <i type="logical" name="EVENONLYGW"> F  </i>
   <i type="int" name="NKREDLFX">     1</i>
   <i type="int" name="NKREDLFY">     1</i>
   <i type="int" name="NKREDLFZ">     1</i>
   <i type="int" name="MAXMEM">  2800</i>
   <i type="int" name="TELESCOPE">     0</i>
   <i type="int" name="TAUPAR">     1</i>
   <i type="int" name="OMEGAPAR">    -1</i>
   <i name="LAMBDA">      1.00000000</i>
  </separator>
  <separator name="External order field" >
   <i name="OFIELD_KAPPA">      0.00000000</i>
   <v name="OFIELD_K">      0.00000000      0.00000000      0.00000000</v>
   <i name="OFIELD_Q6_NEAR">      0.00000000</i>
   <i name="OFIELD_Q6_FAR">      0.00000000</i>
   <i name="OFIELD_A">      0.00000000</i>
  </separator>
 </parameters>
 <atominfo>
  <atoms>      62 </atoms>
  <types>       5 </types>
  <array name="atoms" >
   <dimension dim="1">ion</dimension>
   <field type="string">element</field>
   <field type="int">atomtype</field>
   <set>
    <rc><c>Li</c><c>   1</c></rc>
    <rc><c>Li</c><c>   1</c></rc>
    <rc><c>Li</c><c>   1</c></rc>
    <rc><c>Li</c><c>   1</c></rc>
    <rc><c>Li</c><c>   1</c></rc>
    <rc><c>Li</c><c>   1</c></rc>
    <rc><c>Li</c><c>   1</c></rc>
    <rc><c>Li</c><c>   1</c></rc>
    <rc><c>Li</c><c>   1</c></rc>
    <rc><c>Li</c><c>   1</c></rc>
    <rc><c>Li</c><c>   1</c></rc>
    <rc><c>Li</c><c>   1</c></rc>
    <rc><c>Mg</c><c>   2</c></rc>
    <rc><c>Mg</c><c>   2</c></rc>
    <rc><c>Bi</c><c>   3</c></rc>
    <rc><c>Bi</c><c>   3</c></rc>
    <rc><c>Bi</c><c>   3</c></rc>
    <rc><c>Bi</c><c>   3</c></rc>
    <rc><c>Bi</c><c>   3</c></rc>
    <rc><c>Bi</c><c>   3</c></rc>
    <rc><c>Bi</c><c>   3</c></rc>
    <rc><c>Bi</c><c>   3</c></rc>
    <rc><c>Bi</c><c>   3</c></rc>
    <rc><c>Bi</c><c>   3</c></rc>
    <rc><c>Bi</c><c>   3</c></rc>
    <rc><c>Bi</c><c>   3</c></rc>
    <rc><c>Bi</c><c>   3</c></rc>
    <rc><c>Bi</c><c>   3</c></rc>
    <rc><c>Bi</c><c>   3</c></rc>
    <rc><c>Bi</c><c>   3</c></rc>
    <rc><c>S </c><c>   4</c></rc>
    <rc><c>S </c><c>   4</c></rc>
    <rc><c>S </c><c>   4</c></rc>
    <rc><c>S </c><c>   4</c></rc>
    <rc><c>S </c><c>   4</c></rc>
    <rc><c>S </c><c>   4</c></rc>
    <rc><c>S </c><c>   4</c></rc>
    <rc><c>S </c><c>   4</c></rc>
    <rc><c>S </c><c>   4</c></rc>
    <rc><c>S </c><c>   4</c></rc>
    <rc><c>S </c><c>   4</c></rc>
    <rc><c>S </c><c>   4</c></rc>
    <rc><c>S </c><c>   4</c></rc>
    <rc><c>S </c><c>   4</c></rc>
    <rc><c>S </c><c>   4</c></rc>
    <rc><c>S </c><c>   4</c></rc>
    <rc><c>O </c><c>   5</c></rc>
    <rc><c>O </c><c>   5</c></rc>
    <rc><c>O </c><c>   5</c></rc>
    <rc><c>O </c><c>   5</c></rc>
    <rc><c>O </c><c>   5</c></rc>
    <rc><c>O </c><c>   5</c></rc>
    <rc><c>O </c><c>   5</c></rc>
    <rc><c>O </c><c>   5</c></rc>
    <rc><c>O </c><c>   5</c></rc>
    <rc><c>O </c><c>   5</c></rc>
    <rc><c>O </c><c>   5</c></rc>
    <rc><c>O </c><c>   5</c></rc>
    <rc><c>O </c><c>   5</c></rc>
    <rc><c>O </c><c>   5</c></rc>
    <rc><c>O </c><c>   5</c></rc>
    <rc><c>O </c><c>   5</c></rc>
   </set>
  </array>
  <array name="atomtypes" >
   <dimension dim="1">type</dimension>
   <field type="int">atomspertype</field>
   <field type="string">element</field>
   <field>mass</field>
   <field>valence</field>
   <field type="string">pseudopotential</field>
   <set>
    <rc><c>  12</c><c>Li</c><c>      7.01000000</c><c>      3.00000000</c><c>  PAW_PBE Li_sv 10Sep2004               </c></rc>
    <rc><c>   2</c><c>Mg</c><c>     24.30500000</c><c>      2.00000000</c><c>  PAW_PBE Mg 13Apr2007                  </c></rc>
    <rc><c>  16</c><c>Bi</c><c>    208.98000000</c><c>     15.00000000</c><c>  PAW_PBE Bi_d 06Sep2000                </c></rc>
    <rc><c>  16</c><c>S </c><c>     32.06600000</c><c>      6.00000000</c><c>  PAW_PBE S 06Sep2000                   </c></rc>
    <rc><c>  16</c><c>O </c><c>     16.00000000</c><c>      6.00000000</c><c>  PAW_PBE O 08Apr2002                   </c></rc>
   </set>
  </array>
 </atominfo>
 <structure name="initialpos" >
  <crystal>
   <varray name="basis" >
    <v>      11.17850000       0.00000000       0.00000000 </v>
    <v>       0.00000000       9.57460000       0.00000000 </v>
    <v>       0.00000000       0.00000000      11.18240000 </v>
   </varray>
   <i name="volume">   1196.84853820 </i>
   <varray name="rec_basis" >
    <v>       0.08945744       0.00000000       0.00000000 </v>
    <v>       0.00000000       0.10444301       0.00000000 </v>
    <v>       0.00000000       0.00000000       0.08942624 </v>
   </varray>
  </crystal>
  <varray name="positions" >
   <v>       0.37539000       0.00017000       0.43687000 </v>
   <v>       0.12461000       0.99984000       0.18687000 </v>
   <v>       0.37461000       0.00017000       0.18687000 </v>
   <v>       0.62539000       0.99984000       0.43687000 </v>
   <v>       0.87539000       0.00017000       0.43687000 </v>
   <v>       0.62461000       0.99984000       0.18687000 </v>
   <v>       0.37539000       0.00017000       0.93687000 </v>
   <v>       0.37461000       0.00017000       0.68687000 </v>
   <v>       0.62539000       0.99984000       0.93687000 </v>
   <v>       0.87539000       0.00017000       0.93687000 </v>
   <v>       0.62461000       0.99984000       0.68687000 </v>
   <v>       0.87461000       0.00017000       0.68687000 </v>
   <v>       0.87461000       0.00017000       0.18687000 </v>
   <v>       0.12461000       0.99984000       0.68687000 </v>
   <v>       0.00013000       0.29519000       0.06281000 </v>
   <v>       0.25013000       0.70481000       0.06281000 </v>
   <v>       0.24987000       0.29519000       0.31282000 </v>
   <v>       0.49987000       0.70481000       0.31282000 </v>
   <v>       0.50013000       0.29519000       0.06281000 </v>
   <v>       0.75013000       0.70481000       0.06281000 </v>
   <v>       0.74987000       0.29519000       0.31282000 </v>
   <v>       0.99987000       0.70481000       0.31282000 </v>
   <v>       0.00013000       0.29519000       0.56281000 </v>
   <v>       0.25013000       0.70481000       0.56281000 </v>
   <v>       0.24987000       0.29519000       0.81282000 </v>
   <v>       0.49987000       0.70481000       0.81282000 </v>
   <v>       0.50013000       0.29519000       0.56281000 </v>
   <v>       0.75013000       0.70481000       0.56281000 </v>
   <v>       0.74987000       0.29519000       0.81282000 </v>
   <v>       0.99987000       0.70481000       0.81282000 </v>
   <v>       0.25005000       0.32677000       0.06286000 </v>
   <v>       0.00005000       0.67323000       0.06286000 </v>
   <v>       0.49995000       0.32677000       0.31286000 </v>
   <v>       0.24995000       0.67323000       0.31286000 </v>
   <v>       0.75005000       0.32677000       0.06286000 </v>
   <v>       0.50005000       0.67323000       0.06286000 </v>
   <v>       0.99995000       0.32677000       0.31286000 </v>
   <v>       0.74995000       0.67323000       0.31286000 </v>
   <v>       0.25005000       0.32677000       0.56286000 </v>
   <v>       0.00005000       0.67323000       0.56286000 </v>
   <v>       0.49995000       0.32677000       0.81286000 </v>
   <v>       0.24995000       0.67323000       0.81286000 </v>
   <v>       0.75005000       0.32677000       0.56286000 </v>
   <v>       0.50005000       0.67323000       0.56286000 </v>
   <v>       0.99995000       0.32677000       0.81286000 </v>
   <v>       0.74995000       0.67323000       0.81286000 </v>
   <v>       0.49987000       0.07798000       0.06246000 </v>
   <v>       0.24987000       0.92202000       0.06246000 </v>
   <v>       0.25013000       0.07798000       0.31246000 </v>
   <v>       0.00013000       0.92202000       0.31246000 </v>
   <v>       0.99987000       0.07798000       0.06246000 </v>
   <v>       0.74987000       0.92202000       0.06246000 </v>
   <v>       0.75013000       0.07798000       0.31246000 </v>
   <v>       0.50013000       0.92202000       0.31246000 </v>
   <v>       0.49987000       0.07798000       0.56246000 </v>
   <v>       0.24987000       0.92202000       0.56246000 </v>
   <v>       0.25013000       0.07798000       0.81246000 </v>
   <v>       0.00013000       0.92202000       0.81246000 </v>
   <v>       0.99987000       0.07798000       0.56246000 </v>
   <v>       0.74987000       0.92202000       0.56246000 </v>
   <v>       0.75013000       0.07798000       0.81246000 </v>
   <v>       0.50013000       0.92202000       0.81246000 </v>
  </varray>
 </structure>
 <calculation>
  <scstep>
   <time name="dav">   65.67   65.82</time>
   <time name="total">   65.76   65.90</time>
   <energy>
    <i name="alphaZ">   1079.87189334 </i>
    <i name="ewald"> -31106.58316275 </i>
    <i name="hartreedc"> -12718.40406063 </i>
    <i name="XCdc">   1468.88657261 </i>
    <i name="pawpsdc">  36917.91861236 </i>
    <i name="pawaedc"> -36503.41947684 </i>
    <i name="eentropy">      0.00000000 </i>
    <i name="bandstr">   1591.31556655 </i>
    <i name="atom">  45173.57650906 </i>
    <i name="e_fr_energy">   5903.16245371 </i>
    <i name="e_wo_entrp">   5903.16245371 </i>
    <i name="e_0_energy">   5903.16245371 </i>
   </energy>
  </scstep>
  <scstep>
   <time name="dav">   65.66   65.77</time>
   <time name="total">   65.67   65.78</time>
   <energy>
    <i name="e_fr_energy">    763.16657401 </i>
    <i name="e_wo_entrp">    763.16657401 </i>
    <i name="e_0_energy">    763.16657401 </i>
   </energy>
  </scstep>
  <scstep>
   <time name="dav">   73.29   73.41</time>
   <time name="total">   73.29   73.41</time>
   <energy>
    <i name="e_fr_energy">   -244.03033283 </i>
    <i name="e_wo_entrp">   -244.03033283 </i>
    <i name="e_0_energy">   -244.03033283 </i>
   </energy>
  </scstep>
  <scstep>
   <time name="dav">   82.03   82.16</time>
   <time name="total">   82.03   82.17</time>
   <energy>
    <i name="e_fr_energy">   -352.55013579 </i>
    <i name="e_wo_entrp">   -352.55013579 </i>
    <i name="e_0_energy">   -352.55013579 </i>
   </energy>
  </scstep>
  <scstep>
   <time name="dav">  106.01  106.18</time>
   <time name="total">  106.73  106.91</time>
   <energy>
    <i name="e_fr_energy">   -361.11077381 </i>
    <i name="e_wo_entrp">   -361.11077381 </i>
    <i name="e_0_energy">   -361.11077381 </i>
   </energy>
  </scstep>
  <scstep>
   <time name="dav">   93.10   93.24</time>
   <time name="total">   93.94   94.08</time>
   <energy>
    <i name="e_fr_energy">   -301.36808537 </i>
    <i name="e_wo_entrp">   -301.36808537 </i>
    <i name="e_0_energy">   -301.36808537 </i>
   </energy>
  </scstep>
  <scstep>
   <time name="dav">   72.87   73.12</time>
   <time name="total">   73.67   73.92</time>
   <energy>
    <i name="e_fr_energy">   -303.58863704 </i>
    <i name="e_wo_entrp">   -303.58863704 </i>
    <i name="e_0_energy">   -303.58863704 </i>
   </energy>
  </scstep>
  <scstep>
   <time name="dav">   84.81   85.19</time>
   <time name="total">   85.61   86.00</time>
   <energy>
    <i name="e_fr_energy">   -302.21908623 </i>
    <i name="e_wo_entrp">   -302.21908623 </i>
    <i name="e_0_energy">   -302.21908623 </i>
   </energy>
  </scstep>
  <scstep>
   <time name="dav">   97.91   98.43</time>
   <time name="total">   98.70   99.23</time>
   <energy>
    <i name="e_fr_energy">   -301.60977519 </i>
    <i name="e_wo_entrp">   -301.60977519 </i>
    <i name="e_0_energy">   -301.60977519 </i>
   </energy>
  </scstep>
  <scstep>
   <time name="dav">   80.35   80.62</time>
   <time name="total">   81.15   81.42</time>
   <energy>
    <i name="e_fr_energy">   -301.57678781 </i>
    <i name="e_wo_entrp">   -301.57678781 </i>
    <i name="e_0_energy">   -301.57678781 </i>
   </energy>
  </scstep>
  <scstep>
   <time name="dav">   80.84   81.32</time>
   <time name="total">   81.63   82.12</time>
   <energy>
    <i name="e_fr_energy">   -301.58976285 </i>
    <i name="e_wo_entrp">   -301.58976285 </i>
    <i name="e_0_energy">   -301.58976285 </i>
   </energy>
  </scstep>
  <scstep>
   <time name="dav">   83.64   84.27</time>
   <time name="total">   84.44   85.07</time>
   <energy>
    <i name="e_fr_energy">   -301.59410934 </i>
    <i name="e_wo_entrp">   -301.59410934 </i>
    <i name="e_0_energy">   -301.59410934 </i>
   </energy>
  </scstep>
  <scstep>
   <time name="dav">   85.71   86.48</time>
   <time name="total">   86.50   87.29</time>
   <energy>
    <i name="e_fr_energy">   -301.59527095 </i>
    <i name="e_wo_entrp">   -301.59527095 </i>
    <i name="e_0_energy">   -301.59527095 </i>
   </energy>
  </scstep>
  <scstep>
   <time name="dav">   83.03   83.59</time>
   <time name="total">   83.82   84.39</time>
   <energy>
    <i name="e_fr_energy">   -301.59544444 </i>
    <i name="e_wo_entrp">   -301.59544444 </i>
    <i name="e_0_energy">   -301.59544444 </i>
   </energy>
  </scstep>
  <scstep>
   <time name="dav">   83.67   84.45</time>
   <time name="total">   84.46   85.25</time>
   <energy>
    <i name="e_fr_energy">   -301.59547792 </i>
    <i name="e_wo_entrp">   -301.59547792 </i>
    <i name="e_0_energy">   -301.59547792 </i>
   </energy>
  </scstep>
  <scstep>
   <time name="dav">   71.25   71.66</time>
   <time name="total">   72.04   72.46</time>
   <energy>
    <i name="e_fr_energy">   -301.59549462 </i>
    <i name="e_wo_entrp">   -301.59549462 </i>
    <i name="e_0_energy">   -301.59549462 </i>
   </energy>
  </scstep>
  <scstep>
   <time name="dav">   74.64   75.11</time>
   <time name="total">   74.71   75.19</time>
   <energy>
    <i name="alphaZ">   1079.87189334 </i>
    <i name="ewald"> -31106.58316275 </i>
    <i name="hartreedc"> -12953.91781027 </i>
    <i name="XCdc">   1491.84531521 </i>
    <i name="pawpsdc">  43944.60337499 </i>
    <i name="pawaedc"> -43505.49578014 </i>
    <i name="eentropy">      0.00000000 </i>
    <i name="bandstr">  -4425.49583475 </i>
    <i name="atom">  45173.57650906 </i>
    <i name="e_fr_energy">   -301.59549531 </i>
    <i name="e_wo_entrp">   -301.59549531 </i>
    <i name="e_0_energy">   -301.59549531 </i>
   </energy>
  </scstep>
  <structure>
   <crystal>
    <varray name="basis" >
     <v>      11.17850000       0.00000000       0.00000000 </v>
     <v>       0.00000000       9.57460000       0.00000000 </v>
     <v>       0.00000000       0.00000000      11.18240000 </v>
    </varray>
    <i name="volume">   1196.84853820 </i>
    <varray name="rec_basis" >
     <v>       0.08945744       0.00000000       0.00000000 </v>
     <v>       0.00000000       0.10444301       0.00000000 </v>
     <v>       0.00000000       0.00000000       0.08942624 </v>
    </varray>
   </crystal>
   <varray name="positions" >
    <v>       0.37539000       0.00017000       0.43687000 </v>
    <v>       0.12461000       0.99984000       0.18687000 </v>
    <v>       0.37461000       0.00017000       0.18687000 </v>
    <v>       0.62539000       0.99984000       0.43687000 </v>
    <v>       0.87539000       0.00017000       0.43687000 </v>
    <v>       0.62461000       0.99984000       0.18687000 </v>
    <v>       0.37539000       0.00017000       0.93687000 </v>
    <v>       0.37461000       0.00017000       0.68687000 </v>
    <v>       0.62539000       0.99984000       0.93687000 </v>
    <v>       0.87539000       0.00017000       0.93687000 </v>
    <v>       0.62461000       0.99984000       0.68687000 </v>
    <v>       0.87461000       0.00017000       0.68687000 </v>
    <v>       0.87461000       0.00017000       0.18687000 </v>
    <v>       0.12461000       0.99984000       0.68687000 </v>
    <v>       0.00013000       0.29519000       0.06281000 </v>
    <v>       0.25013000       0.70481000       0.06281000 </v>
    <v>       0.24987000       0.29519000       0.31282000 </v>
    <v>       0.49987000       0.70481000       0.31282000 </v>
    <v>       0.50013000       0.29519000       0.06281000 </v>
    <v>       0.75013000       0.70481000       0.06281000 </v>
    <v>       0.74987000       0.29519000       0.31282000 </v>
    <v>       0.99987000       0.70481000       0.31282000 </v>
    <v>       0.00013000       0.29519000       0.56281000 </v>
    <v>       0.25013000       0.70481000       0.56281000 </v>
    <v>       0.24987000       0.29519000       0.81282000 </v>
    <v>       0.49987000       0.70481000       0.81282000 </v>
    <v>       0.50013000       0.29519000       0.56281000 </v>
    <v>       0.75013000       0.70481000       0.56281000 </v>
    <v>       0.74987000       0.29519000       0.81282000 </v>
    <v>       0.99987000       0.70481000       0.81282000 </v>
    <v>       0.25005000       0.32677000       0.06286000 </v>
    <v>       0.00005000       0.67323000       0.06286000 </v>
    <v>       0.49995000       0.32677000       0.31286000 </v>
    <v>       0.24995000       0.67323000       0.31286000 </v>
    <v>       0.75005000       0.32677000       0.06286000 </v>
    <v>       0.50005000       0.67323000       0.06286000 </v>
    <v>       0.99995000       0.32677000       0.31286000 </v>
    <v>       0.74995000       0.67323000       0.31286000 </v>
    <v>       0.25005000       0.32677000       0.56286000 </v>
    <v>       0.00005000       0.67323000       0.56286000 </v>
    <v>       0.49995000       0.32677000       0.81286000 </v>
    <v>       0.24995000       0.67323000       0.81286000 </v>
    <v>       0.75005000       0.32677000       0.56286000 </v>
    <v>       0.50005000       0.67323000       0.56286000 </v>
    <v>       0.99995000       0.32677000       0.81286000 </v>
    <v>       0.74995000       0.67323000       0.81286000 </v>
    <v>       0.49987000       0.07798000       0.06246000 </v>
    <v>       0.24987000       0.92202000       0.06246000 </v>
    <v>       0.25013000       0.07798000       0.31246000 </v>
    <v>       0.00013000       0.92202000       0.31246000 </v>
    <v>       0.99987000       0.07798000       0.06246000 </v>
    <v>       0.74987000       0.92202000       0.06246000 </v>
    <v>       0.75013000       0.07798000       0.31246000 </v>
    <v>       0.50013000       0.92202000       0.31246000 </v>
    <v>       0.49987000       0.07798000       0.56246000 </v>
    <v>       0.24987000       0.92202000       0.56246000 </v>
    <v>       0.25013000       0.07798000       0.81246000 </v>
    <v>       0.00013000       0.92202000       0.81246000 </v>
    <v>       0.99987000       0.07798000       0.56246000 </v>
    <v>       0.74987000       0.92202000       0.56246000 </v>
    <v>       0.75013000       0.07798000       0.81246000 </v>
    <v>       0.50013000       0.92202000       0.81246000 </v>
   </varray>
  </structure>
  <varray name="forces" >
   <v>      -0.45674615       0.06378609      -0.06901760 </v>
   <v>       0.52643438      -0.00123346       0.00652420 </v>
   <v>      -0.34910092      -0.00089476       0.00701454 </v>
   <v>      -0.13125923      -0.06696273       0.08749224 </v>
   <v>       0.44907448      -0.06697953       0.41090251 </v>
   <v>      -0.52036821       0.00003530       0.00658345 </v>
   <v>      -0.45719648      -0.06521432       0.07812092 </v>
   <v>       0.11490868       0.00037041       0.00745201 </v>
   <v>      -0.13133583       0.06687818      -0.07778207 </v>
   <v>       0.44908587       0.06383171      -0.40285144 </v>
   <v>      -0.03317363      -0.00003968       0.00603836 </v>
   <v>      -0.10704822      -0.00148328       0.00750684 </v>
   <v>       0.53078705      -0.00662126       0.03586374 </v>
   <v>       0.10204664       0.00367153       0.03333425 </v>
   <v>       0.43479328       0.03904711      -0.18904839 </v>
   <v>      -0.08172201       1.02479504      -0.05188947 </v>
   <v>      -0.06900643      -1.03083799       0.04137914 </v>
   <v>      -0.25159134      -0.00987196      -0.01914750 </v>
   <v>      -0.26507660       0.00923464       0.01035563 </v>
   <v>      -0.11124609      -1.04435876      -0.13549101 </v>
   <v>      -0.09929058       1.03715409       0.12987631 </v>
   <v>       0.44371944      -0.01727491       0.17852896 </v>
   <v>       0.16412993      -0.01460682      -0.18845044 </v>
   <v>      -0.02128550       0.03697411      -0.25148661 </v>
   <v>      -0.01373759      -0.05607637       0.24300664 </v>
   <v>      -0.12656363      -0.00305439      -0.00845105 </v>
   <v>      -0.13731286       0.00245509       0.00043569 </v>
   <v>      -0.02891134      -0.03508929       0.06559069 </v>
   <v>      -0.01683954       0.03663995      -0.07550043 </v>
   <v>       0.18193430       0.03317274       0.17892387 </v>
   <v>       0.01434792       0.20918373      -0.08745155 </v>
   <v>      -0.32003561      -0.12166806       0.06268273 </v>
   <v>       0.26935133       0.18624916       0.00140701 </v>
   <v>       0.01928960      -0.20982014       0.08685423 </v>
   <v>       0.03926161       0.10026829       0.12181524 </v>
   <v>       0.26780422      -0.18623240      -0.00171826 </v>
   <v>      -0.31910879       0.12230647      -0.06424187 </v>
   <v>       0.03702214      -0.10374851      -0.12148671 </v>
   <v>      -0.03010831       0.16620919       0.14664028 </v>
   <v>      -0.05456890      -0.13861748       0.05004772 </v>
   <v>       0.09051246       0.18475782       0.00232145 </v>
   <v>      -0.02522365      -0.16830578      -0.14962795 </v>
   <v>      -0.00739473       0.15009236      -0.08045503 </v>
   <v>       0.08726818      -0.18444522      -0.00241067 </v>
   <v>      -0.05645597       0.14005353      -0.05013436 </v>
   <v>      -0.00812779      -0.15053563       0.08131985 </v>
   <v>       0.24762801      -0.02338244       0.00250829 </v>
   <v>       0.62281445      -0.85855121       0.53822734 </v>
   <v>       0.61316570       0.86246646      -0.53582417 </v>
   <v>      -1.31044913       0.08930264      -1.06696197 </v>
   <v>      -1.28777664      -0.08864094       1.04978198 </v>
   <v>       0.45547494       0.84298294       0.54583999 </v>
   <v>       0.44917003      -0.84103195      -0.56024696 </v>
   <v>       0.23622421       0.02399781      -0.00523633 </v>
   <v>       0.09653186      -0.01633466       0.00151748 </v>
   <v>       0.14128188      -0.08982536       1.14290593 </v>
   <v>       0.12141751       0.09180775      -1.15901011 </v>
   <v>      -0.23344399      -0.05185680      -1.08475376 </v>
   <v>      -0.22533879       0.04878086       1.07558205 </v>
   <v>       0.00314984       0.07889048      -0.07622844 </v>
   <v>      -0.00860357      -0.07818824       0.07455036 </v>
   <v>       0.08681811       0.01638886      -0.00402781 </v>
  </varray>
  <varray name="stress" >
   <v>      -6.98418770      -0.03225670      -0.04597909 </v>
   <v>      -0.03225655     -14.59192686      -0.04433064 </v>
   <v>      -0.04597887      -0.04433090     -10.57572647 </v>
  </varray>
  <energy>
   <i name="e_fr_energy">   -317.46835543 </i>
   <i name="e_wo_entrp">   -317.46835543 </i>
   <i name="e_0_energy">      0.00000000 </i>
  </energy>
  <time name="totalsc"> 1509.56 1516.62</time>
  <eigenvalues>
   <array>
    <dimension dim="1">band</dimension>
    <dimension dim="2">kpoint</dimension>
    <dimension dim="3">spin</dimension>
    <field>eigene</field>
    <field>occ</field>
    <set>
     <set comment="spin 1">
      <set comment="kpoint 1">
       <r>  -40.2000    1.0000 </r>
       <r>  -40.0028    1.0000 </r>
       <r>  -40.0025    1.0000 </r>
       <r>  -39.9872    1.0000 </r>
       <r>  -39.9869    1.0000 </r>
       <r>  -39.8644    1.0000 </r>
       <r>  -39.8204    1.0000 </r>
       <r>  -39.7664    1.0000 </r>
       <r>  -39.5325    1.0000 </r>
       <r>  -39.5318    1.0000 </r>
       <r>  -39.4140    1.0000 </r>
       <r>  -39.3931    1.0000 </r>
       <r>  -18.9036    1.0000 </r>
       <r>  -18.9020    1.0000 </r>
       <r>  -18.8328    1.0000 </r>
       <r>  -18.8319    1.0000 </r>
       <r>  -18.8258    1.0000 </r>
       <r>  -18.8250    1.0000 </r>
       <r>  -18.7296    1.0000 </r>
       <r>  -18.7279    1.0000 </r>
       <r>  -18.7167    1.0000 </r>
       <r>  -18.7153    1.0000 </r>
       <r>  -18.6890    1.0000 </r>
       <r>  -18.6884    1.0000 </r>
       <r>  -18.6789    1.0000 </r>
       <r>  -18.6785    1.0000 </r>
       <r>  -18.6702    1.0000 </r>
       <r>  -18.6694    1.0000 </r>
       <r>  -18.6334    1.0000 </r>
       <r>  -18.6288    1.0000 </r>
       <r>  -18.6253    1.0000 </r>
       <r>  -18.6227    1.0000 </r>
       <r>  -18.6213    1.0000 </r>
       <r>  -18.6193    1.0000 </r>
       <r>  -18.6180    1.0000 </r>
       <r>  -18.6172    1.0000 </r>
       <r>  -18.6158    1.0000 </r>
       <r>  -18.6141    1.0000 </r>
       <r>  -18.6133    1.0000 </r>
       <r>  -18.6118    1.0000 </r>
       <r>  -18.6103    1.0000 </r>
       <r>  -18.6090    1.0000 </r>
       <r>  -18.6055    1.0000 </r>
       <r>  -18.6041    1.0000 </r>
       <r>  -18.6034    1.0000 </r>
       <r>  -18.6032    1.0000 </r>
       <r>  -18.6026    1.0000 </r>
       <r>  -18.5991    1.0000 </r>
       <r>  -18.5952    1.0000 </r>
       <r>  -18.5936    1.0000 </r>
       <r>  -18.5934    1.0000 </r>
       <r>  -18.5920    1.0000 </r>
       <r>  -18.5409    1.0000 </r>
       <r>  -18.5379    1.0000 </r>
       <r>  -18.5279    1.0000 </r>
       <r>  -18.5275    1.0000 </r>
       <r>  -18.5266    1.0000 </r>
       <r>  -18.5247    1.0000 </r>
       <r>  -18.5176    1.0000 </r>
       <r>  -18.5172    1.0000 </r>
       <r>  -18.5168    1.0000 </r>
       <r>  -18.5135    1.0000 </r>
       <r>  -18.4751    1.0000 </r>
       <r>  -18.4732    1.0000 </r>
       <r>  -18.4692    1.0000 </r>
       <r>  -18.4672    1.0000 </r>
       <r>  -18.4657    1.0000 </r>
       <r>  -18.4609    1.0000 </r>
       <r>  -18.4513    1.0000 </r>
       <r>  -18.4501    1.0000 </r>
       <r>  -18.4492    1.0000 </r>
       <r>  -18.4489    1.0000 </r>
       <r>  -18.4487    1.0000 </r>
       <r>  -18.4482    1.0000 </r>
       <r>  -18.4474    1.0000 </r>
       <r>  -18.4472    1.0000 </r>
       <r>  -18.4465    1.0000 </r>
       <r>  -18.4463    1.0000 </r>
       <r>  -18.3841    1.0000 </r>
       <r>  -18.3801    1.0000 </r>
       <r>  -18.3659    1.0000 </r>
       <r>  -18.3653    1.0000 </r>
       <r>  -18.3644    1.0000 </r>
       <r>  -18.3619    1.0000 </r>
       <r>  -18.3523    1.0000 </r>
       <r>  -18.3514    1.0000 </r>
       <r>  -18.2725    1.0000 </r>
       <r>  -18.2712    1.0000 </r>
       <r>  -18.1577    1.0000 </r>
       <r>  -18.1564    1.0000 </r>
       <r>  -18.1444    1.0000 </r>
       <r>  -18.1428    1.0000 </r>
       <r>  -13.5375    1.0000 </r>
       <r>  -13.4291    1.0000 </r>
       <r>  -12.8507    1.0000 </r>
       <r>  -12.7833    1.0000 </r>
       <r>  -12.7298    1.0000 </r>
       <r>  -12.7202    1.0000 </r>
       <r>  -12.7015    1.0000 </r>
       <r>  -12.6858    1.0000 </r>
       <r>  -12.6339    1.0000 </r>
       <r>  -12.6279    1.0000 </r>
       <r>  -12.6256    1.0000 </r>
       <r>  -12.5738    1.0000 </r>
       <r>  -12.5710    1.0000 </r>
       <r>  -12.5247    1.0000 </r>
       <r>  -11.9323    1.0000 </r>
       <r>  -11.8692    1.0000 </r>
       <r>   -9.2956    1.0000 </r>
       <r>   -9.0017    1.0000 </r>
       <r>   -8.5070    1.0000 </r>
       <r>   -8.4674    1.0000 </r>
       <r>   -8.4557    1.0000 </r>
       <r>   -8.4117    1.0000 </r>
       <r>   -8.2837    1.0000 </r>
       <r>   -8.2488    1.0000 </r>
       <r>   -8.2294    1.0000 </r>
       <r>   -8.1878    1.0000 </r>
       <r>   -7.9981    1.0000 </r>
       <r>   -7.9972    1.0000 </r>
       <r>   -7.9629    1.0000 </r>
       <r>   -7.9606    1.0000 </r>
       <r>   -7.3260    1.0000 </r>
       <r>   -7.3251    1.0000 </r>
       <r>   -6.3379    1.0000 </r>
       <r>   -6.3350    1.0000 </r>
       <r>   -6.3166    1.0000 </r>
       <r>   -6.3121    1.0000 </r>
       <r>   -5.4991    1.0000 </r>
       <r>   -5.4648    1.0000 </r>
       <r>   -5.3298    1.0000 </r>
       <r>   -5.3120    1.0000 </r>
       <r>   -5.3094    1.0000 </r>
       <r>   -5.2174    1.0000 </r>
       <r>   -5.1807    1.0000 </r>
       <r>   -5.1424    1.0000 </r>
       <r>   -5.0903    1.0000 </r>
       <r>   -5.0217    1.0000 </r>
       <r>   -3.7757    1.0000 </r>
       <r>   -3.6207    1.0000 </r>
       <r>   -1.3481    1.0000 </r>
       <r>   -1.3315    1.0000 </r>
       <r>   -1.0341    1.0000 </r>
       <r>   -1.0091    1.0000 </r>
       <r>   -0.5139    1.0000 </r>
       <r>   -0.4660    1.0000 </r>
       <r>   -0.4369    1.0000 </r>
       <r>   -0.4210    1.0000 </r>
       <r>   -0.1568    1.0000 </r>
       <r>   -0.1246    1.0000 </r>
       <r>   -0.1222    1.0000 </r>
       <r>   -0.1072    1.0000 </r>
       <r>    0.0632    1.0000 </r>
       <r>    0.2999    1.0000 </r>
       <r>    0.3821    1.0000 </r>
       <r>    0.4883    1.0000 </r>
       <r>    0.5208    1.0000 </r>
       <r>    0.5895    1.0000 </r>
       <r>    0.6592    1.0000 </r>
       <r>    0.7469    1.0000 </r>
       <r>    0.7496    1.0000 </r>
       <r>    0.7679    1.0000 </r>
       <r>    0.7744    1.0000 </r>
       <r>    0.8115    1.0000 </r>
       <r>    0.9033    1.0000 </r>
       <r>    0.9051    1.0000 </r>
       <r>    0.9738    1.0000 </r>
       <r>    1.0040    1.0000 </r>
       <r>    1.0078    1.0000 </r>
       <r>    1.0660    1.0000 </r>
       <r>    1.1056    1.0000 </r>
       <r>    1.1272    1.0000 </r>
       <r>    1.1574    1.0000 </r>
       <r>    1.2522    1.0000 </r>
       <r>    1.2785    1.0000 </r>
       <r>    1.3447    1.0000 </r>
       <r>    1.4233    1.0000 </r>
       <r>    1.4499    1.0000 </r>
       <r>    1.4836    1.0000 </r>
       <r>    1.5034    1.0000 </r>
       <r>    1.5521    1.0000 </r>
       <r>    1.5801    1.0000 </r>
       <r>    1.6373    1.0000 </r>
       <r>    1.6634    1.0000 </r>
       <r>    1.6831    1.0000 </r>
       <r>    1.8023    1.0000 </r>
       <r>    1.8181    1.0000 </r>
       <r>    1.8399    1.0000 </r>
       <r>    1.9047    1.0000 </r>
       <r>    1.9112    1.0000 </r>
       <r>    1.9334    1.0000 </r>
       <r>    1.9578    1.0000 </r>
       <r>    2.1293    1.0000 </r>
       <r>    2.1790    1.0000 </r>
       <r>    2.1963    1.0000 </r>
       <r>    2.2932    1.0000 </r>
       <r>    2.3574    1.0000 </r>
       <r>    2.4000    1.0000 </r>
       <r>    2.5583    1.0000 </r>
       <r>    2.5643    1.0000 </r>
       <r>    2.6013    1.0000 </r>
       <r>    2.6068    1.0000 </r>
       <r>    2.6200    1.0000 </r>
       <r>    2.6214    1.0000 </r>
       <r>    2.6480    1.0000 </r>
       <r>    2.6672    1.0000 </r>
       <r>    2.7126    1.0000 </r>
       <r>    2.7421    1.0000 </r>
       <r>    2.7558    1.0000 </r>
       <r>    2.7747    1.0000 </r>
       <r>    2.7918    1.0000 </r>
       <r>    2.8195    1.0000 </r>
       <r>    2.8560    1.0000 </r>
       <r>    2.9300    1.0000 </r>
       <r>    2.9375    1.0000 </r>
       <r>    2.9490    1.0000 </r>
       <r>    2.9852    1.0000 </r>
       <r>    3.0132    1.0000 </r>
       <r>    3.1021    1.0000 </r>
       <r>    3.1355    1.0000 </r>
       <r>    3.1391    1.0000 </r>
       <r>    3.1624    1.0000 </r>
       <r>    3.1684    1.0000 </r>
       <r>    3.2084    1.0000 </r>
       <r>    3.2149    1.0000 </r>
       <r>    3.2676    1.0000 </r>
       <r>    3.3325    1.0000 </r>
       <r>    3.3336    1.0000 </r>
       <r>    3.4285    1.0000 </r>
       <r>    3.4883    1.0000 </r>
       <r>    3.4936    1.0000 </r>
       <r>    3.5925    1.0000 </r>
       <r>    4.2220    1.0000 </r>
       <r>    4.2267    1.0000 </r>
       <r>    4.2461    1.0000 </r>
       <r>    4.2585    1.0000 </r>
       <r>    5.1263    0.0000 </r>
       <r>    5.1273    0.0000 </r>
       <r>    5.1526    0.0000 </r>
       <r>    5.1676    0.0000 </r>
       <r>    5.7841    0.0000 </r>
       <r>    5.7887    0.0000 </r>
       <r>    5.8244    0.0000 </r>
       <r>    5.8263    0.0000 </r>
       <r>    6.1266    0.0000 </r>
       <r>    6.1447    0.0000 </r>
       <r>    6.1566    0.0000 </r>
       <r>    6.1802    0.0000 </r>
       <r>    6.2631    0.0000 </r>
       <r>    6.2734    0.0000 </r>
       <r>    6.2982    0.0000 </r>
       <r>    6.3012    0.0000 </r>
       <r>    7.1912    0.0000 </r>
       <r>    7.2461    0.0000 </r>
       <r>    7.2714    0.0000 </r>
       <r>    7.3220    0.0000 </r>
       <r>    7.8340    0.0000 </r>
       <r>    7.9252    0.0000 </r>
       <r>    7.9495    0.0000 </r>
       <r>    7.9810    0.0000 </r>
       <r>    8.0258    0.0000 </r>
       <r>    8.0854    0.0000 </r>
       <r>    8.2184    0.0000 </r>
       <r>    8.2228    0.0000 </r>
       <r>    8.5211    0.0000 </r>
       <r>    8.6027    0.0000 </r>
       <r>    8.7108    0.0000 </r>
       <r>    8.7989    0.0000 </r>
       <r>    8.8183    0.0000 </r>
       <r>    8.9416    0.0000 </r>
       <r>    9.0160    0.0000 </r>
       <r>    9.0264    0.0000 </r>
       <r>    9.0431    0.0000 </r>
       <r>    9.0532    0.0000 </r>
       <r>    9.1221    0.0000 </r>
       <r>    9.1439    0.0000 </r>
       <r>    9.1515    0.0000 </r>
       <r>    9.2198    0.0000 </r>
       <r>    9.2391    0.0000 </r>
       <r>    9.2742    0.0000 </r>
       <r>    9.4909    0.0000 </r>
       <r>    9.5423    0.0000 </r>
       <r>    9.5468    0.0000 </r>
       <r>    9.6393    0.0000 </r>
       <r>    9.6992    0.0000 </r>
       <r>    9.7063    0.0000 </r>
       <r>    9.7287    0.0000 </r>
       <r>    9.8861    0.0000 </r>
       <r>   10.1615    0.0000 </r>
       <r>   10.2716    0.0000 </r>
       <r>   10.2771    0.0000 </r>
       <r>   10.3151    0.0000 </r>
       <r>   10.5076    0.0000 </r>
       <r>   10.5437    0.0000 </r>
       <r>   10.6167    0.0000 </r>
       <r>   10.6273    0.0000 </r>
       <r>   10.6580    0.0000 </r>
       <r>   10.7311    0.0000 </r>
       <r>   11.2026    0.0000 </r>
       <r>   11.2949    0.0000 </r>
       <r>   11.4453    0.0000 </r>
       <r>   11.4779    0.0000 </r>
       <r>   11.5876    0.0000 </r>
       <r>   11.6318    0.0000 </r>
       <r>   11.7103    0.0000 </r>
       <r>   11.8043    0.0000 </r>
       <r>   11.8190    0.0000 </r>
       <r>   11.9558    0.0000 </r>
      </set>
      <set comment="kpoint 2">
       <r>  -40.2000    1.0000 </r>
       <r>  -40.0028    1.0000 </r>
       <r>  -40.0025    1.0000 </r>
       <r>  -39.9872    1.0000 </r>
       <r>  -39.9869    1.0000 </r>
       <r>  -39.8644    1.0000 </r>
       <r>  -39.8204    1.0000 </r>
       <r>  -39.7664    1.0000 </r>
       <r>  -39.5325    1.0000 </r>
       <r>  -39.5318    1.0000 </r>
       <r>  -39.4140    1.0000 </r>
       <r>  -39.3931    1.0000 </r>
       <r>  -18.9036    1.0000 </r>
       <r>  -18.9020    1.0000 </r>
       <r>  -18.8327    1.0000 </r>
       <r>  -18.8319    1.0000 </r>
       <r>  -18.8258    1.0000 </r>
       <r>  -18.8250    1.0000 </r>
       <r>  -18.7296    1.0000 </r>
       <r>  -18.7279    1.0000 </r>
       <r>  -18.7167    1.0000 </r>
       <r>  -18.7153    1.0000 </r>
       <r>  -18.6887    1.0000 </r>
       <r>  -18.6882    1.0000 </r>
       <r>  -18.6788    1.0000 </r>
       <r>  -18.6784    1.0000 </r>
       <r>  -18.6701    1.0000 </r>
       <r>  -18.6693    1.0000 </r>
       <r>  -18.6338    1.0000 </r>
       <r>  -18.6293    1.0000 </r>
       <r>  -18.6252    1.0000 </r>
       <r>  -18.6232    1.0000 </r>
       <r>  -18.6215    1.0000 </r>
       <r>  -18.6193    1.0000 </r>
       <r>  -18.6186    1.0000 </r>
       <r>  -18.6173    1.0000 </r>
       <r>  -18.6150    1.0000 </r>
       <r>  -18.6141    1.0000 </r>
       <r>  -18.6132    1.0000 </r>
       <r>  -18.6123    1.0000 </r>
       <r>  -18.6108    1.0000 </r>
       <r>  -18.6103    1.0000 </r>
       <r>  -18.6056    1.0000 </r>
       <r>  -18.6041    1.0000 </r>
       <r>  -18.6029    1.0000 </r>
       <r>  -18.6020    1.0000 </r>
       <r>  -18.6016    1.0000 </r>
       <r>  -18.5990    1.0000 </r>
       <r>  -18.5952    1.0000 </r>
       <r>  -18.5936    1.0000 </r>
       <r>  -18.5934    1.0000 </r>
       <r>  -18.5921    1.0000 </r>
       <r>  -18.5409    1.0000 </r>
       <r>  -18.5379    1.0000 </r>
       <r>  -18.5279    1.0000 </r>
       <r>  -18.5276    1.0000 </r>
       <r>  -18.5266    1.0000 </r>
       <r>  -18.5248    1.0000 </r>
       <r>  -18.5176    1.0000 </r>
       <r>  -18.5172    1.0000 </r>
       <r>  -18.5168    1.0000 </r>
       <r>  -18.5135    1.0000 </r>
       <r>  -18.4751    1.0000 </r>
       <r>  -18.4732    1.0000 </r>
       <r>  -18.4692    1.0000 </r>
       <r>  -18.4672    1.0000 </r>
       <r>  -18.4657    1.0000 </r>
       <r>  -18.4609    1.0000 </r>
       <r>  -18.4513    1.0000 </r>
       <r>  -18.4501    1.0000 </r>
       <r>  -18.4492    1.0000 </r>
       <r>  -18.4489    1.0000 </r>
       <r>  -18.4487    1.0000 </r>
       <r>  -18.4482    1.0000 </r>
       <r>  -18.4474    1.0000 </r>
       <r>  -18.4472    1.0000 </r>
       <r>  -18.4465    1.0000 </r>
       <r>  -18.4463    1.0000 </r>
       <r>  -18.3841    1.0000 </r>
       <r>  -18.3801    1.0000 </r>
       <r>  -18.3659    1.0000 </r>
       <r>  -18.3653    1.0000 </r>
       <r>  -18.3644    1.0000 </r>
       <r>  -18.3619    1.0000 </r>
       <r>  -18.3523    1.0000 </r>
       <r>  -18.3514    1.0000 </r>
       <r>  -18.2725    1.0000 </r>
       <r>  -18.2712    1.0000 </r>
       <r>  -18.1577    1.0000 </r>
       <r>  -18.1564    1.0000 </r>
       <r>  -18.1444    1.0000 </r>
       <r>  -18.1428    1.0000 </r>
       <r>  -13.5374    1.0000 </r>
       <r>  -13.4290    1.0000 </r>
       <r>  -12.8394    1.0000 </r>
       <r>  -12.7902    1.0000 </r>
       <r>  -12.7517    1.0000 </r>
       <r>  -12.7229    1.0000 </r>
       <r>  -12.6901    1.0000 </r>
       <r>  -12.6782    1.0000 </r>
       <r>  -12.6335    1.0000 </r>
       <r>  -12.6284    1.0000 </r>
       <r>  -12.6194    1.0000 </r>
       <r>  -12.5755    1.0000 </r>
       <r>  -12.5747    1.0000 </r>
       <r>  -12.5243    1.0000 </r>
       <r>  -11.9322    1.0000 </r>
       <r>  -11.8692    1.0000 </r>
       <r>   -9.1522    1.0000 </r>
       <r>   -8.9942    1.0000 </r>
       <r>   -8.8779    1.0000 </r>
       <r>   -8.7165    1.0000 </r>
       <r>   -8.3691    1.0000 </r>
       <r>   -8.3653    1.0000 </r>
       <r>   -8.2331    1.0000 </r>
       <r>   -8.2251    1.0000 </r>
       <r>   -8.1667    1.0000 </r>
       <r>   -8.1642    1.0000 </r>
       <r>   -8.0298    1.0000 </r>
       <r>   -8.0238    1.0000 </r>
       <r>   -7.7211    1.0000 </r>
       <r>   -7.6090    1.0000 </r>
       <r>   -7.6034    1.0000 </r>
       <r>   -7.4905    1.0000 </r>
       <r>   -5.9891    1.0000 </r>
       <r>   -5.9867    1.0000 </r>
       <r>   -5.8119    1.0000 </r>
       <r>   -5.8075    1.0000 </r>
       <r>   -5.7725    1.0000 </r>
       <r>   -5.7683    1.0000 </r>
       <r>   -5.7060    1.0000 </r>
       <r>   -5.6355    1.0000 </r>
       <r>   -5.6238    1.0000 </r>
       <r>   -5.6174    1.0000 </r>
       <r>   -5.5016    1.0000 </r>
       <r>   -5.4263    1.0000 </r>
       <r>   -4.4764    1.0000 </r>
       <r>   -4.3137    1.0000 </r>
       <r>   -4.3122    1.0000 </r>
       <r>   -4.1407    1.0000 </r>
       <r>   -1.1900    1.0000 </r>
       <r>   -1.0028    1.0000 </r>
       <r>   -0.8628    1.0000 </r>
       <r>   -0.6875    1.0000 </r>
       <r>   -0.3864    1.0000 </r>
       <r>   -0.1984    1.0000 </r>
       <r>   -0.0124    1.0000 </r>
       <r>    0.0722    1.0000 </r>
       <r>    0.1332    1.0000 </r>
       <r>    0.1859    1.0000 </r>
       <r>    0.2096    1.0000 </r>
       <r>    0.2359    1.0000 </r>
       <r>    0.2505    1.0000 </r>
       <r>    0.3061    1.0000 </r>
       <r>    0.4061    1.0000 </r>
       <r>    0.4347    1.0000 </r>
       <r>    0.4862    1.0000 </r>
       <r>    0.5120    1.0000 </r>
       <r>    0.5648    1.0000 </r>
       <r>    0.5920    1.0000 </r>
       <r>    0.6295    1.0000 </r>
       <r>    0.6499    1.0000 </r>
       <r>    0.6632    1.0000 </r>
       <r>    0.7310    1.0000 </r>
       <r>    0.7362    1.0000 </r>
       <r>    0.9401    1.0000 </r>
       <r>    0.9455    1.0000 </r>
       <r>    1.0710    1.0000 </r>
       <r>    1.0937    1.0000 </r>
       <r>    1.1397    1.0000 </r>
       <r>    1.1411    1.0000 </r>
       <r>    1.1827    1.0000 </r>
       <r>    1.1929    1.0000 </r>
       <r>    1.2341    1.0000 </r>
       <r>    1.2772    1.0000 </r>
       <r>    1.3084    1.0000 </r>
       <r>    1.3174    1.0000 </r>
       <r>    1.3622    1.0000 </r>
       <r>    1.5047    1.0000 </r>
       <r>    1.5091    1.0000 </r>
       <r>    1.5122    1.0000 </r>
       <r>    1.5534    1.0000 </r>
       <r>    1.6295    1.0000 </r>
       <r>    1.6556    1.0000 </r>
       <r>    1.6705    1.0000 </r>
       <r>    1.7338    1.0000 </r>
       <r>    1.7643    1.0000 </r>
       <r>    1.8082    1.0000 </r>
       <r>    1.8114    1.0000 </r>
       <r>    1.9125    1.0000 </r>
       <r>    1.9136    1.0000 </r>
       <r>    1.9271    1.0000 </r>
       <r>    2.0301    1.0000 </r>
       <r>    2.0388    1.0000 </r>
       <r>    2.0486    1.0000 </r>
       <r>    2.0893    1.0000 </r>
       <r>    2.1324    1.0000 </r>
       <r>    2.2073    1.0000 </r>
       <r>    2.2304    1.0000 </r>
       <r>    2.2678    1.0000 </r>
       <r>    2.3646    1.0000 </r>
       <r>    2.3798    1.0000 </r>
       <r>    2.4436    1.0000 </r>
       <r>    2.4639    1.0000 </r>
       <r>    2.4799    1.0000 </r>
       <r>    2.5378    1.0000 </r>
       <r>    2.5710    1.0000 </r>
       <r>    2.5768    1.0000 </r>
       <r>    2.6547    1.0000 </r>
       <r>    2.6727    1.0000 </r>
       <r>    2.7271    1.0000 </r>
       <r>    2.7550    1.0000 </r>
       <r>    2.7727    1.0000 </r>
       <r>    2.8168    1.0000 </r>
       <r>    2.8396    1.0000 </r>
       <r>    2.8882    1.0000 </r>
       <r>    2.9221    1.0000 </r>
       <r>    2.9265    1.0000 </r>
       <r>    2.9688    1.0000 </r>
       <r>    2.9953    1.0000 </r>
       <r>    3.0557    1.0000 </r>
       <r>    3.0758    1.0000 </r>
       <r>    3.1398    1.0000 </r>
       <r>    3.1469    1.0000 </r>
       <r>    3.1861    1.0000 </r>
       <r>    3.2382    1.0000 </r>
       <r>    3.3539    1.0000 </r>
       <r>    3.4394    1.0000 </r>
       <r>    3.4797    1.0000 </r>
       <r>    3.4919    1.0000 </r>
       <r>    3.5442    1.0000 </r>
       <r>    3.5521    1.0000 </r>
       <r>    3.5957    1.0000 </r>
       <r>    3.6319    1.0000 </r>
       <r>    3.7110    1.0000 </r>
       <r>    3.7419    1.0000 </r>
       <r>    5.5925    0.0000 </r>
       <r>    5.5930    0.0000 </r>
       <r>    5.7428    0.0000 </r>
       <r>    5.7527    0.0000 </r>
       <r>    5.7762    0.0000 </r>
       <r>    5.7783    0.0000 </r>
       <r>    5.9342    0.0000 </r>
       <r>    5.9417    0.0000 </r>
       <r>    7.2519    0.0000 </r>
       <r>    7.2904    0.0000 </r>
       <r>    7.2931    0.0000 </r>
       <r>    7.3815    0.0000 </r>
       <r>    7.4268    0.0000 </r>
       <r>    7.4393    0.0000 </r>
       <r>    7.4795    0.0000 </r>
       <r>    7.5106    0.0000 </r>
       <r>    7.5214    0.0000 </r>
       <r>    7.5461    0.0000 </r>
       <r>    7.6273    0.0000 </r>
       <r>    7.6317    0.0000 </r>
       <r>    7.8357    0.0000 </r>
       <r>    7.8448    0.0000 </r>
       <r>    7.8834    0.0000 </r>
       <r>    7.8989    0.0000 </r>
       <r>    7.9203    0.0000 </r>
       <r>    7.9326    0.0000 </r>
       <r>    7.9976    0.0000 </r>
       <r>    8.0065    0.0000 </r>
       <r>    8.0345    0.0000 </r>
       <r>    8.0589    0.0000 </r>
       <r>    8.0863    0.0000 </r>
       <r>    8.1308    0.0000 </r>
       <r>    8.2723    0.0000 </r>
       <r>    8.4263    0.0000 </r>
       <r>    8.4644    0.0000 </r>
       <r>    8.6408    0.0000 </r>
       <r>    8.6767    0.0000 </r>
       <r>    8.7426    0.0000 </r>
       <r>    8.7728    0.0000 </r>
       <r>    8.7830    0.0000 </r>
       <r>    8.8038    0.0000 </r>
       <r>    8.8994    0.0000 </r>
       <r>    8.9549    0.0000 </r>
       <r>    8.9659    0.0000 </r>
       <r>    9.1307    0.0000 </r>
       <r>    9.3313    0.0000 </r>
       <r>    9.3997    0.0000 </r>
       <r>    9.4814    0.0000 </r>
       <r>    9.6179    0.0000 </r>
       <r>    9.8180    0.0000 </r>
       <r>   10.2319    0.0000 </r>
       <r>   10.2682    0.0000 </r>
       <r>   10.3573    0.0000 </r>
       <r>   10.5067    0.0000 </r>
       <r>   10.5923    0.0000 </r>
       <r>   10.6098    0.0000 </r>
       <r>   10.7573    0.0000 </r>
       <r>   10.7857    0.0000 </r>
       <r>   10.8095    0.0000 </r>
       <r>   10.8295    0.0000 </r>
       <r>   10.8726    0.0000 </r>
       <r>   10.9149    0.0000 </r>
       <r>   11.1429    0.0000 </r>
       <r>   11.1826    0.0000 </r>
       <r>   11.2048    0.0000 </r>
       <r>   11.2416    0.0000 </r>
       <r>   11.3453    0.0000 </r>
       <r>   11.3536    0.0000 </r>
       <r>   11.3695    0.0000 </r>
       <r>   11.4855    0.0000 </r>
       <r>   11.6165    0.0000 </r>
       <r>   11.6730    0.0000 </r>
      </set>
      <set comment="kpoint 3">
       <r>  -40.2000    1.0000 </r>
       <r>  -40.0028    1.0000 </r>
       <r>  -40.0025    1.0000 </r>
       <r>  -39.9872    1.0000 </r>
       <r>  -39.9869    1.0000 </r>
       <r>  -39.8644    1.0000 </r>
       <r>  -39.8204    1.0000 </r>
       <r>  -39.7664    1.0000 </r>
       <r>  -39.5325    1.0000 </r>
       <r>  -39.5318    1.0000 </r>
       <r>  -39.4140    1.0000 </r>
       <r>  -39.3931    1.0000 </r>
       <r>  -18.9040    1.0000 </r>
       <r>  -18.9017    1.0000 </r>
       <r>  -18.8328    1.0000 </r>
       <r>  -18.8319    1.0000 </r>
       <r>  -18.8258    1.0000 </r>
       <r>  -18.8250    1.0000 </r>
       <r>  -18.7295    1.0000 </r>
       <r>  -18.7279    1.0000 </r>
       <r>  -18.7167    1.0000 </r>
       <r>  -18.7154    1.0000 </r>
       <r>  -18.6890    1.0000 </r>
       <r>  -18.6884    1.0000 </r>
       <r>  -18.6789    1.0000 </r>
       <r>  -18.6785    1.0000 </r>
       <r>  -18.6701    1.0000 </r>
       <r>  -18.6695    1.0000 </r>
       <r>  -18.6334    1.0000 </r>
       <r>  -18.6288    1.0000 </r>
       <r>  -18.6254    1.0000 </r>
       <r>  -18.6227    1.0000 </r>
       <r>  -18.6212    1.0000 </r>
       <r>  -18.6193    1.0000 </r>
       <r>  -18.6180    1.0000 </r>
       <r>  -18.6172    1.0000 </r>
       <r>  -18.6158    1.0000 </r>
       <r>  -18.6140    1.0000 </r>
       <r>  -18.6133    1.0000 </r>
       <r>  -18.6118    1.0000 </r>
       <r>  -18.6103    1.0000 </r>
       <r>  -18.6090    1.0000 </r>
       <r>  -18.6055    1.0000 </r>
       <r>  -18.6041    1.0000 </r>
       <r>  -18.6035    1.0000 </r>
       <r>  -18.6032    1.0000 </r>
       <r>  -18.6026    1.0000 </r>
       <r>  -18.5991    1.0000 </r>
       <r>  -18.5954    1.0000 </r>
       <r>  -18.5936    1.0000 </r>
       <r>  -18.5932    1.0000 </r>
       <r>  -18.5920    1.0000 </r>
       <r>  -18.5409    1.0000 </r>
       <r>  -18.5379    1.0000 </r>
       <r>  -18.5279    1.0000 </r>
       <r>  -18.5275    1.0000 </r>
       <r>  -18.5266    1.0000 </r>
       <r>  -18.5247    1.0000 </r>
       <r>  -18.5177    1.0000 </r>
       <r>  -18.5172    1.0000 </r>
       <r>  -18.5168    1.0000 </r>
       <r>  -18.5134    1.0000 </r>
       <r>  -18.4751    1.0000 </r>
       <r>  -18.4732    1.0000 </r>
       <r>  -18.4692    1.0000 </r>
       <r>  -18.4672    1.0000 </r>
       <r>  -18.4657    1.0000 </r>
       <r>  -18.4609    1.0000 </r>
       <r>  -18.4513    1.0000 </r>
       <r>  -18.4501    1.0000 </r>
       <r>  -18.4492    1.0000 </r>
       <r>  -18.4489    1.0000 </r>
       <r>  -18.4487    1.0000 </r>
       <r>  -18.4482    1.0000 </r>
       <r>  -18.4474    1.0000 </r>
       <r>  -18.4472    1.0000 </r>
       <r>  -18.4465    1.0000 </r>
       <r>  -18.4463    1.0000 </r>
       <r>  -18.3841    1.0000 </r>
       <r>  -18.3801    1.0000 </r>
       <r>  -18.3659    1.0000 </r>
       <r>  -18.3653    1.0000 </r>
       <r>  -18.3644    1.0000 </r>
       <r>  -18.3619    1.0000 </r>
       <r>  -18.3523    1.0000 </r>
       <r>  -18.3514    1.0000 </r>
       <r>  -18.2727    1.0000 </r>
       <r>  -18.2711    1.0000 </r>
       <r>  -18.1577    1.0000 </r>
       <r>  -18.1564    1.0000 </r>
       <r>  -18.1444    1.0000 </r>
       <r>  -18.1428    1.0000 </r>
       <r>  -13.5373    1.0000 </r>
       <r>  -13.4292    1.0000 </r>
       <r>  -12.8488    1.0000 </r>
       <r>  -12.7828    1.0000 </r>
       <r>  -12.7300    1.0000 </r>
       <r>  -12.7202    1.0000 </r>
       <r>  -12.7007    1.0000 </r>
       <r>  -12.6860    1.0000 </r>
       <r>  -12.6338    1.0000 </r>
       <r>  -12.6292    1.0000 </r>
       <r>  -12.6257    1.0000 </r>
       <r>  -12.5750    1.0000 </r>
       <r>  -12.5712    1.0000 </r>
       <r>  -12.5256    1.0000 </r>
       <r>  -11.9313    1.0000 </r>
       <r>  -11.8708    1.0000 </r>
       <r>   -9.2865    1.0000 </r>
       <r>   -9.0079    1.0000 </r>
       <r>   -8.5246    1.0000 </r>
       <r>   -8.4867    1.0000 </r>
       <r>   -8.4739    1.0000 </r>
       <r>   -8.4287    1.0000 </r>
       <r>   -8.2639    1.0000 </r>
       <r>   -8.2280    1.0000 </r>
       <r>   -8.2086    1.0000 </r>
       <r>   -8.1687    1.0000 </r>
       <r>   -8.0022    1.0000 </r>
       <r>   -8.0010    1.0000 </r>
       <r>   -7.9658    1.0000 </r>
       <r>   -7.9635    1.0000 </r>
       <r>   -7.3291    1.0000 </r>
       <r>   -7.3277    1.0000 </r>
       <r>   -6.3299    1.0000 </r>
       <r>   -6.3240    1.0000 </r>
       <r>   -6.3085    1.0000 </r>
       <r>   -6.3005    1.0000 </r>
       <r>   -5.5153    1.0000 </r>
       <r>   -5.4498    1.0000 </r>
       <r>   -5.3701    1.0000 </r>
       <r>   -5.3575    1.0000 </r>
       <r>   -5.3466    1.0000 </r>
       <r>   -5.2374    1.0000 </r>
       <r>   -5.1220    1.0000 </r>
       <r>   -5.0863    1.0000 </r>
       <r>   -5.0528    1.0000 </r>
       <r>   -4.9745    1.0000 </r>
       <r>   -3.8472    1.0000 </r>
       <r>   -3.5378    1.0000 </r>
       <r>   -1.2958    1.0000 </r>
       <r>   -1.2727    1.0000 </r>
       <r>   -1.1066    1.0000 </r>
       <r>   -1.0887    1.0000 </r>
       <r>   -0.3992    1.0000 </r>
       <r>   -0.3733    1.0000 </r>
       <r>   -0.3685    1.0000 </r>
       <r>   -0.3551    1.0000 </r>
       <r>   -0.3298    1.0000 </r>
       <r>   -0.2676    1.0000 </r>
       <r>   -0.2217    1.0000 </r>
       <r>   -0.1949    1.0000 </r>
       <r>   -0.0751    1.0000 </r>
       <r>   -0.0077    1.0000 </r>
       <r>    0.2189    1.0000 </r>
       <r>    0.2647    1.0000 </r>
       <r>    0.2879    1.0000 </r>
       <r>    0.4053    1.0000 </r>
       <r>    0.4601    1.0000 </r>
       <r>    0.4825    1.0000 </r>
       <r>    0.5717    1.0000 </r>
       <r>    0.6830    1.0000 </r>
       <r>    0.7646    1.0000 </r>
       <r>    0.7847    1.0000 </r>
       <r>    0.7968    1.0000 </r>
       <r>    0.8360    1.0000 </r>
       <r>    0.8536    1.0000 </r>
       <r>    0.9396    1.0000 </r>
       <r>    1.0889    1.0000 </r>
       <r>    1.1739    1.0000 </r>
       <r>    1.2061    1.0000 </r>
       <r>    1.2519    1.0000 </r>
       <r>    1.2968    1.0000 </r>
       <r>    1.3164    1.0000 </r>
       <r>    1.4334    1.0000 </r>
       <r>    1.4461    1.0000 </r>
       <r>    1.5583    1.0000 </r>
       <r>    1.6489    1.0000 </r>
       <r>    1.6870    1.0000 </r>
       <r>    1.7288    1.0000 </r>
       <r>    1.7610    1.0000 </r>
       <r>    1.7916    1.0000 </r>
       <r>    1.8184    1.0000 </r>
       <r>    1.8446    1.0000 </r>
       <r>    1.8497    1.0000 </r>
       <r>    1.8625    1.0000 </r>
       <r>    1.8723    1.0000 </r>
       <r>    1.8855    1.0000 </r>
       <r>    1.9217    1.0000 </r>
       <r>    1.9315    1.0000 </r>
       <r>    2.0400    1.0000 </r>
       <r>    2.0996    1.0000 </r>
       <r>    2.1800    1.0000 </r>
       <r>    2.2056    1.0000 </r>
       <r>    2.2375    1.0000 </r>
       <r>    2.3418    1.0000 </r>
       <r>    2.4864    1.0000 </r>
       <r>    2.4882    1.0000 </r>
       <r>    2.5185    1.0000 </r>
       <r>    2.5569    1.0000 </r>
       <r>    2.5896    1.0000 </r>
       <r>    2.5967    1.0000 </r>
       <r>    2.6096    1.0000 </r>
       <r>    2.6122    1.0000 </r>
       <r>    2.6205    1.0000 </r>
       <r>    2.6345    1.0000 </r>
       <r>    2.6757    1.0000 </r>
       <r>    2.7222    1.0000 </r>
       <r>    2.7300    1.0000 </r>
       <r>    2.7803    1.0000 </r>
       <r>    2.8171    1.0000 </r>
       <r>    2.8287    1.0000 </r>
       <r>    2.8403    1.0000 </r>
       <r>    2.8869    1.0000 </r>
       <r>    2.8914    1.0000 </r>
       <r>    2.9496    1.0000 </r>
       <r>    2.9665    1.0000 </r>
       <r>    3.0041    1.0000 </r>
       <r>    3.0306    1.0000 </r>
       <r>    3.0511    1.0000 </r>
       <r>    3.0712    1.0000 </r>
       <r>    3.0915    1.0000 </r>
       <r>    3.1805    1.0000 </r>
       <r>    3.3324    1.0000 </r>
       <r>    3.3552    1.0000 </r>
       <r>    3.4037    1.0000 </r>
       <r>    3.4366    1.0000 </r>
       <r>    3.4631    1.0000 </r>
       <r>    3.4836    1.0000 </r>
       <r>    3.5180    1.0000 </r>
       <r>    3.5531    1.0000 </r>
       <r>    3.6062    1.0000 </r>
       <r>    4.2703    1.0000 </r>
       <r>    4.2754    1.0000 </r>
       <r>    4.2987    1.0000 </r>
       <r>    4.3090    1.0000 </r>
       <r>    5.1920    0.0000 </r>
       <r>    5.1947    0.0000 </r>
       <r>    5.2259    0.0000 </r>
       <r>    5.2273    0.0000 </r>
       <r>    5.7906    0.0000 </r>
       <r>    5.7998    0.0000 </r>
       <r>    5.8309    0.0000 </r>
       <r>    5.8351    0.0000 </r>
       <r>    6.1865    0.0000 </r>
       <r>    6.2018    0.0000 </r>
       <r>    6.2155    0.0000 </r>
       <r>    6.2242    0.0000 </r>
       <r>    6.2718    0.0000 </r>
       <r>    6.2829    0.0000 </r>
       <r>    6.3044    0.0000 </r>
       <r>    6.3180    0.0000 </r>
       <r>    6.8261    0.0000 </r>
       <r>    6.9909    0.0000 </r>
       <r>    6.9966    0.0000 </r>
       <r>    7.0952    0.0000 </r>
       <r>    7.2795    0.0000 </r>
       <r>    7.4093    0.0000 </r>
       <r>    7.5186    0.0000 </r>
       <r>    7.5639    0.0000 </r>
       <r>    7.7965    0.0000 </r>
       <r>    7.8619    0.0000 </r>
       <r>    7.9622    0.0000 </r>
       <r>    7.9911    0.0000 </r>
       <r>    8.0499    0.0000 </r>
       <r>    8.3271    0.0000 </r>
       <r>    8.3639    0.0000 </r>
       <r>    8.5014    0.0000 </r>
       <r>    8.7277    0.0000 </r>
       <r>    8.8930    0.0000 </r>
       <r>    8.9246    0.0000 </r>
       <r>    8.9688    0.0000 </r>
       <r>    9.0654    0.0000 </r>
       <r>    9.0703    0.0000 </r>
       <r>    9.0752    0.0000 </r>
       <r>    9.1466    0.0000 </r>
       <r>    9.1610    0.0000 </r>
       <r>    9.1724    0.0000 </r>
       <r>    9.1993    0.0000 </r>
       <r>    9.2225    0.0000 </r>
       <r>    9.5040    0.0000 </r>
       <r>    9.5138    0.0000 </r>
       <r>    9.7417    0.0000 </r>
       <r>    9.7471    0.0000 </r>
       <r>    9.7836    0.0000 </r>
       <r>    9.8309    0.0000 </r>
       <r>    9.8609    0.0000 </r>
       <r>   10.0893    0.0000 </r>
       <r>   10.1221    0.0000 </r>
       <r>   10.1691    0.0000 </r>
       <r>   10.1810    0.0000 </r>
       <r>   10.3823    0.0000 </r>
       <r>   10.6324    0.0000 </r>
       <r>   10.6391    0.0000 </r>
[...]
       <r>   11.3623    0.0000 </r>
       <r>   11.3756    0.0000 </r>
       <r>   11.4717    0.0000 </r>
       <r>   11.4780    0.0000 </r>
      </set>
     </set>
    </set>
   </array>
  </eigenvalues>
  <separator name="orbital magnetization" >
   <v name="MAGDIPOLOUT">      0.00000000      0.00000000      0.00000000</v>
  </separator>
  <dos>
   <i name="efermi">      4.31014598 </i>
   <total>
    <array>
     <dimension dim="1">gridpoints</dimension>
     <dimension dim="2">spin</dimension>
     <field>energy</field>
     <field>total</field>
     <field>integrated</field>
     <set>
      <set comment="spin 1">
       <r>   -42.8291     0.0000     0.0000 </r>
       <r>   -42.6363     0.0000     0.0000 </r>
       <r>   -42.4435     0.0000     0.0000 </r>
       <r>   -42.2507     0.0000     0.0000 </r>
       <r>   -42.0579     0.0000     0.0000 </r>
       <r>   -41.8651     0.0000     0.0000 </r>
       <r>   -41.6723     0.0000     0.0000 </r>
       <r>   -41.4795     0.0000     0.0000 </r>
       <r>   -41.2867     0.0000     0.0000 </r>
       <r>   -41.0939     0.0000     0.0000 </r>
       <r>   -40.9011     0.0000     0.0000 </r>
       <r>   -40.7083     0.0000     0.0000 </r>
       <r>   -40.5155     0.0000     0.0000 </r>
       <r>   -40.3227     0.0000     0.0000 </r>
       <r>   -40.1299     0.0000     2.0000 </r>
       <r>   -39.9371     0.0000    10.0000 </r>
       <r>   -39.7443     0.0000    16.0000 </r>
       <r>   -39.5515     0.0000    16.0000 </r>
       <r>   -39.3587     0.0000    24.0000 </r>
       <r>   -39.1659     0.0000    24.0000 </r>
       <r>   -38.9731     0.0000    24.0000 </r>
       <r>   -38.7803     0.0000    24.0000 </r>
       <r>   -38.5875     0.0000    24.0000 </r>
       <r>   -38.3947     0.0000    24.0000 </r>
       <r>   -38.2019     0.0000    24.0000 </r>
       <r>   -38.0091     0.0000    24.0000 </r>
       <r>   -37.8163     0.0000    24.0000 </r>
       <r>   -37.6235     0.0000    24.0000 </r>
       <r>   -37.4307     0.0000    24.0000 </r>
       <r>   -37.2379     0.0000    24.0000 </r>
       <r>   -37.0451     0.0000    24.0000 </r>
       <r>   -36.8523     0.0000    24.0000 </r>
       <r>   -36.6595     0.0000    24.0000 </r>
       <r>   -36.4667     0.0000    24.0000 </r>
       <r>   -36.2739     0.0000    24.0000 </r>
       <r>   -36.0811     0.0000    24.0000 </r>
       <r>   -35.8883     0.0000    24.0000 </r>
       <r>   -35.6955     0.0000    24.0000 </r>
       <r>   -35.5027     0.0000    24.0000 </r>
       <r>   -35.3099     0.0000    24.0000 </r>
       <r>   -35.1171     0.0000    24.0000 </r>
       <r>   -34.9243     0.0000    24.0000 </r>
       <r>   -34.7315     0.0000    24.0000 </r>
       <r>   -34.5387     0.0000    24.0000 </r>
       <r>   -34.3459     0.0000    24.0000 </r>
       <r>   -34.1531     0.0000    24.0000 </r>
       <r>   -33.9603     0.0000    24.0000 </r>
       <r>   -33.7675     0.0000    24.0000 </r>
       <r>   -33.5747     0.0000    24.0000 </r>
       <r>   -33.3819     0.0000    24.0000 </r>
       <r>   -33.1891     0.0000    24.0000 </r>
       <r>   -32.9963     0.0000    24.0000 </r>
       <r>   -32.8035     0.0000    24.0000 </r>
       <r>   -32.6107     0.0000    24.0000 </r>
       <r>   -32.4180     0.0000    24.0000 </r>
       <r>   -32.2252     0.0000    24.0000 </r>
       <r>   -32.0324     0.0000    24.0000 </r>
       <r>   -31.8396     0.0000    24.0000 </r>
       <r>   -31.6468     0.0000    24.0000 </r>
       <r>   -31.4540     0.0000    24.0000 </r>
       <r>   -31.2612     0.0000    24.0000 </r>
       <r>   -31.0684     0.0000    24.0000 </r>
       <r>   -30.8756     0.0000    24.0000 </r>
       <r>   -30.6828     0.0000    24.0000 </r>
       <r>   -30.4900     0.0000    24.0000 </r>
       <r>   -30.2972     0.0000    24.0000 </r>
       <r>   -30.1044     0.0000    24.0000 </r>
       <r>   -29.9116     0.0000    24.0000 </r>
       <r>   -29.7188     0.0000    24.0000 </r>
       <r>   -29.5260     0.0000    24.0000 </r>
       <r>   -29.3332     0.0000    24.0000 </r>
       <r>   -29.1404     0.0000    24.0000 </r>
       <r>   -28.9476     0.0000    24.0000 </r>
       <r>   -28.7548     0.0000    24.0000 </r>
       <r>   -28.5620     0.0000    24.0000 </r>
       <r>   -28.3692     0.0000    24.0000 </r>
       <r>   -28.1764     0.0000    24.0000 </r>
       <r>   -27.9836     0.0000    24.0000 </r>
       <r>   -27.7908     0.0000    24.0000 </r>
       <r>   -27.5980     0.0000    24.0000 </r>
       <r>   -27.4052     0.0000    24.0000 </r>
       <r>   -27.2124     0.0000    24.0000 </r>
       <r>   -27.0196     0.0000    24.0000 </r>
       <r>   -26.8268     0.0000    24.0000 </r>
       <r>   -26.6340     0.0000    24.0000 </r>
       <r>   -26.4412     0.0000    24.0000 </r>
       <r>   -26.2484     0.0000    24.0000 </r>
       <r>   -26.0556     0.0000    24.0000 </r>
       <r>   -25.8628     0.0000    24.0000 </r>
       <r>   -25.6700     0.0000    24.0000 </r>
       <r>   -25.4772     0.0000    24.0000 </r>
       <r>   -25.2844     0.0000    24.0000 </r>
       <r>   -25.0916     0.0000    24.0000 </r>
       <r>   -24.8988     0.0000    24.0000 </r>
       <r>   -24.7060     0.0000    24.0000 </r>
       <r>   -24.5132     0.0000    24.0000 </r>
       <r>   -24.3204     0.0000    24.0000 </r>
       <r>   -24.1276     0.0000    24.0000 </r>
       <r>   -23.9348     0.0000    24.0000 </r>
       <r>   -23.7420     0.0000    24.0000 </r>
       <r>   -23.5492     0.0000    24.0000 </r>
       <r>   -23.3564     0.0000    24.0000 </r>
       <r>   -23.1636     0.0000    24.0000 </r>
       <r>   -22.9708     0.0000    24.0000 </r>
       <r>   -22.7780     0.0000    24.0000 </r>
       <r>   -22.5852     0.0000    24.0000 </r>
       <r>   -22.3924     0.0000    24.0000 </r>
       <r>   -22.1996     0.0000    24.0000 </r>
       <r>   -22.0068     0.0000    24.0000 </r>
       <r>   -21.8140     0.0000    24.0000 </r>
       <r>   -21.6212     0.0000    24.0000 </r>
       <r>   -21.4284     0.0000    24.0000 </r>
       <r>   -21.2356     0.0000    24.0000 </r>
       <r>   -21.0428     0.0000    24.0000 </r>
       <r>   -20.8500     0.0000    24.0000 </r>
       <r>   -20.6572     0.0000    24.0000 </r>
       <r>   -20.4644     0.0000    24.0000 </r>
       <r>   -20.2717     0.0000    24.0000 </r>
       <r>   -20.0789     0.0000    24.0000 </r>
       <r>   -19.8861     0.0000    24.0000 </r>
       <r>   -19.6933     0.0000    24.0000 </r>
       <r>   -19.5005     0.0000    24.0000 </r>
       <r>   -19.3077     0.0000    24.0000 </r>
       <r>   -19.1149     0.0000    24.0000 </r>
       <r>   -18.9221     0.0000    24.0000 </r>
       <r>   -18.7293     0.0000    38.0000 </r>
       <r>   -18.5365     0.0000   108.0000 </r>
       <r>   -18.3437     0.0000   172.0000 </r>
       <r>   -18.1509     0.0000   180.0000 </r>
       <r>   -17.9581     0.0000   184.0000 </r>
       <r>   -17.7653     0.0000   184.0000 </r>
       <r>   -17.5725     0.0000   184.0000 </r>
       <r>   -17.3797     0.0000   184.0000 </r>
       <r>   -17.1869     0.0000   184.0000 </r>
       <r>   -16.9941     0.0000   184.0000 </r>
       <r>   -16.8013     0.0000   184.0000 </r>
       <r>   -16.6085     0.0000   184.0000 </r>
       <r>   -16.4157     0.0000   184.0000 </r>
       <r>   -16.2229     0.0000   184.0000 </r>
       <r>   -16.0301     0.0000   184.0000 </r>
       <r>   -15.8373     0.0000   184.0000 </r>
       <r>   -15.6445     0.0000   184.0000 </r>
       <r>   -15.4517     0.0000   184.0000 </r>
       <r>   -15.2589     0.0000   184.0000 </r>
       <r>   -15.0661     0.0000   184.0000 </r>
       <r>   -14.8733     0.0000   184.0000 </r>
       <r>   -14.6805     0.0000   184.0000 </r>
       <r>   -14.4877     0.0000   184.0000 </r>
       <r>   -14.2949     0.0000   184.0000 </r>
       <r>   -14.1021     0.0000   184.0000 </r>
       <r>   -13.9093     0.0000   184.0000 </r>
       <r>   -13.7165     0.0000   184.0000 </r>
       <r>   -13.5237     0.0000   186.0000 </r>
       <r>   -13.3309     0.0000   188.0000 </r>
       <r>   -13.1381     0.0000   188.0000 </r>
       <r>   -12.9453     0.0000   188.0000 </r>
       <r>   -12.7525    63.2452   192.5348 </r>
       <r>   -12.5597     0.0000   210.0000 </r>
       <r>   -12.3669     0.0000   212.0000 </r>
       <r>   -12.1741     0.0000   212.0000 </r>
       <r>   -11.9813     0.0000   212.0000 </r>
       <r>   -11.7885     0.0000   216.0000 </r>
       <r>   -11.5957     0.0000   216.0000 </r>
       <r>   -11.4029     0.0000   216.0000 </r>
       <r>   -11.2101     0.0000   216.0000 </r>
       <r>   -11.0173     0.0000   216.0000 </r>
       <r>   -10.8245     0.0000   216.0000 </r>
       <r>   -10.6317     0.0000   216.0000 </r>
       <r>   -10.4389     0.0000   216.0000 </r>
       <r>   -10.2461     0.0000   216.0000 </r>
       <r>   -10.0533     0.0000   216.0000 </r>
       <r>    -9.8605     0.0000   216.0000 </r>
       <r>    -9.6677     0.0000   216.0000 </r>
       <r>    -9.4749     0.0000   216.0000 </r>
       <r>    -9.2821     0.6787   216.0033 </r>
       <r>    -9.0893    10.5538   217.4072 </r>
       <r>    -8.8965     0.0000   220.0000 </r>
       <r>    -8.7037    14.3917   222.4999 </r>
       <r>    -8.5109    14.1459   224.9781 </r>
       <r>    -8.3181    23.0895   229.8320 </r>
       <r>    -8.1254    20.2708   233.2130 </r>
       <r>    -7.9326    22.6029   238.1186 </r>
       <r>    -7.7398    15.8036   241.7171 </r>
       <r>    -7.5470    22.9095   245.2901 </r>
       <r>    -7.3542     3.1065   247.9575 </r>
       <r>    -7.1614     0.0000   248.0000 </r>
       <r>    -6.9686     0.0000   248.0000 </r>
       <r>    -6.7758     0.0000   248.0000 </r>
       <r>    -6.5830     0.0000   248.0000 </r>
       <r>    -6.3902     0.0000   248.0000 </r>
       <r>    -6.1974    12.7090   248.8097 </r>
       <r>    -6.0046    29.3754   253.0509 </r>
       <r>    -5.8118    17.2445   256.8237 </r>
       <r>    -5.6190    20.5923   261.7254 </r>
       <r>    -5.4262    22.1013   265.8575 </r>
       <r>    -5.2334    17.0243   269.7302 </r>
       <r>    -5.0406     4.9492   271.8228 </r>
       <r>    -4.8478     7.3110   272.7618 </r>
       <r>    -4.6550     8.4794   274.2594 </r>
       <r>    -4.4622     9.1495   276.1258 </r>
       <r>    -4.2694     6.6085   277.4717 </r>
       <r>    -4.0766     6.1213   278.8139 </r>
       <r>    -3.8838     2.7494   279.6682 </r>
       <r>    -3.6910     0.7213   279.9579 </r>
       <r>    -3.4982     0.0000   280.0000 </r>
       <r>    -3.3054     0.0000   280.0000 </r>
       <r>    -3.1126     0.0000   280.0000 </r>
       <r>    -2.9198     0.0000   280.0000 </r>
       <r>    -2.7270     0.0000   280.0000 </r>
       <r>    -2.5342     0.0000   280.0000 </r>
       <r>    -2.3414     0.0000   280.0000 </r>
       <r>    -2.1486     0.0000   280.0000 </r>
       <r>    -1.9558     0.0000   280.0000 </r>
       <r>    -1.7630     0.0000   280.0000 </r>
       <r>    -1.5702     0.0000   280.0000 </r>
       <r>    -1.3774     0.0000   280.0000 </r>
       <r>    -1.1846     7.2133   280.4821 </r>
       <r>    -0.9918    10.6598   282.1870 </r>
       <r>    -0.7990    12.3752   284.6560 </r>
       <r>    -0.6062     7.5008   286.5422 </r>
       <r>    -0.4134    11.5324   287.8384 </r>
       <r>    -0.2206    23.0807   291.4838 </r>
       <r>    -0.0278    40.0606   297.1158 </r>
       <r>     0.1650    31.3998   304.6498 </r>
       <r>     0.3578    48.6402   310.8290 </r>
       <r>     0.5506    36.2392   318.5831 </r>
       <r>     0.7434    36.5933   325.9121 </r>
       <r>     0.9362    35.8398   332.1871 </r>
       <r>     1.1290    56.8499   340.5279 </r>
       <r>     1.3218    37.3215   349.4327 </r>
       <r>     1.5146    57.9456   358.2567 </r>
       <r>     1.7074    46.8734   368.1033 </r>
       <r>     1.9002    56.3600   379.4936 </r>
       <r>     2.0930    54.0173   387.1715 </r>
       <r>     2.2858    35.3291   395.5204 </r>
       <r>     2.4786    60.8576   404.4822 </r>
       <r>     2.6714    57.5700   417.0362 </r>
       <r>     2.8642    58.8293   429.6521 </r>
       <r>     3.0570    71.4277   442.4320 </r>
       <r>     3.2498    32.6155   452.5898 </r>
       <r>     3.4426    36.5547   459.0202 </r>
       <r>     3.6354    14.1592   465.8715 </r>
       <r>     3.8281    13.1140   469.1200 </r>
       <r>     4.0209     7.3464   471.0926 </r>
       <r>     4.2137     1.5695   471.9522 </r>
       <r>     4.4065     0.0000   472.0000 </r>
       <r>     4.5993     0.0000   472.0000 </r>
       <r>     4.7921     0.0000   472.0000 </r>
       <r>     4.9849     0.0000   472.0000 </r>
       <r>     5.1777     0.2574   472.0041 </r>
       <r>     5.3705     4.2604   472.4231 </r>
       <r>     5.5633     8.4732   473.6505 </r>
       <r>     5.7561     8.3439   475.4212 </r>
       <r>     5.9489    15.4110   479.6565 </r>
       <r>     6.1417    11.9552   482.2035 </r>
       <r>     6.3345    11.8676   484.4376 </r>
       <r>     6.5273    13.6351   486.8964 </r>
       <r>     6.7201    15.3794   489.6937 </r>
       <r>     6.9129    17.2164   492.8313 </r>
       <r>     7.1057    21.4242   496.4540 </r>
       <r>     7.2985    34.6100   501.7488 </r>
       <r>     7.4913    44.2140   509.9149 </r>
       <r>     7.6841    27.4625   515.2233 </r>
       <r>     7.8769    45.3370   523.0052 </r>
       <r>     8.0697    35.7357   531.7193 </r>
       <r>     8.2625    20.0756   536.6431 </r>
       <r>     8.4553    19.1410   540.2722 </r>
       <r>     8.6481    26.6732   544.5885 </r>
       <r>     8.8409    41.8910   550.1477 </r>
       <r>     9.0337    32.9781   558.5854 </r>
       <r>     9.2265    14.9853   562.9549 </r>
       <r>     9.4193    11.3341   565.5156 </r>
       <r>     9.6121    15.8219   568.0662 </r>
       <r>     9.8049     8.8589   570.5786 </r>
       <r>     9.9977     7.8863   572.2565 </r>
       <r>    10.1905    13.9411   574.1276 </r>
       <r>    10.3833    20.1771   577.8709 </r>
       <r>    10.5761    31.2495   583.0237 </r>
       <r>    10.7689    53.9777   590.3925 </r>
       <r>    10.9617    15.0708   596.6000 </r>
       <r>    11.1545    23.2595   600.8629 </r>
       <r>    11.3473    25.5180   605.1761 </r>
       <r>    11.5401    19.9734   609.6574 </r>
       <r>    11.7329    14.1267   612.9358 </r>
       <r>    11.9257     7.0987   614.9517 </r>
       <r>    12.1185     2.2840   615.8165 </r>
       <r>    12.3113     0.1222   615.9971 </r>
       <r>    12.5041     0.0000   616.0000 </r>
       <r>    12.6969     0.0000   616.0000 </r>
       <r>    12.8897     0.0000   616.0000 </r>
       <r>    13.0825     0.0000   616.0000 </r>
       <r>    13.2753     0.0000   616.0000 </r>
       <r>    13.4681     0.0000   616.0000 </r>
       <r>    13.6609     0.0000   616.0000 </r>
       <r>    13.8537     0.0000   616.0000 </r>
       <r>    14.0465     0.0000   616.0000 </r>
       <r>    14.2393     0.0000   616.0000 </r>
       <r>    14.4321     0.0000   616.0000 </r>
       <r>    14.6249     0.0000   616.0000 </r>
       <r>    14.8177     0.0000   616.0000 </r>
       <r>    15.0105     0.0000   616.0000 </r>
      </set>
     </set>
    </array>
   </total>
  </dos>
 </calculation>
 <structure name="finalpos" >
  <crystal>
   <varray name="basis" >
    <v>      11.17850000       0.00000000       0.00000000 </v>
    <v>       0.00000000       9.57460000       0.00000000 </v>
    <v>       0.00000000       0.00000000      11.18240000 </v>
   </varray>
   <i name="volume">   1196.84853820 </i>
   <varray name="rec_basis" >
    <v>       0.08945744       0.00000000       0.00000000 </v>
    <v>       0.00000000       0.10444301       0.00000000 </v>
    <v>       0.00000000       0.00000000       0.08942624 </v>
   </varray>
  </crystal>
  <varray name="positions" >
   <v>       0.37539000       0.00017000       0.43687000 </v>
   <v>       0.12461000       0.99984000       0.18687000 </v>
   <v>       0.37461000       0.00017000       0.18687000 </v>
   <v>       0.62539000       0.99984000       0.43687000 </v>
   <v>       0.87539000       0.00017000       0.43687000 </v>
   <v>       0.62461000       0.99984000       0.18687000 </v>
   <v>       0.37539000       0.00017000       0.93687000 </v>
   <v>       0.37461000       0.00017000       0.68687000 </v>
   <v>       0.62539000       0.99984000       0.93687000 </v>
   <v>       0.87539000       0.00017000       0.93687000 </v>
   <v>       0.62461000       0.99984000       0.68687000 </v>
   <v>       0.87461000       0.00017000       0.68687000 </v>
   <v>       0.87461000       0.00017000       0.18687000 </v>
   <v>       0.12461000       0.99984000       0.68687000 </v>
   <v>       0.00013000       0.29519000       0.06281000 </v>
   <v>       0.25013000       0.70481000       0.06281000 </v>
   <v>       0.24987000       0.29519000       0.31282000 </v>
   <v>       0.49987000       0.70481000       0.31282000 </v>
   <v>       0.50013000       0.29519000       0.06281000 </v>
   <v>       0.75013000       0.70481000       0.06281000 </v>
   <v>       0.74987000       0.29519000       0.31282000 </v>
   <v>       0.99987000       0.70481000       0.31282000 </v>
   <v>       0.00013000       0.29519000       0.56281000 </v>
   <v>       0.25013000       0.70481000       0.56281000 </v>
   <v>       0.24987000       0.29519000       0.81282000 </v>
   <v>       0.49987000       0.70481000       0.81282000 </v>
   <v>       0.50013000       0.29519000       0.56281000 </v>
   <v>       0.75013000       0.70481000       0.56281000 </v>
   <v>       0.74987000       0.29519000       0.81282000 </v>
   <v>       0.99987000       0.70481000       0.81282000 </v>
   <v>       0.25005000       0.32677000       0.06286000 </v>
   <v>       0.00005000       0.67323000       0.06286000 </v>
   <v>       0.49995000       0.32677000       0.31286000 </v>
   <v>       0.24995000       0.67323000       0.31286000 </v>
   <v>       0.75005000       0.32677000       0.06286000 </v>
   <v>       0.50005000       0.67323000       0.06286000 </v>
   <v>       0.99995000       0.32677000       0.31286000 </v>
   <v>       0.74995000       0.67323000       0.31286000 </v>
   <v>       0.25005000       0.32677000       0.56286000 </v>
   <v>       0.00005000       0.67323000       0.56286000 </v>
   <v>       0.49995000       0.32677000       0.81286000 </v>
   <v>       0.24995000       0.67323000       0.81286000 </v>
   <v>       0.75005000       0.32677000       0.56286000 </v>
   <v>       0.50005000       0.67323000       0.56286000 </v>
   <v>       0.99995000       0.32677000       0.81286000 </v>
   <v>       0.74995000       0.67323000       0.81286000 </v>
   <v>       0.49987000       0.07798000       0.06246000 </v>
   <v>       0.24987000       0.92202000       0.06246000 </v>
   <v>       0.25013000       0.07798000       0.31246000 </v>
   <v>       0.00013000       0.92202000       0.31246000 </v>
   <v>       0.99987000       0.07798000       0.06246000 </v>
   <v>       0.74987000       0.92202000       0.06246000 </v>
   <v>       0.75013000       0.07798000       0.31246000 </v>
   <v>       0.50013000       0.92202000       0.31246000 </v>
   <v>       0.49987000       0.07798000       0.56246000 </v>
   <v>       0.24987000       0.92202000       0.56246000 </v>
   <v>       0.25013000       0.07798000       0.81246000 </v>
   <v>       0.00013000       0.92202000       0.81246000 </v>
   <v>       0.99987000       0.07798000       0.56246000 </v>
   <v>       0.74987000       0.92202000       0.56246000 </v>
   <v>       0.75013000       0.07798000       0.81246000 </v>
   <v>       0.50013000       0.92202000       0.81246000 </v>
  </varray>
 </structure>
</modeling>
