<?xml version="1.0" encoding="ISO-8859-1"?>
<modeling>
 <generator>
  <i name="program" type="string">vasp </i>
  <i name="version" type="string">5.3.3  </i>
  <i name="subversion" type="string">18Dez12 (build Nov 19 2020 19:34:37) complex                          parallel </i>
  <i name="platform" type="string">LinuxIFC </i>
  <i name="date" type="string">2021 10 01 </i>
  <i name="time" type="string">16:44:39 </i>
 </generator>
 <incar>
  <i type="string" name="SYSTEM"> La2O2S</i>
  <i type="string" name="PREC">normal</i>
  <i type="int" name="NELMIN">     4</i>
  <i type="int" name="IBRION">     2</i>
  <i type="int" name="NFREE">    10</i>
  <i name="EDIFF">      0.00000100</i>
  <i name="EDIFFG">     -0.01000000</i>
  <i type="int" name="NSW">    10</i>
  <i type="int" name="ISIF">     2</i>
  <i name="ENCUT">    600.00000000</i>
  <i name="ENAUG">    900.00000000</i>
  <i type="int" name="ISMEAR">    -5</i>
  <i type="logical" name="LWAVE"> F  </i>
  <i type="logical" name="LCHARG"> F  </i>
 </incar>
 <kpoints>
  <generation param="Gamma">
   <v type="int" name="divisions">       2        2        2 </v>
   <v name="usershift">      0.00000000       0.00000000       0.00000000 </v>
   <v name="genvec1">      0.50000000       0.00000000       0.00000000 </v>
   <v name="genvec2">      0.00000000       0.50000000       0.00000000 </v>
   <v name="genvec3">      0.00000000       0.00000000       0.50000000 </v>
   <v name="shift">      0.00000000       0.00000000       0.00000000 </v>
  </generation>
  <varray name="kpointlist" >
   <v>       0.00000000       0.00000000       0.00000000 </v>
   <v>       0.50000000       0.00000000       0.00000000 </v>
   <v>       0.00000000       0.50000000       0.00000000 </v>
   <v>       0.50000000       0.50000000       0.00000000 </v>
   <v>       0.00000000       0.00000000       0.50000000 </v>
   <v>       0.50000000       0.00000000       0.50000000 </v>
   <v>       0.00000000       0.50000000       0.50000000 </v>
   <v>       0.50000000       0.50000000       0.50000000 </v>
  </varray>
  <varray name="weights" >
   <v>       0.12500000 </v>
   <v>       0.12500000 </v>
   <v>       0.12500000 </v>
   <v>       0.12500000 </v>
   <v>       0.12500000 </v>
   <v>       0.12500000 </v>
   <v>       0.12500000 </v>
   <v>       0.12500000 </v>
  </varray>
  <varray name="tetrahedronlist"  type="int" >
   <v type="int" >        2        1        2        4        5 </v>
   <v type="int" >        2        1        3        4        5 </v>
   <v type="int" >        2        3        4        5        7 </v>
   <v type="int" >        2        2        4        5        6 </v>
   <v type="int" >        2        4        5        6        8 </v>
   <v type="int" >        2        4        5        7        8 </v>
   <v type="int" >        2        1        2        3        6 </v>
   <v type="int" >        2        2        3        4        6 </v>
   <v type="int" >        2        3        4        6        8 </v>
   <v type="int" >        2        1        3        5        6 </v>
   <v type="int" >        2        3        5        6        7 </v>
   <v type="int" >        2        3        6        7        8 </v>
   <v type="int" >        2        2        3        4        7 </v>
   <v type="int" >        2        1        2        3        7 </v>
   <v type="int" >        2        1        2        5        7 </v>
   <v type="int" >        2        2        4        7        8 </v>
   <v type="int" >        2        2        6        7        8 </v>
   <v type="int" >        2        2        5        6        7 </v>
   <v type="int" >        2        1        3        4        8 </v>
   <v type="int" >        2        1        2        4        8 </v>
   <v type="int" >        2        1        2        6        8 </v>
   <v type="int" >        2        1        3        7        8 </v>
   <v type="int" >        2        1        5        7        8 </v>
   <v type="int" >        2        1        5        6        8 </v>
  </varray>
  <i name="volumeweight">      0.02083333 </i>
 </kpoints>
 <parameters>
  <separator name="general" >
   <i type="string" name="SYSTEM">La2O2S</i>
   <i type="logical" name="LCOMPAT"> F  </i>
  </separator>
  <separator name="electronic" >
   <i type="string" name="PREC">normal</i>
   <i name="ENMAX">    600.00000000</i>
   <i name="ENAUG">    900.00000000</i>
   <i name="EDIFF">      0.00000100</i>
   <i type="int" name="IALGO">    38</i>
   <i type="int" name="IWAVPR">    11</i>
   <i type="int" name="NBANDS">   280</i>
   <i name="NELECT">    468.00000000</i>
   <i type="int" name="TURBO">     0</i>
   <i type="int" name="IRESTART">     0</i>
   <i type="int" name="NREBOOT">     0</i>
   <i type="int" name="NMIN">     0</i>
   <i name="EREF">      0.00000000</i>
   <separator name="electronic smearing" >
    <i type="int" name="ISMEAR">    -5</i>
    <i name="SIGMA">      0.20000000</i>
    <i name="KSPACING">      0.50000000</i>
    <i type="logical" name="KGAMMA"> T  </i>
   </separator>
   <separator name="electronic projectors" >
    <i type="logical" name="LREAL"> F  </i>
    <v name="ROPT">      0.00000000      0.00000000      0.00000000      0.00000000      0.00000000</v>
    <i type="int" name="LMAXPAW">  -100</i>
    <i type="int" name="LMAXMIX">     2</i>
    <i type="logical" name="NLSPLINE"> F  </i>
   </separator>
   <separator name="electronic startup" >
    <i type="int" name="ISTART">     0</i>
    <i type="int" name="ICHARG">     2</i>
    <i type="int" name="INIWAV">     1</i>
   </separator>
   <separator name="electronic spin" >
    <i type="int" name="ISPIN">     1</i>
    <i type="logical" name="LNONCOLLINEAR"> F  </i>
    <v name="MAGMOM">      1.00000000      1.00000000      1.00000000      1.00000000      1.00000000      1.00000000      1.00000000      1.00000000      1.00000000      1.00000000      1.00000000      1.00000000      1.00000000      1.00000000      1.00000000      1.00000000      1.00000000      1.00000000      1.00000000      1.00000000
      1.00000000      1.00000000      1.00000000      1.00000000      1.00000000      1.00000000      1.00000000      1.00000000      1.00000000      1.00000000      1.00000000      1.00000000      1.00000000      1.00000000      1.00000000      1.00000000      1.00000000      1.00000000      1.00000000      1.00000000
      1.00000000      1.00000000      1.00000000      1.00000000      1.00000000      1.00000000      1.00000000      1.00000000      1.00000000      1.00000000      1.00000000      1.00000000      1.00000000      1.00000000      1.00000000      1.00000000      1.00000000      1.00000000      1.00000000      1.00000000
      1.00000000</v>
    <i name="NUPDOWN">     -1.00000000</i>
    <i type="logical" name="LSORBIT"> F  </i>
    <v name="SAXIS">      0.00000000      0.00000000      1.00000000</v>
    <i type="logical" name="LSPIRAL"> F  </i>
    <v name="QSPIRAL">      0.00000000      0.00000000      0.00000000</v>
    <i type="logical" name="LZEROZ"> F  </i>
   </separator>
   <separator name="electronic exchange-correlation" >
    <i type="logical" name="LASPH"> F  </i>
    <i type="logical" name="LMETAGGA"> F  </i>
   </separator>
   <separator name="electronic convergence" >
    <i type="int" name="NELM">    60</i>
    <i type="int" name="NELMDL">    -5</i>
    <i type="int" name="NELMIN">     4</i>
    <i name="ENINI">    600.00000000</i>
    <separator name="electronic convergence detail" >
     <i type="logical" name="LDIAG"> T  </i>
     <i type="logical" name="LSUBROT"> T  </i>
     <i name="WEIMIN">      0.00100000</i>
     <i name="EBREAK">      0.00000000</i>
     <i name="DEPER">      0.30000000</i>
     <i type="int" name="NRMM">     4</i>
     <i name="TIME">      0.40000000</i>
    </separator>
   </separator>
   <separator name="electronic mixer" >
    <i name="AMIX">      0.40000000</i>
    <i name="BMIX">      1.00000000</i>
    <i name="AMIN">      0.10000000</i>
    <i name="AMIX_MAG">      1.60000000</i>
    <i name="BMIX_MAG">      1.00000000</i>
    <separator name="electronic mixer details" >
     <i type="int" name="IMIX">     4</i>
     <i type="int" name="MAXMIX">   -45</i>
     <i name="WC">    100.00000000</i>
     <i type="int" name="INIMIX">     1</i>
     <i type="int" name="MIXPRE">     1</i>
     <i type="int" name="MREMOVE">     5</i>
    </separator>
   </separator>
   <separator name="electronic dipolcorrection" >
    <i type="logical" name="LDIPOL"> F  </i>
    <i type="logical" name="LMONO"> F  </i>
    <i type="int" name="IDIPOL">     0</i>
    <i name="EPSILON">      1.00000000</i>
    <v name="DIPOL">   -100.00000000   -100.00000000   -100.00000000</v>
    <i name="EFIELD">      0.00000000</i>
   </separator>
  </separator>
  <separator name="grids" >
   <i type="int" name="NGX">    70</i>
   <i type="int" name="NGY">    60</i>
   <i type="int" name="NGZ">    70</i>
   <i type="int" name="NGXF">   140</i>
   <i type="int" name="NGYF">   120</i>
   <i type="int" name="NGZF">   140</i>
   <i type="logical" name="ADDGRID"> F  </i>
  </separator>
  <separator name="ionic" >
   <i type="int" name="NSW">    10</i>
   <i type="int" name="IBRION">     2</i>
   <i type="int" name="ISIF">     2</i>
   <i name="PSTRESS">      0.00000000</i>
   <i name="EDIFFG">     -0.01000000</i>
   <i type="int" name="NFREE">    10</i>
   <i name="POTIM">      0.50000000</i>
   <i name="SMASS">     -3.00000000</i>
   <i name="SCALEE">      1.00000000</i>
  </separator>
  <separator name="ionic md" >
   <i name="TEBEG">      0.00010000</i>
   <i name="TEEND">      0.00010000</i>
   <i type="int" name="NBLOCK">     1</i>
   <i type="int" name="KBLOCK">    10</i>
   <i type="int" name="NPACO">   256</i>
   <i name="APACO">     16.00000000</i>
  </separator>
  <separator name="symmetry" >
   <i type="int" name="ISYM">     2</i>
   <i name="SYMPREC">      0.00001000</i>
  </separator>
  <separator name="dos" >
   <i type="logical" name="LORBIT"> F  </i>
   <v name="RWIGS">     -1.00000000     -1.00000000     -1.00000000     -1.00000000     -1.00000000</v>
   <i type="int" name="NEDOS">   301</i>
   <i name="EMIN">     10.00000000</i>
   <i name="EMAX">    -10.00000000</i>
   <i name="EFERMI">      0.00000000</i>
  </separator>
  <separator name="writing" >
   <i type="int" name="NWRITE">     2</i>
   <i type="logical" name="LWAVE"> F  </i>
   <i type="logical" name="LCHARG"> F  </i>
   <i type="logical" name="LPARD"> F  </i>
   <i type="logical" name="LVTOT"> F  </i>
   <i type="logical" name="LVHAR"> F  </i>
   <i type="logical" name="LELF"> F  </i>
   <i type="logical" name="LOPTICS"> F  </i>
   <v name="STM">      0.00000000      0.00000000      0.00000000      0.00000000      0.00000000      0.00000000      0.00000000</v>
  </separator>
  <separator name="performance" >
   <i type="int" name="NPAR">    40</i>
   <i type="int" name="NSIM">     4</i>
   <i type="int" name="NBLK">    -1</i>
   <i type="logical" name="LPLANE"> T  </i>
   <i type="logical" name="LSCALAPACK"> F  </i>
   <i type="logical" name="LSCAAWARE"> F  </i>
   <i type="logical" name="LSCALU"> F  </i>
   <i type="logical" name="LASYNC"> F  </i>
   <i type="logical" name="LORBITALREAL"> F  </i>
  </separator>
  <separator name="miscellaneous" >
   <i type="int" name="IDIOT">     3</i>
   <i type="logical" name="LMUSIC"> F  </i>
   <v name="POMASS">      7.01000000     24.30500000    208.98000000     32.06600000     16.00000000</v>
   <v name="DARWINR">      0.00000000      0.00000000      0.00000000      0.00000000      0.00000000</v>
   <v name="DARWINV">      1.00000000      1.00000000      1.00000000      1.00000000      1.00000000</v>
   <i type="logical" name="LCORR"> T  </i>
  </separator>
  <i type="logical" name="GGA_COMPAT"> T  </i>
  <i type="logical" name="LBERRY"> F  </i>
  <i type="int" name="ICORELEVEL">     0</i>
  <i type="logical" name="LDAU"> F  </i>
  <i type="int" name="I_CONSTRAINED_M">     0</i>
  <separator name="electronic exchange-correlation" >
   <i type="string" name="GGA">--</i>
   <i type="int" name="VOSKOWN">     0</i>
   <i type="logical" name="LHFCALC"> F  </i>
   <i type="string" name="PRECFOCK"></i>
   <i type="logical" name="LSYMGRAD"> F  </i>
   <i type="logical" name="LHFONE"> F  </i>
   <i type="logical" name="LRHFCALC"> F  </i>
   <i type="logical" name="LTHOMAS"> F  </i>
   <i type="logical" name="LMODELHF"> F  </i>
   <i name="ENCUT4O">     -1.00000000</i>
   <i type="int" name="EXXOEP">     0</i>
   <i type="int" name="FOURORBIT">     0</i>
   <i name="AEXX">      0.00000000</i>
   <i name="HFALPHA">      0.00000000</i>
   <i name="MCALPHA">      0.00000000</i>
   <i name="ALDAX">      1.00000000</i>
   <i name="AGGAX">      1.00000000</i>
   <i name="ALDAC">      1.00000000</i>
   <i name="AGGAC">      1.00000000</i>
   <i type="int" name="NKREDX">     1</i>
   <i type="int" name="NKREDY">     1</i>
   <i type="int" name="NKREDZ">     1</i>
   <i type="logical" name="SHIFTRED"> F  </i>
   <i type="logical" name="ODDONLY"> F  </i>
   <i type="logical" name="EVENONLY"> F  </i>
   <i type="int" name="LMAXFOCK">     0</i>
   <i type="int" name="NMAXFOCKAE">     0</i>
   <i type="logical" name="LFOCKAEDFT"> F  </i>
   <i name="HFSCREEN">      0.00000000</i>
   <i name="HFSCREENC">      0.00000000</i>
   <i type="int" name="NBANDSGWLOW">     0</i>
  </separator>
  <separator name="vdW DFT" >
   <i type="logical" name="LUSE_VDW"> F  </i>
   <i name="Zab_VDW">     -0.84910000</i>
   <i name="PARAM1">      0.12340000</i>
   <i name="PARAM2">      1.00000000</i>
   <i name="PARAM3">      0.00000000</i>
  </separator>
  <separator name="model GW" >
   <i type="int" name="MODEL_GW">     0</i>
   <i name="MODEL_EPS0">     11.77228070</i>
   <i name="MODEL_ALPHA">      1.00000000</i>
  </separator>
  <separator name="linear response parameters" >
   <i type="logical" name="LEPSILON"> F  </i>
   <i type="logical" name="LRPA"> F  </i>
   <i type="logical" name="LNABLA"> F  </i>
   <i type="logical" name="LVEL"> F  </i>
   <i type="int" name="KINTER">     0</i>
   <i name="CSHIFT">      0.10000000</i>
   <i name="OMEGAMAX">     -1.00000000</i>
   <i name="DEG_THRESHOLD">      0.00200000</i>
  </separator>
  <separator name="orbital magnetization" >
   <i type="logical" name="NUCIND"> F  </i>
   <v name="MAGPOS">      0.00000000      0.00000000      0.00000000</v>
   <i type="logical" name="LNICSALL"> T  </i>
   <i type="logical" name="ORBITALMAG"> F  </i>
   <i type="logical" name="LMAGBLOCH"> F  </i>
   <i type="logical" name="LCHIMAG"> F  </i>
   <i type="logical" name="LGAUGE"> T  </i>
   <i type="int" name="MAGATOM">     0</i>
   <v name="MAGDIPOL">      0.00000000      0.00000000      0.00000000</v>
   <v name="AVECCONST">      0.00000000      0.00000000      0.00000000</v>
  </separator>
  <separator name="response functions" >
   <i type="logical" name="LADDER"> F  </i>
   <i type="logical" name="LFXC"> F  </i>
   <i type="logical" name="LHARTREE"> T  </i>
   <i type="int" name="IBSE">     0</i>
   <i type="logical" name="LTCTE"> F  </i>
   <i type="logical" name="LTETE"> F  </i>
   <i type="logical" name="LTRIPLET"> F  </i>
   <i type="logical" name="LFXCEPS"> F  </i>
   <i type="logical" name="L2ORDER"> F  </i>
   <i type="logical" name="LUSEW"> F  </i>
   <i name="ENCUTGW">     -2.00000000</i>
   <i name="ENCUTGWSOFT">     -2.00000000</i>
   <i name="ENCUTLF">     -1.00000000</i>
   <i type="int" name="LMAXMP2">    -1</i>
   <i name="SCISSOR">      0.00000000</i>
   <i type="int" name="NOMEGA">     0</i>
   <i type="int" name="NOMEGAR">     0</i>
   <i type="int" name="NBANDSGW">    -1</i>
   <i type="int" name="NBANDSO">    -1</i>
   <i type="int" name="NBANDSV">    -1</i>
   <i type="int" name="NELM">     1</i>
   <i type="int" name="DIM">     3</i>
   <i type="int" name="ANTIRES">     0</i>
   <i name="OMEGAMAX">    -30.00000000</i>
   <i name="OMEGATL">   -200.00000000</i>
   <i type="int" name="OMEGAGRID">     0</i>
   <i name="CSHIFT">     -0.10000000</i>
   <i type="logical" name="SELFENERGY"> F  </i>
   <i type="logical" name="LSPECTRAL"> F  </i>
   <i type="logical" name="ODDONLYGW"> F  </i>
   <i type="logical" name="EVENONLYGW"> F  </i>
   <i type="int" name="NKREDLFX">     1</i>
   <i type="int" name="NKREDLFY">     1</i>
   <i type="int" name="NKREDLFZ">     1</i>
   <i type="int" name="MAXMEM">  1800</i>
   <i type="int" name="TELESCOPE">     0</i>
  </separator>
 </parameters>
 <atominfo>
  <atoms>      61 </atoms>
  <types>       5 </types>
  <array name="atoms" >
   <dimension dim="1">ion</dimension>
   <field type="string">element</field>
   <field type="int">atomtype</field>
   <set>
    <rc><c>Li</c><c>   1</c></rc>
    <rc><c>Li</c><c>   1</c></rc>
    <rc><c>Li</c><c>   1</c></rc>
    <rc><c>Li</c><c>   1</c></rc>
    <rc><c>Li</c><c>   1</c></rc>
    <rc><c>Li</c><c>   1</c></rc>
    <rc><c>Li</c><c>   1</c></rc>
    <rc><c>Li</c><c>   1</c></rc>
    <rc><c>Li</c><c>   1</c></rc>
    <rc><c>Li</c><c>   1</c></rc>
    <rc><c>Mg</c><c>   2</c></rc>
    <rc><c>Mg</c><c>   2</c></rc>
    <rc><c>Mg</c><c>   2</c></rc>
    <rc><c>Bi</c><c>   3</c></rc>
    <rc><c>Bi</c><c>   3</c></rc>
    <rc><c>Bi</c><c>   3</c></rc>
    <rc><c>Bi</c><c>   3</c></rc>
    <rc><c>Bi</c><c>   3</c></rc>
    <rc><c>Bi</c><c>   3</c></rc>
    <rc><c>Bi</c><c>   3</c></rc>
    <rc><c>Bi</c><c>   3</c></rc>
    <rc><c>Bi</c><c>   3</c></rc>
    <rc><c>Bi</c><c>   3</c></rc>
    <rc><c>Bi</c><c>   3</c></rc>
    <rc><c>Bi</c><c>   3</c></rc>
    <rc><c>Bi</c><c>   3</c></rc>
    <rc><c>Bi</c><c>   3</c></rc>
    <rc><c>Bi</c><c>   3</c></rc>
    <rc><c>Bi</c><c>   3</c></rc>
    <rc><c>S </c><c>   4</c></rc>
    <rc><c>S </c><c>   4</c></rc>
    <rc><c>S </c><c>   4</c></rc>
    <rc><c>S </c><c>   4</c></rc>
    <rc><c>S </c><c>   4</c></rc>
    <rc><c>S </c><c>   4</c></rc>
    <rc><c>S </c><c>   4</c></rc>
    <rc><c>S </c><c>   4</c></rc>
    <rc><c>S </c><c>   4</c></rc>
    <rc><c>S </c><c>   4</c></rc>
    <rc><c>S </c><c>   4</c></rc>
    <rc><c>S </c><c>   4</c></rc>
    <rc><c>S </c><c>   4</c></rc>
    <rc><c>S </c><c>   4</c></rc>
    <rc><c>S </c><c>   4</c></rc>
    <rc><c>S </c><c>   4</c></rc>
    <rc><c>O </c><c>   5</c></rc>
    <rc><c>O </c><c>   5</c></rc>
    <rc><c>O </c><c>   5</c></rc>
    <rc><c>O </c><c>   5</c></rc>
    <rc><c>O </c><c>   5</c></rc>
    <rc><c>O </c><c>   5</c></rc>
    <rc><c>O </c><c>   5</c></rc>
    <rc><c>O </c><c>   5</c></rc>
    <rc><c>O </c><c>   5</c></rc>
    <rc><c>O </c><c>   5</c></rc>
    <rc><c>O </c><c>   5</c></rc>
    <rc><c>O </c><c>   5</c></rc>
    <rc><c>O </c><c>   5</c></rc>
    <rc><c>O </c><c>   5</c></rc>
    <rc><c>O </c><c>   5</c></rc>
    <rc><c>O </c><c>   5</c></rc>
   </set>
  </array>
  <array name="atomtypes" >
   <dimension dim="1">type</dimension>
   <field type="int">atomspertype</field>
   <field type="string">element</field>
   <field>mass</field>
   <field>valence</field>
   <field type="string">pseudopotential</field>
   <set>
    <rc><c>  10</c><c>Li</c><c>      7.01000000</c><c>      3.00000000</c><c>  PAW_PBE Li_sv 10Sep2004               </c></rc>
    <rc><c>   3</c><c>Mg</c><c>     24.30500000</c><c>      2.00000000</c><c>  PAW_PBE Mg 13Apr2007                  </c></rc>
    <rc><c>  16</c><c>Bi</c><c>    208.98000000</c><c>     15.00000000</c><c>  PAW_PBE Bi_d 06Sep2000                </c></rc>
    <rc><c>  16</c><c>S </c><c>     32.06600000</c><c>      6.00000000</c><c>  PAW_PBE S 06Sep2000                   </c></rc>
    <rc><c>  16</c><c>O </c><c>     16.00000000</c><c>      6.00000000</c><c>  PAW_PBE O 08Apr2002                   </c></rc>
   </set>
  </array>
 </atominfo>
 <structure name="initialpos" >
  <crystal>
   <varray name="basis" >
    <v>      11.17850000       0.00000000       0.00000000 </v>
    <v>       0.00000000       9.57460000       0.00000000 </v>
    <v>       0.00000000       0.00000000      11.18240000 </v>
   </varray>
   <i name="volume">   1196.84853820 </i>
   <varray name="rec_basis" >
    <v>       0.08945744       0.00000000       0.00000000 </v>
    <v>       0.00000000       0.10444301       0.00000000 </v>
    <v>       0.00000000       0.00000000       0.08942624 </v>
   </varray>
  </crystal>
  <varray name="positions" >
   <v>       0.37539000       0.00017000       0.43687000 </v>
   <v>       0.37461000       0.00017000       0.18687000 </v>
   <v>       0.62539000       0.99984000       0.43687000 </v>
   <v>       0.87539000       0.00017000       0.43687000 </v>
   <v>       0.62461000       0.99984000       0.18687000 </v>
   <v>       0.87461000       0.00017000       0.18687000 </v>
   <v>       0.12461000       0.99984000       0.68687000 </v>
   <v>       0.37461000       0.00017000       0.68687000 </v>
   <v>       0.62461000       0.99984000       0.68687000 </v>
   <v>       0.87461000       0.00017000       0.68687000 </v>
   <v>       0.12461000       0.99984000       0.18687000 </v>
   <v>       0.12539000       0.99984000       0.93687000 </v>
   <v>       0.62539000       0.99984000       0.93687000 </v>
   <v>       0.00013000       0.29519000       0.06281000 </v>
   <v>       0.25013000       0.70481000       0.06281000 </v>
   <v>       0.24987000       0.29519000       0.31282000 </v>
   <v>       0.49987000       0.70481000       0.31282000 </v>
   <v>       0.50013000       0.29519000       0.06281000 </v>
   <v>       0.75013000       0.70481000       0.06281000 </v>
   <v>       0.74987000       0.29519000       0.31282000 </v>
   <v>       0.99987000       0.70481000       0.31282000 </v>
   <v>       0.00013000       0.29519000       0.56281000 </v>
   <v>       0.25013000       0.70481000       0.56281000 </v>
   <v>       0.24987000       0.29519000       0.81282000 </v>
   <v>       0.49987000       0.70481000       0.81282000 </v>
   <v>       0.50013000       0.29519000       0.56281000 </v>
   <v>       0.75013000       0.70481000       0.56281000 </v>
   <v>       0.74987000       0.29519000       0.81282000 </v>
   <v>       0.99987000       0.70481000       0.81282000 </v>
   <v>       0.25005000       0.32677000       0.06286000 </v>
   <v>       0.00005000       0.67323000       0.06286000 </v>
   <v>       0.49995000       0.32677000       0.31286000 </v>
   <v>       0.24995000       0.67323000       0.31286000 </v>
   <v>       0.75005000       0.32677000       0.06286000 </v>
   <v>       0.50005000       0.67323000       0.06286000 </v>
   <v>       0.99995000       0.32677000       0.31286000 </v>
   <v>       0.74995000       0.67323000       0.31286000 </v>
   <v>       0.25005000       0.32677000       0.56286000 </v>
   <v>       0.00005000       0.67323000       0.56286000 </v>
   <v>       0.49995000       0.32677000       0.81286000 </v>
   <v>       0.24995000       0.67323000       0.81286000 </v>
   <v>       0.75005000       0.32677000       0.56286000 </v>
   <v>       0.50005000       0.67323000       0.56286000 </v>
   <v>       0.99995000       0.32677000       0.81286000 </v>
   <v>       0.74995000       0.67323000       0.81286000 </v>
   <v>       0.49987000       0.07798000       0.06246000 </v>
   <v>       0.24987000       0.92202000       0.06246000 </v>
   <v>       0.25013000       0.07798000       0.31246000 </v>
   <v>       0.00013000       0.92202000       0.31246000 </v>
   <v>       0.99987000       0.07798000       0.06246000 </v>
   <v>       0.74987000       0.92202000       0.06246000 </v>
   <v>       0.75013000       0.07798000       0.31246000 </v>
   <v>       0.50013000       0.92202000       0.31246000 </v>
   <v>       0.49987000       0.07798000       0.56246000 </v>
   <v>       0.24987000       0.92202000       0.56246000 </v>
   <v>       0.25013000       0.07798000       0.81246000 </v>
   <v>       0.00013000       0.92202000       0.81246000 </v>
   <v>       0.99987000       0.07798000       0.56246000 </v>
   <v>       0.74987000       0.92202000       0.56246000 </v>
   <v>       0.75013000       0.07798000       0.81246000 </v>
   <v>       0.50013000       0.92202000       0.81246000 </v>
  </varray>
 </structure>
 <calculation>
  <scstep>
   <time name="dav">   38.76   39.06</time>
   <time name="total">   38.85   39.16</time>
   <energy>
    <i name="alphaZ">   1073.51873187 </i>
    <i name="ewald"> -30879.79927199 </i>
    <i name="hartreedc"> -12709.34874302 </i>
    <i name="XCdc">   1394.97304330 </i>
    <i name="pawpsdc">  36823.70205594 </i>
    <i name="pawaedc"> -36326.52930246 </i>
    <i name="eentropy">      0.00000000 </i>
    <i name="bandstr">   1605.37183891 </i>
    <i name="atom">  44791.06186932 </i>
    <i name="e_fr_energy">   5772.95022188 </i>
    <i name="e_wo_entrp">   5772.95022188 </i>
    <i name="e_0_energy">   5772.95022188 </i>
   </energy>
  </scstep>
  <scstep>
   <time name="dav">   39.24   39.78</time>
   <time name="total">   39.25   39.84</time>
   <energy>
    <i name="e_fr_energy">    689.99402678 </i>
    <i name="e_wo_entrp">    689.99402678 </i>
    <i name="e_0_energy">    689.99402678 </i>
   </energy>
  </scstep>
  <scstep>
   <time name="dav">   48.51   49.08</time>
   <time name="total">   48.52   49.11</time>
   <energy>
    <i name="e_fr_energy">   -271.48089223 </i>
    <i name="e_wo_entrp">   -271.48089223 </i>
    <i name="e_0_energy">   -271.48089223 </i>
   </energy>
  </scstep>
  <scstep>
   <time name="dav">   49.80   50.73</time>
   <time name="total">   49.81   50.76</time>
   <energy>
    <i name="e_fr_energy">   -348.39305838 </i>
    <i name="e_wo_entrp">   -348.39305838 </i>
    <i name="e_0_energy">   -348.39305838 </i>
   </energy>
  </scstep>
  <scstep>
   <time name="dav">   64.15   64.58</time>
   <time name="total">   64.61   65.10</time>
   <energy>
    <i name="e_fr_energy">   -355.43601131 </i>
    <i name="e_wo_entrp">   -355.43601131 </i>
    <i name="e_0_energy">   -355.43601131 </i>
   </energy>
  </scstep>
  <scstep>
   <time name="dav">   58.23   59.13</time>
   <time name="total">   58.75   59.69</time>
   <energy>
    <i name="e_fr_energy">   -297.18173966 </i>
    <i name="e_wo_entrp">   -297.18173966 </i>
    <i name="e_0_energy">   -297.18173966 </i>
   </energy>
  </scstep>
  <scstep>
   <time name="dav">   44.53   44.74</time>
   <time name="total">   45.04   45.28</time>
   <energy>
    <i name="e_fr_energy">   -299.28830773 </i>
    <i name="e_wo_entrp">   -299.28830773 </i>
    <i name="e_0_energy">   -299.28830773 </i>
   </energy>
  </scstep>
  <scstep>
   <time name="dav">   48.62   48.86</time>
   <time name="total">   49.12   49.37</time>
   <energy>
    <i name="e_fr_energy">   -298.00465043 </i>
    <i name="e_wo_entrp">   -298.00465043 </i>
    <i name="e_0_energy">   -298.00465043 </i>
   </energy>
  </scstep>
  <scstep>
   <time name="dav">   54.80   55.45</time>
   <time name="total">   55.32   55.99</time>
   <energy>
    <i name="e_fr_energy">   -297.40463235 </i>
    <i name="e_wo_entrp">   -297.40463235 </i>
    <i name="e_0_energy">   -297.40463235 </i>
   </energy>
  </scstep>
  <scstep>
   <time name="dav">   49.20   50.09</time>
   <time name="total">   49.70   50.65</time>
   <energy>
    <i name="e_fr_energy">   -297.41709090 </i>
    <i name="e_wo_entrp">   -297.41709090 </i>
    <i name="e_0_energy">   -297.41709090 </i>
   </energy>
  </scstep>
  <scstep>
   <time name="dav">   53.37   53.61</time>
   <time name="total">   53.88   54.22</time>
   <energy>
    <i name="e_fr_energy">   -297.42717642 </i>
    <i name="e_wo_entrp">   -297.42717642 </i>
    <i name="e_0_energy">   -297.42717642 </i>
   </energy>
  </scstep>
  <scstep>
   <time name="dav">   50.77   51.16</time>
   <time name="total">   51.29   51.71</time>
   <energy>
    <i name="e_fr_energy">   -297.43091094 </i>
    <i name="e_wo_entrp">   -297.43091094 </i>
    <i name="e_0_energy">   -297.43091094 </i>
   </energy>
  </scstep>
  <scstep>
   <time name="dav">   58.49   58.90</time>
   <time name="total">   58.99   59.49</time>
   <energy>
    <i name="e_fr_energy">   -297.43192333 </i>
    <i name="e_wo_entrp">   -297.43192333 </i>
    <i name="e_0_energy">   -297.43192333 </i>
   </energy>
  </scstep>
  <scstep>
   <time name="dav">   50.97   51.87</time>
   <time name="total">   51.46   52.38</time>
   <energy>
    <i name="e_fr_energy">   -297.43203082 </i>
    <i name="e_wo_entrp">   -297.43203082 </i>
    <i name="e_0_energy">   -297.43203082 </i>
   </energy>
  </scstep>
  <scstep>
   <time name="dav">   50.01   50.37</time>
   <time name="total">   50.50   50.88</time>
   <energy>
    <i name="e_fr_energy">   -297.43206826 </i>
    <i name="e_wo_entrp">   -297.43206826 </i>
    <i name="e_0_energy">   -297.43206826 </i>
   </energy>
  </scstep>
  <scstep>
   <time name="dav">   47.38   47.67</time>
   <time name="total">   47.87   48.21</time>
   <energy>
    <i name="e_fr_energy">   -297.43208168 </i>
    <i name="e_wo_entrp">   -297.43208168 </i>
    <i name="e_0_energy">   -297.43208168 </i>
   </energy>
  </scstep>
  <scstep>
   <time name="dav">   41.43   41.81</time>
   <time name="total">   41.90   42.33</time>
   <energy>
    <i name="e_fr_energy">   -297.43208306 </i>
    <i name="e_wo_entrp">   -297.43208306 </i>
    <i name="e_0_energy">   -297.43208306 </i>
   </energy>
  </scstep>
  <scstep>
   <time name="dav">   36.58   36.93</time>
   <time name="total">   36.63   37.03</time>
   <energy>
    <i name="alphaZ">   1073.51873187 </i>
    <i name="ewald"> -30879.79927199 </i>
    <i name="hartreedc"> -12947.52956801 </i>
    <i name="XCdc">   1418.52641031 </i>
    <i name="pawpsdc">  43845.14963452 </i>
    <i name="pawaedc"> -43322.59004789 </i>
    <i name="eentropy">      0.00000000 </i>
    <i name="bandstr">  -4275.76984169 </i>
    <i name="atom">  44791.06186932 </i>
    <i name="e_fr_energy">   -297.43208356 </i>
    <i name="e_wo_entrp">   -297.43208356 </i>
    <i name="e_0_energy">   -297.43208356 </i>
   </energy>
  </scstep>
  <structure>
   <crystal>
    <varray name="basis" >
     <v>      11.17850000       0.00000000       0.00000000 </v>
     <v>       0.00000000       9.57460000       0.00000000 </v>
     <v>       0.00000000       0.00000000      11.18240000 </v>
    </varray>
    <i name="volume">   1196.84853820 </i>
    <varray name="rec_basis" >
     <v>       0.08945744       0.00000000       0.00000000 </v>
     <v>       0.00000000       0.10444301       0.00000000 </v>
     <v>       0.00000000       0.00000000       0.08942624 </v>
    </varray>
   </crystal>
   <varray name="positions" >
    <v>       0.37539000       0.00017000       0.43687000 </v>
    <v>       0.37461000       0.00017000       0.18687000 </v>
    <v>       0.62539000       0.99984000       0.43687000 </v>
    <v>       0.87539000       0.00017000       0.43687000 </v>
    <v>       0.62461000       0.99984000       0.18687000 </v>
    <v>       0.87461000       0.00017000       0.18687000 </v>
    <v>       0.12461000       0.99984000       0.68687000 </v>
    <v>       0.37461000       0.00017000       0.68687000 </v>
    <v>       0.62461000       0.99984000       0.68687000 </v>
    <v>       0.87461000       0.00017000       0.68687000 </v>
    <v>       0.12461000       0.99984000       0.18687000 </v>
    <v>       0.12539000       0.99984000       0.93687000 </v>
    <v>       0.62539000       0.99984000       0.93687000 </v>
    <v>       0.00013000       0.29519000       0.06281000 </v>
    <v>       0.25013000       0.70481000       0.06281000 </v>
    <v>       0.24987000       0.29519000       0.31282000 </v>
    <v>       0.49987000       0.70481000       0.31282000 </v>
    <v>       0.50013000       0.29519000       0.06281000 </v>
    <v>       0.75013000       0.70481000       0.06281000 </v>
    <v>       0.74987000       0.29519000       0.31282000 </v>
    <v>       0.99987000       0.70481000       0.31282000 </v>
    <v>       0.00013000       0.29519000       0.56281000 </v>
    <v>       0.25013000       0.70481000       0.56281000 </v>
    <v>       0.24987000       0.29519000       0.81282000 </v>
    <v>       0.49987000       0.70481000       0.81282000 </v>
    <v>       0.50013000       0.29519000       0.56281000 </v>
    <v>       0.75013000       0.70481000       0.56281000 </v>
    <v>       0.74987000       0.29519000       0.81282000 </v>
    <v>       0.99987000       0.70481000       0.81282000 </v>
    <v>       0.25005000       0.32677000       0.06286000 </v>
    <v>       0.00005000       0.67323000       0.06286000 </v>
    <v>       0.49995000       0.32677000       0.31286000 </v>
    <v>       0.24995000       0.67323000       0.31286000 </v>
    <v>       0.75005000       0.32677000       0.06286000 </v>
    <v>       0.50005000       0.67323000       0.06286000 </v>
    <v>       0.99995000       0.32677000       0.31286000 </v>
    <v>       0.74995000       0.67323000       0.31286000 </v>
    <v>       0.25005000       0.32677000       0.56286000 </v>
    <v>       0.00005000       0.67323000       0.56286000 </v>
    <v>       0.49995000       0.32677000       0.81286000 </v>
    <v>       0.24995000       0.67323000       0.81286000 </v>
    <v>       0.75005000       0.32677000       0.56286000 </v>
    <v>       0.50005000       0.67323000       0.56286000 </v>
    <v>       0.99995000       0.32677000       0.81286000 </v>
    <v>       0.74995000       0.67323000       0.81286000 </v>
    <v>       0.49987000       0.07798000       0.06246000 </v>
    <v>       0.24987000       0.92202000       0.06246000 </v>
    <v>       0.25013000       0.07798000       0.31246000 </v>
    <v>       0.00013000       0.92202000       0.31246000 </v>
    <v>       0.99987000       0.07798000       0.06246000 </v>
    <v>       0.74987000       0.92202000       0.06246000 </v>
    <v>       0.75013000       0.07798000       0.31246000 </v>
    <v>       0.50013000       0.92202000       0.31246000 </v>
    <v>       0.49987000       0.07798000       0.56246000 </v>
    <v>       0.24987000       0.92202000       0.56246000 </v>
    <v>       0.25013000       0.07798000       0.81246000 </v>
    <v>       0.00013000       0.92202000       0.81246000 </v>
    <v>       0.99987000       0.07798000       0.56246000 </v>
    <v>       0.74987000       0.92202000       0.56246000 </v>
    <v>       0.75013000       0.07798000       0.81246000 </v>
    <v>       0.50013000       0.92202000       0.81246000 </v>
   </varray>
  </structure>
  <varray name="forces" >
   <v>      -0.42014417      -0.06555845       0.12442809 </v>
   <v>       0.33632002       0.06703746      -0.12653242 </v>
   <v>      -0.00854009       0.00033352       0.04798307 </v>
   <v>       0.40514503       0.06422243       0.12366465 </v>
   <v>       0.00314329       0.00123799       0.18146185 </v>
   <v>      -0.32232781      -0.06557318      -0.13074773 </v>
   <v>       0.00567756       0.00054657      -0.66944405 </v>
   <v>      -0.14415574      -0.06332530       0.14109183 </v>
   <v>       0.00375537       0.00056088      -0.17075388 </v>
   <v>       0.15714844       0.06198955       0.14529786 </v>
   <v>       0.01913517       0.00583346       1.64003380 </v>
   <v>      -0.01838195       0.00664540      -1.04010814 </v>
   <v>      -0.02200935       0.00660537      -0.03931206 </v>
   <v>      -0.35398337       1.04854551      -0.13203837 </v>
   <v>       0.34671717      -1.05831125      -0.12889013 </v>
   <v>      -0.03170996      -0.01897721       0.45704940 </v>
   <v>       0.03754968      -0.01597839       0.15754722 </v>
   <v>      -0.11670673      -0.01036077      -0.02899963 </v>
   <v>       0.10389370      -0.00241083      -0.02748769 </v>
   <v>      -0.02719318       0.01710950       0.15660000 </v>
   <v>       0.04495179       0.00914074       0.45845337 </v>
   <v>       0.14860499      -1.01204115      -0.10848626 </v>
   <v>      -0.16139853       1.01920756      -0.10968290 </v>
   <v>       0.19510856       0.00053983      -0.23845403 </v>
   <v>      -0.17838348       0.03393878      -0.13362941 </v>
   <v>      -0.03384966       0.00010073      -0.01438164 </v>
   <v>       0.02033166       0.00001105      -0.01469030 </v>
   <v>       0.19018848      -0.02780871      -0.13409569 </v>
   <v>      -0.18119596       0.00543338      -0.23773457 </v>
   <v>      -0.19034811       0.05491997       0.01073970 </v>
   <v>       0.18891855      -0.05331455       0.01298824 </v>
   <v>       0.00418360       0.19104280      -0.06469778 </v>
   <v>      -0.02785536      -0.12086323      -0.31391478 </v>
   <v>       0.01997694       0.11624511      -0.02010569 </v>
   <v>      -0.02012724      -0.11586944      -0.01956426 </v>
   <v>       0.02790036       0.12109553      -0.31109087 </v>
   <v>      -0.00138566      -0.19007249      -0.06674521 </v>
   <v>       0.11608840       0.19973831       0.01374744 </v>
   <v>      -0.11868125      -0.19951758       0.01196018 </v>
   <v>       0.05919458       0.14086060       0.09841928 </v>
   <v>      -0.06681166      -0.14408753       0.29004105 </v>
   <v>      -0.10363461       0.22731253      -0.01432809 </v>
   <v>       0.10394524      -0.22779893      -0.01490294 </v>
   <v>       0.06765849       0.14546760       0.28655696 </v>
   <v>      -0.05721200      -0.13912715       0.10125643 </v>
   <v>       1.05361088       0.01088616       0.14479682 </v>
   <v>      -1.59636292       0.85562452       0.57243677 </v>
   <v>       0.09541784       0.00223979      -1.32197159 </v>
   <v>      -0.12204370      -0.00286898      -1.31239806 </v>
   <v>       1.60868910      -0.85698368       0.56190343 </v>
   <v>      -1.03348386      -0.01160593       0.15347155 </v>
   <v>      -0.00871569      -0.01908417      -0.08256343 </v>
   <v>      -0.00058232       0.01724315      -0.08212662 </v>
   <v>       0.08341148       0.03527447      -0.00635118 </v>
   <v>       0.66157763      -0.84093145       0.60488883 </v>
   <v>      -1.12051246       0.04776646       0.08529862 </v>
   <v>       1.11197483      -0.05095058       0.08744615 </v>
   <v>      -0.65392094       0.83729510       0.60404838 </v>
   <v>      -0.07099378      -0.03504603      -0.00644395 </v>
   <v>      -1.10930745       0.05977667      -0.07658662 </v>
   <v>       1.10174014      -0.06336154      -0.07435100 </v>
  </varray>
  <varray name="stress" >
   <v>     -11.02632467      -0.39406657      -0.00762798 </v>
   <v>      -0.39406663     -14.19179599      -0.06768069 </v>
   <v>      -0.00762771      -0.06768056      -6.17300693 </v>
  </varray>
  <energy>
   <i name="e_fr_energy">   -312.00620820 </i>
   <i name="e_wo_entrp">   -312.00620820 </i>
   <i name="e_0_energy">      0.00000000 </i>
  </energy>
  <time name="totalsc">  972.99  983.63</time>
 </calculation>
 <calculation>
  <scstep>
   <time name="dav">   39.37   39.51</time>
   <time name="total">   39.88   40.03</time>
   <energy>
    <i name="alphaZ">   1073.51873187 </i>
    <i name="ewald"> -30863.03542301 </i>
    <i name="hartreedc"> -12956.24074860 </i>
    <i name="XCdc">   1418.70100555 </i>
    <i name="pawpsdc">  43845.16468616 </i>
    <i name="pawaedc"> -43322.61045393 </i>
    <i name="eentropy">      0.00000000 </i>
    <i name="bandstr">  -4283.99081751 </i>
    <i name="atom">  44791.06186932 </i>
    <i name="e_fr_energy">   -297.43115015 </i>
    <i name="e_wo_entrp">   -297.43115015 </i>
    <i name="e_0_energy">   -297.43115015 </i>
   </energy>
  </scstep>
  <scstep>
   <time name="dav">   46.27   46.71</time>
   <time name="total">   46.78   47.23</time>
   <energy>
    <i name="e_fr_energy">   -298.51575166 </i>
    <i name="e_wo_entrp">   -298.51575166 </i>
    <i name="e_0_energy">   -298.51575166 </i>
   </energy>
  </scstep>
  <scstep>
   <time name="dav">   60.55   61.01</time>
   <time name="total">   61.06   61.54</time>
   <energy>
    <i name="e_fr_energy">   -298.49415540 </i>
    <i name="e_wo_entrp">   -298.49415540 </i>
    <i name="e_0_energy">   -298.49415540 </i>
   </energy>
  </scstep>
  <scstep>
   <time name="dav">   49.29   49.84</time>
   <time name="total">   49.80   50.43</time>
   <energy>
    <i name="e_fr_energy">   -298.46441072 </i>
    <i name="e_wo_entrp">   -298.46441072 </i>
    <i name="e_0_energy">   -298.46441072 </i>
   </energy>
  </scstep>
  <scstep>
   <time name="dav">   47.60   48.06</time>
   <time name="total">   48.12   48.61</time>
   <energy>
    <i name="e_fr_energy">   -298.45307092 </i>
    <i name="e_wo_entrp">   -298.45307092 </i>
    <i name="e_0_energy">   -298.45307092 </i>
   </energy>
  </scstep>
  <scstep>
   <time name="dav">   46.39   46.76</time>
   <time name="total">   46.90   47.28</time>
   <energy>
    <i name="e_fr_energy">   -298.45395253 </i>
    <i name="e_wo_entrp">   -298.45395253 </i>
    <i name="e_0_energy">   -298.45395253 </i>
   </energy>
  </scstep>
  <scstep>
   <time name="dav">   56.12   56.85</time>
   <time name="total">   56.62   57.37</time>
   <energy>
    <i name="e_fr_energy">   -298.45384137 </i>
    <i name="e_wo_entrp">   -298.45384137 </i>
    <i name="e_0_energy">   -298.45384137 </i>
   </energy>
  </scstep>
  <scstep>
   <time name="dav">   45.62   46.07</time>
   <time name="total">   46.14   46.63</time>
   <energy>
    <i name="e_fr_energy">   -298.45369393 </i>
    <i name="e_wo_entrp">   -298.45369393 </i>
    <i name="e_0_energy">   -298.45369393 </i>
   </energy>
  </scstep>
  <scstep>
   <time name="dav">   53.04   53.69</time>
   <time name="total">   53.56   54.25</time>
   <energy>
    <i name="e_fr_energy">   -298.45370206 </i>
    <i name="e_wo_entrp">   -298.45370206 </i>
    <i name="e_0_energy">   -298.45370206 </i>
   </energy>
  </scstep>
  <scstep>
   <time name="dav">   50.10   50.55</time>
   <time name="total">   50.60   51.07</time>
   <energy>
    <i name="e_fr_energy">   -298.45370497 </i>
    <i name="e_wo_entrp">   -298.45370497 </i>
    <i name="e_0_energy">   -298.45370497 </i>
   </energy>
  </scstep>
  <scstep>
   <time name="dav">   44.48   44.90</time>
   <time name="total">   44.53   44.96</time>
   <energy>
    <i name="alphaZ">   1073.51873187 </i>
    <i name="ewald"> -30863.03542301 </i>
    <i name="hartreedc"> -12961.12715930 </i>
    <i name="XCdc">   1419.08830307 </i>
    <i name="pawpsdc">  43880.30070249 </i>
    <i name="pawaedc"> -43357.93080430 </i>
    <i name="eentropy">      0.00000000 </i>
    <i name="bandstr">  -4280.32992589 </i>
    <i name="atom">  44791.06186932 </i>
    <i name="e_fr_energy">   -298.45370574 </i>
    <i name="e_wo_entrp">   -298.45370574 </i>
    <i name="e_0_energy">   -298.45370574 </i>
   </energy>
  </scstep>
  <structure>
   <crystal>
    <varray name="basis" >
     <v>      11.17850000       0.00000000       0.00000000 </v>
     <v>       0.00000000       9.57460000       0.00000000 </v>
     <v>       0.00000000       0.00000000      11.18240000 </v>
    </varray>
    <i name="volume">   1196.84853820 </i>
    <varray name="rec_basis" >
     <v>       0.08945744       0.00000000       0.00000000 </v>
     <v>       0.00000000       0.10444301       0.00000000 </v>
     <v>       0.00000000       0.00000000       0.08942624 </v>
    </varray>
   </crystal>
   <varray name="positions" >
    <v>       0.37357680      -0.00016032       0.43740680 </v>
    <v>       0.37606144       0.00050778       0.18632412 </v>
    <v>       0.62535314       0.99984168       0.43707701 </v>
    <v>       0.87713847       0.00049359       0.43740351 </v>
    <v>       0.62462357       0.99984624       0.18765286 </v>
    <v>       0.87321894      -0.00016040       0.18630593 </v>
    <v>       0.12463450       0.99984275       0.68398191 </v>
    <v>       0.37398787      -0.00014907       0.68747869 </v>
    <v>       0.62462621       0.99984283       0.68613334 </v>
    <v>       0.87528820       0.00048234       0.68749684 </v>
    <v>       0.12469258       0.99986939       0.19394537 </v>
    <v>       0.12531067       0.99987348       0.93238281 </v>
    <v>       0.62529502       0.99987328       0.93670040 </v>
    <v>      -0.00139767       0.30047321       0.06224037 </v>
    <v>       0.25162631       0.69947758       0.06225395 </v>
    <v>       0.24973315       0.29509438       0.31479178 </v>
    <v>       0.50003205       0.70472949       0.31349968 </v>
    <v>       0.49962633       0.29513780       0.06268489 </v>
    <v>       0.75057837       0.70479785       0.06269141 </v>
    <v>       0.74975264       0.29527621       0.31349560 </v>
    <v>       0.00006400       0.70485606       0.31479784 </v>
    <v>       0.00077133       0.29009072       0.56234197 </v>
    <v>       0.24943346       0.70994539       0.56233681 </v>
    <v>       0.25071202       0.29519272       0.81179127 </v>
    <v>       0.49910016       0.70498100       0.81224350 </v>
    <v>       0.49998392       0.29519051       0.56274796 </v>
    <v>       0.75021774       0.70481006       0.56274662 </v>
    <v>       0.75069079       0.29504988       0.81224149 </v>
    <v>       0.99908802       0.70483738       0.81179438 </v>
    <v>       0.24922852       0.32704672       0.06290633 </v>
    <v>       0.00086531       0.67296137       0.06291603 </v>
    <v>       0.49996806       0.32773259       0.31258088 </v>
    <v>       0.24982979       0.67262102       0.31150572 </v>
    <v>       0.75013621       0.32735571       0.06277326 </v>
    <v>       0.49996314       0.67264618       0.06277560 </v>
    <v>       0.00007041       0.32738015       0.31151790 </v>
    <v>       0.74994402       0.67227230       0.31257205 </v>
    <v>       0.25055100       0.32777640       0.56291931 </v>
    <v>      -0.00046219       0.67222471       0.56291160 </v>
    <v>       0.50020546       0.32747974       0.81328460 </v>
    <v>       0.24966166       0.67250400       0.81411128 </v>
    <v>       0.74960275       0.32791534       0.56279819 </v>
    <v>       0.50049859       0.67208221       0.56279571 </v>
    <v>       0.00024199       0.32750295       0.81409625 </v>
    <v>       0.74970309       0.67252899       0.81329684 </v>
    <v>       0.50441703       0.07803485       0.06308468 </v>
    <v>       0.24298063       0.92633116       0.06492958 </v>
    <v>       0.25054179       0.07799129       0.30675680 </v>
    <v>      -0.00039670       0.92200554       0.30679811 </v>
    <v>       0.00681256       0.07366200       0.06488414 </v>
    <v>       0.74540983       0.92196152       0.06312210 </v>
    <v>       0.75009239       0.07788384       0.31210381 </v>
    <v>       0.50012749       0.92210688       0.31210569 </v>
    <v>       0.50022998       0.07815773       0.56243260 </v>
    <v>       0.25272515       0.91778288       0.56506959 </v>
    <v>       0.24529424       0.07822068       0.81282799 </v>
    <v>       0.00492891       0.92176328       0.81283726 </v>
    <v>       0.99704790       0.08219880       0.56506596 </v>
    <v>       0.74956361       0.92184342       0.56243220 </v>
    <v>       0.74534260       0.07828119       0.81212959 </v>
    <v>       0.50488474       0.92170075       0.81213924 </v>
   </varray>
  </structure>
  <varray name="forces" >
   <v>      -0.29528830      -0.03548849       0.02559659 </v>
   <v>       0.17956271       0.02927649      -0.24515575 </v>
   <v>      -0.00738910       0.00091285       0.03192056 </v>
   <v>       0.28252447       0.03233794       0.02313082 </v>
   <v>       0.00594351       0.00083190       0.13455774 </v>
   <v>      -0.16586144      -0.03237917      -0.24684529 </v>
   <v>       0.00504151       0.00100727      -0.47777384 </v>
   <v>      -0.05027968      -0.03223096       0.20591349 </v>
   <v>       0.00614975       0.00157669      -0.12297491 </v>
   <v>       0.05919274       0.03182154       0.20846512 </v>
   <v>       0.02415552       0.00953293       0.54908504 </v>
   <v>      -0.01727027       0.00232983       0.04199907 </v>
   <v>      -0.01718307       0.00517597       0.03242980 </v>
   <v>      -0.07543148      -0.35977456      -0.06555184 </v>
   <v>       0.06559393       0.35701099      -0.06344327 </v>
   <v>      -0.02040447       0.02278294       0.12884262 </v>
   <v>       0.03983952       0.00918442       0.06624801 </v>
   <v>      -0.10485679      -0.02562207      -0.02567852 </v>
   <v>       0.09727243       0.02644575      -0.02385202 </v>
   <v>      -0.03068671      -0.01127508       0.06564419 </v>
   <v>       0.02872353      -0.02255274       0.12922530 </v>
   <v>       0.06776517       0.70279532      -0.07925132 </v>
   <v>      -0.07573411      -0.70940465      -0.08035323 </v>
   <v>       0.10194363       0.05067701      -0.00832595 </v>
   <v>      -0.07661320      -0.02059896      -0.05198011 </v>
   <v>       0.03776611       0.05080047      -0.00833378 </v>
   <v>      -0.04784292      -0.04957659      -0.00868214 </v>
   <v>       0.08647609       0.01990951      -0.05229576 </v>
   <v>      -0.09169647      -0.05025703      -0.00680257 </v>
   <v>      -0.08682128       0.19847069       0.00046144 </v>
   <v>       0.08534687      -0.19739615       0.00123634 </v>
   <v>      -0.01164988       0.18184374      -0.01913326 </v>
   <v>      -0.02816204      -0.12243838      -0.14430543 </v>
   <v>      -0.01849407       0.13704192      -0.02138659 </v>
   <v>       0.01765911      -0.13687900      -0.02114855 </v>
   <v>       0.02939427       0.12238769      -0.14288450 </v>
   <v>       0.01278855      -0.18208424      -0.01966469 </v>
   <v>       0.06774563       0.11644146       0.01130330 </v>
   <v>      -0.06866869      -0.11678560       0.01072248 </v>
   <v>       0.04116359       0.14161415       0.05316528 </v>
   <v>      -0.05321735      -0.14800640       0.13100252 </v>
   <v>      -0.04305849       0.21021374      -0.01428606 </v>
   <v>       0.04239595      -0.21002567      -0.01459901 </v>
   <v>       0.05455523       0.14911423       0.12909082 </v>
   <v>      -0.03979216      -0.14050505       0.05444965 </v>
   <v>       0.79394068       0.08610408       0.15242886 </v>
   <v>      -0.93595558      -0.62625114       0.41063473 </v>
   <v>       0.29989356       0.12019541      -0.63379413 </v>
   <v>      -0.32893965      -0.13057097      -0.61933715 </v>
   <v>       0.94822500       0.62286082       0.40259972 </v>
   <v>      -0.77993927      -0.09587464       0.15978186 </v>
   <v>       0.01074691       0.01270291       0.00479917 </v>
   <v>      -0.02074290      -0.01006426       0.00514683 </v>
   <v>      -0.01269147      -0.03240371      -0.01465238 </v>
   <v>       0.51954378       0.84898341       0.49070022 </v>
   <v>      -0.69607462       0.10027746      -0.28428407 </v>
   <v>       0.69180982      -0.09766208      -0.27959551 </v>
   <v>      -0.51587212      -0.83920146       0.49053409 </v>
   <v>       0.02064064       0.03100764      -0.01378120 </v>
   <v>      -0.76512944       0.05809081      -0.17241012 </v>
   <v>       0.75794678      -0.05645094      -0.16855271 </v>
  </varray>
  <varray name="stress" >
   <v>      -6.94537995       0.61831634      -0.01480018 </v>
   <v>       0.61831645     -11.01594404      -0.06764643 </v>
   <v>      -0.01480006      -0.06764618      -5.29573053 </v>
  </varray>
  <energy>
   <i name="e_fr_energy">   -313.00429178 </i>
   <i name="e_wo_entrp">   -313.00429178 </i>
   <i name="e_0_energy">      0.00000000 </i>
  </energy>
  <time name="totalsc">  618.17  624.05</time>
 </calculation>
 <calculation>
  <scstep>
   <time name="dav">   38.96   39.15</time>
   <time name="total">   39.47   39.66</time>
   <energy>
    <i name="alphaZ">   1073.51873187 </i>
    <i name="ewald"> -30851.97829353 </i>
    <i name="hartreedc"> -12968.28911283 </i>
    <i name="XCdc">   1419.20712564 </i>
    <i name="pawpsdc">  43880.23456196 </i>
    <i name="pawaedc"> -43357.86119087 </i>
    <i name="eentropy">      0.00000000 </i>
    <i name="bandstr">  -4284.25605108 </i>
    <i name="atom">  44791.06186932 </i>
    <i name="e_fr_energy">   -298.36235953 </i>
    <i name="e_wo_entrp">   -298.36235953 </i>
    <i name="e_0_energy">   -298.36235953 </i>
   </energy>
  </scstep>
  <scstep>
   <time name="dav">   46.66   47.34</time>
   <time name="total">   47.18   47.91</time>
   <energy>
    <i name="e_fr_energy">   -298.55578175 </i>
    <i name="e_wo_entrp">   -298.55578175 </i>
    <i name="e_0_energy">   -298.55578175 </i>
   </energy>
  </scstep>
  <scstep>
   <time name="dav">   58.54   59.01</time>
   <time name="total">   59.05   59.52</time>
   <energy>
    <i name="e_fr_energy">   -298.55182597 </i>
    <i name="e_wo_entrp">   -298.55182597 </i>
    <i name="e_0_energy">   -298.55182597 </i>
   </energy>
  </scstep>
  <scstep>
   <time name="dav">   47.77   48.23</time>
   <time name="total">   48.28   48.76</time>
   <energy>
    <i name="e_fr_energy">   -298.54516081 </i>
    <i name="e_wo_entrp">   -298.54516081 </i>
    <i name="e_0_energy">   -298.54516081 </i>
   </energy>
  </scstep>
  <scstep>
   <time name="dav">   46.45   46.74</time>
   <time name="total">   46.97   47.28</time>
   <energy>
    <i name="e_fr_energy">   -298.54371874 </i>
    <i name="e_wo_entrp">   -298.54371874 </i>
    <i name="e_0_energy">   -298.54371874 </i>
   </energy>
  </scstep>
  <scstep>
   <time name="dav">   49.52   49.81</time>
   <time name="total">   50.04   50.35</time>
   <energy>
    <i name="e_fr_energy">   -298.54376905 </i>
    <i name="e_wo_entrp">   -298.54376905 </i>
    <i name="e_0_energy">   -298.54376905 </i>
   </energy>
  </scstep>
  <scstep>
   <time name="dav">   50.59   50.69</time>
   <time name="total">   51.10   51.25</time>
   <energy>
    <i name="e_fr_energy">   -298.54374100 </i>
    <i name="e_wo_entrp">   -298.54374100 </i>
    <i name="e_0_energy">   -298.54374100 </i>
   </energy>
  </scstep>
  <scstep>
   <time name="dav">   48.81   49.63</time>
   <time name="total">   49.32   50.16</time>
   <energy>
    <i name="e_fr_energy">   -298.54372819 </i>
    <i name="e_wo_entrp">   -298.54372819 </i>
    <i name="e_0_energy">   -298.54372819 </i>
   </energy>
  </scstep>
  <scstep>
   <time name="dav">   59.91   60.46</time>
   <time name="total">   60.42   60.98</time>
   <energy>
    <i name="e_fr_energy">   -298.54372666 </i>
    <i name="e_wo_entrp">   -298.54372666 </i>
    <i name="e_0_energy">   -298.54372666 </i>
   </energy>
  </scstep>
  <scstep>
   <time name="dav">   46.65   46.75</time>
   <time name="total">   47.18   47.30</time>
   <energy>
    <i name="e_fr_energy">   -298.54372757 </i>
    <i name="e_wo_entrp">   -298.54372757 </i>
    <i name="e_0_energy">   -298.54372757 </i>
   </energy>
  </scstep>
  <scstep>
   <time name="dav">   37.29   37.66</time>
   <time name="total">   37.34   37.73</time>
   <energy>
    <i name="alphaZ">   1073.51873187 </i>
    <i name="ewald"> -30851.97829353 </i>
    <i name="hartreedc"> -12970.23648892 </i>
    <i name="XCdc">   1419.35372343 </i>
    <i name="pawpsdc">  43904.95118417 </i>
    <i name="pawaedc"> -43382.84638847 </i>
    <i name="eentropy">      0.00000000 </i>
    <i name="bandstr">  -4282.36806504 </i>
    <i name="atom">  44791.06186932 </i>
    <i name="e_fr_energy">   -298.54372718 </i>
    <i name="e_wo_entrp">   -298.54372718 </i>
    <i name="e_0_energy">   -298.54372718 </i>
   </energy>
  </scstep>
  <structure>
   <crystal>
    <varray name="basis" >
     <v>      11.17850000       0.00000000       0.00000000 </v>
     <v>       0.00000000       9.57460000       0.00000000 </v>
     <v>       0.00000000       0.00000000      11.18240000 </v>
    </varray>
    <i name="volume">   1196.84853820 </i>
    <varray name="rec_basis" >
     <v>       0.08945744       0.00000000       0.00000000 </v>
     <v>       0.00000000       0.10444301       0.00000000 </v>
     <v>       0.00000000       0.00000000       0.08942624 </v>
    </varray>
   </crystal>
   <varray name="positions" >
    <v>       0.37277094      -0.00030713       0.43764538 </v>
    <v>       0.37670652       0.00065790       0.18608151 </v>
    <v>       0.62533676       0.99984243       0.43716901 </v>
    <v>       0.87791556       0.00063741       0.43764062 </v>
    <v>       0.62462959       0.99984901       0.18800079 </v>
    <v>       0.87260070      -0.00030724       0.18605524 </v>
    <v>       0.12464539       0.99984398       0.68269833 </v>
    <v>       0.37371137      -0.00029088       0.68774922 </v>
    <v>       0.62463341       0.99984408       0.68580594 </v>
    <v>       0.87558962       0.00062116       0.68777543 </v>
    <v>       0.12472928       0.99988246       0.19708995 </v>
    <v>       0.12527541       0.99988837       0.93038852 </v>
    <v>       0.62525280       0.99988807       0.93662503 </v>
    <v>      -0.00207663       0.30282128       0.06198720 </v>
    <v>       0.25229134       0.69710764       0.06200682 </v>
    <v>       0.24967233       0.29505188       0.31566812 </v>
    <v>       0.50010407       0.70469371       0.31380176 </v>
    <v>       0.49940248       0.29511459       0.06262929 </v>
    <v>       0.75077764       0.70479245       0.06263871 </v>
    <v>       0.74970049       0.29531452       0.31379586 </v>
    <v>       0.00015022       0.70487653       0.31567687 </v>
    <v>       0.00105636       0.28782440       0.56213396 </v>
    <v>       0.24912389       0.71222776       0.56212651 </v>
    <v>       0.25108625       0.29519393       0.81133406 </v>
    <v>       0.49875801       0.70505701       0.81198728 </v>
    <v>       0.49991899       0.29519073       0.56272038 </v>
    <v>       0.75025674       0.70481008       0.56271846 </v>
    <v>       0.75105558       0.29498761       0.81198438 </v>
    <v>       0.99874048       0.70484954       0.81133855 </v>
    <v>       0.24886342       0.32716971       0.06292692 </v>
    <v>       0.00122767       0.67284198       0.06294094 </v>
    <v>       0.49997608       0.32816040       0.31245683 </v>
    <v>       0.24977636       0.67235036       0.31090383 </v>
    <v>       0.75017453       0.32761603       0.06273471 </v>
    <v>       0.49992453       0.67238671       0.06273808 </v>
    <v>       0.00012392       0.32765133       0.31092142 </v>
    <v>       0.74994136       0.67184666       0.31244407 </v>
    <v>       0.25077366       0.32822369       0.56294567 </v>
    <v>      -0.00068983       0.67177792       0.56293453 </v>
    <v>       0.50031900       0.32779518       0.81347330 </v>
    <v>       0.24953351       0.67218134       0.81466740 </v>
    <v>       0.74940397       0.32842437       0.56277071 </v>
    <v>       0.50069797       0.67157209       0.56276713 </v>
    <v>       0.00037176       0.32782871       0.81464569 </v>
    <v>       0.74959336       0.67221744       0.81349098 </v>
    <v>       0.50643791       0.07805923       0.06336231 </v>
    <v>       0.23991872       0.92824721       0.06602717 </v>
    <v>       0.25072481       0.07799630       0.30422207 </v>
    <v>      -0.00063079       0.92199912       0.30428173 </v>
    <v>       0.00989812       0.07174290       0.06596153 </v>
    <v>       0.74342755       0.92193553       0.06341636 </v>
    <v>       0.75007567       0.07784111       0.31194550 </v>
    <v>       0.50012637       0.92214550       0.31194822 </v>
    <v>       0.50038996       0.07823673       0.56242042 </v>
    <v>       0.25399409       0.91589973       0.56622939 </v>
    <v>       0.24314504       0.07832764       0.81299154 </v>
    <v>       0.00706174       0.92164918       0.81300492 </v>
    <v>       0.99579364       0.08407381       0.56622415 </v>
    <v>       0.74942744       0.92176494       0.56241984 </v>
    <v>       0.74321489       0.07841505       0.81198275 </v>
    <v>       0.50699794       0.92155886       0.81199668 </v>
   </varray>
  </structure>
  <varray name="forces" >
   <v>      -0.23551385      -0.02071028      -0.01870352 </v>
   <v>       0.11283105       0.01352168      -0.29490036 </v>
   <v>      -0.00683295       0.00115802       0.02482954 </v>
   <v>       0.22413971       0.01675907      -0.02173961 </v>
   <v>       0.00717590       0.00060540       0.11768882 </v>
   <v>      -0.09962458      -0.01862224      -0.29550815 </v>
   <v>       0.00478637       0.00125334      -0.38864217 </v>
   <v>      -0.00700028      -0.01639082       0.23327251 </v>
   <v>       0.00717709       0.00203272      -0.10464459 </v>
   <v>       0.01419541       0.01628443       0.23513935 </v>
   <v>       0.02456583       0.01046123       0.04292334 </v>
   <v>      -0.01587125       0.00063253       0.54348887 </v>
   <v>      -0.01418627       0.00436683       0.06878651 </v>
   <v>       0.05381063      -0.81382943      -0.02982285 </v>
   <v>      -0.06407692       0.81223113      -0.02805151 </v>
   <v>      -0.01511321       0.03319558      -0.01813045 </v>
   <v>       0.03962995       0.01933106       0.02510235 </v>
   <v>      -0.09961381      -0.03665670      -0.02351285 </v>
   <v>       0.09409169       0.04322858      -0.02149352 </v>
   <v>      -0.03106847      -0.02285987       0.02470267 </v>
   <v>       0.02114410      -0.02862891      -0.01840940 </v>
   <v>       0.05557448       1.72829202      -0.08772498 </v>
   <v>      -0.06123673      -1.74498319      -0.08915838 </v>
   <v>       0.06015695       0.06952497       0.09439663 </v>
   <v>      -0.03227757      -0.03985350      -0.01503227 </v>
   <v>       0.07001315       0.07514036      -0.00562167 </v>
   <v>      -0.07840680      -0.07346671      -0.00598735 </v>
   <v>       0.04120891       0.03593574      -0.01535125 </v>
   <v>      -0.05160283      -0.07182870       0.09622856 </v>
   <v>      -0.03874450       0.25541152      -0.00635838 </v>
   <v>       0.03736009      -0.25458372      -0.00623230 </v>
   <v>      -0.01931610       0.17776229       0.00108445 </v>
   <v>      -0.02888755      -0.11990948      -0.06713248 </v>
   <v>      -0.03707186       0.14721570      -0.02245131 </v>
   <v>       0.03595487      -0.14713185      -0.02235252 </v>
   <v>       0.03068529       0.11973970      -0.06639917 </v>
   <v>       0.01974232      -0.17856913       0.00124038 </v>
   <v>       0.04697325       0.07682128       0.01308181 </v>
   <v>      -0.04722918      -0.07736596       0.01308121 </v>
   <v>       0.03308039       0.14230697       0.03291774 </v>
   <v>      -0.04785649      -0.14944636       0.05742115 </v>
   <v>      -0.01594769       0.20145564      -0.01360628 </v>
   <v>       0.01487521      -0.20098936      -0.01379677 </v>
   <v>       0.04940420       0.15040921       0.05620596 </v>
   <v>      -0.03195520      -0.14151079       0.03350843 </v>
   <v>       0.67213719       0.13053516       0.15804403 </v>
   <v>      -0.61789401      -1.13576766       0.32025030 </v>
   <v>       0.43679655       0.21179900      -0.28846562 </v>
   <v>      -0.46571307      -0.22550959      -0.27327329 </v>
   <v>       0.62949404       1.13319065       0.31422355 </v>
   <v>      -0.66136725      -0.14361675       0.16429234 </v>
   <v>       0.01962457       0.02602158       0.04411589 </v>
   <v>      -0.02987332      -0.02139763       0.04442730 </v>
   <v>      -0.05613016      -0.06432412      -0.01813362 </v>
   <v>       0.47840193       1.85761277       0.46034948 </v>
   <v>      -0.48003750       0.15055092      -0.47883344 </v>
   <v>       0.47721650      -0.14515602      -0.47332407 </v>
   <v>      -0.47650146      -1.83802316       0.46028171 </v>
   <v>       0.06210951       0.06224870      -0.01688290 </v>
   <v>      -0.60736961       0.07164776      -0.21783782 </v>
   <v>       0.59996335      -0.06755161      -0.21357004 </v>
  </varray>
  <varray name="stress" >
   <v>      -4.88116260       1.45099415      -0.01879545 </v>
   <v>       1.45099435      -7.75792584      -0.06333652 </v>
   <v>      -0.01879521      -0.06333666      -4.57126463 </v>
  </varray>
  <energy>
   <i name="e_fr_energy">   -313.08481707 </i>
   <i name="e_wo_entrp">   -313.08481707 </i>
   <i name="e_0_energy">      0.00000000 </i>
  </energy>
  <time name="totalsc">  610.00  615.35</time>
 </calculation>
 <calculation>
  <scstep>
   <time name="dav">   38.89   39.27</time>
   <time name="total">   39.39   39.78</time>
   <energy>
    <i name="alphaZ">   1073.51873187 </i>
    <i name="ewald"> -30870.33698710 </i>
    <i name="hartreedc"> -12949.97495829 </i>
    <i name="XCdc">   1419.23186562 </i>
    <i name="pawpsdc">  43904.68619985 </i>
    <i name="pawaedc"> -43382.57981920 </i>
    <i name="eentropy">      0.00000000 </i>
    <i name="bandstr">  -4283.71951351 </i>
    <i name="atom">  44791.06186932 </i>
    <i name="e_fr_energy">   -298.11261143 </i>
    <i name="e_wo_entrp">   -298.11261143 </i>
    <i name="e_0_energy">   -298.11261143 </i>
   </energy>
  </scstep>
  <scstep>
   <time name="dav">   45.49   45.88</time>
   <time name="total">   46.00   46.43</time>
   <energy>
    <i name="e_fr_energy">   -299.15260724 </i>
    <i name="e_wo_entrp">   -299.15260724 </i>
    <i name="e_0_energy">   -299.15260724 </i>
   </energy>
  </scstep>
  <scstep>
   <time name="dav">   62.80   63.65</time>
   <time name="total">   63.31   64.18</time>
   <energy>
    <i name="e_fr_energy">   -299.13976776 </i>
    <i name="e_wo_entrp">   -299.13976776 </i>
    <i name="e_0_energy">   -299.13976776 </i>
   </energy>
  </scstep>
  <scstep>
   <time name="dav">   45.45   45.83</time>
   <time name="total">   45.96   46.39</time>
   <energy>
    <i name="e_fr_energy">   -299.11713441 </i>
    <i name="e_wo_entrp">   -299.11713441 </i>
    <i name="e_0_energy">   -299.11713441 </i>
   </energy>
  </scstep>
  <scstep>
   <time name="dav">   52.48   52.58</time>
   <time name="total">   52.99   53.15</time>
   <energy>
    <i name="e_fr_energy">   -299.10755185 </i>
    <i name="e_wo_entrp">   -299.10755185 </i>
    <i name="e_0_energy">   -299.10755185 </i>
   </energy>
  </scstep>
  <scstep>
   <time name="dav">   47.12   47.55</time>
   <time name="total">   47.63   48.08</time>
   <energy>
    <i name="e_fr_energy">   -299.10818705 </i>
    <i name="e_wo_entrp">   -299.10818705 </i>
    <i name="e_0_energy">   -299.10818705 </i>
   </energy>
  </scstep>
  <scstep>
   <time name="dav">   58.05   58.40</time>
   <time name="total">   58.55   58.98</time>
   <energy>
    <i name="e_fr_energy">   -299.10820157 </i>
    <i name="e_wo_entrp">   -299.10820157 </i>
    <i name="e_0_energy">   -299.10820157 </i>
   </energy>
  </scstep>
  <scstep>
   <time name="dav">   51.77   52.25</time>
   <time name="total">   52.27   52.77</time>
   <energy>
    <i name="e_fr_energy">   -299.10813571 </i>
    <i name="e_wo_entrp">   -299.10813571 </i>
    <i name="e_0_energy">   -299.10813571 </i>
   </energy>
  </scstep>
  <scstep>
   <time name="dav">   49.72   50.37</time>
   <time name="total">   50.23   50.98</time>
   <energy>
    <i name="e_fr_energy">   -299.10814481 </i>
    <i name="e_wo_entrp">   -299.10814481 </i>
    <i name="e_0_energy">   -299.10814481 </i>
   </energy>
  </scstep>
  <scstep>
   <time name="dav">   46.74   47.29</time>
   <time name="total">   47.25   47.85</time>
   <energy>
    <i name="e_fr_energy">   -299.10814506 </i>
    <i name="e_wo_entrp">   -299.10814506 </i>
    <i name="e_0_energy">   -299.10814506 </i>
   </energy>
  </scstep>
  <scstep>
   <time name="dav">   39.92   40.33</time>
   <time name="total">   39.97   40.41</time>
   <energy>
    <i name="alphaZ">   1073.51873187 </i>
    <i name="ewald"> -30870.33698710 </i>
    <i name="hartreedc"> -12952.87098416 </i>
    <i name="XCdc">   1419.35241503 </i>
    <i name="pawpsdc">  43848.53351263 </i>
    <i name="pawaedc"> -43325.26009678 </i>
    <i name="eentropy">      0.00000000 </i>
    <i name="bandstr">  -4283.10660681 </i>
    <i name="atom">  44791.06186932 </i>
    <i name="e_fr_energy">   -299.10814600 </i>
    <i name="e_wo_entrp">   -299.10814600 </i>
    <i name="e_0_energy">   -299.10814600 </i>
   </energy>
  </scstep>
  <structure>
   <crystal>
    <varray name="basis" >
     <v>      11.17850000       0.00000000       0.00000000 </v>
     <v>       0.00000000       9.57460000       0.00000000 </v>
     <v>       0.00000000       0.00000000      11.18240000 </v>
    </varray>
    <i name="volume">   1196.84853820 </i>
    <varray name="rec_basis" >
     <v>       0.08945744       0.00000000       0.00000000 </v>
     <v>       0.00000000       0.10444301       0.00000000 </v>
     <v>       0.00000000       0.00000000       0.08942624 </v>
    </varray>
   </crystal>
   <varray name="positions" >
    <v>       0.37067900      -0.00061826       0.43793427 </v>
    <v>       0.37809822       0.00094264       0.18461500 </v>
    <v>       0.62528660       0.99984860       0.43740011 </v>
    <v>       0.87992173       0.00092679       0.43791596 </v>
    <v>       0.62466548       0.99985582       0.18896365 </v>
    <v>       0.87129872      -0.00060930       0.18457431 </v>
    <v>       0.12467965       0.99985129       0.67931627 </v>
    <v>       0.37326943      -0.00057564       0.68902748 </v>
    <v>       0.62467106       0.99985484       0.68492268 </v>
    <v>       0.87609593       0.00090095       0.68907279 </v>
    <v>       0.12487628       0.99994774       0.20197894 </v>
    <v>       0.12516308       0.99991350       0.92941997 </v>
    <v>       0.62513630       0.99992937       0.93676865 </v>
    <v>      -0.00289652       0.30280137       0.06149509 </v>
    <v>       0.25305190       0.69708770       0.06153040 </v>
    <v>       0.24952439       0.29513282       0.31691818 </v>
    <v>       0.50036048       0.70472425       0.31434979 </v>
    <v>       0.49869361       0.29491977       0.06245784 </v>
    <v>       0.75142893       0.70497295       0.06247916 </v>
    <v>       0.74950595       0.29527240       0.31433966 </v>
    <v>       0.00035889       0.70478240       0.31692994 </v>
    <v>       0.00169266       0.29195712       0.56149345 </v>
    <v>       0.24842953       0.70804635       0.56147719 </v>
    <v>       0.25187381       0.29549909       0.81099918 </v>
    <v>       0.49812288       0.70499741       0.81154584 </v>
    <v>       0.50008300       0.29551892       0.56265791 </v>
    <v>       0.75002237       0.70448958       0.56265373 </v>
    <v>       0.75175814       0.29505076       0.81154040 </v>
    <v>       0.99802502       0.70455445       0.81101258 </v>
    <v>       0.24816962       0.32846903       0.06293414 </v>
    <v>       0.00191217       0.67155167       0.06295510 </v>
    <v>       0.49991596       0.32957932       0.31227434 </v>
    <v>       0.24958806       0.67142019       0.30974794 </v>
    <v>       0.75009361       0.32864979       0.06259287 </v>
    <v>       0.50000085       0.67135458       0.06259817 </v>
    <v>       0.00031907       0.32858154       0.30977642 </v>
    <v>       0.75001114       0.67042749       0.31225626 </v>
    <v>       0.25128403       0.32923147       0.56303418 </v>
    <v>      -0.00120863       0.67076850       0.56301788 </v>
    <v>       0.50061336       0.32889041       0.81388005 </v>
    <v>       0.24916197       0.67104408       0.81571818 </v>
    <v>       0.74904546       0.33006880       0.56267857 </v>
    <v>       0.50105336       0.66992806       0.56267262 </v>
    <v>       0.00075154       0.32897481       0.81568188 </v>
    <v>       0.74930892       0.67113151       0.81390811 </v>
    <v>       0.51198863       0.07866542       0.06437021 </v>
    <v>       0.23300528       0.92617300       0.06887403 </v>
    <v>       0.25263236       0.07892794       0.29933285 </v>
    <v>      -0.00272319       0.92100554       0.29947687 </v>
    <v>       0.01689046       0.07380129       0.06875550 </v>
    <v>       0.73797514       0.92126984       0.06447262 </v>
    <v>       0.75012387       0.07789038       0.31187226 </v>
    <v>       0.50001305       0.92211020       0.31187740 </v>
    <v>       0.50042078       0.07807486       0.56233437 </v>
    <v>       0.25769007       0.92117289       0.56969320 </v>
    <v>       0.23811925       0.07914536       0.81144867 </v>
    <v>       0.01205236       0.92084428       0.81148883 </v>
    <v>       0.99212684       0.07887387       0.56968529 </v>
    <v>       0.74945479       0.92191852       0.56233819 </v>
    <v>       0.73774557       0.07892895       0.81094814 </v>
    <v>       0.51241775       0.92105076       0.81098446 </v>
   </varray>
  </structure>
  <varray name="forces" >
   <v>      -0.17652926      -0.03932798       0.01611000 </v>
   <v>       0.07421070       0.00739369      -0.28173282 </v>
   <v>      -0.00579982       0.00179623       0.03251543 </v>
   <v>       0.16612671       0.03267549       0.01128502 </v>
   <v>       0.00864404       0.00018831       0.11526186 </v>
   <v>      -0.06265724      -0.01597593      -0.28007720 </v>
   <v>       0.00526839       0.00143440      -0.31460020 </v>
   <v>       0.00732503      -0.02150456       0.19020582 </v>
   <v>       0.00849733       0.00310501      -0.09312994 </v>
   <v>      -0.00205654       0.02079579       0.19036785 </v>
   <v>      -0.00080344      -0.00025766      -0.43306840 </v>
   <v>      -0.00609931       0.00121906       0.84667029 </v>
   <v>      -0.00456394       0.00184303       0.06125750 </v>
   <v>       0.22872193      -0.78312657       0.01673182 </v>
   <v>      -0.23655417       0.78620816       0.01783979 </v>
   <v>       0.03804421       0.11069099      -0.25779706 </v>
   <v>       0.04977162       0.03767287      -0.04802207 </v>
   <v>      -0.03042650       0.06108934      -0.01152656 </v>
   <v>       0.02902258      -0.05562885      -0.00941113 </v>
   <v>      -0.04365826      -0.03860637      -0.04735116 </v>
   <v>      -0.03769383      -0.10739185      -0.25781901 </v>
   <v>      -0.12931401      -0.21836517       0.05733234 </v>
   <v>       0.12281106       0.22807387       0.05772782 </v>
   <v>      -0.04340895       0.04389906       0.22420541 </v>
   <v>       0.06654375      -0.02644452       0.03503836 </v>
   <v>       0.12774800      -0.05889949      -0.00093838 </v>
   <v>      -0.13042347       0.05835810      -0.00101247 </v>
   <v>      -0.06042992       0.02263413       0.03414576 </v>
   <v>       0.04800702      -0.04791640       0.22541894 </v>
   <v>       0.03539520       0.28391429      -0.01314591 </v>
   <v>      -0.03584567      -0.28377811      -0.01490858 </v>
   <v>      -0.02870448       0.17594538       0.03643439 </v>
   <v>      -0.02904487      -0.11118294       0.11669596 </v>
   <v>      -0.06259329       0.14662792      -0.02185801 </v>
   <v>       0.06061061      -0.14722560      -0.02210202 </v>
   <v>       0.03216770       0.11013683       0.11508003 </v>
   <v>       0.02717658      -0.17786936       0.03830335 </v>
   <v>      -0.04259968       0.10104922       0.00629820 </v>
   <v>       0.04335739      -0.10143517       0.00830078 </v>
   <v>       0.01997627       0.14939944      -0.00270271 </v>
   <v>      -0.03180455      -0.16562258      -0.10246406 </v>
   <v>       0.06333089       0.22219917      -0.01524943 </v>
   <v>      -0.06581793      -0.22166313      -0.01509175 </v>
   <v>       0.03357079       0.16609728      -0.10181068 </v>
   <v>      -0.01911496      -0.14906776      -0.00385970 </v>
   <v>       0.28663087       0.11988036       0.17174374 </v>
   <v>      -0.08203208      -1.19356747       0.09755028 </v>
   <v>       0.57643005       0.26176379       0.13613358 </v>
   <v>      -0.58033686      -0.25786630       0.13245985 </v>
   <v>       0.09153710       1.18981438       0.10022839 </v>
   <v>      -0.28529827      -0.12423056       0.17256390 </v>
   <v>       0.02162872       0.04320024       0.05361267 </v>
   <v>      -0.03018962      -0.04022103       0.05426433 </v>
   <v>      -0.01894566       0.10164267      -0.03323850 </v>
   <v>       0.27341594      -0.18937809       0.20127477 </v>
   <v>      -0.09068507       0.26982617      -0.46362447 </v>
   <v>       0.08495541      -0.26634546      -0.46318061 </v>
   <v>      -0.27069273       0.18202437       0.20514551 </v>
   <v>       0.02138991      -0.10152327      -0.03157734 </v>
   <v>      -0.23864070       0.15282116      -0.21979233 </v>
   <v>       0.23044926      -0.15099802      -0.21711125 </v>
  </varray>
  <varray name="stress" >
   <v>      -0.95112196       1.77023713       0.00609764 </v>
   <v>       1.77023752     -16.19207294      -0.02650956 </v>
   <v>       0.00609765      -0.02650964      -3.46527727 </v>
  </varray>
  <energy>
   <i name="e_fr_energy">   -313.63650786 </i>
   <i name="e_wo_entrp">   -313.63650786 </i>
   <i name="e_0_energy">      0.00000000 </i>
  </energy>
  <time name="totalsc">  617.15  623.40</time>
 </calculation>
 <calculation>
  <scstep>
   <time name="dav">   39.12   39.24</time>
   <time name="total">   39.62   39.76</time>
   <energy>
    <i name="alphaZ">   1073.51873187 </i>
    <i name="ewald"> -30875.27017519 </i>
    <i name="hartreedc"> -12947.42689609 </i>
    <i name="XCdc">   1419.32921527 </i>
    <i name="pawpsdc">  43848.68087278 </i>
    <i name="pawaedc"> -43325.40686086 </i>
    <i name="eentropy">      0.00000000 </i>
    <i name="bandstr">  -4283.51436745 </i>
    <i name="atom">  44791.06186932 </i>
    <i name="e_fr_energy">   -299.02761035 </i>
    <i name="e_wo_entrp">   -299.02761035 </i>
    <i name="e_0_energy">   -299.02761035 </i>
   </energy>
  </scstep>
  <scstep>
   <time name="dav">   43.42   43.82</time>
   <time name="total">   43.92   44.38</time>
   <energy>
    <i name="e_fr_energy">   -299.14591493 </i>
    <i name="e_wo_entrp">   -299.14591493 </i>
    <i name="e_0_energy">   -299.14591493 </i>
   </energy>
  </scstep>
  <scstep>
   <time name="dav">   62.79   63.58</time>
   <time name="total">   63.30   64.12</time>
   <energy>
    <i name="e_fr_energy">   -299.14563824 </i>
    <i name="e_wo_entrp">   -299.14563824 </i>
    <i name="e_0_energy">   -299.14563824 </i>
   </energy>
  </scstep>
  <scstep>
   <time name="dav">   47.31   47.67</time>
   <time name="total">   47.81   48.19</time>
   <energy>
    <i name="e_fr_energy">   -299.14258776 </i>
    <i name="e_wo_entrp">   -299.14258776 </i>
    <i name="e_0_energy">   -299.14258776 </i>
   </energy>
  </scstep>
  <scstep>
   <time name="dav">   45.87   46.16</time>
   <time name="total">   46.37   46.68</time>
   <energy>
    <i name="e_fr_energy">   -299.14183281 </i>
    <i name="e_wo_entrp">   -299.14183281 </i>
    <i name="e_0_energy">   -299.14183281 </i>
   </energy>
  </scstep>
  <scstep>
   <time name="dav">   47.52   47.97</time>
   <time name="total">   48.03   48.58</time>
   <energy>
    <i name="e_fr_energy">   -299.14190741 </i>
    <i name="e_wo_entrp">   -299.14190741 </i>
    <i name="e_0_energy">   -299.14190741 </i>
   </energy>
  </scstep>
  <scstep>
   <time name="dav">   58.87   59.46</time>
   <time name="total">   59.37   60.00</time>
   <energy>
    <i name="e_fr_energy">   -299.14189803 </i>
    <i name="e_wo_entrp">   -299.14189803 </i>
    <i name="e_0_energy">   -299.14189803 </i>
   </energy>
  </scstep>
  <scstep>
   <time name="dav">   45.17   45.75</time>
   <time name="total">   45.67   46.27</time>
   <energy>
    <i name="e_fr_energy">   -299.14189198 </i>
    <i name="e_wo_entrp">   -299.14189198 </i>
    <i name="e_0_energy">   -299.14189198 </i>
   </energy>
  </scstep>
  <scstep>
   <time name="dav">   43.19   43.72</time>
   <time name="total">   43.70   44.31</time>
   <energy>
    <i name="e_fr_energy">   -299.14189335 </i>
    <i name="e_wo_entrp">   -299.14189335 </i>
    <i name="e_0_energy">   -299.14189335 </i>
   </energy>
[...]
       <r>    8.8660    0.0000 </r>
       <r>    8.9084    0.0000 </r>
       <r>    8.9102    0.0000 </r>
       <r>    8.9265    0.0000 </r>
       <r>    8.9409    0.0000 </r>
      </set>
     </set>
    </set>
   </array>
  </eigenvalues>
  <separator name="orbital magnetization" >
   <v name="MAGDIPOLOUT">      0.00000000      0.00000000      0.00000000</v>
  </separator>
  <dos>
   <i name="efermi">      4.36761309 </i>
   <total>
    <array>
     <dimension dim="1">gridpoints</dimension>
     <dimension dim="2">spin</dimension>
     <field>energy</field>
     <field>total</field>
     <field>integrated</field>
     <set>
      <set comment="spin 1">
       <r>   -42.4347     0.0000     0.0000 </r>
       <r>   -42.2534     0.0000     0.0000 </r>
       <r>   -42.0722     0.0000     0.0000 </r>
       <r>   -41.8910     0.0000     0.0000 </r>
       <r>   -41.7098     0.0000     0.0000 </r>
       <r>   -41.5285     0.0000     0.0000 </r>
       <r>   -41.3473     0.0000     0.0000 </r>
       <r>   -41.1661     0.0000     0.0000 </r>
       <r>   -40.9848     0.0000     0.0000 </r>
       <r>   -40.8036     0.0000     0.0000 </r>
       <r>   -40.6224     0.0000     0.0000 </r>
       <r>   -40.4412     0.0000     0.0000 </r>
       <r>   -40.2599     0.0000     0.0000 </r>
       <r>   -40.0787     0.0000     0.0000 </r>
       <r>   -39.8975     0.0000     4.0000 </r>
       <r>   -39.7162     0.0000     4.0000 </r>
       <r>   -39.5350     0.0000    14.0000 </r>
       <r>   -39.3538     0.0000    16.0000 </r>
       <r>   -39.1726     0.0000    20.0000 </r>
       <r>   -38.9913     0.0000    20.0000 </r>
       <r>   -38.8101     0.0000    20.0000 </r>
       <r>   -38.6289     0.0000    20.0000 </r>
       <r>   -38.4476     0.0000    20.0000 </r>
       <r>   -38.2664     0.0000    20.0000 </r>
       <r>   -38.0852     0.0000    20.0000 </r>
       <r>   -37.9040     0.0000    20.0000 </r>
       <r>   -37.7227     0.0000    20.0000 </r>
       <r>   -37.5415     0.0000    20.0000 </r>
       <r>   -37.3603     0.0000    20.0000 </r>
       <r>   -37.1790     0.0000    20.0000 </r>
       <r>   -36.9978     0.0000    20.0000 </r>
       <r>   -36.8166     0.0000    20.0000 </r>
       <r>   -36.6354     0.0000    20.0000 </r>
       <r>   -36.4541     0.0000    20.0000 </r>
       <r>   -36.2729     0.0000    20.0000 </r>
       <r>   -36.0917     0.0000    20.0000 </r>
       <r>   -35.9104     0.0000    20.0000 </r>
       <r>   -35.7292     0.0000    20.0000 </r>
       <r>   -35.5480     0.0000    20.0000 </r>
       <r>   -35.3668     0.0000    20.0000 </r>
       <r>   -35.1855     0.0000    20.0000 </r>
       <r>   -35.0043     0.0000    20.0000 </r>
       <r>   -34.8231     0.0000    20.0000 </r>
       <r>   -34.6418     0.0000    20.0000 </r>
       <r>   -34.4606     0.0000    20.0000 </r>
       <r>   -34.2794     0.0000    20.0000 </r>
       <r>   -34.0982     0.0000    20.0000 </r>
       <r>   -33.9169     0.0000    20.0000 </r>
       <r>   -33.7357     0.0000    20.0000 </r>
       <r>   -33.5545     0.0000    20.0000 </r>
       <r>   -33.3732     0.0000    20.0000 </r>
       <r>   -33.1920     0.0000    20.0000 </r>
       <r>   -33.0108     0.0000    20.0000 </r>
       <r>   -32.8296     0.0000    20.0000 </r>
       <r>   -32.6483     0.0000    20.0000 </r>
       <r>   -32.4671     0.0000    20.0000 </r>
       <r>   -32.2859     0.0000    20.0000 </r>
       <r>   -32.1046     0.0000    20.0000 </r>
       <r>   -31.9234     0.0000    20.0000 </r>
       <r>   -31.7422     0.0000    20.0000 </r>
       <r>   -31.5610     0.0000    20.0000 </r>
       <r>   -31.3797     0.0000    20.0000 </r>
       <r>   -31.1985     0.0000    20.0000 </r>
       <r>   -31.0173     0.0000    20.0000 </r>
       <r>   -30.8360     0.0000    20.0000 </r>
       <r>   -30.6548     0.0000    20.0000 </r>
       <r>   -30.4736     0.0000    20.0000 </r>
       <r>   -30.2924     0.0000    20.0000 </r>
       <r>   -30.1111     0.0000    20.0000 </r>
       <r>   -29.9299     0.0000    20.0000 </r>
       <r>   -29.7487     0.0000    20.0000 </r>
       <r>   -29.5674     0.0000    20.0000 </r>
       <r>   -29.3862     0.0000    20.0000 </r>
       <r>   -29.2050     0.0000    20.0000 </r>
       <r>   -29.0238     0.0000    20.0000 </r>
       <r>   -28.8425     0.0000    20.0000 </r>
       <r>   -28.6613     0.0000    20.0000 </r>
       <r>   -28.4801     0.0000    20.0000 </r>
       <r>   -28.2988     0.0000    20.0000 </r>
       <r>   -28.1176     0.0000    20.0000 </r>
       <r>   -27.9364     0.0000    20.0000 </r>
       <r>   -27.7552     0.0000    20.0000 </r>
       <r>   -27.5739     0.0000    20.0000 </r>
       <r>   -27.3927     0.0000    20.0000 </r>
       <r>   -27.2115     0.0000    20.0000 </r>
       <r>   -27.0302     0.0000    20.0000 </r>
       <r>   -26.8490     0.0000    20.0000 </r>
       <r>   -26.6678     0.0000    20.0000 </r>
       <r>   -26.4866     0.0000    20.0000 </r>
       <r>   -26.3053     0.0000    20.0000 </r>
       <r>   -26.1241     0.0000    20.0000 </r>
       <r>   -25.9429     0.0000    20.0000 </r>
       <r>   -25.7616     0.0000    20.0000 </r>
       <r>   -25.5804     0.0000    20.0000 </r>
       <r>   -25.3992     0.0000    20.0000 </r>
       <r>   -25.2180     0.0000    20.0000 </r>
       <r>   -25.0367     0.0000    20.0000 </r>
       <r>   -24.8555     0.0000    20.0000 </r>
       <r>   -24.6743     0.0000    20.0000 </r>
       <r>   -24.4930     0.0000    20.0000 </r>
       <r>   -24.3118     0.0000    20.0000 </r>
       <r>   -24.1306     0.0000    20.0000 </r>
       <r>   -23.9494     0.0000    20.0000 </r>
       <r>   -23.7681     0.0000    20.0000 </r>
       <r>   -23.5869     0.0000    20.0000 </r>
       <r>   -23.4057     0.0000    20.0000 </r>
       <r>   -23.2244     0.0000    20.0000 </r>
       <r>   -23.0432     0.0000    20.0000 </r>
       <r>   -22.8620     0.0000    20.0000 </r>
       <r>   -22.6808     0.0000    20.0000 </r>
       <r>   -22.4995     0.0000    20.0000 </r>
       <r>   -22.3183     0.0000    20.0000 </r>
       <r>   -22.1371     0.0000    20.0000 </r>
       <r>   -21.9558     0.0000    20.0000 </r>
       <r>   -21.7746     0.0000    20.0000 </r>
       <r>   -21.5934     0.0000    20.0000 </r>
       <r>   -21.4122     0.0000    20.0000 </r>
       <r>   -21.2309     0.0000    20.0000 </r>
       <r>   -21.0497     0.0000    20.0000 </r>
       <r>   -20.8685     0.0000    20.0000 </r>
       <r>   -20.6872     0.0000    20.0000 </r>
       <r>   -20.5060     0.0000    20.0000 </r>
       <r>   -20.3248     0.0000    20.0000 </r>
       <r>   -20.1436     0.0000    20.0000 </r>
       <r>   -19.9623     0.0000    20.0000 </r>
       <r>   -19.7811     0.0000    20.0000 </r>
       <r>   -19.5999     0.0000    20.0000 </r>
       <r>   -19.4186     0.0000    20.0000 </r>
       <r>   -19.2374     0.0000    20.0000 </r>
       <r>   -19.0562     0.0000    20.0000 </r>
       <r>   -18.8750     0.0000    20.0000 </r>
       <r>   -18.6937     0.0000    36.0000 </r>
       <r>   -18.5125     0.0000   136.0000 </r>
       <r>   -18.3313     0.0000   176.0000 </r>
       <r>   -18.1500     0.0000   180.0000 </r>
       <r>   -17.9688     0.0000   180.0000 </r>
       <r>   -17.7876     0.0000   180.0000 </r>
       <r>   -17.6064     0.0000   180.0000 </r>
       <r>   -17.4251     0.0000   180.0000 </r>
       <r>   -17.2439     0.0000   180.0000 </r>
       <r>   -17.0627     0.0000   180.0000 </r>
       <r>   -16.8814     0.0000   180.0000 </r>
       <r>   -16.7002     0.0000   180.0000 </r>
       <r>   -16.5190     0.0000   180.0000 </r>
       <r>   -16.3378     0.0000   180.0000 </r>
       <r>   -16.1565     0.0000   180.0000 </r>
       <r>   -15.9753     0.0000   180.0000 </r>
       <r>   -15.7941     0.0000   180.0000 </r>
       <r>   -15.6128     0.0000   180.0000 </r>
       <r>   -15.4316     0.0000   180.0000 </r>
       <r>   -15.2504     0.0000   180.0000 </r>
       <r>   -15.0692     0.0000   180.0000 </r>
       <r>   -14.8879     0.0000   180.0000 </r>
       <r>   -14.7067     0.0000   180.0000 </r>
       <r>   -14.5255     0.0000   180.0000 </r>
       <r>   -14.3442     0.0000   180.0000 </r>
       <r>   -14.1630     0.0000   180.0000 </r>
       <r>   -13.9818     0.0000   180.0000 </r>
       <r>   -13.8006     0.0000   180.0000 </r>
       <r>   -13.6193     0.0000   180.0000 </r>
       <r>   -13.4381     0.0000   180.0000 </r>
       <r>   -13.2569     0.0000   180.0000 </r>
       <r>   -13.0756     0.0000   182.0000 </r>
       <r>   -12.8944     0.0000   186.0000 </r>
       <r>   -12.7132     0.0000   196.0000 </r>
       <r>   -12.5320   166.5700   205.2893 </r>
       <r>   -12.3507     0.0000   212.0000 </r>
       <r>   -12.1695     0.0000   212.0000 </r>
       <r>   -11.9883     0.0000   212.0000 </r>
       <r>   -11.8070     0.0000   212.0000 </r>
       <r>   -11.6258     0.0000   212.0000 </r>
       <r>   -11.4446     0.0000   212.0000 </r>
       <r>   -11.2634     0.0000   212.0000 </r>
       <r>   -11.0821     0.0000   212.0000 </r>
       <r>   -10.9009     0.0000   212.0000 </r>
       <r>   -10.7197     0.0000   212.0000 </r>
       <r>   -10.5384     0.0000   212.0000 </r>
       <r>   -10.3572     0.0000   212.0000 </r>
       <r>   -10.1760     0.0000   212.0000 </r>
       <r>    -9.9948     0.0000   212.0000 </r>
       <r>    -9.8135     0.0000   212.0000 </r>
       <r>    -9.6323     0.0000   212.0000 </r>
       <r>    -9.4511     0.0000   212.0000 </r>
       <r>    -9.2698     5.0684   212.1872 </r>
       <r>    -9.0886    14.2578   213.8918 </r>
       <r>    -8.9074     0.0000   216.0000 </r>
       <r>    -8.7262    16.8447   218.4461 </r>
       <r>    -8.5449    12.4872   220.5361 </r>
       <r>    -8.3637    21.7831   225.3534 </r>
       <r>    -8.1825     2.6823   228.0204 </r>
       <r>    -8.0012    27.2475   232.3897 </r>
       <r>    -7.8200    21.4823   236.7635 </r>
       <r>    -7.6388     8.3512   240.1343 </r>
       <r>    -7.4576    11.8254   243.4201 </r>
       <r>    -7.2763     0.0000   244.0000 </r>
       <r>    -7.0951     0.0000   244.0000 </r>
       <r>    -6.9139     0.0000   244.0000 </r>
       <r>    -6.7326     0.0000   244.0000 </r>
       <r>    -6.5514     0.0000   244.0000 </r>
       <r>    -6.3702     0.0000   244.0000 </r>
       <r>    -6.1890    14.7904   245.0926 </r>
       <r>    -6.0077    29.3949   249.5273 </r>
       <r>    -5.8265    18.8146   252.7025 </r>
       <r>    -5.6453    23.6775   257.5928 </r>
       <r>    -5.4640    23.2530   262.0747 </r>
       <r>    -5.2828    16.8417   265.7277 </r>
       <r>    -5.1016     5.7840   267.8374 </r>
       <r>    -4.9204     6.1347   268.4981 </r>
       <r>    -4.7391     9.1831   269.9833 </r>
       <r>    -4.5579    10.7464   271.9176 </r>
       <r>    -4.3767     5.6480   273.0913 </r>
       <r>    -4.1954     8.2270   274.3636 </r>
       <r>    -4.0142     3.9311   275.4747 </r>
       <r>    -3.8330     1.2383   275.8780 </r>
       <r>    -3.6518     0.1225   275.9975 </r>
       <r>    -3.4705     0.0000   276.0000 </r>
       <r>    -3.2893     0.0000   276.0000 </r>
       <r>    -3.1081     0.0000   276.0000 </r>
       <r>    -2.9268     0.0000   276.0000 </r>
       <r>    -2.7456     0.0000   276.0000 </r>
       <r>    -2.5644     0.0000   276.0000 </r>
       <r>    -2.3832     0.0000   276.0000 </r>
       <r>    -2.2019     0.0000   276.0000 </r>
       <r>    -2.0207     0.0000   276.0000 </r>
       <r>    -1.8395     0.0000   276.0000 </r>
       <r>    -1.6582     0.0000   276.0000 </r>
       <r>    -1.4770     0.0000   276.0000 </r>
       <r>    -1.2958     0.9534   276.0171 </r>
       <r>    -1.1146     9.0823   276.9951 </r>
       <r>    -0.9333     9.2360   278.4050 </r>
       <r>    -0.7521    13.2841   280.7207 </r>
       <r>    -0.5709     7.9696   282.5883 </r>
       <r>    -0.3896    10.6134   283.9306 </r>
       <r>    -0.2084    28.0192   287.6827 </r>
       <r>    -0.0272    40.5723   293.4772 </r>
       <r>     0.1540    35.6666   300.4794 </r>
       <r>     0.3353    48.6758   306.9405 </r>
       <r>     0.5165    34.9391   314.9724 </r>
       <r>     0.6977    37.6356   321.1995 </r>
       <r>     0.8790    38.3914   327.5274 </r>
       <r>     1.0602    43.5102   334.1385 </r>
       <r>     1.2414    49.3486   342.8793 </r>
       <r>     1.4226    46.6439   351.2267 </r>
       <r>     1.6039    51.6962   359.1892 </r>
       <r>     1.7851    54.6623   368.6556 </r>
       <r>     1.9663    62.1295   378.9210 </r>
       <r>     2.1476    32.2967   386.8848 </r>
       <r>     2.3288    47.6877   393.9854 </r>
       <r>     2.5100    67.9588   403.8422 </r>
       <r>     2.6912    73.3880   416.9301 </r>
       <r>     2.8725    72.3929   429.2183 </r>
       <r>     3.0537    54.1168   444.2914 </r>
       <r>     3.2349    24.4337   451.9591 </r>
       <r>     3.4162    33.2249   456.5245 </r>
       <r>     3.5974    15.8246   463.1124 </r>
       <r>     3.7786    10.8086   465.5104 </r>
       <r>     3.9598     6.5465   467.0831 </r>
       <r>     4.1411     2.2792   467.8829 </r>
       <r>     4.3223     0.0000   468.0000 </r>
       <r>     4.5035     0.0000   468.0000 </r>
       <r>     4.6848     0.0000   468.0000 </r>
       <r>     4.8660     0.0000   468.0000 </r>
       <r>     5.0472     0.0000   468.0000 </r>
       <r>     5.2284     1.1627   468.0384 </r>
       <r>     5.4097     5.6275   468.6509 </r>
       <r>     5.5909     9.4497   470.0562 </r>
       <r>     5.7721    18.4665   471.9859 </r>
       <r>     5.9534    14.6864   476.0911 </r>
       <r>     6.1346    12.3926   478.5296 </r>
       <r>     6.3158    12.3180   480.7349 </r>
       <r>     6.4970    13.9509   483.1147 </r>
       <r>     6.6783    15.5792   485.7908 </r>
       <r>     6.8595    17.3417   488.7714 </r>
       <r>     7.0407    20.6911   492.1439 </r>
       <r>     7.2220    26.3460   496.4021 </r>
       <r>     7.4032    45.7182   502.7952 </r>
       <r>     7.5844    25.8866   509.4302 </r>
       <r>     7.7656    35.7791   515.0826 </r>
       <r>     7.9469    45.9107   521.5273 </r>
       <r>     8.1281    34.0763   529.5518 </r>
       <r>     8.3093    18.7056   534.0433 </r>
       <r>     8.4906    16.5284   537.0674 </r>
       <r>     8.6718    29.5143   541.0050 </r>
       <r>     8.8530    43.7849   546.7653 </r>
       <r>     9.0342    39.8530   555.6797 </r>
       <r>     9.2155     7.6719   559.1215 </r>
       <r>     9.3967     1.5717   559.9599 </r>
       <r>     9.5779     0.0000   560.0000 </r>
       <r>     9.7592     0.0000   560.0000 </r>
       <r>     9.9404     0.0000   560.0000 </r>
       <r>    10.1216     0.0000   560.0000 </r>
       <r>    10.3028     0.0000   560.0000 </r>
       <r>    10.4841     0.0000   560.0000 </r>
       <r>    10.6653     0.0000   560.0000 </r>
       <r>    10.8465     0.0000   560.0000 </r>
       <r>    11.0278     0.0000   560.0000 </r>
       <r>    11.2090     0.0000   560.0000 </r>
       <r>    11.3902     0.0000   560.0000 </r>
       <r>    11.5714     0.0000   560.0000 </r>
       <r>    11.7527     0.0000   560.0000 </r>
       <r>    11.9339     0.0000   560.0000 </r>
      </set>
     </set>
    </array>
   </total>
  </dos>
 </calculation>
 <structure name="finalpos" >
  <crystal>
   <varray name="basis" >
    <v>      11.17850000       0.00000000       0.00000000 </v>
    <v>       0.00000000       9.57460000       0.00000000 </v>
    <v>       0.00000000       0.00000000      11.18240000 </v>
   </varray>
   <i name="volume">   1196.84853820 </i>
   <varray name="rec_basis" >
    <v>       0.08945744       0.00000000       0.00000000 </v>
    <v>       0.00000000       0.10444301       0.00000000 </v>
    <v>       0.00000000       0.00000000       0.08942624 </v>
   </varray>
  </crystal>
  <varray name="positions" >
   <v>       0.36586072      -0.00124293       0.43850456 </v>
   <v>       0.38287806       0.00195210       0.17881184 </v>
   <v>       0.62511045       0.99991489       0.43844439 </v>
   <v>       0.88443405       0.00135742       0.43839845 </v>
   <v>       0.62488184       0.99987953       0.19333179 </v>
   <v>       0.86682486      -0.00186519       0.17880534 </v>
   <v>       0.12481936       0.99990737       0.67083891 </v>
   <v>       0.37370263      -0.00069414       0.69456046 </v>
   <v>       0.62488626       0.99994850       0.68144579 </v>
   <v>       0.87585923       0.00096926       0.69460545 </v>
   <v>       0.12486623       0.99991017       0.20465773 </v>
   <v>       0.12503207       0.99997293       0.93561425 </v>
   <v>       0.62503265       0.99996580       0.93716122 </v>
   <v>      -0.00022002       0.30486282       0.06157528 </v>
   <v>       0.25023540       0.69508794       0.06162965 </v>
   <v>       0.25143457       0.30119667       0.31366175 </v>
   <v>       0.50150072       0.70443193       0.31350914 </v>
   <v>       0.49965387       0.29845107       0.06255287 </v>
   <v>       0.75038185       0.70147447       0.06260045 </v>
   <v>       0.74848088       0.29558301       0.31350980 </v>
   <v>      -0.00149981       0.69880885       0.31368728 </v>
   <v>      -0.00035965       0.29100277       0.56312657 </v>
   <v>       0.25033548       0.70904722       0.56311092 </v>
   <v>       0.25074351       0.29981365       0.81293571 </v>
   <v>       0.49990945       0.70178545       0.81168356 </v>
   <v>       0.50174729       0.29584354       0.56255866 </v>
   <v>       0.74826258       0.70415431       0.56258073 </v>
   <v>       0.75010808       0.29821437       0.81165366 </v>
   <v>       0.99928257       0.70020448       0.81296659 </v>
   <v>       0.24829840       0.33643370       0.06272721 </v>
   <v>       0.00175640       0.66358959       0.06272840 </v>
   <v>       0.49952617       0.33614099       0.31270402 </v>
   <v>       0.24891903       0.66838977       0.31130467 </v>
   <v>       0.74871109       0.33326086       0.06199729 </v>
   <v>       0.50134344       0.66671660       0.06200125 </v>
   <v>       0.00103724       0.33158334       0.31129065 </v>
   <v>       0.75039848       0.66381554       0.31272426 </v>
   <v>       0.25070914       0.33280798       0.56298117 </v>
   <v>      -0.00064160       0.66718416       0.56299005 </v>
   <v>       0.50133556       0.33404738       0.81438497 </v>
   <v>       0.24834426       0.66567345       0.81434257 </v>
   <v>       0.75025089       0.33786201       0.56223731 </v>
   <v>       0.49979772       0.66215399       0.56223097 </v>
   <v>       0.00161235       0.33436078       0.81432486 </v>
   <v>       0.74862705       0.66598255       0.81439509 </v>
   <v>       0.51861830       0.08191584       0.06858040 </v>
   <v>       0.22479881       0.91519700       0.07213774 </v>
   <v>       0.26253151       0.08179010       0.29556585 </v>
   <v>      -0.01267848       0.91824408       0.29559038 </v>
   <v>       0.02526637       0.08471815       0.07206333 </v>
   <v>       0.73136839       0.91804488       0.06865364 </v>
   <v>       0.75047148       0.07851079       0.31268894 </v>
   <v>       0.49946906       0.92150315       0.31271448 </v>
   <v>       0.50078828       0.07917064       0.56147621 </v>
   <v>       0.26527520       0.92052472       0.57493860 </v>
   <v>       0.23155176       0.08298261       0.80585733 </v>
   <v>       0.01843926       0.91701440       0.80588924 </v>
   <v>       0.98460390       0.07953978       0.57500972 </v>
   <v>       0.74915810       0.92082216       0.56150952 </v>
   <v>       0.73086994       0.08243767       0.80641682 </v>
   <v>       0.51908732       0.91754309       0.80649028 </v>
  </varray>
 </structure>
</modeling>
