<?xml version="1.0" encoding="ISO-8859-1"?>
<modeling>
 <generator>
  <i name="program" type="string">vasp </i>
  <i name="version" type="string">5.4.4.18Apr17-6-g9f103f2a35  </i>
  <i name="subversion" type="string">(build Jul 31 2017 11:33:29) complex            parallel </i>
  <i name="platform" type="string">LinuxIFC </i>
  <i name="date" type="string">2021 09 29 </i>
  <i name="time" type="string">15:38:25 </i>
 </generator>
 <incar>
  <i type="string" name="SYSTEM"> La2O2S</i>
  <i type="string" name="PREC">normal</i>
  <i type="int" name="NELMIN">     4</i>
  <i type="int" name="IBRION">     2</i>
  <i type="int" name="NFREE">    10</i>
  <i name="EDIFF">      0.00000100</i>
  <i name="EDIFFG">     -0.01000000</i>
  <i type="int" name="NSW">     1</i>
  <i type="int" name="ISIF">     2</i>
  <i name="ENCUT">    600.00000000</i>
  <i name="ENAUG">    900.00000000</i>
  <i type="int" name="ISMEAR">    -5</i>
  <i type="logical" name="LWAVE"> F  </i>
  <i type="logical" name="LCHARG"> F  </i>
  <v type="int" name="KPOINT_BSE">    -1     0     0     0</v>
 </incar>
 <structure name="primitive_cell" >
  <crystal>
   <varray name="basis" >
    <v>      11.17850000       0.00000000       0.00000000 </v>
    <v>       0.00000000       9.57460000       0.00000000 </v>
    <v>       0.00000000       0.00000000      11.18240000 </v>
   </varray>
   <i name="volume">   1196.84853820 </i>
   <varray name="rec_basis" >
    <v>       0.08945744       0.00000000       0.00000000 </v>
    <v>       0.00000000       0.10444301       0.00000000 </v>
    <v>       0.00000000       0.00000000       0.08942624 </v>
   </varray>
  </crystal>
  <varray name="positions" >
   <v>       0.37539000       0.00017000       0.43687000 </v>
   <v>      -0.49987000      -0.07798000       0.31246000 </v>
   <v>       0.25013000       0.07798000       0.31246000 </v>
   <v>       0.49987000       0.07798000      -0.43754000 </v>
   <v>       0.24987000      -0.07798000      -0.43754000 </v>
   <v>      -0.37461000      -0.00016000       0.43687000 </v>
   <v>       0.49987000      -0.29519000       0.31282000 </v>
   <v>       0.24987000       0.29519000       0.31282000 </v>
   <v>      -0.49987000       0.29519000      -0.43719000 </v>
   <v>       0.25013000      -0.29519000      -0.43719000 </v>
   <v>       0.49995000       0.32677000       0.31286000 </v>
   <v>       0.24995000      -0.32677000       0.31286000 </v>
   <v>      -0.49995000      -0.32677000      -0.43714000 </v>
   <v>       0.25005000       0.32677000      -0.43714000 </v>
   <v>      -0.37539000      -0.00016000       0.18687000 </v>
   <v>      -0.37539000      -0.00016000      -0.31313000 </v>
   <v>       0.12461000      -0.00016000       0.18687000 </v>
   <v>       0.12461000      -0.00016000      -0.31313000 </v>
   <v>       0.49987000       0.07798000       0.06246000 </v>
   <v>      -0.24987000       0.07798000       0.31246000 </v>
   <v>      -0.25013000      -0.07798000      -0.43754000 </v>
   <v>       0.24987000      -0.07798000       0.06246000 </v>
   <v>       0.00013000      -0.07798000       0.31246000 </v>
   <v>      -0.49987000      -0.07798000      -0.18754000 </v>
   <v>      -0.00013000       0.07798000      -0.43754000 </v>
   <v>       0.25013000       0.07798000      -0.18754000 </v>
   <v>      -0.49987000       0.29519000       0.06281000 </v>
   <v>      -0.25013000       0.29519000       0.31282000 </v>
   <v>       0.25013000      -0.29519000       0.06281000 </v>
   <v>      -0.24987000      -0.29519000      -0.43719000 </v>
   <v>      -0.00013000      -0.29519000       0.31282000 </v>
   <v>       0.00013000       0.29519000      -0.43719000 </v>
   <v>       0.49987000      -0.29519000      -0.18718000 </v>
   <v>       0.24987000       0.29519000      -0.18718000 </v>
   <v>      -0.49995000      -0.32677000       0.06286000 </v>
   <v>       0.25005000       0.32677000       0.06286000 </v>
   <v>      -0.25005000      -0.32677000       0.31286000 </v>
   <v>      -0.24995000       0.32677000      -0.43714000 </v>
   <v>      -0.00005000       0.32677000       0.31286000 </v>
   <v>       0.00005000      -0.32677000      -0.43714000 </v>
   <v>       0.49995000       0.32677000      -0.18714000 </v>
   <v>       0.24995000      -0.32677000      -0.18714000 </v>
   <v>      -0.12461000       0.00017000       0.43687000 </v>
   <v>       0.37539000       0.00017000      -0.06313000 </v>
   <v>      -0.25013000      -0.07798000       0.06246000 </v>
   <v>      -0.00013000       0.07798000       0.06246000 </v>
   <v>      -0.24987000       0.07798000      -0.18754000 </v>
   <v>       0.00013000      -0.07798000      -0.18754000 </v>
   <v>      -0.12539000       0.00017000      -0.31313000 </v>
   <v>       0.12539000      -0.00016000      -0.06313000 </v>
   <v>      -0.24987000      -0.29519000       0.06281000 </v>
   <v>       0.00013000       0.29519000       0.06281000 </v>
   <v>      -0.25013000       0.29519000      -0.18718000 </v>
   <v>      -0.00013000      -0.29519000      -0.18718000 </v>
   <v>      -0.24995000       0.32677000       0.06286000 </v>
   <v>       0.00005000      -0.32677000       0.06286000 </v>
   <v>      -0.25005000      -0.32677000      -0.18714000 </v>
   <v>      -0.00005000       0.32677000      -0.18714000 </v>
   <v>      -0.12461000       0.00017000      -0.06313000 </v>
  </varray>
 </structure>
 <varray name="primitive_index" >
  <v type="int" >        1 </v>
  <v type="int" >       51 </v>
  <v type="int" >       46 </v>
  <v type="int" >       52 </v>
  <v type="int" >       53 </v>
  <v type="int" >        2 </v>
  <v type="int" >       15 </v>
  <v type="int" >       14 </v>
  <v type="int" >       24 </v>
  <v type="int" >       21 </v>
  <v type="int" >       30 </v>
  <v type="int" >       31 </v>
  <v type="int" >       41 </v>
  <v type="int" >       36 </v>
  <v type="int" >        8 </v>
  <v type="int" >       11 </v>
  <v type="int" >        7 </v>
  <v type="int" >       10 </v>
  <v type="int" >       44 </v>
  <v type="int" >       50 </v>
  <v type="int" >       57 </v>
  <v type="int" >       45 </v>
  <v type="int" >       47 </v>
  <v type="int" >       59 </v>
  <v type="int" >       56 </v>
  <v type="int" >       54 </v>
  <v type="int" >       16 </v>
  <v type="int" >       18 </v>
  <v type="int" >       13 </v>
  <v type="int" >       25 </v>
  <v type="int" >       19 </v>
  <v type="int" >       20 </v>
  <v type="int" >       23 </v>
  <v type="int" >       22 </v>
  <v type="int" >       33 </v>
  <v type="int" >       28 </v>
  <v type="int" >       35 </v>
  <v type="int" >       40 </v>
  <v type="int" >       34 </v>
  <v type="int" >       37 </v>
  <v type="int" >       38 </v>
  <v type="int" >       39 </v>
  <v type="int" >        3 </v>
  <v type="int" >        9 </v>
  <v type="int" >       49 </v>
  <v type="int" >       48 </v>
  <v type="int" >       58 </v>
  <v type="int" >       55 </v>
  <v type="int" >        6 </v>
  <v type="int" >        4 </v>
  <v type="int" >       17 </v>
  <v type="int" >       12 </v>
  <v type="int" >       26 </v>
  <v type="int" >       27 </v>
  <v type="int" >       32 </v>
  <v type="int" >       29 </v>
  <v type="int" >       43 </v>
  <v type="int" >       42 </v>
  <v type="int" >        5 </v>
 </varray>
 <kpoints>
  <generation param="Gamma">
   <v type="int" name="divisions">       2        2        2 </v>
   <v name="usershift">      0.00000000       0.00000000       0.00000000 </v>
   <v name="genvec1">      0.50000000       0.00000000       0.00000000 </v>
   <v name="genvec2">      0.00000000       0.50000000       0.00000000 </v>
   <v name="genvec3">      0.00000000       0.00000000       0.50000000 </v>
   <v name="shift">      0.00000000       0.00000000       0.00000000 </v>
  </generation>
  <varray name="kpointlist" >
   <v>       0.00000000       0.00000000       0.00000000 </v>
   <v>       0.50000000       0.00000000       0.00000000 </v>
   <v>       0.00000000       0.50000000       0.00000000 </v>
   <v>       0.50000000       0.50000000       0.00000000 </v>
   <v>       0.00000000       0.00000000       0.50000000 </v>
   <v>       0.50000000       0.00000000       0.50000000 </v>
   <v>       0.00000000       0.50000000       0.50000000 </v>
   <v>       0.50000000       0.50000000       0.50000000 </v>
  </varray>
  <varray name="weights" >
   <v>       0.12500000 </v>
   <v>       0.12500000 </v>
   <v>       0.12500000 </v>
   <v>       0.12500000 </v>
   <v>       0.12500000 </v>
   <v>       0.12500000 </v>
   <v>       0.12500000 </v>
   <v>       0.12500000 </v>
  </varray>
  <varray name="tetrahedronlist"  type="int" >
   <v type="int" >        2        1        2        4        5 </v>
   <v type="int" >        2        1        3        4        5 </v>
   <v type="int" >        2        3        4        5        7 </v>
   <v type="int" >        2        2        4        5        6 </v>
   <v type="int" >        2        4        5        6        8 </v>
   <v type="int" >        2        4        5        7        8 </v>
   <v type="int" >        2        1        2        3        6 </v>
   <v type="int" >        2        2        3        4        6 </v>
   <v type="int" >        2        3        4        6        8 </v>
   <v type="int" >        2        1        3        5        6 </v>
   <v type="int" >        2        3        5        6        7 </v>
   <v type="int" >        2        3        6        7        8 </v>
   <v type="int" >        2        2        3        4        7 </v>
   <v type="int" >        2        1        2        3        7 </v>
   <v type="int" >        2        1        2        5        7 </v>
   <v type="int" >        2        2        4        7        8 </v>
   <v type="int" >        2        2        6        7        8 </v>
   <v type="int" >        2        2        5        6        7 </v>
   <v type="int" >        2        1        3        4        8 </v>
   <v type="int" >        2        1        2        4        8 </v>
   <v type="int" >        2        1        2        6        8 </v>
   <v type="int" >        2        1        3        7        8 </v>
   <v type="int" >        2        1        5        7        8 </v>
   <v type="int" >        2        1        5        6        8 </v>
  </varray>
  <i name="volumeweight">      0.02083333 </i>
 </kpoints>
 <parameters>
  <separator name="general" >
   <i type="string" name="SYSTEM">La2O2S</i>
   <i type="logical" name="LCOMPAT"> F  </i>
  </separator>
  <separator name="electronic" >
   <i type="string" name="PREC">normal</i>
   <i name="ENMAX">    600.00000000</i>
   <i name="ENAUG">    900.00000000</i>
   <i name="EDIFF">      0.00000100</i>
   <i type="int" name="IALGO">    38</i>
   <i type="int" name="IWAVPR">    11</i>
   <i type="int" name="NBANDS">   280</i>
   <i name="NELECT">    460.00000000</i>
   <i type="int" name="TURBO">     0</i>
   <i type="int" name="IRESTART">     0</i>
   <i type="int" name="NREBOOT">     0</i>
   <i type="int" name="NMIN">     0</i>
   <i name="EREF">      0.00000000</i>
   <separator name="electronic smearing" >
    <i type="int" name="ISMEAR">    -5</i>
    <i name="SIGMA">      0.20000000</i>
    <i name="KSPACING">      0.50000000</i>
    <i type="logical" name="KGAMMA"> T  </i>
   </separator>
   <separator name="electronic projectors" >
    <i type="logical" name="LREAL"> F  </i>
    <v name="ROPT">      0.00000000      0.00000000      0.00000000      0.00000000      0.00000000</v>
    <i type="int" name="LMAXPAW">  -100</i>
    <i type="int" name="LMAXMIX">     2</i>
    <i type="logical" name="NLSPLINE"> F  </i>
   </separator>
   <separator name="electronic startup" >
    <i type="int" name="ISTART">     0</i>
    <i type="int" name="ICHARG">     2</i>
    <i type="int" name="INIWAV">     1</i>
   </separator>
   <separator name="electronic spin" >
    <i type="int" name="ISPIN">     1</i>
    <i type="logical" name="LNONCOLLINEAR"> F  </i>
    <v name="MAGMOM">      1.00000000      1.00000000      1.00000000      1.00000000      1.00000000      1.00000000      1.00000000      1.00000000      1.00000000      1.00000000      1.00000000      1.00000000      1.00000000      1.00000000      1.00000000      1.00000000      1.00000000      1.00000000      1.00000000      1.00000000
      1.00000000      1.00000000      1.00000000      1.00000000      1.00000000      1.00000000      1.00000000      1.00000000      1.00000000      1.00000000      1.00000000      1.00000000      1.00000000      1.00000000      1.00000000      1.00000000      1.00000000      1.00000000      1.00000000      1.00000000
      1.00000000      1.00000000      1.00000000      1.00000000      1.00000000      1.00000000      1.00000000      1.00000000      1.00000000      1.00000000      1.00000000      1.00000000      1.00000000      1.00000000      1.00000000      1.00000000      1.00000000      1.00000000      1.00000000</v>
    <i name="NUPDOWN">     -1.00000000</i>
    <i type="logical" name="LSORBIT"> F  </i>
    <v name="SAXIS">      0.00000000      0.00000000      1.00000000</v>
    <i type="logical" name="LSPIRAL"> F  </i>
    <v name="QSPIRAL">      0.00000000      0.00000000      0.00000000</v>
    <i type="logical" name="LZEROZ"> F  </i>
   </separator>
   <separator name="electronic exchange-correlation" >
    <i type="logical" name="LASPH"> F  </i>
    <i type="logical" name="LMETAGGA"> F  </i>
   </separator>
   <separator name="electronic convergence" >
    <i type="int" name="NELM">    60</i>
    <i type="int" name="NELMDL">    -5</i>
    <i type="int" name="NELMIN">     4</i>
    <i name="ENINI">    600.00000000</i>
    <separator name="electronic convergence detail" >
     <i type="logical" name="LDIAG"> T  </i>
     <i type="logical" name="LSUBROT"> F  </i>
     <i name="WEIMIN">      0.00100000</i>
     <i name="EBREAK">      0.00000000</i>
     <i name="DEPER">      0.30000000</i>
     <i type="int" name="NRMM">     4</i>
     <i name="TIME">      0.40000000</i>
    </separator>
   </separator>
   <separator name="electronic mixer" >
    <i name="AMIX">      0.40000000</i>
    <i name="BMIX">      1.00000000</i>
    <i name="AMIN">      0.10000000</i>
    <i name="AMIX_MAG">      1.60000000</i>
    <i name="BMIX_MAG">      1.00000000</i>
    <separator name="electronic mixer details" >
     <i type="int" name="IMIX">     4</i>
     <i type="logical" name="MIXFIRST"> F  </i>
     <i type="int" name="MAXMIX">   -45</i>
     <i name="WC">    100.00000000</i>
     <i type="int" name="INIMIX">     1</i>
     <i type="int" name="MIXPRE">     1</i>
     <i type="int" name="MREMOVE">     5</i>
    </separator>
   </separator>
   <separator name="electronic dipolcorrection" >
    <i type="logical" name="LDIPOL"> F  </i>
    <i type="logical" name="LMONO"> F  </i>
    <i type="int" name="IDIPOL">     0</i>
    <i name="EPSILON">      1.00000000</i>
    <v name="DIPOL">   -100.00000000   -100.00000000   -100.00000000</v>
    <i name="EFIELD">      0.00000000</i>
   </separator>
  </separator>
  <separator name="grids" >
   <i type="int" name="NGX">    70</i>
   <i type="int" name="NGY">    60</i>
   <i type="int" name="NGZ">    70</i>
   <i type="int" name="NGXF">   140</i>
   <i type="int" name="NGYF">   120</i>
   <i type="int" name="NGZF">   140</i>
   <i type="logical" name="ADDGRID"> F  </i>
  </separator>
  <separator name="ionic" >
   <i type="int" name="NSW">     1</i>
   <i type="int" name="IBRION">     2</i>
   <i type="int" name="MDALGO">     0</i>
   <i type="int" name="ISIF">     2</i>
   <i name="PSTRESS">      0.00000000</i>
   <i name="EDIFFG">     -0.01000000</i>
   <i type="int" name="NFREE">    10</i>
   <i name="POTIM">      0.50000000</i>
   <i name="SMASS">     -3.00000000</i>
   <i name="SCALEE">      1.00000000</i>
  </separator>
  <separator name="ionic md" >
   <i name="TEBEG">      0.00010000</i>
   <i name="TEEND">      0.00010000</i>
   <i type="int" name="NBLOCK">     1</i>
   <i type="int" name="KBLOCK">     1</i>
   <i type="int" name="NPACO">   256</i>
   <i name="APACO">     16.00000000</i>
  </separator>
  <separator name="symmetry" >
   <i type="int" name="ISYM">     2</i>
   <i name="SYMPREC">      0.00001000</i>
  </separator>
  <separator name="dos" >
   <i type="int" name="LORBIT">     0</i>
   <v name="RWIGS">     -1.00000000     -1.00000000     -1.00000000     -1.00000000     -1.00000000</v>
   <i type="int" name="NEDOS">   301</i>
   <i name="EMIN">     10.00000000</i>
   <i name="EMAX">    -10.00000000</i>
   <i name="EFERMI">      0.00000000</i>
  </separator>
  <separator name="writing" >
   <i type="int" name="NWRITE">     2</i>
   <i type="logical" name="LWAVE"> F  </i>
   <i type="logical" name="LDOWNSAMPLE"> F  </i>
   <i type="logical" name="LCHARG"> F  </i>
   <i type="logical" name="LPARD"> F  </i>
   <i type="logical" name="LVTOT"> F  </i>
   <i type="logical" name="LVHAR"> F  </i>
   <i type="logical" name="LELF"> F  </i>
   <i type="logical" name="LOPTICS"> F  </i>
   <v name="STM">      0.00000000      0.00000000      0.00000000      0.00000000      0.00000000      0.00000000      0.00000000</v>
  </separator>
  <separator name="performance" >
   <i type="int" name="NPAR">    28</i>
   <i type="int" name="NSIM">     4</i>
   <i type="int" name="NBLK">    -1</i>
   <i type="logical" name="LPLANE"> T  </i>
   <i type="logical" name="LSCALAPACK"> T  </i>
   <i type="logical" name="LSCAAWARE"> F  </i>
   <i type="logical" name="LSCALU"> F  </i>
   <i type="logical" name="LASYNC"> F  </i>
   <i type="logical" name="LORBITALREAL"> F  </i>
  </separator>
  <separator name="miscellaneous" >
   <i type="int" name="IDIOT">     3</i>
   <i type="int" name="ISPECIAL">     0</i>
   <i type="logical" name="LMUSIC"> F  </i>
   <v name="POMASS">      7.01000000     24.30500000    208.98000000     32.06600000     16.00000000</v>
   <v name="DARWINR">      0.00000000      0.00000000      0.00000000      0.00000000      0.00000000</v>
   <v name="DARWINV">      1.00000000      1.00000000      1.00000000      1.00000000      1.00000000</v>
   <i type="logical" name="LCORR"> T  </i>
  </separator>
  <i type="logical" name="GGA_COMPAT"> T  </i>
  <i type="logical" name="LBERRY"> F  </i>
  <i type="int" name="ICORELEVEL">     0</i>
  <i type="logical" name="LDAU"> F  </i>
  <i type="int" name="I_CONSTRAINED_M">     0</i>
  <separator name="electronic exchange-correlation" >
   <i type="string" name="GGA">--</i>
   <i type="int" name="VOSKOWN">     0</i>
   <i type="logical" name="LHFCALC"> F  </i>
   <i type="string" name="PRECFOCK"></i>
   <i type="logical" name="LSYMGRAD"> F  </i>
   <i type="logical" name="LHFONE"> F  </i>
   <i type="logical" name="LRHFCALC"> F  </i>
   <i type="logical" name="LTHOMAS"> F  </i>
   <i type="logical" name="LMODELHF"> F  </i>
   <i name="ENCUT4O">     -1.00000000</i>
   <i type="int" name="EXXOEP">     0</i>
   <i type="int" name="FOURORBIT">     0</i>
   <i name="AEXX">      0.00000000</i>
   <i name="HFALPHA">      0.00000000</i>
   <i name="MCALPHA">      0.00000000</i>
   <i name="ALDAX">      1.00000000</i>
   <i name="AGGAX">      1.00000000</i>
   <i name="ALDAC">      1.00000000</i>
   <i name="AGGAC">      1.00000000</i>
   <i type="int" name="NKREDX">     1</i>
   <i type="int" name="NKREDY">     1</i>
   <i type="int" name="NKREDZ">     1</i>
   <i type="logical" name="SHIFTRED"> F  </i>
   <i type="logical" name="ODDONLY"> F  </i>
   <i type="logical" name="EVENONLY"> F  </i>
   <i type="int" name="LMAXFOCK">     0</i>
   <i type="int" name="NMAXFOCKAE">     0</i>
   <i type="logical" name="LFOCKAEDFT"> F  </i>
   <i name="HFSCREEN">      0.00000000</i>
   <i name="HFSCREENC">      0.00000000</i>
   <i type="int" name="NBANDSGWLOW">     0</i>
  </separator>
  <separator name="vdW DFT" >
   <i type="logical" name="LUSE_VDW"> F  </i>
   <i name="Zab_VDW">     -0.84910000</i>
   <i name="PARAM1">      0.12340000</i>
   <i name="PARAM2">      1.00000000</i>
   <i name="PARAM3">      0.00000000</i>
  </separator>
  <separator name="model GW" >
   <i type="int" name="MODEL_GW">     0</i>
   <i name="MODEL_EPS0">     12.17134107</i>
   <i name="MODEL_ALPHA">      1.00000000</i>
  </separator>
  <separator name="linear response parameters" >
   <i type="logical" name="LEPSILON"> F  </i>
   <i type="logical" name="LRPA"> F  </i>
   <i type="logical" name="LNABLA"> F  </i>
   <i type="logical" name="LVEL"> F  </i>
   <i type="int" name="KINTER">     0</i>
   <i name="CSHIFT">      0.10000000</i>
   <i name="OMEGAMAX">     -1.00000000</i>
   <i name="DEG_THRESHOLD">      0.00200000</i>
   <i name="RTIME">     -0.10000000</i>
   <i name="WPLASMAI">      0.00000000</i>
   <v name="DFIELD">      0.00000000      0.00000000      0.00000000</v>
   <v name="WPLASMA">      0.00000000      0.00000000      0.00000000      0.00000000      0.00000000      0.00000000      0.00000000      0.00000000      0.00000000</v>
  </separator>
  <separator name="orbital magnetization" >
   <i type="logical" name="NUCIND"> F  </i>
   <v name="MAGPOS">      0.00000000      0.00000000      0.00000000</v>
   <i type="logical" name="LNICSALL"> T  </i>
   <i type="logical" name="ORBITALMAG"> F  </i>
   <i type="logical" name="LMAGBLOCH"> F  </i>
   <i type="logical" name="LCHIMAG"> F  </i>
   <i type="logical" name="LGAUGE"> T  </i>
   <i type="int" name="MAGATOM">     0</i>
   <v name="MAGDIPOL">      0.00000000      0.00000000      0.00000000</v>
   <v name="AVECCONST">      0.00000000      0.00000000      0.00000000</v>
  </separator>
  <separator name="response functions" >
   <i type="logical" name="LADDER"> F  </i>
   <i type="logical" name="LRPAFORCE"> F  </i>
   <i type="logical" name="LFXC"> F  </i>
   <i type="logical" name="LHARTREE"> T  </i>
   <i type="int" name="IBSE">     0</i>
   <v type="int" name="KPOINT">    -1     0     0     0</v>
   <i type="logical" name="LTCTE"> F  </i>
   <i type="logical" name="LTETE"> F  </i>
   <i type="logical" name="LTRIPLET"> F  </i>
   <i type="logical" name="LFXCEPS"> F  </i>
   <i type="logical" name="LFXHEG"> F  </i>
   <i type="int" name="NATURALO">     2</i>
   <i type="logical" name="L2ORDER"> F  </i>
   <i type="logical" name="LMP2LT"> F  </i>
   <i type="logical" name="LUSEW"> F  </i>
   <i name="ENCUTGW">     -2.00000000</i>
   <i name="ENCUTGWSOFT">     -2.00000000</i>
   <i name="ENCUTLF">     -1.00000000</i>
   <i type="int" name="LMAXMP2">    -1</i>
   <i name="SCISSOR">      0.00000000</i>
   <i type="int" name="NOMEGA">     0</i>
   <i type="int" name="NOMEGAR">     0</i>
   <i type="int" name="NBANDSGW">    -1</i>
   <i type="int" name="NBANDSO">    -1</i>
   <i type="int" name="NBANDSV">    -1</i>
   <i type="int" name="NELM">     1</i>
   <i type="int" name="NELMHF">     1</i>
   <i type="int" name="DIM">     3</i>
   <i type="int" name="ANTIRES">     0</i>
   <i name="OMEGAMAX">    -30.00000000</i>
   <i name="OMEGAMIN">    -30.00000000</i>
   <i name="OMEGATL">   -200.00000000</i>
   <i type="int" name="OMEGAGRID">   140</i>
   <i name="CSHIFT">     -0.10000000</i>
   <i type="logical" name="SELFENERGY"> F  </i>
   <i type="logical" name="LSPECTRAL"> F  </i>
   <i type="logical" name="LSPECTRALGW"> F  </i>
   <i type="logical" name="LSINGLES"> F  </i>
   <i type="logical" name="LFERMIGW"> F  </i>
   <i type="logical" name="ODDONLYGW"> F  </i>
   <i type="logical" name="EVENONLYGW"> F  </i>
   <i type="int" name="NKREDLFX">     1</i>
   <i type="int" name="NKREDLFY">     1</i>
   <i type="int" name="NKREDLFZ">     1</i>
   <i type="int" name="MAXMEM">  2800</i>
   <i type="int" name="TELESCOPE">     0</i>
   <i type="int" name="TAUPAR">     1</i>
   <i type="int" name="OMEGAPAR">    -1</i>
   <i name="LAMBDA">      1.00000000</i>
  </separator>
  <separator name="External order field" >
   <i name="OFIELD_KAPPA">      0.00000000</i>
   <v name="OFIELD_K">      0.00000000      0.00000000      0.00000000</v>
   <i name="OFIELD_Q6_NEAR">      0.00000000</i>
   <i name="OFIELD_Q6_FAR">      0.00000000</i>
   <i name="OFIELD_A">      0.00000000</i>
  </separator>
 </parameters>
 <atominfo>
  <atoms>      59 </atoms>
  <types>       5 </types>
  <array name="atoms" >
   <dimension dim="1">ion</dimension>
   <field type="string">element</field>
   <field type="int">atomtype</field>
   <set>
    <rc><c>Li</c><c>   1</c></rc>
    <rc><c>Li</c><c>   1</c></rc>
    <rc><c>Li</c><c>   1</c></rc>
    <rc><c>Li</c><c>   1</c></rc>
    <rc><c>Li</c><c>   1</c></rc>
    <rc><c>Li</c><c>   1</c></rc>
    <rc><c>Mg</c><c>   2</c></rc>
    <rc><c>Mg</c><c>   2</c></rc>
    <rc><c>Mg</c><c>   2</c></rc>
    <rc><c>Mg</c><c>   2</c></rc>
    <rc><c>Mg</c><c>   2</c></rc>
    <rc><c>Bi</c><c>   3</c></rc>
    <rc><c>Bi</c><c>   3</c></rc>
    <rc><c>Bi</c><c>   3</c></rc>
    <rc><c>Bi</c><c>   3</c></rc>
    <rc><c>Bi</c><c>   3</c></rc>
    <rc><c>Bi</c><c>   3</c></rc>
    <rc><c>Bi</c><c>   3</c></rc>
    <rc><c>Bi</c><c>   3</c></rc>
    <rc><c>Bi</c><c>   3</c></rc>
    <rc><c>Bi</c><c>   3</c></rc>
    <rc><c>Bi</c><c>   3</c></rc>
    <rc><c>Bi</c><c>   3</c></rc>
    <rc><c>Bi</c><c>   3</c></rc>
    <rc><c>Bi</c><c>   3</c></rc>
    <rc><c>Bi</c><c>   3</c></rc>
    <rc><c>Bi</c><c>   3</c></rc>
    <rc><c>S </c><c>   4</c></rc>
    <rc><c>S </c><c>   4</c></rc>
    <rc><c>S </c><c>   4</c></rc>
    <rc><c>S </c><c>   4</c></rc>
    <rc><c>S </c><c>   4</c></rc>
    <rc><c>S </c><c>   4</c></rc>
    <rc><c>S </c><c>   4</c></rc>
    <rc><c>S </c><c>   4</c></rc>
    <rc><c>S </c><c>   4</c></rc>
    <rc><c>S </c><c>   4</c></rc>
    <rc><c>S </c><c>   4</c></rc>
    <rc><c>S </c><c>   4</c></rc>
    <rc><c>S </c><c>   4</c></rc>
    <rc><c>S </c><c>   4</c></rc>
    <rc><c>S </c><c>   4</c></rc>
    <rc><c>S </c><c>   4</c></rc>
    <rc><c>O </c><c>   5</c></rc>
    <rc><c>O </c><c>   5</c></rc>
    <rc><c>O </c><c>   5</c></rc>
    <rc><c>O </c><c>   5</c></rc>
    <rc><c>O </c><c>   5</c></rc>
    <rc><c>O </c><c>   5</c></rc>
    <rc><c>O </c><c>   5</c></rc>
    <rc><c>O </c><c>   5</c></rc>
    <rc><c>O </c><c>   5</c></rc>
    <rc><c>O </c><c>   5</c></rc>
    <rc><c>O </c><c>   5</c></rc>
    <rc><c>O </c><c>   5</c></rc>
    <rc><c>O </c><c>   5</c></rc>
    <rc><c>O </c><c>   5</c></rc>
    <rc><c>O </c><c>   5</c></rc>
    <rc><c>O </c><c>   5</c></rc>
   </set>
  </array>
  <array name="atomtypes" >
   <dimension dim="1">type</dimension>
   <field type="int">atomspertype</field>
   <field type="string">element</field>
   <field>mass</field>
   <field>valence</field>
   <field type="string">pseudopotential</field>
   <set>
    <rc><c>   6</c><c>Li</c><c>      7.01000000</c><c>      3.00000000</c><c>  PAW_PBE Li_sv 10Sep2004               </c></rc>
    <rc><c>   5</c><c>Mg</c><c>     24.30500000</c><c>      2.00000000</c><c>  PAW_PBE Mg 13Apr2007                  </c></rc>
    <rc><c>  16</c><c>Bi</c><c>    208.98000000</c><c>     15.00000000</c><c>  PAW_PBE Bi_d 06Sep2000                </c></rc>
    <rc><c>  16</c><c>S </c><c>     32.06600000</c><c>      6.00000000</c><c>  PAW_PBE S 06Sep2000                   </c></rc>
    <rc><c>  16</c><c>O </c><c>     16.00000000</c><c>      6.00000000</c><c>  PAW_PBE O 08Apr2002                   </c></rc>
   </set>
  </array>
 </atominfo>
 <structure name="initialpos" >
  <crystal>
   <varray name="basis" >
    <v>      11.17850000       0.00000000       0.00000000 </v>
    <v>       0.00000000       9.57460000       0.00000000 </v>
    <v>       0.00000000       0.00000000      11.18240000 </v>
   </varray>
   <i name="volume">   1196.84853820 </i>
   <varray name="rec_basis" >
    <v>       0.08945744       0.00000000       0.00000000 </v>
    <v>       0.00000000       0.10444301       0.00000000 </v>
    <v>       0.00000000       0.00000000       0.08942624 </v>
   </varray>
  </crystal>
  <varray name="positions" >
   <v>       0.37539000       0.00017000       0.43687000 </v>
   <v>       0.62539000       0.99984000       0.43687000 </v>
   <v>       0.87539000       0.00017000       0.43687000 </v>
   <v>       0.12539000       0.99984000       0.93687000 </v>
   <v>       0.87539000       0.00017000       0.93687000 </v>
   <v>       0.87461000       0.00017000       0.68687000 </v>
   <v>       0.12461000       0.99984000       0.18687000 </v>
   <v>       0.62461000       0.99984000       0.18687000 </v>
   <v>       0.37539000       0.00017000       0.93687000 </v>
   <v>       0.12461000       0.99984000       0.68687000 </v>
   <v>       0.62461000       0.99984000       0.68687000 </v>
   <v>       0.00013000       0.29519000       0.06281000 </v>
   <v>       0.25013000       0.70481000       0.06281000 </v>
   <v>       0.24987000       0.29519000       0.31282000 </v>
   <v>       0.49987000       0.70481000       0.31282000 </v>
   <v>       0.50013000       0.29519000       0.06281000 </v>
   <v>       0.75013000       0.70481000       0.06281000 </v>
   <v>       0.74987000       0.29519000       0.31282000 </v>
   <v>       0.99987000       0.70481000       0.31282000 </v>
   <v>       0.00013000       0.29519000       0.56281000 </v>
   <v>       0.25013000       0.70481000       0.56281000 </v>
   <v>       0.24987000       0.29519000       0.81282000 </v>
   <v>       0.49987000       0.70481000       0.81282000 </v>
   <v>       0.50013000       0.29519000       0.56281000 </v>
   <v>       0.75013000       0.70481000       0.56281000 </v>
   <v>       0.74987000       0.29519000       0.81282000 </v>
   <v>       0.99987000       0.70481000       0.81282000 </v>
   <v>       0.25005000       0.32677000       0.06286000 </v>
   <v>       0.00005000       0.67323000       0.06286000 </v>
   <v>       0.49995000       0.32677000       0.31286000 </v>
   <v>       0.24995000       0.67323000       0.31286000 </v>
   <v>       0.75005000       0.32677000       0.06286000 </v>
   <v>       0.50005000       0.67323000       0.06286000 </v>
   <v>       0.99995000       0.32677000       0.31286000 </v>
   <v>       0.74995000       0.67323000       0.31286000 </v>
   <v>       0.25005000       0.32677000       0.56286000 </v>
   <v>       0.00005000       0.67323000       0.56286000 </v>
   <v>       0.49995000       0.32677000       0.81286000 </v>
   <v>       0.24995000       0.67323000       0.81286000 </v>
   <v>       0.75005000       0.32677000       0.56286000 </v>
   <v>       0.50005000       0.67323000       0.56286000 </v>
   <v>       0.99995000       0.32677000       0.81286000 </v>
   <v>       0.74995000       0.67323000       0.81286000 </v>
   <v>       0.49987000       0.07798000       0.06246000 </v>
   <v>       0.24987000       0.92202000       0.06246000 </v>
   <v>       0.25013000       0.07798000       0.31246000 </v>
   <v>       0.00013000       0.92202000       0.31246000 </v>
   <v>       0.99987000       0.07798000       0.06246000 </v>
   <v>       0.74987000       0.92202000       0.06246000 </v>
   <v>       0.75013000       0.07798000       0.31246000 </v>
   <v>       0.50013000       0.92202000       0.31246000 </v>
   <v>       0.49987000       0.07798000       0.56246000 </v>
   <v>       0.24987000       0.92202000       0.56246000 </v>
   <v>       0.25013000       0.07798000       0.81246000 </v>
   <v>       0.00013000       0.92202000       0.81246000 </v>
   <v>       0.99987000       0.07798000       0.56246000 </v>
   <v>       0.74987000       0.92202000       0.56246000 </v>
   <v>       0.75013000       0.07798000       0.81246000 </v>
   <v>       0.50013000       0.92202000       0.81246000 </v>
  </varray>
 </structure>
 <calculation>
  <scstep>
   <time name="dav">   60.28   60.70</time>
   <time name="total">   60.37   60.79</time>
   <energy>
    <i name="alphaZ">   1060.66890660 </i>
    <i name="ewald"> -30414.22643495 </i>
    <i name="hartreedc"> -12704.97424541 </i>
    <i name="XCdc">   1247.15532799 </i>
    <i name="pawpsdc">  36635.26894311 </i>
    <i name="pawaedc"> -35972.74895369 </i>
    <i name="eentropy">      0.00000000 </i>
    <i name="bandstr">   1869.24481675 </i>
    <i name="atom">  44026.03258983 </i>
    <i name="e_fr_energy">   5746.42095022 </i>
    <i name="e_wo_entrp">   5746.42095022 </i>
    <i name="e_0_energy">   5746.42095022 </i>
   </energy>
  </scstep>
  <scstep>
   <time name="dav">   61.53   61.53</time>
   <time name="total">   61.54   61.54</time>
   <energy>
    <i name="e_fr_energy">    757.22992462 </i>
    <i name="e_wo_entrp">    757.22992462 </i>
    <i name="e_0_energy">    757.22992462 </i>
   </energy>
  </scstep>
  <scstep>
   <time name="dav">   69.99   70.41</time>
   <time name="total">   69.99   70.41</time>
   <energy>
    <i name="e_fr_energy">   -244.60073723 </i>
    <i name="e_wo_entrp">   -244.60073723 </i>
    <i name="e_0_energy">   -244.60073723 </i>
   </energy>
  </scstep>
  <scstep>
   <time name="dav">   73.77   73.86</time>
   <time name="total">   73.77   73.86</time>
   <energy>
    <i name="e_fr_energy">   -336.65828055 </i>
    <i name="e_wo_entrp">   -336.65828055 </i>
    <i name="e_0_energy">   -336.65828055 </i>
   </energy>
  </scstep>
  <scstep>
   <time name="dav">   94.51   94.69</time>
   <time name="total">   95.23   95.41</time>
   <energy>
    <i name="e_fr_energy">   -343.81312541 </i>
    <i name="e_wo_entrp">   -343.81312541 </i>
    <i name="e_0_energy">   -343.81312541 </i>
   </energy>
  </scstep>
  <scstep>
   <time name="dav">   86.31   86.46</time>
   <time name="total">   87.13   87.29</time>
   <energy>
    <i name="e_fr_energy">   -288.37361100 </i>
    <i name="e_wo_entrp">   -288.37361100 </i>
    <i name="e_0_energy">   -288.37361100 </i>
   </energy>
  </scstep>
  <scstep>
   <time name="dav">   67.69   67.76</time>
   <time name="total">   68.48   68.56</time>
   <energy>
    <i name="e_fr_energy">   -290.75872536 </i>
    <i name="e_wo_entrp">   -290.75872536 </i>
    <i name="e_0_energy">   -290.75872536 </i>
   </energy>
  </scstep>
  <scstep>
   <time name="dav">   77.38   77.58</time>
   <time name="total">   78.17   78.37</time>
   <energy>
    <i name="e_fr_energy">   -289.78883184 </i>
    <i name="e_wo_entrp">   -289.78883184 </i>
    <i name="e_0_energy">   -289.78883184 </i>
   </energy>
  </scstep>
  <scstep>
   <time name="dav">   74.92   75.06</time>
   <time name="total">   75.70   75.85</time>
   <energy>
    <i name="e_fr_energy">   -289.31475757 </i>
    <i name="e_wo_entrp">   -289.31475757 </i>
    <i name="e_0_energy">   -289.31475757 </i>
   </energy>
  </scstep>
  <scstep>
   <time name="dav">   73.96   74.11</time>
   <time name="total">   74.75   74.90</time>
   <energy>
    <i name="e_fr_energy">   -289.33792815 </i>
    <i name="e_wo_entrp">   -289.33792815 </i>
    <i name="e_0_energy">   -289.33792815 </i>
   </energy>
  </scstep>
  <scstep>
   <time name="dav">   82.61   82.81</time>
   <time name="total">   83.40   83.60</time>
   <energy>
    <i name="e_fr_energy">   -289.34298887 </i>
    <i name="e_wo_entrp">   -289.34298887 </i>
    <i name="e_0_energy">   -289.34298887 </i>
   </energy>
  </scstep>
  <scstep>
   <time name="dav">   83.29   83.71</time>
   <time name="total">   84.08   84.50</time>
   <energy>
    <i name="e_fr_energy">   -289.34576700 </i>
    <i name="e_wo_entrp">   -289.34576700 </i>
    <i name="e_0_energy">   -289.34576700 </i>
   </energy>
  </scstep>
  <scstep>
   <time name="dav">   72.96   73.18</time>
   <time name="total">   73.75   73.97</time>
   <energy>
    <i name="e_fr_energy">   -289.34721039 </i>
    <i name="e_wo_entrp">   -289.34721039 </i>
    <i name="e_0_energy">   -289.34721039 </i>
   </energy>
  </scstep>
  <scstep>
   <time name="dav">   80.82   81.14</time>
   <time name="total">   81.61   81.94</time>
   <energy>
    <i name="e_fr_energy">   -289.34743200 </i>
    <i name="e_wo_entrp">   -289.34743200 </i>
    <i name="e_0_energy">   -289.34743200 </i>
   </energy>
  </scstep>
  <scstep>
   <time name="dav">   78.29   78.60</time>
   <time name="total">   79.07   79.40</time>
   <energy>
    <i name="e_fr_energy">   -289.34746145 </i>
    <i name="e_wo_entrp">   -289.34746145 </i>
    <i name="e_0_energy">   -289.34746145 </i>
   </energy>
  </scstep>
  <scstep>
   <time name="dav">   67.20   67.41</time>
   <time name="total">   67.99   68.20</time>
   <energy>
    <i name="e_fr_energy">   -289.34747947 </i>
    <i name="e_wo_entrp">   -289.34747947 </i>
    <i name="e_0_energy">   -289.34747947 </i>
   </energy>
  </scstep>
  <scstep>
   <time name="dav">   68.73   69.46</time>
   <time name="total">   69.51   70.26</time>
   <energy>
    <i name="e_fr_energy">   -289.34748151 </i>
    <i name="e_wo_entrp">   -289.34748151 </i>
    <i name="e_0_energy">   -289.34748151 </i>
   </energy>
  </scstep>
  <scstep>
   <time name="dav">   61.42   61.60</time>
   <time name="total">   61.49   61.67</time>
   <energy>
    <i name="alphaZ">   1060.66890660 </i>
    <i name="ewald"> -30414.22643495 </i>
    <i name="hartreedc"> -12943.91422738 </i>
    <i name="XCdc">   1271.97887297 </i>
    <i name="pawpsdc">  43667.60549751 </i>
    <i name="pawaedc"> -42978.49369481 </i>
    <i name="eentropy">      0.00000000 </i>
    <i name="bandstr">  -3978.99899210 </i>
    <i name="atom">  44026.03258983 </i>
    <i name="e_fr_energy">   -289.34748233 </i>
    <i name="e_wo_entrp">   -289.34748233 </i>
    <i name="e_0_energy">   -289.34748233 </i>
   </energy>
  </scstep>
  <structure>
   <crystal>
    <varray name="basis" >
     <v>      11.17850000       0.00000000       0.00000000 </v>
     <v>       0.00000000       9.57460000       0.00000000 </v>
     <v>       0.00000000       0.00000000      11.18240000 </v>
    </varray>
    <i name="volume">   1196.84853820 </i>
    <varray name="rec_basis" >
     <v>       0.08945744       0.00000000       0.00000000 </v>
     <v>       0.00000000       0.10444301       0.00000000 </v>
     <v>       0.00000000       0.00000000       0.08942624 </v>
    </varray>
   </crystal>
   <varray name="positions" >
    <v>       0.37539000       0.00017000       0.43687000 </v>
    <v>       0.62539000       0.99984000       0.43687000 </v>
    <v>       0.87539000       0.00017000       0.43687000 </v>
    <v>       0.12539000       0.99984000       0.93687000 </v>
    <v>       0.87539000       0.00017000       0.93687000 </v>
    <v>       0.87461000       0.00017000       0.68687000 </v>
    <v>       0.12461000       0.99984000       0.18687000 </v>
    <v>       0.62461000       0.99984000       0.18687000 </v>
    <v>       0.37539000       0.00017000       0.93687000 </v>
    <v>       0.12461000       0.99984000       0.68687000 </v>
    <v>       0.62461000       0.99984000       0.68687000 </v>
    <v>       0.00013000       0.29519000       0.06281000 </v>
    <v>       0.25013000       0.70481000       0.06281000 </v>
    <v>       0.24987000       0.29519000       0.31282000 </v>
    <v>       0.49987000       0.70481000       0.31282000 </v>
    <v>       0.50013000       0.29519000       0.06281000 </v>
    <v>       0.75013000       0.70481000       0.06281000 </v>
    <v>       0.74987000       0.29519000       0.31282000 </v>
    <v>       0.99987000       0.70481000       0.31282000 </v>
    <v>       0.00013000       0.29519000       0.56281000 </v>
    <v>       0.25013000       0.70481000       0.56281000 </v>
    <v>       0.24987000       0.29519000       0.81282000 </v>
    <v>       0.49987000       0.70481000       0.81282000 </v>
    <v>       0.50013000       0.29519000       0.56281000 </v>
    <v>       0.75013000       0.70481000       0.56281000 </v>
    <v>       0.74987000       0.29519000       0.81282000 </v>
    <v>       0.99987000       0.70481000       0.81282000 </v>
    <v>       0.25005000       0.32677000       0.06286000 </v>
    <v>       0.00005000       0.67323000       0.06286000 </v>
    <v>       0.49995000       0.32677000       0.31286000 </v>
    <v>       0.24995000       0.67323000       0.31286000 </v>
    <v>       0.75005000       0.32677000       0.06286000 </v>
    <v>       0.50005000       0.67323000       0.06286000 </v>
    <v>       0.99995000       0.32677000       0.31286000 </v>
    <v>       0.74995000       0.67323000       0.31286000 </v>
    <v>       0.25005000       0.32677000       0.56286000 </v>
    <v>       0.00005000       0.67323000       0.56286000 </v>
    <v>       0.49995000       0.32677000       0.81286000 </v>
    <v>       0.24995000       0.67323000       0.81286000 </v>
    <v>       0.75005000       0.32677000       0.56286000 </v>
    <v>       0.50005000       0.67323000       0.56286000 </v>
    <v>       0.99995000       0.32677000       0.81286000 </v>
    <v>       0.74995000       0.67323000       0.81286000 </v>
    <v>       0.49987000       0.07798000       0.06246000 </v>
    <v>       0.24987000       0.92202000       0.06246000 </v>
    <v>       0.25013000       0.07798000       0.31246000 </v>
    <v>       0.00013000       0.92202000       0.31246000 </v>
    <v>       0.99987000       0.07798000       0.06246000 </v>
    <v>       0.74987000       0.92202000       0.06246000 </v>
    <v>       0.75013000       0.07798000       0.31246000 </v>
    <v>       0.50013000       0.92202000       0.31246000 </v>
    <v>       0.49987000       0.07798000       0.56246000 </v>
    <v>       0.24987000       0.92202000       0.56246000 </v>
    <v>       0.25013000       0.07798000       0.81246000 </v>
    <v>       0.00013000       0.92202000       0.81246000 </v>
    <v>       0.99987000       0.07798000       0.56246000 </v>
    <v>       0.74987000       0.92202000       0.56246000 </v>
    <v>       0.75013000       0.07798000       0.81246000 </v>
    <v>       0.50013000       0.92202000       0.81246000 </v>
   </varray>
  </structure>
  <varray name="forces" >
   <v>      -0.50778762      -0.00302867      -0.03153257 </v>
   <v>      -0.16439499       0.06309429      -0.20605315 </v>
   <v>       0.50000523      -0.00019542      -0.54273797 </v>
   <v>      -0.31475094       0.06052412       0.21229188 </v>
   <v>      -0.52015089       0.00056702       0.54844544 </v>
   <v>       0.00162964       0.12520345      -0.02640119 </v>
   <v>      -0.16603831       0.12146444       1.26075126 </v>
   <v>       0.20128405      -0.11561026      -0.70029446 </v>
   <v>       0.98953857      -0.01064293       0.09999320 </v>
   <v>       0.82979235      -0.11512814      -1.21507448 </v>
   <v>      -0.79483676       0.12056734       0.78524657 </v>
   <v>      -0.29922087       0.03070704       0.28399673 </v>
   <v>       0.09663705      -1.00875628       0.39094059 </v>
   <v>       0.01146377      -1.04313535       0.15058209 </v>
   <v>      -0.21570101      -0.01658781      -0.03986041 </v>
   <v>       0.09679699      -0.06900063       0.16008247 </v>
   <v>       0.07795288       1.03306602       0.07754835 </v>
   <v>       0.23927008      -0.00162844      -0.13986972 </v>
   <v>      -0.00769340       1.04476185       0.05564528 </v>
   <v>       0.13762548       0.04426398      -0.43378611 </v>
   <v>       0.03841612       1.00954669      -0.30652324 </v>
   <v>       0.14558824       1.02574648      -0.24306325 </v>
   <v>       0.08039505       0.05202842      -0.01877065 </v>
   <v>      -0.27238115       0.02804296      -0.12021900 </v>
   <v>       0.07216115      -1.07597714      -0.23686504 </v>
   <v>      -0.07453349       0.02974749       0.27398861 </v>
   <v>      -0.13049723      -1.08989831       0.07330538 </v>
   <v>      -0.02027488       0.10251788      -0.27930123 </v>
   <v>       0.23712309      -0.13344463      -0.24234326 </v>
   <v>       0.16039155       0.17885141      -0.01267367 </v>
   <v>       0.06314620      -0.15921595      -0.22881184 </v>
   <v>      -0.03150380       0.12379266      -0.03381890 </v>
   <v>      -0.18742248      -0.09286990      -0.07222668 </v>
   <v>      -0.06807010       0.15985618      -0.04123035 </v>
   <v>      -0.15528012      -0.17844429       0.17308366 </v>
   <v>      -0.06000990       0.11194496       0.31139664 </v>
   <v>      -0.16002229      -0.12333259       0.32763033 </v>
   <v>      -0.07560348       0.05027514      -0.01484071 </v>
   <v>      -0.10760994      -0.05566531       0.18536713 </v>
   <v>      -0.03969173       0.15906009       0.11941710 </v>
   <v>       0.25373177      -0.12836313       0.09896247 </v>
   <v>       0.11960157       0.11622278      -0.04622306 </v>
   <v>       0.06797371      -0.09267733      -0.25126997 </v>
   <v>      -0.16834829       0.27772884      -0.12246931 </v>
   <v>      -0.57001335       0.67587355      -0.89788717 </v>
   <v>      -0.44811564       0.98426302      -0.60672615 </v>
   <v>       0.40752223      -0.99293423      -0.47434715 </v>
   <v>       1.21883432      -0.00316523      -0.37170336 </v>
   <v>      -0.45962557      -0.94975183       0.40472127 </v>
   <v>      -1.15050317       0.07225663       0.26902851 </v>
   <v>       1.15079178      -0.07133086       0.14868933 </v>
   <v>       1.26002508       0.00714045      -0.05359624 </v>
   <v>      -0.52319221      -0.91330397       0.69239784 </v>
   <v>      -0.70457688      -0.73579305       0.75652246 </v>
   <v>       0.55182182       0.86358301      -0.47216145 </v>
   <v>      -0.25353725      -0.01856291       1.30452614 </v>
   <v>      -0.46598471       0.79442194       0.55506492 </v>
   <v>       0.18661781      -0.05424225      -1.24651258 </v>
   <v>      -0.07876515      -0.21443330       0.00956871 </v>
  </varray>
  <varray name="stress" >
   <v>      -9.28079479      -0.27295971       1.26417095 </v>
   <v>      -0.27295973     -13.17257585      -0.27722525 </v>
   <v>       1.26417090      -0.27722547      -8.82639899 </v>
  </varray>
  <energy>
   <i name="e_fr_energy">   -301.92262724 </i>
   <i name="e_wo_entrp">   -301.92262724 </i>
   <i name="e_0_energy">      0.00000000 </i>
  </energy>
  <time name="totalsc"> 1454.25 1459.92</time>
  <eigenvalues>
   <array>
    <dimension dim="1">band</dimension>
    <dimension dim="2">kpoint</dimension>
    <dimension dim="3">spin</dimension>
    <field>eigene</field>
    <field>occ</field>
    <set>
     <set comment="spin 1">
      <set comment="kpoint 1">
       <r>  -40.5100    1.0000 </r>
       <r>  -40.3127    1.0000 </r>
       <r>  -40.0460    1.0000 </r>
       <r>  -39.8229    1.0000 </r>
       <r>  -39.7365    1.0000 </r>
       <r>  -39.3749    1.0000 </r>
       <r>  -18.9621    1.0000 </r>
       <r>  -18.9584    1.0000 </r>
       <r>  -18.8907    1.0000 </r>
       <r>  -18.8866    1.0000 </r>
       <r>  -18.8860    1.0000 </r>
       <r>  -18.8835    1.0000 </r>
       <r>  -18.8777    1.0000 </r>
       <r>  -18.8689    1.0000 </r>
       <r>  -18.8158    1.0000 </r>
       <r>  -18.8082    1.0000 </r>
       <r>  -18.8047    1.0000 </r>
       <r>  -18.7968    1.0000 </r>
       <r>  -18.7922    1.0000 </r>
       <r>  -18.7835    1.0000 </r>
       <r>  -18.7706    1.0000 </r>
       <r>  -18.7691    1.0000 </r>
       <r>  -18.7564    1.0000 </r>
       <r>  -18.7469    1.0000 </r>
       <r>  -18.7394    1.0000 </r>
       <r>  -18.7318    1.0000 </r>
       <r>  -18.7216    1.0000 </r>
       <r>  -18.7132    1.0000 </r>
       <r>  -18.7076    1.0000 </r>
       <r>  -18.7014    1.0000 </r>
       <r>  -18.7003    1.0000 </r>
       <r>  -18.6925    1.0000 </r>
       <r>  -18.6878    1.0000 </r>
       <r>  -18.6854    1.0000 </r>
       <r>  -18.6821    1.0000 </r>
       <r>  -18.6818    1.0000 </r>
       <r>  -18.6792    1.0000 </r>
       <r>  -18.6765    1.0000 </r>
       <r>  -18.6741    1.0000 </r>
       <r>  -18.6724    1.0000 </r>
       <r>  -18.6693    1.0000 </r>
       <r>  -18.6669    1.0000 </r>
       <r>  -18.6636    1.0000 </r>
       <r>  -18.6478    1.0000 </r>
       <r>  -18.6037    1.0000 </r>
       <r>  -18.6007    1.0000 </r>
       <r>  -18.6005    1.0000 </r>
       <r>  -18.5906    1.0000 </r>
       <r>  -18.5900    1.0000 </r>
       <r>  -18.5853    1.0000 </r>
       <r>  -18.5824    1.0000 </r>
       <r>  -18.5798    1.0000 </r>
       <r>  -18.5768    1.0000 </r>
       <r>  -18.5543    1.0000 </r>
       <r>  -18.5392    1.0000 </r>
       <r>  -18.5335    1.0000 </r>
       <r>  -18.5275    1.0000 </r>
       <r>  -18.5233    1.0000 </r>
       <r>  -18.5196    1.0000 </r>
       <r>  -18.5189    1.0000 </r>
       <r>  -18.5129    1.0000 </r>
       <r>  -18.4939    1.0000 </r>
       <r>  -18.4900    1.0000 </r>
       <r>  -18.4845    1.0000 </r>
       <r>  -18.4818    1.0000 </r>
       <r>  -18.4724    1.0000 </r>
       <r>  -18.4474    1.0000 </r>
       <r>  -18.4427    1.0000 </r>
       <r>  -18.4278    1.0000 </r>
       <r>  -18.4239    1.0000 </r>
       <r>  -18.4233    1.0000 </r>
       <r>  -18.4163    1.0000 </r>
       <r>  -18.4134    1.0000 </r>
       <r>  -18.4112    1.0000 </r>
       <r>  -18.4044    1.0000 </r>
       <r>  -18.3952    1.0000 </r>
       <r>  -18.3330    1.0000 </r>
       <r>  -18.3272    1.0000 </r>
       <r>  -18.2983    1.0000 </r>
       <r>  -18.2874    1.0000 </r>
       <r>  -18.2723    1.0000 </r>
       <r>  -18.2613    1.0000 </r>
       <r>  -18.2244    1.0000 </r>
       <r>  -18.2194    1.0000 </r>
       <r>  -18.1968    1.0000 </r>
       <r>  -18.1905    1.0000 </r>
       <r>  -13.6177    1.0000 </r>
       <r>  -13.5089    1.0000 </r>
       <r>  -13.4558    1.0000 </r>
       <r>  -13.4268    1.0000 </r>
       <r>  -12.9055    1.0000 </r>
       <r>  -12.8065    1.0000 </r>
       <r>  -12.7928    1.0000 </r>
       <r>  -12.7728    1.0000 </r>
       <r>  -12.7531    1.0000 </r>
       <r>  -12.7449    1.0000 </r>
       <r>  -12.6537    1.0000 </r>
       <r>  -12.6029    1.0000 </r>
       <r>  -12.1087    1.0000 </r>
       <r>  -12.0697    1.0000 </r>
       <r>  -12.0146    1.0000 </r>
       <r>  -11.9465    1.0000 </r>
       <r>   -9.3611    1.0000 </r>
       <r>   -9.0657    1.0000 </r>
       <r>   -8.5933    1.0000 </r>
       <r>   -8.5500    1.0000 </r>
       <r>   -8.4928    1.0000 </r>
       <r>   -8.4510    1.0000 </r>
       <r>   -8.3699    1.0000 </r>
       <r>   -8.3270    1.0000 </r>
       <r>   -8.2673    1.0000 </r>
       <r>   -8.2289    1.0000 </r>
       <r>   -8.0666    1.0000 </r>
       <r>   -8.0543    1.0000 </r>
       <r>   -8.0267    1.0000 </r>
       <r>   -8.0128    1.0000 </r>
       <r>   -7.3881    1.0000 </r>
       <r>   -7.3805    1.0000 </r>
       <r>   -6.4215    1.0000 </r>
       <r>   -6.4082    1.0000 </r>
       <r>   -6.3767    1.0000 </r>
       <r>   -6.3679    1.0000 </r>
       <r>   -5.5538    1.0000 </r>
       <r>   -5.5021    1.0000 </r>
       <r>   -5.4906    1.0000 </r>
       <r>   -5.3809    1.0000 </r>
       <r>   -5.3406    1.0000 </r>
       <r>   -5.2866    1.0000 </r>
       <r>   -5.2559    1.0000 </r>
       <r>   -5.1758    1.0000 </r>
       <r>   -5.1000    1.0000 </r>
       <r>   -5.0423    1.0000 </r>
       <r>   -3.8371    1.0000 </r>
       <r>   -3.6880    1.0000 </r>
       <r>   -1.5320    1.0000 </r>
       <r>   -1.3205    1.0000 </r>
       <r>   -1.1632    1.0000 </r>
       <r>   -1.0068    1.0000 </r>
       <r>   -0.6141    1.0000 </r>
       <r>   -0.5893    1.0000 </r>
       <r>   -0.5641    1.0000 </r>
       <r>   -0.4900    1.0000 </r>
       <r>   -0.2241    1.0000 </r>
       <r>   -0.2183    1.0000 </r>
       <r>   -0.2068    1.0000 </r>
       <r>   -0.1696    1.0000 </r>
       <r>   -0.0413    1.0000 </r>
       <r>    0.0494    1.0000 </r>
       <r>    0.1323    1.0000 </r>
       <r>    0.2548    1.0000 </r>
       <r>    0.3479    1.0000 </r>
       <r>    0.4482    1.0000 </r>
       <r>    0.5035    1.0000 </r>
       <r>    0.5263    1.0000 </r>
       <r>    0.5554    1.0000 </r>
       <r>    0.6196    1.0000 </r>
       <r>    0.6693    1.0000 </r>
       <r>    0.7023    1.0000 </r>
       <r>    0.7527    1.0000 </r>
       <r>    0.7830    1.0000 </r>
       <r>    0.8345    1.0000 </r>
       <r>    0.8751    1.0000 </r>
       <r>    0.9253    1.0000 </r>
       <r>    0.9371    1.0000 </r>
       <r>    0.9811    1.0000 </r>
       <r>    1.0017    1.0000 </r>
       <r>    1.0368    1.0000 </r>
       <r>    1.1075    1.0000 </r>
       <r>    1.1520    1.0000 </r>
       <r>    1.1751    1.0000 </r>
       <r>    1.2315    1.0000 </r>
       <r>    1.2735    1.0000 </r>
       <r>    1.3476    1.0000 </r>
       <r>    1.4084    1.0000 </r>
       <r>    1.4107    1.0000 </r>
       <r>    1.4528    1.0000 </r>
       <r>    1.5057    1.0000 </r>
       <r>    1.5757    1.0000 </r>
       <r>    1.6260    1.0000 </r>
       <r>    1.6983    1.0000 </r>
       <r>    1.7185    1.0000 </r>
       <r>    1.8006    1.0000 </r>
       <r>    1.8149    1.0000 </r>
       <r>    1.9091    1.0000 </r>
       <r>    1.9559    1.0000 </r>
       <r>    1.9917    1.0000 </r>
       <r>    2.0571    1.0000 </r>
       <r>    2.1270    1.0000 </r>
       <r>    2.1894    1.0000 </r>
       <r>    2.2291    1.0000 </r>
       <r>    2.2850    1.0000 </r>
       <r>    2.3448    1.0000 </r>
       <r>    2.4033    1.0000 </r>
       <r>    2.5182    1.0000 </r>
       <r>    2.5285    1.0000 </r>
       <r>    2.5357    1.0000 </r>
       <r>    2.5558    1.0000 </r>
       <r>    2.5783    1.0000 </r>
       <r>    2.5930    1.0000 </r>
       <r>    2.6407    1.0000 </r>
       <r>    2.6581    1.0000 </r>
       <r>    2.6934    1.0000 </r>
       <r>    2.7300    1.0000 </r>
       <r>    2.7468    1.0000 </r>
       <r>    2.8242    1.0000 </r>
       <r>    2.8539    1.0000 </r>
       <r>    2.8737    1.0000 </r>
       <r>    2.8898    1.0000 </r>
       <r>    2.9328    1.0000 </r>
       <r>    2.9656    1.0000 </r>
       <r>    3.0000    1.0000 </r>
       <r>    3.0252    1.0000 </r>
       <r>    3.0851    1.0000 </r>
       <r>    3.0922    1.0000 </r>
       <r>    3.1095    1.0000 </r>
       <r>    3.1234    1.0000 </r>
       <r>    3.1759    1.0000 </r>
       <r>    3.2264    1.0000 </r>
       <r>    3.2437    1.0000 </r>
       <r>    3.3034    1.0000 </r>
       <r>    3.3191    1.0000 </r>
       <r>    3.3697    1.0000 </r>
       <r>    3.4524    1.0000 </r>
       <r>    3.5298    1.0000 </r>
       <r>    3.6510    1.0000 </r>
       <r>    3.7779    1.0000 </r>
       <r>    4.1390    1.0000 </r>
       <r>    4.1637    1.0000 </r>
       <r>    4.2027    1.0000 </r>
       <r>    4.2178    1.0000 </r>
       <r>    4.9724    0.0000 </r>
       <r>    4.9907    0.0000 </r>
       <r>    5.1632    0.0000 </r>
       <r>    5.1829    0.0000 </r>
       <r>    5.6928    0.0000 </r>
       <r>    5.7095    0.0000 </r>
       <r>    5.8088    0.0000 </r>
       <r>    5.8337    0.0000 </r>
       <r>    6.0733    0.0000 </r>
       <r>    6.0793    0.0000 </r>
       <r>    6.1148    0.0000 </r>
       <r>    6.1314    0.0000 </r>
       <r>    6.2002    0.0000 </r>
       <r>    6.2065    0.0000 </r>
       <r>    6.2381    0.0000 </r>
       <r>    6.2504    0.0000 </r>
       <r>    6.9890    0.0000 </r>
       <r>    7.0616    0.0000 </r>
       <r>    7.2772    0.0000 </r>
       <r>    7.3111    0.0000 </r>
       <r>    7.6574    0.0000 </r>
       <r>    7.7861    0.0000 </r>
       <r>    7.7947    0.0000 </r>
       <r>    7.9175    0.0000 </r>
       <r>    7.9310    0.0000 </r>
       <r>    7.9953    0.0000 </r>
       <r>    8.1061    0.0000 </r>
       <r>    8.2056    0.0000 </r>
       <r>    8.2543    0.0000 </r>
       <r>    8.6122    0.0000 </r>
       <r>    8.6437    0.0000 </r>
       <r>    8.7524    0.0000 </r>
       <r>    8.7773    0.0000 </r>
       <r>    8.8001    0.0000 </r>
       <r>    8.9041    0.0000 </r>
       <r>    8.9189    0.0000 </r>
       <r>    9.0054    0.0000 </r>
       <r>    9.0354    0.0000 </r>
       <r>    9.0401    0.0000 </r>
       <r>    9.0768    0.0000 </r>
       <r>    9.1010    0.0000 </r>
       <r>    9.1499    0.0000 </r>
       <r>    9.1976    0.0000 </r>
       <r>    9.2231    0.0000 </r>
       <r>    9.3900    0.0000 </r>
       <r>    9.4100    0.0000 </r>
       <r>    9.4720    0.0000 </r>
       <r>    9.5008    0.0000 </r>
       <r>    9.7479    0.0000 </r>
       <r>    9.7591    0.0000 </r>
      </set>
      <set comment="kpoint 2">
       <r>  -40.5100    1.0000 </r>
       <r>  -40.3127    1.0000 </r>
       <r>  -40.0460    1.0000 </r>
       <r>  -39.8229    1.0000 </r>
       <r>  -39.7365    1.0000 </r>
       <r>  -39.3749    1.0000 </r>
       <r>  -18.9620    1.0000 </r>
       <r>  -18.9584    1.0000 </r>
       <r>  -18.8906    1.0000 </r>
       <r>  -18.8865    1.0000 </r>
       <r>  -18.8859    1.0000 </r>
       <r>  -18.8835    1.0000 </r>
       <r>  -18.8780    1.0000 </r>
       <r>  -18.8686    1.0000 </r>
       <r>  -18.8160    1.0000 </r>
       <r>  -18.8086    1.0000 </r>
       <r>  -18.8045    1.0000 </r>
       <r>  -18.7964    1.0000 </r>
       <r>  -18.7922    1.0000 </r>
       <r>  -18.7835    1.0000 </r>
       <r>  -18.7706    1.0000 </r>
       <r>  -18.7691    1.0000 </r>
       <r>  -18.7565    1.0000 </r>
       <r>  -18.7469    1.0000 </r>
       <r>  -18.7394    1.0000 </r>
       <r>  -18.7319    1.0000 </r>
       <r>  -18.7216    1.0000 </r>
       <r>  -18.7132    1.0000 </r>
       <r>  -18.7076    1.0000 </r>
       <r>  -18.7014    1.0000 </r>
       <r>  -18.7003    1.0000 </r>
       <r>  -18.6919    1.0000 </r>
       <r>  -18.6880    1.0000 </r>
       <r>  -18.6859    1.0000 </r>
       <r>  -18.6819    1.0000 </r>
       <r>  -18.6816    1.0000 </r>
       <r>  -18.6795    1.0000 </r>
       <r>  -18.6767    1.0000 </r>
       <r>  -18.6747    1.0000 </r>
       <r>  -18.6720    1.0000 </r>
       <r>  -18.6689    1.0000 </r>
       <r>  -18.6675    1.0000 </r>
       <r>  -18.6633    1.0000 </r>
       <r>  -18.6478    1.0000 </r>
       <r>  -18.6036    1.0000 </r>
       <r>  -18.6007    1.0000 </r>
       <r>  -18.6005    1.0000 </r>
       <r>  -18.5907    1.0000 </r>
       <r>  -18.5900    1.0000 </r>
       <r>  -18.5853    1.0000 </r>
       <r>  -18.5824    1.0000 </r>
       <r>  -18.5798    1.0000 </r>
       <r>  -18.5768    1.0000 </r>
       <r>  -18.5543    1.0000 </r>
       <r>  -18.5392    1.0000 </r>
       <r>  -18.5335    1.0000 </r>
       <r>  -18.5275    1.0000 </r>
       <r>  -18.5233    1.0000 </r>
       <r>  -18.5196    1.0000 </r>
       <r>  -18.5189    1.0000 </r>
       <r>  -18.5129    1.0000 </r>
       <r>  -18.4941    1.0000 </r>
       <r>  -18.4900    1.0000 </r>
       <r>  -18.4843    1.0000 </r>
       <r>  -18.4821    1.0000 </r>
       <r>  -18.4720    1.0000 </r>
       <r>  -18.4474    1.0000 </r>
       <r>  -18.4427    1.0000 </r>
       <r>  -18.4278    1.0000 </r>
       <r>  -18.4239    1.0000 </r>
       <r>  -18.4233    1.0000 </r>
       <r>  -18.4163    1.0000 </r>
       <r>  -18.4137    1.0000 </r>
       <r>  -18.4112    1.0000 </r>
       <r>  -18.4040    1.0000 </r>
       <r>  -18.3954    1.0000 </r>
       <r>  -18.3330    1.0000 </r>
       <r>  -18.3272    1.0000 </r>
       <r>  -18.2983    1.0000 </r>
       <r>  -18.2874    1.0000 </r>
       <r>  -18.2723    1.0000 </r>
       <r>  -18.2613    1.0000 </r>
       <r>  -18.2244    1.0000 </r>
       <r>  -18.2194    1.0000 </r>
       <r>  -18.1968    1.0000 </r>
       <r>  -18.1905    1.0000 </r>
       <r>  -13.6161    1.0000 </r>
       <r>  -13.5117    1.0000 </r>
       <r>  -13.4544    1.0000 </r>
       <r>  -13.4267    1.0000 </r>
       <r>  -12.9064    1.0000 </r>
       <r>  -12.8065    1.0000 </r>
       <r>  -12.7900    1.0000 </r>
       <r>  -12.7711    1.0000 </r>
       <r>  -12.7562    1.0000 </r>
       <r>  -12.7458    1.0000 </r>
       <r>  -12.6532    1.0000 </r>
       <r>  -12.6032    1.0000 </r>
       <r>  -12.1094    1.0000 </r>
       <r>  -12.0695    1.0000 </r>
       <r>  -12.0136    1.0000 </r>
       <r>  -11.9470    1.0000 </r>
       <r>   -9.1560    1.0000 </r>
       <r>   -9.1412    1.0000 </r>
       <r>   -8.8817    1.0000 </r>
       <r>   -8.8647    1.0000 </r>
       <r>   -8.3574    1.0000 </r>
       <r>   -8.3538    1.0000 </r>
       <r>   -8.3467    1.0000 </r>
       <r>   -8.3332    1.0000 </r>
       <r>   -8.1697    1.0000 </r>
       <r>   -8.1674    1.0000 </r>
       <r>   -8.1586    1.0000 </r>
       <r>   -8.1465    1.0000 </r>
       <r>   -7.7189    1.0000 </r>
       <r>   -7.7155    1.0000 </r>
       <r>   -7.6079    1.0000 </r>
       <r>   -7.6056    1.0000 </r>
       <r>   -6.0288    1.0000 </r>
       <r>   -5.9935    1.0000 </r>
       <r>   -5.9630    1.0000 </r>
       <r>   -5.9263    1.0000 </r>
       <r>   -5.8658    1.0000 </r>
       <r>   -5.8241    1.0000 </r>
       <r>   -5.7981    1.0000 </r>
       <r>   -5.7835    1.0000 </r>
       <r>   -5.6547    1.0000 </r>
       <r>   -5.5630    1.0000 </r>
       <r>   -5.5150    1.0000 </r>
       <r>   -5.4638    1.0000 </r>
       <r>   -4.4559    1.0000 </r>
       <r>   -4.4423    1.0000 </r>
       <r>   -4.2901    1.0000 </r>
       <r>   -4.2761    1.0000 </r>
       <r>   -1.2268    1.0000 </r>
       <r>   -1.1749    1.0000 </r>
       <r>   -0.8518    1.0000 </r>
       <r>   -0.8400    1.0000 </r>
       <r>   -0.5121    1.0000 </r>
       <r>   -0.4090    1.0000 </r>
       <r>   -0.1733    1.0000 </r>
       <r>   -0.0798    1.0000 </r>
       <r>    0.0037    1.0000 </r>
       <r>    0.0279    1.0000 </r>
       <r>    0.0482    1.0000 </r>
       <r>    0.0786    1.0000 </r>
       <r>    0.1573    1.0000 </r>
       <r>    0.1758    1.0000 </r>
       <r>    0.2213    1.0000 </r>
       <r>    0.2827    1.0000 </r>
       <r>    0.3827    1.0000 </r>
       <r>    0.4554    1.0000 </r>
       <r>    0.4879    1.0000 </r>
       <r>    0.5092    1.0000 </r>
       <r>    0.5402    1.0000 </r>
       <r>    0.5652    1.0000 </r>
       <r>    0.6417    1.0000 </r>
       <r>    0.6604    1.0000 </r>
       <r>    0.6843    1.0000 </r>
       <r>    0.7765    1.0000 </r>
       <r>    0.8248    1.0000 </r>
       <r>    0.8355    1.0000 </r>
       <r>    0.8450    1.0000 </r>
       <r>    0.9065    1.0000 </r>
       <r>    0.9821    1.0000 </r>
       <r>    1.0241    1.0000 </r>
       <r>    1.1214    1.0000 </r>
       <r>    1.1502    1.0000 </r>
       <r>    1.1736    1.0000 </r>
       <r>    1.2348    1.0000 </r>
       <r>    1.2551    1.0000 </r>
       <r>    1.2861    1.0000 </r>
       <r>    1.2990    1.0000 </r>
       <r>    1.3460    1.0000 </r>
       <r>    1.3839    1.0000 </r>
       <r>    1.4275    1.0000 </r>
       <r>    1.4720    1.0000 </r>
       <r>    1.5032    1.0000 </r>
       <r>    1.5270    1.0000 </r>
       <r>    1.5882    1.0000 </r>
       <r>    1.5971    1.0000 </r>
       <r>    1.6325    1.0000 </r>
       <r>    1.6610    1.0000 </r>
       <r>    1.8169    1.0000 </r>
       <r>    1.8469    1.0000 </r>
       <r>    1.9436    1.0000 </r>
       <r>    1.9827    1.0000 </r>
       <r>    2.0323    1.0000 </r>
       <r>    2.0386    1.0000 </r>
       <r>    2.0853    1.0000 </r>
       <r>    2.1319    1.0000 </r>
       <r>    2.1469    1.0000 </r>
       <r>    2.1828    1.0000 </r>
       <r>    2.2182    1.0000 </r>
       <r>    2.2580    1.0000 </r>
       <r>    2.3657    1.0000 </r>
       <r>    2.4034    1.0000 </r>
       <r>    2.4359    1.0000 </r>
       <r>    2.4598    1.0000 </r>
       <r>    2.5293    1.0000 </r>
       <r>    2.5332    1.0000 </r>
       <r>    2.5562    1.0000 </r>
       <r>    2.5876    1.0000 </r>
       <r>    2.6597    1.0000 </r>
       <r>    2.6781    1.0000 </r>
       <r>    2.7468    1.0000 </r>
       <r>    2.7573    1.0000 </r>
       <r>    2.7955    1.0000 </r>
       <r>    2.8290    1.0000 </r>
       <r>    2.8739    1.0000 </r>
       <r>    2.8917    1.0000 </r>
       <r>    2.9131    1.0000 </r>
       <r>    2.9395    1.0000 </r>
       <r>    2.9950    1.0000 </r>
       <r>    3.0171    1.0000 </r>
       <r>    3.0447    1.0000 </r>
       <r>    3.1277    1.0000 </r>
       <r>    3.1766    1.0000 </r>
       <r>    3.3001    1.0000 </r>
       <r>    3.3533    1.0000 </r>
       <r>    3.3829    1.0000 </r>
       <r>    3.4287    1.0000 </r>
       <r>    3.4587    1.0000 </r>
       <r>    3.4678    1.0000 </r>
       <r>    3.5009    1.0000 </r>
       <r>    3.5164    1.0000 </r>
       <r>    3.6499    1.0000 </r>
       <r>    3.7142    1.0000 </r>
       <r>    3.7358    1.0000 </r>
       <r>    3.8955    1.0000 </r>
       <r>    5.6381    0.0000 </r>
       <r>    5.6450    0.0000 </r>
       <r>    5.6508    0.0000 </r>
       <r>    5.6636    0.0000 </r>
       <r>    5.7430    0.0000 </r>
       <r>    5.7555    0.0000 </r>
       <r>    5.7582    0.0000 </r>
       <r>    5.7735    0.0000 </r>
       <r>    7.1727    0.0000 </r>
       <r>    7.1875    0.0000 </r>
       <r>    7.2359    0.0000 </r>
       <r>    7.2573    0.0000 </r>
       <r>    7.2768    0.0000 </r>
       <r>    7.3404    0.0000 </r>
       <r>    7.3613    0.0000 </r>
       <r>    7.4040    0.0000 </r>
       <r>    7.4545    0.0000 </r>
       <r>    7.4830    0.0000 </r>
       <r>    7.5040    0.0000 </r>
       <r>    7.5222    0.0000 </r>
       <r>    7.8025    0.0000 </r>
       <r>    7.8111    0.0000 </r>
       <r>    7.8222    0.0000 </r>
       <r>    7.8328    0.0000 </r>
       <r>    7.8405    0.0000 </r>
       <r>    7.8676    0.0000 </r>
       <r>    7.8743    0.0000 </r>
       <r>    7.9078    0.0000 </r>
       <r>    7.9715    0.0000 </r>
       <r>    8.0146    0.0000 </r>
       <r>    8.0470    0.0000 </r>
       <r>    8.1227    0.0000 </r>
       <r>    8.2786    0.0000 </r>
       <r>    8.2983    0.0000 </r>
       <r>    8.3344    0.0000 </r>
       <r>    8.4166    0.0000 </r>
       <r>    8.6822    0.0000 </r>
       <r>    8.6948    0.0000 </r>
       <r>    8.7452    0.0000 </r>
       <r>    8.7477    0.0000 </r>
       <r>    8.7705    0.0000 </r>
       <r>    8.7938    0.0000 </r>
       <r>    8.8965    0.0000 </r>
       <r>    8.9050    0.0000 </r>
       <r>    9.1687    0.0000 </r>
       <r>    9.1754    0.0000 </r>
       <r>    9.3187    0.0000 </r>
       <r>    9.4280    0.0000 </r>
       <r>    9.4343    0.0000 </r>
       <r>    9.4886    0.0000 </r>
      </set>
      <set comment="kpoint 3">
       <r>  -40.5100    1.0000 </r>
       <r>  -40.3127    1.0000 </r>
       <r>  -40.0460    1.0000 </r>
       <r>  -39.8229    1.0000 </r>
       <r>  -39.7365    1.0000 </r>
       <r>  -39.3749    1.0000 </r>
       <r>  -18.9622    1.0000 </r>
       <r>  -18.9582    1.0000 </r>
       <r>  -18.8907    1.0000 </r>
       <r>  -18.8866    1.0000 </r>
       <r>  -18.8860    1.0000 </r>
       <r>  -18.8835    1.0000 </r>
       <r>  -18.8777    1.0000 </r>
       <r>  -18.8689    1.0000 </r>
       <r>  -18.8158    1.0000 </r>
       <r>  -18.8082    1.0000 </r>
       <r>  -18.8047    1.0000 </r>
       <r>  -18.7968    1.0000 </r>
       <r>  -18.7921    1.0000 </r>
       <r>  -18.7835    1.0000 </r>
       <r>  -18.7706    1.0000 </r>
       <r>  -18.7691    1.0000 </r>
       <r>  -18.7564    1.0000 </r>
       <r>  -18.7469    1.0000 </r>
       <r>  -18.7394    1.0000 </r>
       <r>  -18.7318    1.0000 </r>
       <r>  -18.7216    1.0000 </r>
       <r>  -18.7133    1.0000 </r>
       <r>  -18.7076    1.0000 </r>
       <r>  -18.7014    1.0000 </r>
       <r>  -18.7003    1.0000 </r>
       <r>  -18.6925    1.0000 </r>
       <r>  -18.6878    1.0000 </r>
       <r>  -18.6854    1.0000 </r>
       <r>  -18.6821    1.0000 </r>
       <r>  -18.6818    1.0000 </r>
       <r>  -18.6791    1.0000 </r>
       <r>  -18.6765    1.0000 </r>
       <r>  -18.6741    1.0000 </r>
       <r>  -18.6724    1.0000 </r>
       <r>  -18.6693    1.0000 </r>
       <r>  -18.6669    1.0000 </r>
       <r>  -18.6636    1.0000 </r>
       <r>  -18.6478    1.0000 </r>
       <r>  -18.6036    1.0000 </r>
       <r>  -18.6007    1.0000 </r>
       <r>  -18.6005    1.0000 </r>
       <r>  -18.5906    1.0000 </r>
       <r>  -18.5901    1.0000 </r>
       <r>  -18.5853    1.0000 </r>
       <r>  -18.5824    1.0000 </r>
       <r>  -18.5800    1.0000 </r>
       <r>  -18.5767    1.0000 </r>
       <r>  -18.5543    1.0000 </r>
       <r>  -18.5392    1.0000 </r>
       <r>  -18.5335    1.0000 </r>
       <r>  -18.5275    1.0000 </r>
       <r>  -18.5233    1.0000 </r>
       <r>  -18.5196    1.0000 </r>
       <r>  -18.5189    1.0000 </r>
       <r>  -18.5129    1.0000 </r>
       <r>  -18.4939    1.0000 </r>
       <r>  -18.4900    1.0000 </r>
       <r>  -18.4845    1.0000 </r>
       <r>  -18.4818    1.0000 </r>
       <r>  -18.4724    1.0000 </r>
       <r>  -18.4474    1.0000 </r>
       <r>  -18.4427    1.0000 </r>
       <r>  -18.4278    1.0000 </r>
       <r>  -18.4239    1.0000 </r>
       <r>  -18.4233    1.0000 </r>
       <r>  -18.4163    1.0000 </r>
       <r>  -18.4134    1.0000 </r>
       <r>  -18.4112    1.0000 </r>
       <r>  -18.4044    1.0000 </r>
       <r>  -18.3952    1.0000 </r>
       <r>  -18.3330    1.0000 </r>
       <r>  -18.3271    1.0000 </r>
       <r>  -18.2983    1.0000 </r>
       <r>  -18.2874    1.0000 </r>
       <r>  -18.2723    1.0000 </r>
       <r>  -18.2613    1.0000 </r>
       <r>  -18.2244    1.0000 </r>
       <r>  -18.2195    1.0000 </r>
       <r>  -18.1968    1.0000 </r>
       <r>  -18.1905    1.0000 </r>
       <r>  -13.6174    1.0000 </r>
       <r>  -13.5090    1.0000 </r>
       <r>  -13.4556    1.0000 </r>
       <r>  -13.4269    1.0000 </r>
       <r>  -12.9047    1.0000 </r>
       <r>  -12.8069    1.0000 </r>
       <r>  -12.7924    1.0000 </r>
       <r>  -12.7728    1.0000 </r>
       <r>  -12.7533    1.0000 </r>
       <r>  -12.7448    1.0000 </r>
       <r>  -12.6541    1.0000 </r>
       <r>  -12.6036    1.0000 </r>
       <r>  -12.1084    1.0000 </r>
       <r>  -12.0703    1.0000 </r>
       <r>  -12.0145    1.0000 </r>
       <r>  -11.9479    1.0000 </r>
       <r>   -9.3502    1.0000 </r>
       <r>   -9.0735    1.0000 </r>
       <r>   -8.6118    1.0000 </r>
       <r>   -8.5680    1.0000 </r>
       <r>   -8.5097    1.0000 </r>
       <r>   -8.4677    1.0000 </r>
       <r>   -8.3490    1.0000 </r>
       <r>   -8.3069    1.0000 </r>
       <r>   -8.2483    1.0000 </r>
       <r>   -8.2107    1.0000 </r>
       <r>   -8.0707    1.0000 </r>
       <r>   -8.0584    1.0000 </r>
       <r>   -8.0296    1.0000 </r>
       <r>   -8.0156    1.0000 </r>
       <r>   -7.3908    1.0000 </r>
       <r>   -7.3833    1.0000 </r>
       <r>   -6.4126    1.0000 </r>
       <r>   -6.3966    1.0000 </r>
       <r>   -6.3672    1.0000 </r>
       <r>   -6.3585    1.0000 </r>
       <r>   -5.5717    1.0000 </r>
       <r>   -5.5289    1.0000 </r>
       <r>   -5.4906    1.0000 </r>
       <r>   -5.4185    1.0000 </r>
       <r>   -5.3634    1.0000 </r>
       <r>   -5.2879    1.0000 </r>
       <r>   -5.2152    1.0000 </r>
       <r>   -5.1451    1.0000 </r>
       <r>   -5.0544    1.0000 </r>
       <r>   -4.9974    1.0000 </r>
       <r>   -3.9131    1.0000 </r>
       <r>   -3.5999    1.0000 </r>
       <r>   -1.4158    1.0000 </r>
       <r>   -1.3195    1.0000 </r>
       <r>   -1.2775    1.0000 </r>
       <r>   -1.0648    1.0000 </r>
       <r>   -0.4928    1.0000 </r>
       <r>   -0.4789    1.0000 </r>
       <r>   -0.4631    1.0000 </r>
       <r>   -0.4256    1.0000 </r>
       <r>   -0.4174    1.0000 </r>
       <r>   -0.3996    1.0000 </r>
       <r>   -0.3690    1.0000 </r>
       <r>   -0.2872    1.0000 </r>
       <r>   -0.1681    1.0000 </r>
       <r>   -0.1277    1.0000 </r>
       <r>   -0.0133    1.0000 </r>
       <r>    0.0097    1.0000 </r>
       <r>    0.1785    1.0000 </r>
       <r>    0.3021    1.0000 </r>
       <r>    0.3292    1.0000 </r>
       <r>    0.4074    1.0000 </r>
       <r>    0.4333    1.0000 </r>
       <r>    0.5491    1.0000 </r>
       <r>    0.5914    1.0000 </r>
       <r>    0.6284    1.0000 </r>
       <r>    0.7094    1.0000 </r>
       <r>    0.7321    1.0000 </r>
       <r>    0.7647    1.0000 </r>
       <r>    0.8125    1.0000 </r>
       <r>    0.8975    1.0000 </r>
       <r>    0.9544    1.0000 </r>
       <r>    1.0356    1.0000 </r>
       <r>    1.1276    1.0000 </r>
       <r>    1.2039    1.0000 </r>
       <r>    1.2217    1.0000 </r>
       <r>    1.2514    1.0000 </r>
       <r>    1.3227    1.0000 </r>
       <r>    1.3527    1.0000 </r>
       <r>    1.4019    1.0000 </r>
       <r>    1.4430    1.0000 </r>
       <r>    1.4734    1.0000 </r>
       <r>    1.5271    1.0000 </r>
       <r>    1.5848    1.0000 </r>
       <r>    1.6629    1.0000 </r>
       <r>    1.6673    1.0000 </r>
       <r>    1.6853    1.0000 </r>
       <r>    1.7323    1.0000 </r>
       <r>    1.8781    1.0000 </r>
       <r>    1.8900    1.0000 </r>
       <r>    1.9184    1.0000 </r>
       <r>    2.0326    1.0000 </r>
       <r>    2.0806    1.0000 </r>
       <r>    2.0945    1.0000 </r>
       <r>    2.1301    1.0000 </r>
       <r>    2.2393    1.0000 </r>
       <r>    2.2420    1.0000 </r>
       <r>    2.3005    1.0000 </r>
       <r>    2.4047    1.0000 </r>
       <r>    2.4511    1.0000 </r>
       <r>    2.4594    1.0000 </r>
       <r>    2.5105    1.0000 </r>
       <r>    2.5314    1.0000 </r>
       <r>    2.5385    1.0000 </r>
       <r>    2.5448    1.0000 </r>
       <r>    2.5694    1.0000 </r>
       <r>    2.5756    1.0000 </r>
       <r>    2.5812    1.0000 </r>
       <r>    2.6098    1.0000 </r>
       <r>    2.6451    1.0000 </r>
       <r>    2.7332    1.0000 </r>
       <r>    2.7595    1.0000 </r>
       <r>    2.7929    1.0000 </r>
       <r>    2.8247    1.0000 </r>
       <r>    2.8562    1.0000 </r>
       <r>    2.8751    1.0000 </r>
       <r>    2.9283    1.0000 </r>
       <r>    2.9341    1.0000 </r>
       <r>    2.9539    1.0000 </r>
       <r>    2.9961    1.0000 </r>
       <r>    3.0193    1.0000 </r>
       <r>    3.0552    1.0000 </r>
       <r>    3.1789    1.0000 </r>
       <r>    3.2483    1.0000 </r>
       <r>    3.2828    1.0000 </r>
       <r>    3.3142    1.0000 </r>
       <r>    3.3434    1.0000 </r>
       <r>    3.3603    1.0000 </r>
       <r>    3.3891    1.0000 </r>
       <r>    3.4315    1.0000 </r>
       <r>    3.4962    1.0000 </r>
       <r>    3.5596    1.0000 </r>
       <r>    3.6436    1.0000 </r>
       <r>    3.7249    1.0000 </r>
       <r>    4.1889    1.0000 </r>
       <r>    4.2137    1.0000 </r>
       <r>    4.2526    1.0000 </r>
       <r>    4.2698    1.0000 </r>
       <r>    5.0516    0.0000 </r>
       <r>    5.0705    0.0000 </r>
       <r>    5.2254    0.0000 </r>
       <r>    5.2454    0.0000 </r>
       <r>    5.7004    0.0000 </r>
       <r>    5.7173    0.0000 </r>
       <r>    5.8157    0.0000 </r>
       <r>    5.8427    0.0000 </r>
       <r>    6.1264    0.0000 </r>
       <r>    6.1299    0.0000 </r>
       <r>    6.1629    0.0000 </r>
       <r>    6.1690    0.0000 </r>
       <r>    6.2135    0.0000 </r>
       <r>    6.2242    0.0000 </r>
       <r>    6.2551    0.0000 </r>
       <r>    6.2718    0.0000 </r>
       <r>    6.6887    0.0000 </r>
       <r>    6.7527    0.0000 </r>
       <r>    6.9432    0.0000 </r>
       <r>    7.0307    0.0000 </r>
       <r>    7.1342    0.0000 </r>
       <r>    7.1789    0.0000 </r>
       <r>    7.3319    0.0000 </r>
       <r>    7.5514    0.0000 </r>
       <r>    7.6506    0.0000 </r>
       <r>    7.7954    0.0000 </r>
       <r>    7.8746    0.0000 </r>
       <r>    7.9683    0.0000 </r>
       <r>    8.0618    0.0000 </r>
       <r>    8.2933    0.0000 </r>
       <r>    8.3494    0.0000 </r>
       <r>    8.3917    0.0000 </r>
       <r>    8.6352    0.0000 </r>
       <r>    8.7536    0.0000 </r>
       <r>    8.9129    0.0000 </r>
       <r>    8.9433    0.0000 </r>
       <r>    8.9556    0.0000 </r>
       <r>    8.9843    0.0000 </r>
       <r>    9.0230    0.0000 </r>
       <r>    9.0812    0.0000 </r>
       <r>    9.0989    0.0000 </r>
       <r>    9.1143    0.0000 </r>
       <r>    9.1339    0.0000 </r>
       <r>    9.1740    0.0000 </r>
       <r>    9.4353    0.0000 </r>
       <r>    9.4586    0.0000 </r>
       <r>    9.5783    0.0000 </r>
       <r>    9.7052    0.0000 </r>
       <r>    9.7447    0.0000 </r>
       <r>    9.7614    0.0000 </r>
      </set>
      <set comment="kpoint 4">
       <r>  -40.5100    1.0000 </r>
       <r>  -40.3127    1.0000 </r>
       <r>  -40.0460    1.0000 </r>
       <r>  -39.8229    1.0000 </r>
       <r>  -39.7364    1.0000 </r>
       <r>  -39.3749    1.0000 </r>
       <r>  -18.9622    1.0000 </r>
       <r>  -18.9582    1.0000 </r>
       <r>  -18.8906    1.0000 </r>
       <r>  -18.8865    1.0000 </r>
       <r>  -18.8859    1.0000 </r>
       <r>  -18.8835    1.0000 </r>
       <r>  -18.8780    1.0000 </r>
       <r>  -18.8686    1.0000 </r>
       <r>  -18.8160    1.0000 </r>
       <r>  -18.8086    1.0000 </r>
       <r>  -18.8045    1.0000 </r>
       <r>  -18.7964    1.0000 </r>
       <r>  -18.7922    1.0000 </r>
       <r>  -18.7835    1.0000 </r>
       <r>  -18.7706    1.0000 </r>
       <r>  -18.7691    1.0000 </r>
       <r>  -18.7565    1.0000 </r>
       <r>  -18.7469    1.0000 </r>
       <r>  -18.7394    1.0000 </r>
       <r>  -18.7318    1.0000 </r>
       <r>  -18.7216    1.0000 </r>
       <r>  -18.7133    1.0000 </r>
       <r>  -18.7076    1.0000 </r>
       <r>  -18.7014    1.0000 </r>
       <r>  -18.7003    1.0000 </r>
       <r>  -18.6919    1.0000 </r>
       <r>  -18.6880    1.0000 </r>
       <r>  -18.6859    1.0000 </r>
       <r>  -18.6820    1.0000 </r>
       <r>  -18.6816    1.0000 </r>
       <r>  -18.6795    1.0000 </r>
       <r>  -18.6767    1.0000 </r>
       <r>  -18.6746    1.0000 </r>
       <r>  -18.6720    1.0000 </r>
       <r>  -18.6689    1.0000 </r>
       <r>  -18.6674    1.0000 </r>
       <r>  -18.6633    1.0000 </r>
       <r>  -18.6478    1.0000 </r>
       <r>  -18.6036    1.0000 </r>
       <r>  -18.6007    1.0000 </r>
       <r>  -18.6005    1.0000 </r>
       <r>  -18.5907    1.0000 </r>
       <r>  -18.5901    1.0000 </r>
       <r>  -18.5853    1.0000 </r>
       <r>  -18.5824    1.0000 </r>
       <r>  -18.5799    1.0000 </r>
       <r>  -18.5767    1.0000 </r>
       <r>  -18.5543    1.0000 </r>
       <r>  -18.5392    1.0000 </r>
       <r>  -18.5335    1.0000 </r>
       <r>  -18.5275    1.0000 </r>
       <r>  -18.5233    1.0000 </r>
       <r>  -18.5196    1.0000 </r>
       <r>  -18.5189    1.0000 </r>
       <r>  -18.5129    1.0000 </r>
       <r>  -18.4941    1.0000 </r>
       <r>  -18.4900    1.0000 </r>
       <r>  -18.4843    1.0000 </r>
       <r>  -18.4821    1.0000 </r>
       <r>  -18.4720    1.0000 </r>
       <r>  -18.4474    1.0000 </r>
       <r>  -18.4427    1.0000 </r>
       <r>  -18.4278    1.0000 </r>
       <r>  -18.4239    1.0000 </r>
       <r>  -18.4233    1.0000 </r>
       <r>  -18.4163    1.0000 </r>
       <r>  -18.4137    1.0000 </r>
       <r>  -18.4112    1.0000 </r>
       <r>  -18.4040    1.0000 </r>
       <r>  -18.3954    1.0000 </r>
       <r>  -18.3330    1.0000 </r>
       <r>  -18.3271    1.0000 </r>
       <r>  -18.2983    1.0000 </r>
       <r>  -18.2874    1.0000 </r>
       <r>  -18.2723    1.0000 </r>
       <r>  -18.2613    1.0000 </r>
       <r>  -18.2244    1.0000 </r>
       <r>  -18.2195    1.0000 </r>
       <r>  -18.1968    1.0000 </r>
       <r>  -18.1905    1.0000 </r>
       <r>  -13.6159    1.0000 </r>
       <r>  -13.5117    1.0000 </r>
       <r>  -13.4543    1.0000 </r>
[...]
       <r>    8.7913    0.0000 </r>
       <r>    8.8254    0.0000 </r>
       <r>    8.8702    0.0000 </r>
       <r>    8.8799    0.0000 </r>
       <r>    8.9051    0.0000 </r>
       <r>    8.9267    0.0000 </r>
       <r>    8.9434    0.0000 </r>
       <r>    9.5420    0.0000 </r>
       <r>    9.7063    0.0000 </r>
      </set>
     </set>
    </set>
   </array>
  </eigenvalues>
  <separator name="orbital magnetization" >
   <v name="MAGDIPOLOUT">      0.00000000      0.00000000      0.00000000</v>
  </separator>
  <dos>
   <i name="efermi">      4.27623781 </i>
   <total>
    <array>
     <dimension dim="1">gridpoints</dimension>
     <dimension dim="2">spin</dimension>
     <field>energy</field>
     <field>total</field>
     <field>integrated</field>
     <set>
      <set comment="spin 1">
       <r>   -43.0351     0.0000     0.0000 </r>
       <r>   -42.8499     0.0000     0.0000 </r>
       <r>   -42.6648     0.0000     0.0000 </r>
       <r>   -42.4796     0.0000     0.0000 </r>
       <r>   -42.2944     0.0000     0.0000 </r>
       <r>   -42.1092     0.0000     0.0000 </r>
       <r>   -41.9241     0.0000     0.0000 </r>
       <r>   -41.7389     0.0000     0.0000 </r>
       <r>   -41.5537     0.0000     0.0000 </r>
       <r>   -41.3686     0.0000     0.0000 </r>
       <r>   -41.1834     0.0000     0.0000 </r>
       <r>   -40.9982     0.0000     0.0000 </r>
       <r>   -40.8130     0.0000     0.0000 </r>
       <r>   -40.6279     0.0000     0.0000 </r>
       <r>   -40.4427     0.0000     2.0000 </r>
       <r>   -40.2575     0.0000     4.0000 </r>
       <r>   -40.0724     0.0000     4.0000 </r>
       <r>   -39.8872     0.0000     6.0000 </r>
       <r>   -39.7020     0.0000    10.0000 </r>
       <r>   -39.5168     0.0000    10.0000 </r>
       <r>   -39.3317     0.0000    12.0000 </r>
       <r>   -39.1465     0.0000    12.0000 </r>
       <r>   -38.9613     0.0000    12.0000 </r>
       <r>   -38.7762     0.0000    12.0000 </r>
       <r>   -38.5910     0.0000    12.0000 </r>
       <r>   -38.4058     0.0000    12.0000 </r>
       <r>   -38.2206     0.0000    12.0000 </r>
       <r>   -38.0355     0.0000    12.0000 </r>
       <r>   -37.8503     0.0000    12.0000 </r>
       <r>   -37.6651     0.0000    12.0000 </r>
       <r>   -37.4800     0.0000    12.0000 </r>
       <r>   -37.2948     0.0000    12.0000 </r>
       <r>   -37.1096     0.0000    12.0000 </r>
       <r>   -36.9244     0.0000    12.0000 </r>
       <r>   -36.7393     0.0000    12.0000 </r>
       <r>   -36.5541     0.0000    12.0000 </r>
       <r>   -36.3689     0.0000    12.0000 </r>
       <r>   -36.1838     0.0000    12.0000 </r>
       <r>   -35.9986     0.0000    12.0000 </r>
       <r>   -35.8134     0.0000    12.0000 </r>
       <r>   -35.6282     0.0000    12.0000 </r>
       <r>   -35.4431     0.0000    12.0000 </r>
       <r>   -35.2579     0.0000    12.0000 </r>
       <r>   -35.0727     0.0000    12.0000 </r>
       <r>   -34.8876     0.0000    12.0000 </r>
       <r>   -34.7024     0.0000    12.0000 </r>
       <r>   -34.5172     0.0000    12.0000 </r>
       <r>   -34.3320     0.0000    12.0000 </r>
       <r>   -34.1469     0.0000    12.0000 </r>
       <r>   -33.9617     0.0000    12.0000 </r>
       <r>   -33.7765     0.0000    12.0000 </r>
       <r>   -33.5913     0.0000    12.0000 </r>
       <r>   -33.4062     0.0000    12.0000 </r>
       <r>   -33.2210     0.0000    12.0000 </r>
       <r>   -33.0358     0.0000    12.0000 </r>
       <r>   -32.8507     0.0000    12.0000 </r>
       <r>   -32.6655     0.0000    12.0000 </r>
       <r>   -32.4803     0.0000    12.0000 </r>
       <r>   -32.2951     0.0000    12.0000 </r>
       <r>   -32.1100     0.0000    12.0000 </r>
       <r>   -31.9248     0.0000    12.0000 </r>
       <r>   -31.7396     0.0000    12.0000 </r>
       <r>   -31.5545     0.0000    12.0000 </r>
       <r>   -31.3693     0.0000    12.0000 </r>
       <r>   -31.1841     0.0000    12.0000 </r>
       <r>   -30.9989     0.0000    12.0000 </r>
       <r>   -30.8138     0.0000    12.0000 </r>
       <r>   -30.6286     0.0000    12.0000 </r>
       <r>   -30.4434     0.0000    12.0000 </r>
       <r>   -30.2583     0.0000    12.0000 </r>
       <r>   -30.0731     0.0000    12.0000 </r>
       <r>   -29.8879     0.0000    12.0000 </r>
       <r>   -29.7027     0.0000    12.0000 </r>
       <r>   -29.5176     0.0000    12.0000 </r>
       <r>   -29.3324     0.0000    12.0000 </r>
       <r>   -29.1472     0.0000    12.0000 </r>
       <r>   -28.9621     0.0000    12.0000 </r>
       <r>   -28.7769     0.0000    12.0000 </r>
       <r>   -28.5917     0.0000    12.0000 </r>
       <r>   -28.4065     0.0000    12.0000 </r>
       <r>   -28.2214     0.0000    12.0000 </r>
       <r>   -28.0362     0.0000    12.0000 </r>
       <r>   -27.8510     0.0000    12.0000 </r>
       <r>   -27.6659     0.0000    12.0000 </r>
       <r>   -27.4807     0.0000    12.0000 </r>
       <r>   -27.2955     0.0000    12.0000 </r>
       <r>   -27.1103     0.0000    12.0000 </r>
       <r>   -26.9252     0.0000    12.0000 </r>
       <r>   -26.7400     0.0000    12.0000 </r>
       <r>   -26.5548     0.0000    12.0000 </r>
       <r>   -26.3697     0.0000    12.0000 </r>
       <r>   -26.1845     0.0000    12.0000 </r>
       <r>   -25.9993     0.0000    12.0000 </r>
       <r>   -25.8141     0.0000    12.0000 </r>
       <r>   -25.6290     0.0000    12.0000 </r>
       <r>   -25.4438     0.0000    12.0000 </r>
       <r>   -25.2586     0.0000    12.0000 </r>
       <r>   -25.0735     0.0000    12.0000 </r>
       <r>   -24.8883     0.0000    12.0000 </r>
       <r>   -24.7031     0.0000    12.0000 </r>
       <r>   -24.5179     0.0000    12.0000 </r>
       <r>   -24.3328     0.0000    12.0000 </r>
       <r>   -24.1476     0.0000    12.0000 </r>
       <r>   -23.9624     0.0000    12.0000 </r>
       <r>   -23.7773     0.0000    12.0000 </r>
       <r>   -23.5921     0.0000    12.0000 </r>
       <r>   -23.4069     0.0000    12.0000 </r>
       <r>   -23.2217     0.0000    12.0000 </r>
       <r>   -23.0366     0.0000    12.0000 </r>
       <r>   -22.8514     0.0000    12.0000 </r>
       <r>   -22.6662     0.0000    12.0000 </r>
       <r>   -22.4811     0.0000    12.0000 </r>
       <r>   -22.2959     0.0000    12.0000 </r>
       <r>   -22.1107     0.0000    12.0000 </r>
       <r>   -21.9255     0.0000    12.0000 </r>
       <r>   -21.7404     0.0000    12.0000 </r>
       <r>   -21.5552     0.0000    12.0000 </r>
       <r>   -21.3700     0.0000    12.0000 </r>
       <r>   -21.1849     0.0000    12.0000 </r>
       <r>   -20.9997     0.0000    12.0000 </r>
       <r>   -20.8145     0.0000    12.0000 </r>
       <r>   -20.6293     0.0000    12.0000 </r>
       <r>   -20.4442     0.0000    12.0000 </r>
       <r>   -20.2590     0.0000    12.0000 </r>
       <r>   -20.0738     0.0000    12.0000 </r>
       <r>   -19.8887     0.0000    12.0000 </r>
       <r>   -19.7035     0.0000    12.0000 </r>
       <r>   -19.5183     0.0000    12.0000 </r>
       <r>   -19.3331     0.0000    12.0000 </r>
       <r>   -19.1480     0.0000    12.0000 </r>
       <r>   -18.9628     0.0000    12.0000 </r>
       <r>   -18.7776     0.0000    40.0000 </r>
       <r>   -18.5925     0.0000    94.0000 </r>
       <r>   -18.4073     0.0000   148.0000 </r>
       <r>   -18.2221     0.0000   166.0000 </r>
       <r>   -18.0369     0.0000   172.0000 </r>
       <r>   -17.8518     0.0000   172.0000 </r>
       <r>   -17.6666     0.0000   172.0000 </r>
       <r>   -17.4814     0.0000   172.0000 </r>
       <r>   -17.2963     0.0000   172.0000 </r>
       <r>   -17.1111     0.0000   172.0000 </r>
       <r>   -16.9259     0.0000   172.0000 </r>
       <r>   -16.7407     0.0000   172.0000 </r>
       <r>   -16.5556     0.0000   172.0000 </r>
       <r>   -16.3704     0.0000   172.0000 </r>
       <r>   -16.1852     0.0000   172.0000 </r>
       <r>   -16.0000     0.0000   172.0000 </r>
       <r>   -15.8149     0.0000   172.0000 </r>
       <r>   -15.6297     0.0000   172.0000 </r>
       <r>   -15.4445     0.0000   172.0000 </r>
       <r>   -15.2594     0.0000   172.0000 </r>
       <r>   -15.0742     0.0000   172.0000 </r>
       <r>   -14.8890     0.0000   172.0000 </r>
       <r>   -14.7038     0.0000   172.0000 </r>
       <r>   -14.5187     0.0000   172.0000 </r>
       <r>   -14.3335     0.0000   172.0000 </r>
       <r>   -14.1483     0.0000   172.0000 </r>
       <r>   -13.9632     0.0000   172.0000 </r>
       <r>   -13.7780     0.0000   172.0000 </r>
       <r>   -13.5928     0.0000   174.0000 </r>
       <r>   -13.4076     0.0000   180.0000 </r>
       <r>   -13.2225     0.0000   180.0000 </r>
       <r>   -13.0373     0.0000   180.0000 </r>
       <r>   -12.8521     0.0000   182.0000 </r>
       <r>   -12.6670     0.0000   192.0000 </r>
       <r>   -12.4818     0.0000   196.0000 </r>
       <r>   -12.2966     0.0000   196.0000 </r>
       <r>   -12.1114     0.0000   196.0000 </r>
       <r>   -11.9263     0.0000   204.0000 </r>
       <r>   -11.7411     0.0000   204.0000 </r>
       <r>   -11.5559     0.0000   204.0000 </r>
       <r>   -11.3708     0.0000   204.0000 </r>
       <r>   -11.1856     0.0000   204.0000 </r>
       <r>   -11.0004     0.0000   204.0000 </r>
       <r>   -10.8152     0.0000   204.0000 </r>
       <r>   -10.6301     0.0000   204.0000 </r>
       <r>   -10.4449     0.0000   204.0000 </r>
       <r>   -10.2597     0.0000   204.0000 </r>
       <r>   -10.0746     0.0000   204.0000 </r>
       <r>    -9.8894     0.0000   204.0000 </r>
       <r>    -9.7042     0.0000   204.0000 </r>
       <r>    -9.5190     0.0000   204.0000 </r>
       <r>    -9.3339     1.6504   204.0184 </r>
       <r>    -9.1487    10.2140   205.4595 </r>
       <r>    -8.9635     0.0000   208.0000 </r>
       <r>    -8.7784    15.8065   210.4033 </r>
       <r>    -8.5932    11.1830   212.7170 </r>
       <r>    -8.4080    32.4270   217.0880 </r>
       <r>    -8.2228    14.6579   220.2101 </r>
       <r>    -8.0377    25.8588   225.0722 </r>
       <r>    -7.8525    15.9959   228.8587 </r>
       <r>    -7.6673     5.5617   232.0090 </r>
       <r>    -7.4822    11.0284   235.4636 </r>
       <r>    -7.2970     0.0000   236.0000 </r>
       <r>    -7.1118     0.0000   236.0000 </r>
       <r>    -6.9266     0.0000   236.0000 </r>
       <r>    -6.7415     0.0000   236.0000 </r>
       <r>    -6.5563     0.0000   236.0000 </r>
       <r>    -6.3711     2.6320   236.0529 </r>
       <r>    -6.1860    21.9710   238.3677 </r>
       <r>    -6.0008    17.9609   242.9359 </r>
       <r>    -5.8156    25.9016   245.9899 </r>
       <r>    -5.6304    21.0508   250.8803 </r>
       <r>    -5.4453    20.0956   254.2837 </r>
       <r>    -5.2601    16.8703   258.1561 </r>
       <r>    -5.0749     3.3110   259.9105 </r>
       <r>    -4.8898     7.9446   260.7386 </r>
       <r>    -4.7046     8.8154   262.2525 </r>
       <r>    -4.5194     9.2460   264.0973 </r>
       <r>    -4.3342     6.6858   265.4103 </r>
       <r>    -4.1491     6.4225   266.7308 </r>
       <r>    -3.9639     3.1030   267.6132 </r>
       <r>    -3.7787     0.8901   267.9379 </r>
       <r>    -3.5936     0.0000   268.0000 </r>
       <r>    -3.4084     0.0000   268.0000 </r>
       <r>    -3.2232     0.0000   268.0000 </r>
       <r>    -3.0380     0.0000   268.0000 </r>
       <r>    -2.8529     0.0000   268.0000 </r>
       <r>    -2.6677     0.0000   268.0000 </r>
       <r>    -2.4825     0.0000   268.0000 </r>
       <r>    -2.2974     0.0000   268.0000 </r>
       <r>    -2.1122     0.0000   268.0000 </r>
       <r>    -1.9270     0.0000   268.0000 </r>
       <r>    -1.7418     0.0000   268.0000 </r>
       <r>    -1.5567     0.0000   268.0000 </r>
       <r>    -1.3715     2.4532   268.1391 </r>
       <r>    -1.1863    10.2491   269.2636 </r>
       <r>    -1.0012    12.3632   271.3345 </r>
       <r>    -0.8160    10.7677   273.7466 </r>
       <r>    -0.6308     5.5343   275.2054 </r>
       <r>    -0.4456    21.0324   277.3032 </r>
       <r>    -0.2605    24.5618   281.6579 </r>
       <r>    -0.0753    40.9829   288.2739 </r>
       <r>     0.1099    32.6959   295.1398 </r>
       <r>     0.2950    36.0204   301.1414 </r>
       <r>     0.4802    34.7319   308.3546 </r>
       <r>     0.6654    32.9345   315.2905 </r>
       <r>     0.8506    45.3859   322.2258 </r>
       <r>     1.0357    44.2829   329.9968 </r>
       <r>     1.2209    34.3817   338.2366 </r>
       <r>     1.4061    63.5135   347.7675 </r>
       <r>     1.5912    56.9956   357.3691 </r>
       <r>     1.7764    31.5651   365.4820 </r>
       <r>     1.9616    35.9790   371.6368 </r>
       <r>     2.1468    46.8136   379.2642 </r>
       <r>     2.3319    50.4944   387.9733 </r>
       <r>     2.5171    62.1904   398.3867 </r>
       <r>     2.7023    58.3676   408.8328 </r>
       <r>     2.8875    63.4895   419.8992 </r>
       <r>     3.0726    42.4734   431.7955 </r>
       <r>     3.2578    33.6627   438.7412 </r>
       <r>     3.4430    37.0501   446.5590 </r>
       <r>     3.6281    18.3327   452.1065 </r>
       <r>     3.8133    20.1994   455.6403 </r>
       <r>     3.9985    11.1285   458.7762 </r>
       <r>     4.1837     1.7563   459.9502 </r>
       <r>     4.3688     0.0000   460.0000 </r>
       <r>     4.5540     0.0000   460.0000 </r>
       <r>     4.7392     0.0000   460.0000 </r>
       <r>     4.9243     0.0000   460.0000 </r>
       <r>     5.1095     0.8454   460.0402 </r>
       <r>     5.2947     3.7881   460.4167 </r>
       <r>     5.4799     7.9617   461.5044 </r>
       <r>     5.6650     9.6450   463.2273 </r>
       <r>     5.8502    24.9849   466.8685 </r>
       <r>     6.0354    12.8348   469.7414 </r>
       <r>     6.2205    11.7811   471.9612 </r>
       <r>     6.4057    13.6057   474.2994 </r>
       <r>     6.5909    15.5725   477.0013 </r>
       <r>     6.7761    17.6703   480.0709 </r>
       <r>     6.9612    21.0293   483.6278 </r>
       <r>     7.1464    27.0304   488.0571 </r>
       <r>     7.3316    36.9131   494.1711 </r>
       <r>     7.5167    27.9736   500.8881 </r>
       <r>     7.7019    42.0586   506.2442 </r>
       <r>     7.8871    46.0011   514.7589 </r>
       <r>     8.0723    27.1590   521.9356 </r>
       <r>     8.2574    18.4388   525.8374 </r>
       <r>     8.4426    21.2215   529.4243 </r>
       <r>     8.6278    25.8367   533.8157 </r>
       <r>     8.8129    43.9569   540.1458 </r>
       <r>     8.9981    28.5928   547.2364 </r>
       <r>     9.1833    16.6317   551.2561 </r>
       <r>     9.3685    13.6186   554.0189 </r>
       <r>     9.5536    13.7449   556.5501 </r>
       <r>     9.7388     9.0421   559.2098 </r>
       <r>     9.9240     0.5992   559.9866 </r>
       <r>    10.1091     0.0000   560.0000 </r>
       <r>    10.2943     0.0000   560.0000 </r>
       <r>    10.4795     0.0000   560.0000 </r>
       <r>    10.6647     0.0000   560.0000 </r>
       <r>    10.8498     0.0000   560.0000 </r>
       <r>    11.0350     0.0000   560.0000 </r>
       <r>    11.2202     0.0000   560.0000 </r>
       <r>    11.4053     0.0000   560.0000 </r>
       <r>    11.5905     0.0000   560.0000 </r>
       <r>    11.7757     0.0000   560.0000 </r>
       <r>    11.9609     0.0000   560.0000 </r>
       <r>    12.1460     0.0000   560.0000 </r>
       <r>    12.3312     0.0000   560.0000 </r>
       <r>    12.5164     0.0000   560.0000 </r>
      </set>
     </set>
    </array>
   </total>
  </dos>
 </calculation>
 <structure name="finalpos" >
  <crystal>
   <varray name="basis" >
    <v>      11.17850000       0.00000000       0.00000000 </v>
    <v>       0.00000000       9.57460000       0.00000000 </v>
    <v>       0.00000000       0.00000000      11.18240000 </v>
   </varray>
   <i name="volume">   1196.84853820 </i>
   <varray name="rec_basis" >
    <v>       0.08945744       0.00000000       0.00000000 </v>
    <v>       0.00000000       0.10444301       0.00000000 </v>
    <v>       0.00000000       0.00000000       0.08942624 </v>
   </varray>
  </crystal>
  <varray name="positions" >
   <v>       0.37539000       0.00017000       0.43687000 </v>
   <v>       0.62539000       0.99984000       0.43687000 </v>
   <v>       0.87539000       0.00017000       0.43687000 </v>
   <v>       0.12539000       0.99984000       0.93687000 </v>
   <v>       0.87539000       0.00017000       0.93687000 </v>
   <v>       0.87461000       0.00017000       0.68687000 </v>
   <v>       0.12461000       0.99984000       0.18687000 </v>
   <v>       0.62461000       0.99984000       0.18687000 </v>
   <v>       0.37539000       0.00017000       0.93687000 </v>
   <v>       0.12461000       0.99984000       0.68687000 </v>
   <v>       0.62461000       0.99984000       0.68687000 </v>
   <v>       0.00013000       0.29519000       0.06281000 </v>
   <v>       0.25013000       0.70481000       0.06281000 </v>
   <v>       0.24987000       0.29519000       0.31282000 </v>
   <v>       0.49987000       0.70481000       0.31282000 </v>
   <v>       0.50013000       0.29519000       0.06281000 </v>
   <v>       0.75013000       0.70481000       0.06281000 </v>
   <v>       0.74987000       0.29519000       0.31282000 </v>
   <v>       0.99987000       0.70481000       0.31282000 </v>
   <v>       0.00013000       0.29519000       0.56281000 </v>
   <v>       0.25013000       0.70481000       0.56281000 </v>
   <v>       0.24987000       0.29519000       0.81282000 </v>
   <v>       0.49987000       0.70481000       0.81282000 </v>
   <v>       0.50013000       0.29519000       0.56281000 </v>
   <v>       0.75013000       0.70481000       0.56281000 </v>
   <v>       0.74987000       0.29519000       0.81282000 </v>
   <v>       0.99987000       0.70481000       0.81282000 </v>
   <v>       0.25005000       0.32677000       0.06286000 </v>
   <v>       0.00005000       0.67323000       0.06286000 </v>
   <v>       0.49995000       0.32677000       0.31286000 </v>
   <v>       0.24995000       0.67323000       0.31286000 </v>
   <v>       0.75005000       0.32677000       0.06286000 </v>
   <v>       0.50005000       0.67323000       0.06286000 </v>
   <v>       0.99995000       0.32677000       0.31286000 </v>
   <v>       0.74995000       0.67323000       0.31286000 </v>
   <v>       0.25005000       0.32677000       0.56286000 </v>
   <v>       0.00005000       0.67323000       0.56286000 </v>
   <v>       0.49995000       0.32677000       0.81286000 </v>
   <v>       0.24995000       0.67323000       0.81286000 </v>
   <v>       0.75005000       0.32677000       0.56286000 </v>
   <v>       0.50005000       0.67323000       0.56286000 </v>
   <v>       0.99995000       0.32677000       0.81286000 </v>
   <v>       0.74995000       0.67323000       0.81286000 </v>
   <v>       0.49987000       0.07798000       0.06246000 </v>
   <v>       0.24987000       0.92202000       0.06246000 </v>
   <v>       0.25013000       0.07798000       0.31246000 </v>
   <v>       0.00013000       0.92202000       0.31246000 </v>
   <v>       0.99987000       0.07798000       0.06246000 </v>
   <v>       0.74987000       0.92202000       0.06246000 </v>
   <v>       0.75013000       0.07798000       0.31246000 </v>
   <v>       0.50013000       0.92202000       0.31246000 </v>
   <v>       0.49987000       0.07798000       0.56246000 </v>
   <v>       0.24987000       0.92202000       0.56246000 </v>
   <v>       0.25013000       0.07798000       0.81246000 </v>
   <v>       0.00013000       0.92202000       0.81246000 </v>
   <v>       0.99987000       0.07798000       0.56246000 </v>
   <v>       0.74987000       0.92202000       0.56246000 </v>
   <v>       0.75013000       0.07798000       0.81246000 </v>
   <v>       0.50013000       0.92202000       0.81246000 </v>
  </varray>
 </structure>
</modeling>
