<?xml version="1.0" encoding="ISO-8859-1"?>
<modeling>
 <generator>
  <i name="program" type="string">vasp </i>
  <i name="version" type="string">5.4.4.18Apr17-6-g9f103f2a35  </i>
  <i name="subversion" type="string">(build Jul 31 2017 11:33:29) complex            parallel </i>
  <i name="platform" type="string">LinuxIFC </i>
  <i name="date" type="string">2021 09 29 </i>
  <i name="time" type="string">12:48:11 </i>
 </generator>
 <incar>
  <i type="string" name="SYSTEM"> La2O2S</i>
  <i type="string" name="PREC">normal</i>
  <i type="int" name="NELMIN">     4</i>
  <i type="int" name="IBRION">     2</i>
  <i type="int" name="NFREE">    10</i>
  <i name="EDIFF">      0.00000100</i>
  <i name="EDIFFG">     -0.01000000</i>
  <i type="int" name="NSW">     1</i>
  <i type="int" name="ISIF">     2</i>
  <i name="ENCUT">    600.00000000</i>
  <i name="ENAUG">    900.00000000</i>
  <i type="int" name="ISMEAR">    -5</i>
  <i type="logical" name="LWAVE"> F  </i>
  <i type="logical" name="LCHARG"> F  </i>
  <v type="int" name="KPOINT_BSE">    -1     0     0     0</v>
 </incar>
 <structure name="primitive_cell" >
  <crystal>
   <varray name="basis" >
    <v>      11.17850000       0.00000000       0.00000000 </v>
    <v>       0.00000000       9.57460000       0.00000000 </v>
    <v>       0.00000000       0.00000000      11.18240000 </v>
   </varray>
   <i name="volume">   1196.84853820 </i>
   <varray name="rec_basis" >
    <v>       0.08945744       0.00000000       0.00000000 </v>
    <v>       0.00000000       0.10444301       0.00000000 </v>
    <v>       0.00000000       0.00000000       0.08942624 </v>
   </varray>
  </crystal>
  <varray name="positions" >
   <v>       0.37539000       0.00017000       0.43687000 </v>
   <v>      -0.49987000      -0.07798000       0.31246000 </v>
   <v>       0.25013000       0.07798000       0.31246000 </v>
   <v>       0.49987000       0.07798000      -0.43754000 </v>
   <v>       0.24987000      -0.07798000      -0.43754000 </v>
   <v>       0.49987000      -0.29519000       0.31282000 </v>
   <v>       0.24987000       0.29519000       0.31282000 </v>
   <v>      -0.49987000       0.29519000      -0.43719000 </v>
   <v>       0.25013000      -0.29519000      -0.43719000 </v>
   <v>       0.49995000       0.32677000       0.31286000 </v>
   <v>       0.24995000      -0.32677000       0.31286000 </v>
   <v>      -0.49995000      -0.32677000      -0.43714000 </v>
   <v>       0.25005000       0.32677000      -0.43714000 </v>
   <v>      -0.37539000      -0.00016000       0.18687000 </v>
   <v>      -0.37539000      -0.00016000      -0.31313000 </v>
   <v>       0.12461000      -0.00016000       0.18687000 </v>
   <v>       0.12461000      -0.00016000      -0.31313000 </v>
   <v>       0.49987000       0.07798000       0.06246000 </v>
   <v>      -0.24987000       0.07798000       0.31246000 </v>
   <v>      -0.25013000      -0.07798000      -0.43754000 </v>
   <v>       0.24987000      -0.07798000       0.06246000 </v>
   <v>       0.00013000      -0.07798000       0.31246000 </v>
   <v>      -0.49987000      -0.07798000      -0.18754000 </v>
   <v>      -0.00013000       0.07798000      -0.43754000 </v>
   <v>       0.25013000       0.07798000      -0.18754000 </v>
   <v>      -0.49987000       0.29519000       0.06281000 </v>
   <v>      -0.25013000       0.29519000       0.31282000 </v>
   <v>       0.25013000      -0.29519000       0.06281000 </v>
   <v>      -0.24987000      -0.29519000      -0.43719000 </v>
   <v>      -0.00013000      -0.29519000       0.31282000 </v>
   <v>       0.00013000       0.29519000      -0.43719000 </v>
   <v>       0.49987000      -0.29519000      -0.18718000 </v>
   <v>       0.24987000       0.29519000      -0.18718000 </v>
   <v>      -0.49995000      -0.32677000       0.06286000 </v>
   <v>       0.25005000       0.32677000       0.06286000 </v>
   <v>      -0.25005000      -0.32677000       0.31286000 </v>
   <v>      -0.24995000       0.32677000      -0.43714000 </v>
   <v>      -0.00005000       0.32677000       0.31286000 </v>
   <v>       0.00005000      -0.32677000      -0.43714000 </v>
   <v>       0.49995000       0.32677000      -0.18714000 </v>
   <v>       0.24995000      -0.32677000      -0.18714000 </v>
   <v>      -0.12461000       0.00017000       0.43687000 </v>
   <v>       0.37539000       0.00017000      -0.06313000 </v>
   <v>      -0.25013000      -0.07798000       0.06246000 </v>
   <v>      -0.00013000       0.07798000       0.06246000 </v>
   <v>      -0.24987000       0.07798000      -0.18754000 </v>
   <v>       0.00013000      -0.07798000      -0.18754000 </v>
   <v>      -0.12539000       0.00017000      -0.31313000 </v>
   <v>       0.12539000      -0.00016000      -0.06313000 </v>
   <v>      -0.24987000      -0.29519000       0.06281000 </v>
   <v>       0.00013000       0.29519000       0.06281000 </v>
   <v>      -0.25013000       0.29519000      -0.18718000 </v>
   <v>      -0.00013000      -0.29519000      -0.18718000 </v>
   <v>      -0.24995000       0.32677000       0.06286000 </v>
   <v>       0.00005000      -0.32677000       0.06286000 </v>
   <v>      -0.25005000      -0.32677000      -0.18714000 </v>
   <v>      -0.00005000       0.32677000      -0.18714000 </v>
   <v>      -0.12461000       0.00017000      -0.06313000 </v>
  </varray>
 </structure>
 <varray name="primitive_index" >
  <v type="int" >        1 </v>
  <v type="int" >       50 </v>
  <v type="int" >       45 </v>
  <v type="int" >       51 </v>
  <v type="int" >       52 </v>
  <v type="int" >       14 </v>
  <v type="int" >       13 </v>
  <v type="int" >       23 </v>
  <v type="int" >       20 </v>
  <v type="int" >       29 </v>
  <v type="int" >       30 </v>
  <v type="int" >       40 </v>
  <v type="int" >       35 </v>
  <v type="int" >        7 </v>
  <v type="int" >       10 </v>
  <v type="int" >        5 </v>
  <v type="int" >        9 </v>
  <v type="int" >       43 </v>
  <v type="int" >       49 </v>
  <v type="int" >       56 </v>
  <v type="int" >       44 </v>
  <v type="int" >       46 </v>
  <v type="int" >       58 </v>
  <v type="int" >       55 </v>
  <v type="int" >       53 </v>
  <v type="int" >       15 </v>
  <v type="int" >       17 </v>
  <v type="int" >       12 </v>
  <v type="int" >       24 </v>
  <v type="int" >       18 </v>
  <v type="int" >       19 </v>
  <v type="int" >       22 </v>
  <v type="int" >       21 </v>
  <v type="int" >       32 </v>
  <v type="int" >       27 </v>
  <v type="int" >       34 </v>
  <v type="int" >       39 </v>
  <v type="int" >       33 </v>
  <v type="int" >       36 </v>
  <v type="int" >       37 </v>
  <v type="int" >       38 </v>
  <v type="int" >        6 </v>
  <v type="int" >        8 </v>
  <v type="int" >       48 </v>
  <v type="int" >       47 </v>
  <v type="int" >       57 </v>
  <v type="int" >       54 </v>
  <v type="int" >        4 </v>
  <v type="int" >        2 </v>
  <v type="int" >       16 </v>
  <v type="int" >       11 </v>
  <v type="int" >       25 </v>
  <v type="int" >       26 </v>
  <v type="int" >       31 </v>
  <v type="int" >       28 </v>
  <v type="int" >       42 </v>
  <v type="int" >       41 </v>
  <v type="int" >        3 </v>
 </varray>
 <kpoints>
  <generation param="Gamma">
   <v type="int" name="divisions">       2        2        2 </v>
   <v name="usershift">      0.00000000       0.00000000       0.00000000 </v>
   <v name="genvec1">      0.50000000       0.00000000       0.00000000 </v>
   <v name="genvec2">      0.00000000       0.50000000       0.00000000 </v>
   <v name="genvec3">      0.00000000       0.00000000       0.50000000 </v>
   <v name="shift">      0.00000000       0.00000000       0.00000000 </v>
  </generation>
  <varray name="kpointlist" >
   <v>       0.00000000       0.00000000       0.00000000 </v>
   <v>       0.50000000       0.00000000       0.00000000 </v>
   <v>       0.00000000       0.50000000       0.00000000 </v>
   <v>       0.50000000       0.50000000       0.00000000 </v>
   <v>       0.00000000       0.00000000       0.50000000 </v>
   <v>       0.50000000       0.00000000       0.50000000 </v>
   <v>       0.00000000       0.50000000       0.50000000 </v>
   <v>       0.50000000       0.50000000       0.50000000 </v>
  </varray>
  <varray name="weights" >
   <v>       0.12500000 </v>
   <v>       0.12500000 </v>
   <v>       0.12500000 </v>
   <v>       0.12500000 </v>
   <v>       0.12500000 </v>
   <v>       0.12500000 </v>
   <v>       0.12500000 </v>
   <v>       0.12500000 </v>
  </varray>
  <varray name="tetrahedronlist"  type="int" >
   <v type="int" >        2        1        2        4        5 </v>
   <v type="int" >        2        1        3        4        5 </v>
   <v type="int" >        2        3        4        5        7 </v>
   <v type="int" >        2        2        4        5        6 </v>
   <v type="int" >        2        4        5        6        8 </v>
   <v type="int" >        2        4        5        7        8 </v>
   <v type="int" >        2        1        2        3        6 </v>
   <v type="int" >        2        2        3        4        6 </v>
   <v type="int" >        2        3        4        6        8 </v>
   <v type="int" >        2        1        3        5        6 </v>
   <v type="int" >        2        3        5        6        7 </v>
   <v type="int" >        2        3        6        7        8 </v>
   <v type="int" >        2        2        3        4        7 </v>
   <v type="int" >        2        1        2        3        7 </v>
   <v type="int" >        2        1        2        5        7 </v>
   <v type="int" >        2        2        4        7        8 </v>
   <v type="int" >        2        2        6        7        8 </v>
   <v type="int" >        2        2        5        6        7 </v>
   <v type="int" >        2        1        3        4        8 </v>
   <v type="int" >        2        1        2        4        8 </v>
   <v type="int" >        2        1        2        6        8 </v>
   <v type="int" >        2        1        3        7        8 </v>
   <v type="int" >        2        1        5        7        8 </v>
   <v type="int" >        2        1        5        6        8 </v>
  </varray>
  <i name="volumeweight">      0.02083333 </i>
 </kpoints>
 <parameters>
  <separator name="general" >
   <i type="string" name="SYSTEM">La2O2S</i>
   <i type="logical" name="LCOMPAT"> F  </i>
  </separator>
  <separator name="electronic" >
   <i type="string" name="PREC">normal</i>
   <i name="ENMAX">    600.00000000</i>
   <i name="ENAUG">    900.00000000</i>
   <i name="EDIFF">      0.00000100</i>
   <i type="int" name="IALGO">    38</i>
   <i type="int" name="IWAVPR">    11</i>
   <i type="int" name="NBANDS">   280</i>
   <i name="NELECT">    456.00000000</i>
   <i type="int" name="TURBO">     0</i>
   <i type="int" name="IRESTART">     0</i>
   <i type="int" name="NREBOOT">     0</i>
   <i type="int" name="NMIN">     0</i>
   <i name="EREF">      0.00000000</i>
   <separator name="electronic smearing" >
    <i type="int" name="ISMEAR">    -5</i>
    <i name="SIGMA">      0.20000000</i>
    <i name="KSPACING">      0.50000000</i>
    <i type="logical" name="KGAMMA"> T  </i>
   </separator>
   <separator name="electronic projectors" >
    <i type="logical" name="LREAL"> F  </i>
    <v name="ROPT">      0.00000000      0.00000000      0.00000000      0.00000000      0.00000000</v>
    <i type="int" name="LMAXPAW">  -100</i>
    <i type="int" name="LMAXMIX">     2</i>
    <i type="logical" name="NLSPLINE"> F  </i>
   </separator>
   <separator name="electronic startup" >
    <i type="int" name="ISTART">     0</i>
    <i type="int" name="ICHARG">     2</i>
    <i type="int" name="INIWAV">     1</i>
   </separator>
   <separator name="electronic spin" >
    <i type="int" name="ISPIN">     1</i>
    <i type="logical" name="LNONCOLLINEAR"> F  </i>
    <v name="MAGMOM">      1.00000000      1.00000000      1.00000000      1.00000000      1.00000000      1.00000000      1.00000000      1.00000000      1.00000000      1.00000000      1.00000000      1.00000000      1.00000000      1.00000000      1.00000000      1.00000000      1.00000000      1.00000000      1.00000000      1.00000000
      1.00000000      1.00000000      1.00000000      1.00000000      1.00000000      1.00000000      1.00000000      1.00000000      1.00000000      1.00000000      1.00000000      1.00000000      1.00000000      1.00000000      1.00000000      1.00000000      1.00000000      1.00000000      1.00000000      1.00000000
      1.00000000      1.00000000      1.00000000      1.00000000      1.00000000      1.00000000      1.00000000      1.00000000      1.00000000      1.00000000      1.00000000      1.00000000      1.00000000      1.00000000      1.00000000      1.00000000      1.00000000      1.00000000</v>
    <i name="NUPDOWN">     -1.00000000</i>
    <i type="logical" name="LSORBIT"> F  </i>
    <v name="SAXIS">      0.00000000      0.00000000      1.00000000</v>
    <i type="logical" name="LSPIRAL"> F  </i>
    <v name="QSPIRAL">      0.00000000      0.00000000      0.00000000</v>
    <i type="logical" name="LZEROZ"> F  </i>
   </separator>
   <separator name="electronic exchange-correlation" >
    <i type="logical" name="LASPH"> F  </i>
    <i type="logical" name="LMETAGGA"> F  </i>
   </separator>
   <separator name="electronic convergence" >
    <i type="int" name="NELM">    60</i>
    <i type="int" name="NELMDL">    -5</i>
    <i type="int" name="NELMIN">     4</i>
    <i name="ENINI">    600.00000000</i>
    <separator name="electronic convergence detail" >
     <i type="logical" name="LDIAG"> T  </i>
     <i type="logical" name="LSUBROT"> F  </i>
     <i name="WEIMIN">      0.00100000</i>
     <i name="EBREAK">      0.00000000</i>
     <i name="DEPER">      0.30000000</i>
     <i type="int" name="NRMM">     4</i>
     <i name="TIME">      0.40000000</i>
    </separator>
   </separator>
   <separator name="electronic mixer" >
    <i name="AMIX">      0.40000000</i>
    <i name="BMIX">      1.00000000</i>
    <i name="AMIN">      0.10000000</i>
    <i name="AMIX_MAG">      1.60000000</i>
    <i name="BMIX_MAG">      1.00000000</i>
    <separator name="electronic mixer details" >
     <i type="int" name="IMIX">     4</i>
     <i type="logical" name="MIXFIRST"> F  </i>
     <i type="int" name="MAXMIX">   -45</i>
     <i name="WC">    100.00000000</i>
     <i type="int" name="INIMIX">     1</i>
     <i type="int" name="MIXPRE">     1</i>
     <i type="int" name="MREMOVE">     5</i>
    </separator>
   </separator>
   <separator name="electronic dipolcorrection" >
    <i type="logical" name="LDIPOL"> F  </i>
    <i type="logical" name="LMONO"> F  </i>
    <i type="int" name="IDIPOL">     0</i>
    <i name="EPSILON">      1.00000000</i>
    <v name="DIPOL">   -100.00000000   -100.00000000   -100.00000000</v>
    <i name="EFIELD">      0.00000000</i>
   </separator>
  </separator>
  <separator name="grids" >
   <i type="int" name="NGX">    70</i>
   <i type="int" name="NGY">    60</i>
   <i type="int" name="NGZ">    70</i>
   <i type="int" name="NGXF">   140</i>
   <i type="int" name="NGYF">   120</i>
   <i type="int" name="NGZF">   140</i>
   <i type="logical" name="ADDGRID"> F  </i>
  </separator>
  <separator name="ionic" >
   <i type="int" name="NSW">     1</i>
   <i type="int" name="IBRION">     2</i>
   <i type="int" name="MDALGO">     0</i>
   <i type="int" name="ISIF">     2</i>
   <i name="PSTRESS">      0.00000000</i>
   <i name="EDIFFG">     -0.01000000</i>
   <i type="int" name="NFREE">    10</i>
   <i name="POTIM">      0.50000000</i>
   <i name="SMASS">     -3.00000000</i>
   <i name="SCALEE">      1.00000000</i>
  </separator>
  <separator name="ionic md" >
   <i name="TEBEG">      0.00010000</i>
   <i name="TEEND">      0.00010000</i>
   <i type="int" name="NBLOCK">     1</i>
   <i type="int" name="KBLOCK">     1</i>
   <i type="int" name="NPACO">   256</i>
   <i name="APACO">     16.00000000</i>
  </separator>
  <separator name="symmetry" >
   <i type="int" name="ISYM">     2</i>
   <i name="SYMPREC">      0.00001000</i>
  </separator>
  <separator name="dos" >
   <i type="int" name="LORBIT">     0</i>
   <v name="RWIGS">     -1.00000000     -1.00000000     -1.00000000     -1.00000000     -1.00000000</v>
   <i type="int" name="NEDOS">   301</i>
   <i name="EMIN">     10.00000000</i>
   <i name="EMAX">    -10.00000000</i>
   <i name="EFERMI">      0.00000000</i>
  </separator>
  <separator name="writing" >
   <i type="int" name="NWRITE">     2</i>
   <i type="logical" name="LWAVE"> F  </i>
   <i type="logical" name="LDOWNSAMPLE"> F  </i>
   <i type="logical" name="LCHARG"> F  </i>
   <i type="logical" name="LPARD"> F  </i>
   <i type="logical" name="LVTOT"> F  </i>
   <i type="logical" name="LVHAR"> F  </i>
   <i type="logical" name="LELF"> F  </i>
   <i type="logical" name="LOPTICS"> F  </i>
   <v name="STM">      0.00000000      0.00000000      0.00000000      0.00000000      0.00000000      0.00000000      0.00000000</v>
  </separator>
  <separator name="performance" >
   <i type="int" name="NPAR">    28</i>
   <i type="int" name="NSIM">     4</i>
   <i type="int" name="NBLK">    -1</i>
   <i type="logical" name="LPLANE"> T  </i>
   <i type="logical" name="LSCALAPACK"> T  </i>
   <i type="logical" name="LSCAAWARE"> F  </i>
   <i type="logical" name="LSCALU"> F  </i>
   <i type="logical" name="LASYNC"> F  </i>
   <i type="logical" name="LORBITALREAL"> F  </i>
  </separator>
  <separator name="miscellaneous" >
   <i type="int" name="IDIOT">     3</i>
   <i type="int" name="ISPECIAL">     0</i>
   <i type="logical" name="LMUSIC"> F  </i>
   <v name="POMASS">      7.01000000     24.30500000    208.98000000     32.06600000     16.00000000</v>
   <v name="DARWINR">      0.00000000      0.00000000      0.00000000      0.00000000      0.00000000</v>
   <v name="DARWINV">      1.00000000      1.00000000      1.00000000      1.00000000      1.00000000</v>
   <i type="logical" name="LCORR"> T  </i>
  </separator>
  <i type="logical" name="GGA_COMPAT"> T  </i>
  <i type="logical" name="LBERRY"> F  </i>
  <i type="int" name="ICORELEVEL">     0</i>
  <i type="logical" name="LDAU"> F  </i>
  <i type="int" name="I_CONSTRAINED_M">     0</i>
  <separator name="electronic exchange-correlation" >
   <i type="string" name="GGA">--</i>
   <i type="int" name="VOSKOWN">     0</i>
   <i type="logical" name="LHFCALC"> F  </i>
   <i type="string" name="PRECFOCK"></i>
   <i type="logical" name="LSYMGRAD"> F  </i>
   <i type="logical" name="LHFONE"> F  </i>
   <i type="logical" name="LRHFCALC"> F  </i>
   <i type="logical" name="LTHOMAS"> F  </i>
   <i type="logical" name="LMODELHF"> F  </i>
   <i name="ENCUT4O">     -1.00000000</i>
   <i type="int" name="EXXOEP">     0</i>
   <i type="int" name="FOURORBIT">     0</i>
   <i name="AEXX">      0.00000000</i>
   <i name="HFALPHA">      0.00000000</i>
   <i name="MCALPHA">      0.00000000</i>
   <i name="ALDAX">      1.00000000</i>
   <i name="AGGAX">      1.00000000</i>
   <i name="ALDAC">      1.00000000</i>
   <i name="AGGAC">      1.00000000</i>
   <i type="int" name="NKREDX">     1</i>
   <i type="int" name="NKREDY">     1</i>
   <i type="int" name="NKREDZ">     1</i>
   <i type="logical" name="SHIFTRED"> F  </i>
   <i type="logical" name="ODDONLY"> F  </i>
   <i type="logical" name="EVENONLY"> F  </i>
   <i type="int" name="LMAXFOCK">     0</i>
   <i type="int" name="NMAXFOCKAE">     0</i>
   <i type="logical" name="LFOCKAEDFT"> F  </i>
   <i name="HFSCREEN">      0.00000000</i>
   <i name="HFSCREENC">      0.00000000</i>
   <i type="int" name="NBANDSGWLOW">     0</i>
  </separator>
  <separator name="vdW DFT" >
   <i type="logical" name="LUSE_VDW"> F  </i>
   <i name="Zab_VDW">     -0.84910000</i>
   <i name="PARAM1">      0.12340000</i>
   <i name="PARAM2">      1.00000000</i>
   <i name="PARAM3">      0.00000000</i>
  </separator>
  <separator name="model GW" >
   <i type="int" name="MODEL_GW">     0</i>
   <i name="MODEL_EPS0">     12.38119177</i>
   <i name="MODEL_ALPHA">      1.00000000</i>
  </separator>
  <separator name="linear response parameters" >
   <i type="logical" name="LEPSILON"> F  </i>
   <i type="logical" name="LRPA"> F  </i>
   <i type="logical" name="LNABLA"> F  </i>
   <i type="logical" name="LVEL"> F  </i>
   <i type="int" name="KINTER">     0</i>
   <i name="CSHIFT">      0.10000000</i>
   <i name="OMEGAMAX">     -1.00000000</i>
   <i name="DEG_THRESHOLD">      0.00200000</i>
   <i name="RTIME">     -0.10000000</i>
   <i name="WPLASMAI">      0.00000000</i>
   <v name="DFIELD">      0.00000000      0.00000000      0.00000000</v>
   <v name="WPLASMA">      0.00000000      0.00000000      0.00000000      0.00000000      0.00000000      0.00000000      0.00000000      0.00000000      0.00000000</v>
  </separator>
  <separator name="orbital magnetization" >
   <i type="logical" name="NUCIND"> F  </i>
   <v name="MAGPOS">      0.00000000      0.00000000      0.00000000</v>
   <i type="logical" name="LNICSALL"> T  </i>
   <i type="logical" name="ORBITALMAG"> F  </i>
   <i type="logical" name="LMAGBLOCH"> F  </i>
   <i type="logical" name="LCHIMAG"> F  </i>
   <i type="logical" name="LGAUGE"> T  </i>
   <i type="int" name="MAGATOM">     0</i>
   <v name="MAGDIPOL">      0.00000000      0.00000000      0.00000000</v>
   <v name="AVECCONST">      0.00000000      0.00000000      0.00000000</v>
  </separator>
  <separator name="response functions" >
   <i type="logical" name="LADDER"> F  </i>
   <i type="logical" name="LRPAFORCE"> F  </i>
   <i type="logical" name="LFXC"> F  </i>
   <i type="logical" name="LHARTREE"> T  </i>
   <i type="int" name="IBSE">     0</i>
   <v type="int" name="KPOINT">    -1     0     0     0</v>
   <i type="logical" name="LTCTE"> F  </i>
   <i type="logical" name="LTETE"> F  </i>
   <i type="logical" name="LTRIPLET"> F  </i>
   <i type="logical" name="LFXCEPS"> F  </i>
   <i type="logical" name="LFXHEG"> F  </i>
   <i type="int" name="NATURALO">     2</i>
   <i type="logical" name="L2ORDER"> F  </i>
   <i type="logical" name="LMP2LT"> F  </i>
   <i type="logical" name="LUSEW"> F  </i>
   <i name="ENCUTGW">     -2.00000000</i>
   <i name="ENCUTGWSOFT">     -2.00000000</i>
   <i name="ENCUTLF">     -1.00000000</i>
   <i type="int" name="LMAXMP2">    -1</i>
   <i name="SCISSOR">      0.00000000</i>
   <i type="int" name="NOMEGA">     0</i>
   <i type="int" name="NOMEGAR">     0</i>
   <i type="int" name="NBANDSGW">    -1</i>
   <i type="int" name="NBANDSO">    -1</i>
   <i type="int" name="NBANDSV">    -1</i>
   <i type="int" name="NELM">     1</i>
   <i type="int" name="NELMHF">     1</i>
   <i type="int" name="DIM">     3</i>
   <i type="int" name="ANTIRES">     0</i>
   <i name="OMEGAMAX">    -30.00000000</i>
   <i name="OMEGAMIN">    -30.00000000</i>
   <i name="OMEGATL">   -200.00000000</i>
   <i type="int" name="OMEGAGRID">   140</i>
   <i name="CSHIFT">     -0.10000000</i>
   <i type="logical" name="SELFENERGY"> F  </i>
   <i type="logical" name="LSPECTRAL"> F  </i>
   <i type="logical" name="LSPECTRALGW"> F  </i>
   <i type="logical" name="LSINGLES"> F  </i>
   <i type="logical" name="LFERMIGW"> F  </i>
   <i type="logical" name="ODDONLYGW"> F  </i>
   <i type="logical" name="EVENONLYGW"> F  </i>
   <i type="int" name="NKREDLFX">     1</i>
   <i type="int" name="NKREDLFY">     1</i>
   <i type="int" name="NKREDLFZ">     1</i>
   <i type="int" name="MAXMEM">  2800</i>
   <i type="int" name="TELESCOPE">     0</i>
   <i type="int" name="TAUPAR">     1</i>
   <i type="int" name="OMEGAPAR">    -1</i>
   <i name="LAMBDA">      1.00000000</i>
  </separator>
  <separator name="External order field" >
   <i name="OFIELD_KAPPA">      0.00000000</i>
   <v name="OFIELD_K">      0.00000000      0.00000000      0.00000000</v>
   <i name="OFIELD_Q6_NEAR">      0.00000000</i>
   <i name="OFIELD_Q6_FAR">      0.00000000</i>
   <i name="OFIELD_A">      0.00000000</i>
  </separator>
 </parameters>
 <atominfo>
  <atoms>      58 </atoms>
  <types>       5 </types>
  <array name="atoms" >
   <dimension dim="1">ion</dimension>
   <field type="string">element</field>
   <field type="int">atomtype</field>
   <set>
    <rc><c>Li</c><c>   1</c></rc>
    <rc><c>Li</c><c>   1</c></rc>
    <rc><c>Li</c><c>   1</c></rc>
    <rc><c>Li</c><c>   1</c></rc>
    <rc><c>Mg</c><c>   2</c></rc>
    <rc><c>Mg</c><c>   2</c></rc>
    <rc><c>Mg</c><c>   2</c></rc>
    <rc><c>Mg</c><c>   2</c></rc>
    <rc><c>Mg</c><c>   2</c></rc>
    <rc><c>Mg</c><c>   2</c></rc>
    <rc><c>Bi</c><c>   3</c></rc>
    <rc><c>Bi</c><c>   3</c></rc>
    <rc><c>Bi</c><c>   3</c></rc>
    <rc><c>Bi</c><c>   3</c></rc>
    <rc><c>Bi</c><c>   3</c></rc>
    <rc><c>Bi</c><c>   3</c></rc>
    <rc><c>Bi</c><c>   3</c></rc>
    <rc><c>Bi</c><c>   3</c></rc>
    <rc><c>Bi</c><c>   3</c></rc>
    <rc><c>Bi</c><c>   3</c></rc>
    <rc><c>Bi</c><c>   3</c></rc>
    <rc><c>Bi</c><c>   3</c></rc>
    <rc><c>Bi</c><c>   3</c></rc>
    <rc><c>Bi</c><c>   3</c></rc>
    <rc><c>Bi</c><c>   3</c></rc>
    <rc><c>Bi</c><c>   3</c></rc>
    <rc><c>S </c><c>   4</c></rc>
    <rc><c>S </c><c>   4</c></rc>
    <rc><c>S </c><c>   4</c></rc>
    <rc><c>S </c><c>   4</c></rc>
    <rc><c>S </c><c>   4</c></rc>
    <rc><c>S </c><c>   4</c></rc>
    <rc><c>S </c><c>   4</c></rc>
    <rc><c>S </c><c>   4</c></rc>
    <rc><c>S </c><c>   4</c></rc>
    <rc><c>S </c><c>   4</c></rc>
    <rc><c>S </c><c>   4</c></rc>
    <rc><c>S </c><c>   4</c></rc>
    <rc><c>S </c><c>   4</c></rc>
    <rc><c>S </c><c>   4</c></rc>
    <rc><c>S </c><c>   4</c></rc>
    <rc><c>S </c><c>   4</c></rc>
    <rc><c>O </c><c>   5</c></rc>
    <rc><c>O </c><c>   5</c></rc>
    <rc><c>O </c><c>   5</c></rc>
    <rc><c>O </c><c>   5</c></rc>
    <rc><c>O </c><c>   5</c></rc>
    <rc><c>O </c><c>   5</c></rc>
    <rc><c>O </c><c>   5</c></rc>
    <rc><c>O </c><c>   5</c></rc>
    <rc><c>O </c><c>   5</c></rc>
    <rc><c>O </c><c>   5</c></rc>
    <rc><c>O </c><c>   5</c></rc>
    <rc><c>O </c><c>   5</c></rc>
    <rc><c>O </c><c>   5</c></rc>
    <rc><c>O </c><c>   5</c></rc>
    <rc><c>O </c><c>   5</c></rc>
    <rc><c>O </c><c>   5</c></rc>
   </set>
  </array>
  <array name="atomtypes" >
   <dimension dim="1">type</dimension>
   <field type="int">atomspertype</field>
   <field type="string">element</field>
   <field>mass</field>
   <field>valence</field>
   <field type="string">pseudopotential</field>
   <set>
    <rc><c>   4</c><c>Li</c><c>      7.01000000</c><c>      3.00000000</c><c>  PAW_PBE Li_sv 10Sep2004               </c></rc>
    <rc><c>   6</c><c>Mg</c><c>     24.30500000</c><c>      2.00000000</c><c>  PAW_PBE Mg 13Apr2007                  </c></rc>
    <rc><c>  16</c><c>Bi</c><c>    208.98000000</c><c>     15.00000000</c><c>  PAW_PBE Bi_d 06Sep2000                </c></rc>
    <rc><c>  16</c><c>S </c><c>     32.06600000</c><c>      6.00000000</c><c>  PAW_PBE S 06Sep2000                   </c></rc>
    <rc><c>  16</c><c>O </c><c>     16.00000000</c><c>      6.00000000</c><c>  PAW_PBE O 08Apr2002                   </c></rc>
   </set>
  </array>
 </atominfo>
 <structure name="initialpos" >
  <crystal>
   <varray name="basis" >
    <v>      11.17850000       0.00000000       0.00000000 </v>
    <v>       0.00000000       9.57460000       0.00000000 </v>
    <v>       0.00000000       0.00000000      11.18240000 </v>
   </varray>
   <i name="volume">   1196.84853820 </i>
   <varray name="rec_basis" >
    <v>       0.08945744       0.00000000       0.00000000 </v>
    <v>       0.00000000       0.10444301       0.00000000 </v>
    <v>       0.00000000       0.00000000       0.08942624 </v>
   </varray>
  </crystal>
  <varray name="positions" >
   <v>       0.37539000       0.00017000       0.43687000 </v>
   <v>       0.12539000       0.99984000       0.93687000 </v>
   <v>       0.87539000       0.00017000       0.93687000 </v>
   <v>       0.87461000       0.00017000       0.68687000 </v>
   <v>       0.12461000       0.99984000       0.18687000 </v>
   <v>       0.87539000       0.00017000       0.43687000 </v>
   <v>       0.62461000       0.99984000       0.18687000 </v>
   <v>       0.37539000       0.00017000       0.93687000 </v>
   <v>       0.12461000       0.99984000       0.68687000 </v>
   <v>       0.62461000       0.99984000       0.68687000 </v>
   <v>       0.00013000       0.29519000       0.06281000 </v>
   <v>       0.25013000       0.70481000       0.06281000 </v>
   <v>       0.24987000       0.29519000       0.31282000 </v>
   <v>       0.49987000       0.70481000       0.31282000 </v>
   <v>       0.50013000       0.29519000       0.06281000 </v>
   <v>       0.75013000       0.70481000       0.06281000 </v>
   <v>       0.74987000       0.29519000       0.31282000 </v>
   <v>       0.99987000       0.70481000       0.31282000 </v>
   <v>       0.00013000       0.29519000       0.56281000 </v>
   <v>       0.25013000       0.70481000       0.56281000 </v>
   <v>       0.24987000       0.29519000       0.81282000 </v>
   <v>       0.49987000       0.70481000       0.81282000 </v>
   <v>       0.50013000       0.29519000       0.56281000 </v>
   <v>       0.75013000       0.70481000       0.56281000 </v>
   <v>       0.74987000       0.29519000       0.81282000 </v>
   <v>       0.99987000       0.70481000       0.81282000 </v>
   <v>       0.25005000       0.32677000       0.06286000 </v>
   <v>       0.00005000       0.67323000       0.06286000 </v>
   <v>       0.49995000       0.32677000       0.31286000 </v>
   <v>       0.24995000       0.67323000       0.31286000 </v>
   <v>       0.75005000       0.32677000       0.06286000 </v>
   <v>       0.50005000       0.67323000       0.06286000 </v>
   <v>       0.99995000       0.32677000       0.31286000 </v>
   <v>       0.74995000       0.67323000       0.31286000 </v>
   <v>       0.25005000       0.32677000       0.56286000 </v>
   <v>       0.00005000       0.67323000       0.56286000 </v>
   <v>       0.49995000       0.32677000       0.81286000 </v>
   <v>       0.24995000       0.67323000       0.81286000 </v>
   <v>       0.75005000       0.32677000       0.56286000 </v>
   <v>       0.50005000       0.67323000       0.56286000 </v>
   <v>       0.99995000       0.32677000       0.81286000 </v>
   <v>       0.74995000       0.67323000       0.81286000 </v>
   <v>       0.49987000       0.07798000       0.06246000 </v>
   <v>       0.24987000       0.92202000       0.06246000 </v>
   <v>       0.25013000       0.07798000       0.31246000 </v>
   <v>       0.00013000       0.92202000       0.31246000 </v>
   <v>       0.99987000       0.07798000       0.06246000 </v>
   <v>       0.74987000       0.92202000       0.06246000 </v>
   <v>       0.75013000       0.07798000       0.31246000 </v>
   <v>       0.50013000       0.92202000       0.31246000 </v>
   <v>       0.49987000       0.07798000       0.56246000 </v>
   <v>       0.24987000       0.92202000       0.56246000 </v>
   <v>       0.25013000       0.07798000       0.81246000 </v>
   <v>       0.00013000       0.92202000       0.81246000 </v>
   <v>       0.99987000       0.07798000       0.56246000 </v>
   <v>       0.74987000       0.92202000       0.56246000 </v>
   <v>       0.75013000       0.07798000       0.81246000 </v>
   <v>       0.50013000       0.92202000       0.81246000 </v>
  </varray>
 </structure>
 <calculation>
  <scstep>
   <time name="dav">   61.01   61.02</time>
   <time name="total">   61.09   61.11</time>
   <energy>
    <i name="alphaZ">   1054.17224280 </i>
    <i name="ewald"> -30179.00900363 </i>
    <i name="hartreedc"> -12706.07211296 </i>
    <i name="XCdc">   1173.24985569 </i>
    <i name="pawpsdc">  36541.05238669 </i>
    <i name="pawaedc"> -35795.85877930 </i>
    <i name="eentropy">      0.00000000 </i>
    <i name="bandstr">   1912.64330944 </i>
    <i name="atom">  43643.51795008 </i>
    <i name="e_fr_energy">   5643.69584882 </i>
    <i name="e_wo_entrp">   5643.69584882 </i>
    <i name="e_0_energy">   5643.69584882 </i>
   </energy>
  </scstep>
  <scstep>
   <time name="dav">   61.91   62.09</time>
   <time name="total">   61.92   62.10</time>
   <energy>
    <i name="e_fr_energy">    730.99599375 </i>
    <i name="e_wo_entrp">    730.99599375 </i>
    <i name="e_0_energy">    730.99599375 </i>
   </energy>
  </scstep>
  <scstep>
   <time name="dav">   70.98   71.57</time>
   <time name="total">   70.98   71.57</time>
   <energy>
    <i name="e_fr_energy">   -247.69198020 </i>
    <i name="e_wo_entrp">   -247.69198020 </i>
    <i name="e_0_energy">   -247.69198020 </i>
   </energy>
  </scstep>
  <scstep>
   <time name="dav">   72.73   73.16</time>
   <time name="total">   72.73   73.16</time>
   <energy>
    <i name="e_fr_energy">   -332.42484379 </i>
    <i name="e_wo_entrp">   -332.42484379 </i>
    <i name="e_0_energy">   -332.42484379 </i>
   </energy>
  </scstep>
  <scstep>
   <time name="dav">   93.03   93.16</time>
   <time name="total">   93.76   93.89</time>
   <energy>
    <i name="e_fr_energy">   -338.45461021 </i>
    <i name="e_wo_entrp">   -338.45461021 </i>
    <i name="e_0_energy">   -338.45461021 </i>
   </energy>
  </scstep>
  <scstep>
   <time name="dav">   86.94   87.04</time>
   <time name="total">   87.75   87.85</time>
   <energy>
    <i name="e_fr_energy">   -284.35495390 </i>
    <i name="e_wo_entrp">   -284.35495390 </i>
    <i name="e_0_energy">   -284.35495390 </i>
   </energy>
  </scstep>
  <scstep>
   <time name="dav">   66.30   66.54</time>
   <time name="total">   67.10   67.34</time>
   <energy>
    <i name="e_fr_energy">   -286.51473928 </i>
    <i name="e_wo_entrp">   -286.51473928 </i>
    <i name="e_0_energy">   -286.51473928 </i>
   </energy>
  </scstep>
  <scstep>
   <time name="dav">   76.99   77.41</time>
   <time name="total">   77.79   78.22</time>
   <energy>
    <i name="e_fr_energy">   -285.67411886 </i>
    <i name="e_wo_entrp">   -285.67411886 </i>
    <i name="e_0_energy">   -285.67411886 </i>
   </energy>
  </scstep>
  <scstep>
   <time name="dav">   75.77   75.98</time>
   <time name="total">   76.55   76.78</time>
   <energy>
    <i name="e_fr_energy">   -285.27570760 </i>
    <i name="e_wo_entrp">   -285.27570760 </i>
    <i name="e_0_energy">   -285.27570760 </i>
   </energy>
  </scstep>
  <scstep>
   <time name="dav">   75.50   75.71</time>
   <time name="total">   76.31   76.52</time>
   <energy>
    <i name="e_fr_energy">   -285.29649410 </i>
    <i name="e_wo_entrp">   -285.29649410 </i>
    <i name="e_0_energy">   -285.29649410 </i>
   </energy>
  </scstep>
  <scstep>
   <time name="dav">   83.72   83.94</time>
   <time name="total">   84.52   84.75</time>
   <energy>
    <i name="e_fr_energy">   -285.29846874 </i>
    <i name="e_wo_entrp">   -285.29846874 </i>
    <i name="e_0_energy">   -285.29846874 </i>
   </energy>
  </scstep>
  <scstep>
   <time name="dav">   72.06   72.31</time>
   <time name="total">   72.87   73.12</time>
   <energy>
    <i name="e_fr_energy">   -285.30158611 </i>
    <i name="e_wo_entrp">   -285.30158611 </i>
    <i name="e_0_energy">   -285.30158611 </i>
   </energy>
  </scstep>
  <scstep>
   <time name="dav">   72.17   72.87</time>
   <time name="total">   72.97   73.68</time>
   <energy>
    <i name="e_fr_energy">   -285.30266539 </i>
    <i name="e_wo_entrp">   -285.30266539 </i>
    <i name="e_0_energy">   -285.30266539 </i>
   </energy>
  </scstep>
  <scstep>
   <time name="dav">   71.13   71.39</time>
   <time name="total">   71.93   72.19</time>
   <energy>
    <i name="e_fr_energy">   -285.30296769 </i>
    <i name="e_wo_entrp">   -285.30296769 </i>
    <i name="e_0_energy">   -285.30296769 </i>
   </energy>
  </scstep>
  <scstep>
   <time name="dav">   78.97   79.20</time>
   <time name="total">   79.77   80.01</time>
   <energy>
    <i name="e_fr_energy">   -285.30299245 </i>
    <i name="e_wo_entrp">   -285.30299245 </i>
    <i name="e_0_energy">   -285.30299245 </i>
   </energy>
  </scstep>
  <scstep>
   <time name="dav">   63.68   63.80</time>
   <time name="total">   64.48   64.60</time>
   <energy>
    <i name="e_fr_energy">   -285.30300870 </i>
    <i name="e_wo_entrp">   -285.30300870 </i>
    <i name="e_0_energy">   -285.30300870 </i>
   </energy>
  </scstep>
  <scstep>
   <time name="dav">   70.93   70.94</time>
   <time name="total">   71.73   71.74</time>
   <energy>
    <i name="e_fr_energy">   -285.30301211 </i>
    <i name="e_wo_entrp">   -285.30301211 </i>
    <i name="e_0_energy">   -285.30301211 </i>
   </energy>
  </scstep>
  <scstep>
   <time name="dav">   57.46   57.73</time>
   <time name="total">   57.53   57.80</time>
   <energy>
    <i name="alphaZ">   1054.17224280 </i>
    <i name="ewald"> -30179.00900363 </i>
    <i name="hartreedc"> -12946.98244835 </i>
    <i name="XCdc">   1198.71365494 </i>
    <i name="pawpsdc">  43579.49646231 </i>
    <i name="pawaedc"> -42807.13863905 </i>
    <i name="eentropy">      0.00000000 </i>
    <i name="bandstr">  -3828.07323129 </i>
    <i name="atom">  43643.51795008 </i>
    <i name="e_fr_energy">   -285.30301219 </i>
    <i name="e_wo_entrp">   -285.30301219 </i>
    <i name="e_0_energy">   -285.30301219 </i>
   </energy>
  </scstep>
  <structure>
   <crystal>
    <varray name="basis" >
     <v>      11.17850000       0.00000000       0.00000000 </v>
     <v>       0.00000000       9.57460000       0.00000000 </v>
     <v>       0.00000000       0.00000000      11.18240000 </v>
    </varray>
    <i name="volume">   1196.84853820 </i>
    <varray name="rec_basis" >
     <v>       0.08945744       0.00000000       0.00000000 </v>
     <v>       0.00000000       0.10444301       0.00000000 </v>
     <v>       0.00000000       0.00000000       0.08942624 </v>
    </varray>
   </crystal>
   <varray name="positions" >
    <v>       0.37539000       0.00017000       0.43687000 </v>
    <v>       0.12539000       0.99984000       0.93687000 </v>
    <v>       0.87539000       0.00017000       0.93687000 </v>
    <v>       0.87461000       0.00017000       0.68687000 </v>
    <v>       0.12461000       0.99984000       0.18687000 </v>
    <v>       0.87539000       0.00017000       0.43687000 </v>
    <v>       0.62461000       0.99984000       0.18687000 </v>
    <v>       0.37539000       0.00017000       0.93687000 </v>
    <v>       0.12461000       0.99984000       0.68687000 </v>
    <v>       0.62461000       0.99984000       0.68687000 </v>
    <v>       0.00013000       0.29519000       0.06281000 </v>
    <v>       0.25013000       0.70481000       0.06281000 </v>
    <v>       0.24987000       0.29519000       0.31282000 </v>
    <v>       0.49987000       0.70481000       0.31282000 </v>
    <v>       0.50013000       0.29519000       0.06281000 </v>
    <v>       0.75013000       0.70481000       0.06281000 </v>
    <v>       0.74987000       0.29519000       0.31282000 </v>
    <v>       0.99987000       0.70481000       0.31282000 </v>
    <v>       0.00013000       0.29519000       0.56281000 </v>
    <v>       0.25013000       0.70481000       0.56281000 </v>
    <v>       0.24987000       0.29519000       0.81282000 </v>
    <v>       0.49987000       0.70481000       0.81282000 </v>
    <v>       0.50013000       0.29519000       0.56281000 </v>
    <v>       0.75013000       0.70481000       0.56281000 </v>
    <v>       0.74987000       0.29519000       0.81282000 </v>
    <v>       0.99987000       0.70481000       0.81282000 </v>
    <v>       0.25005000       0.32677000       0.06286000 </v>
    <v>       0.00005000       0.67323000       0.06286000 </v>
    <v>       0.49995000       0.32677000       0.31286000 </v>
    <v>       0.24995000       0.67323000       0.31286000 </v>
    <v>       0.75005000       0.32677000       0.06286000 </v>
    <v>       0.50005000       0.67323000       0.06286000 </v>
    <v>       0.99995000       0.32677000       0.31286000 </v>
    <v>       0.74995000       0.67323000       0.31286000 </v>
    <v>       0.25005000       0.32677000       0.56286000 </v>
    <v>       0.00005000       0.67323000       0.56286000 </v>
    <v>       0.49995000       0.32677000       0.81286000 </v>
    <v>       0.24995000       0.67323000       0.81286000 </v>
    <v>       0.75005000       0.32677000       0.56286000 </v>
    <v>       0.50005000       0.67323000       0.56286000 </v>
    <v>       0.99995000       0.32677000       0.81286000 </v>
    <v>       0.74995000       0.67323000       0.81286000 </v>
    <v>       0.49987000       0.07798000       0.06246000 </v>
    <v>       0.24987000       0.92202000       0.06246000 </v>
    <v>       0.25013000       0.07798000       0.31246000 </v>
    <v>       0.00013000       0.92202000       0.31246000 </v>
    <v>       0.99987000       0.07798000       0.06246000 </v>
    <v>       0.74987000       0.92202000       0.06246000 </v>
    <v>       0.75013000       0.07798000       0.31246000 </v>
    <v>       0.50013000       0.92202000       0.31246000 </v>
    <v>       0.49987000       0.07798000       0.56246000 </v>
    <v>       0.24987000       0.92202000       0.56246000 </v>
    <v>       0.25013000       0.07798000       0.81246000 </v>
    <v>       0.00013000       0.92202000       0.81246000 </v>
    <v>       0.99987000       0.07798000       0.56246000 </v>
    <v>       0.74987000       0.92202000       0.56246000 </v>
    <v>       0.75013000       0.07798000       0.81246000 </v>
    <v>       0.50013000       0.92202000       0.81246000 </v>
   </varray>
  </structure>
  <varray name="forces" >
   <v>       0.02583332      -0.00186230      -0.03128488 </v>
   <v>      -0.27634987       0.06272264       0.21394726 </v>
   <v>      -0.55423190       0.00242124       0.54976595 </v>
   <v>      -0.20829848       0.06300383       0.28569931 </v>
   <v>       0.06784952       0.23731475       1.08526628 </v>
   <v>      -0.09623762      -0.00958467      -1.06522164 </v>
   <v>      -0.03270752      -0.23032951       0.09031521 </v>
   <v>       1.06454025      -0.00918875       0.09964919 </v>
   <v>       1.08516276      -0.22862193      -1.02729787 </v>
   <v>      -1.03017854       0.23675407      -0.01335421 </v>
   <v>      -0.30520578       0.06174177       0.21716090 </v>
   <v>       0.26348920      -1.02046046       0.38752956 </v>
   <v>       0.25710039      -1.01412815       0.14114094 </v>
   <v>      -0.09998488       1.02597594       0.10308947 </v>
   <v>       0.08838948      -0.06287671       0.20158788 </v>
   <v>      -0.06414580       1.02225806       0.05505066 </v>
   <v>      -0.20367228      -0.07972897      -0.10498607 </v>
   <v>       0.06739283       0.04672195      -0.06776376 </v>
   <v>       0.23478110       1.05270476      -0.30794422 </v>
   <v>       0.28261954       0.97564859      -0.29276903 </v>
   <v>       0.30441116       1.03769547      -0.24522605 </v>
   <v>       0.07350090       0.04655295      -0.06011829 </v>
   <v>      -0.15904811      -0.99302296      -0.25985017 </v>
   <v>      -0.39130425      -1.02896296      -0.26928519 </v>
   <v>      -0.21751581       0.04679488       0.29328663 </v>
   <v>      -0.13512037      -1.11803829       0.13714115 </v>
   <v>      -0.09791781       0.10157390      -0.27556315 </v>
   <v>       0.23667707      -0.09532917      -0.15100131 </v>
   <v>       0.13938414       0.18798745      -0.13915108 </v>
   <v>      -0.21779274      -0.15020430      -0.23397588 </v>
   <v>       0.04880411       0.12924548      -0.05237564 </v>
   <v>      -0.19893549      -0.13202174      -0.17870332 </v>
   <v>      -0.09464414       0.09271323       0.08522426 </v>
   <v>       0.17977789      -0.13281332       0.20018486 </v>
   <v>      -0.31951759       0.10472492       0.31802905 </v>
   <v>      -0.18202505      -0.05119720       0.19246020 </v>
   <v>      -0.08474474       0.09204303       0.09215297 </v>
   <v>      -0.19058270      -0.05321601       0.18156632 </v>
   <v>       0.27221720       0.10039587       0.09676828 </v>
   <v>       0.23458193      -0.14659471       0.21923457 </v>
   <v>       0.12144548       0.07021852      -0.12202517 </v>
   <v>       0.15320809      -0.09783302      -0.23842643 </v>
   <v>      -0.18354766       0.31984135      -0.18856832 </v>
   <v>      -0.65473947       0.68371838      -0.87491648 </v>
   <v>      -0.64701294       0.95494669      -0.64594432 </v>
   <v>      -0.08646880      -0.26103392       0.08874295 </v>
   <v>       1.22342154      -0.06255827      -0.30504119 </v>
   <v>      -0.37770569      -0.95311814       0.38224601 </v>
   <v>       0.16788703       0.32272083       0.17439891 </v>
   <v>       0.53385306      -1.01881281      -0.54053376 </v>
   <v>       0.63897883       0.95253193       0.62917535 </v>
   <v>      -0.72629785      -0.88063725       0.73080693 </v>
   <v>      -0.78969815      -0.74886533       0.73518032 </v>
   <v>       0.55249065       0.93680259      -0.56379535 </v>
   <v>      -0.75122067      -0.75083146       0.76809265 </v>
   <v>       0.87302418       0.68836988       0.65793837 </v>
   <v>       0.28116407      -0.06383662      -1.23610670 </v>
   <v>      -0.09513299      -0.26043603       0.07839711 </v>
  </varray>
  <varray name="stress" >
   <v>      -9.24733306      -0.14964230       0.62214564 </v>
   <v>      -0.14964225     -12.69243699      -0.24619132 </v>
   <v>       0.62214567      -0.24619136      -9.85152731 </v>
  </varray>
  <energy>
   <i name="e_fr_energy">   -297.03657225 </i>
   <i name="e_wo_entrp">   -297.03657225 </i>
   <i name="e_0_energy">      0.00000000 </i>
  </energy>
  <time name="totalsc"> 1432.76 1437.53</time>
  <eigenvalues>
   <array>
    <dimension dim="1">band</dimension>
    <dimension dim="2">kpoint</dimension>
    <dimension dim="3">spin</dimension>
    <field>eigene</field>
    <field>occ</field>
    <set>
     <set comment="spin 1">
      <set comment="kpoint 1">
       <r>  -40.5835    1.0000 </r>
       <r>  -40.5831    1.0000 </r>
       <r>  -39.8868    1.0000 </r>
       <r>  -39.0093    1.0000 </r>
       <r>  -19.0598    1.0000 </r>
       <r>  -18.9913    1.0000 </r>
       <r>  -18.9827    1.0000 </r>
       <r>  -18.9805    1.0000 </r>
       <r>  -18.9749    1.0000 </r>
       <r>  -18.9197    1.0000 </r>
       <r>  -18.9124    1.0000 </r>
       <r>  -18.9044    1.0000 </r>
       <r>  -18.8986    1.0000 </r>
       <r>  -18.8960    1.0000 </r>
       <r>  -18.8960    1.0000 </r>
       <r>  -18.8803    1.0000 </r>
       <r>  -18.8739    1.0000 </r>
       <r>  -18.8314    1.0000 </r>
       <r>  -18.8293    1.0000 </r>
       <r>  -18.8236    1.0000 </r>
       <r>  -18.8212    1.0000 </r>
       <r>  -18.8194    1.0000 </r>
       <r>  -18.8113    1.0000 </r>
       <r>  -18.7945    1.0000 </r>
       <r>  -18.7891    1.0000 </r>
       <r>  -18.7766    1.0000 </r>
       <r>  -18.7683    1.0000 </r>
       <r>  -18.7625    1.0000 </r>
       <r>  -18.7540    1.0000 </r>
       <r>  -18.7491    1.0000 </r>
       <r>  -18.7469    1.0000 </r>
       <r>  -18.7293    1.0000 </r>
       <r>  -18.7270    1.0000 </r>
       <r>  -18.7089    1.0000 </r>
       <r>  -18.7066    1.0000 </r>
       <r>  -18.6809    1.0000 </r>
       <r>  -18.6802    1.0000 </r>
       <r>  -18.6651    1.0000 </r>
       <r>  -18.6636    1.0000 </r>
       <r>  -18.6510    1.0000 </r>
       <r>  -18.6492    1.0000 </r>
       <r>  -18.6199    1.0000 </r>
       <r>  -18.6173    1.0000 </r>
       <r>  -18.6128    1.0000 </r>
       <r>  -18.6103    1.0000 </r>
       <r>  -18.6019    1.0000 </r>
       <r>  -18.5998    1.0000 </r>
       <r>  -18.5957    1.0000 </r>
       <r>  -18.5890    1.0000 </r>
       <r>  -18.5852    1.0000 </r>
       <r>  -18.5780    1.0000 </r>
       <r>  -18.5293    1.0000 </r>
       <r>  -18.5286    1.0000 </r>
       <r>  -18.5217    1.0000 </r>
       <r>  -18.5101    1.0000 </r>
       <r>  -18.5030    1.0000 </r>
       <r>  -18.4924    1.0000 </r>
       <r>  -18.4915    1.0000 </r>
       <r>  -18.4910    1.0000 </r>
       <r>  -18.4607    1.0000 </r>
       <r>  -18.4580    1.0000 </r>
       <r>  -18.4518    1.0000 </r>
       <r>  -18.4479    1.0000 </r>
       <r>  -18.4425    1.0000 </r>
       <r>  -18.4401    1.0000 </r>
       <r>  -18.4285    1.0000 </r>
       <r>  -18.4274    1.0000 </r>
       <r>  -18.4210    1.0000 </r>
       <r>  -18.4170    1.0000 </r>
       <r>  -18.3707    1.0000 </r>
       <r>  -18.3673    1.0000 </r>
       <r>  -18.3581    1.0000 </r>
       <r>  -18.3566    1.0000 </r>
       <r>  -18.3276    1.0000 </r>
       <r>  -18.3060    1.0000 </r>
       <r>  -18.3016    1.0000 </r>
       <r>  -18.2799    1.0000 </r>
       <r>  -18.2792    1.0000 </r>
       <r>  -18.2577    1.0000 </r>
       <r>  -18.2476    1.0000 </r>
       <r>  -18.2292    1.0000 </r>
       <r>  -18.2209    1.0000 </r>
       <r>  -18.1696    1.0000 </r>
       <r>  -18.1442    1.0000 </r>
       <r>  -13.7286    1.0000 </r>
       <r>  -13.5914    1.0000 </r>
       <r>  -13.5768    1.0000 </r>
       <r>  -13.4682    1.0000 </r>
       <r>  -13.4563    1.0000 </r>
       <r>  -12.8995    1.0000 </r>
       <r>  -12.8749    1.0000 </r>
       <r>  -12.7512    1.0000 </r>
       <r>  -12.7398    1.0000 </r>
       <r>  -12.6633    1.0000 </r>
       <r>  -12.6040    1.0000 </r>
       <r>  -12.1549    1.0000 </r>
       <r>  -12.0864    1.0000 </r>
       <r>  -12.0439    1.0000 </r>
       <r>  -12.0126    1.0000 </r>
       <r>  -11.9138    1.0000 </r>
       <r>   -9.3936    1.0000 </r>
       <r>   -9.0999    1.0000 </r>
       <r>   -8.6222    1.0000 </r>
       <r>   -8.5598    1.0000 </r>
       <r>   -8.5286    1.0000 </r>
       <r>   -8.4779    1.0000 </r>
       <r>   -8.4004    1.0000 </r>
       <r>   -8.3351    1.0000 </r>
       <r>   -8.3028    1.0000 </r>
       <r>   -8.2639    1.0000 </r>
       <r>   -8.0820    1.0000 </r>
       <r>   -8.0412    1.0000 </r>
       <r>   -8.0378    1.0000 </r>
       <r>   -8.0158    1.0000 </r>
       <r>   -7.4013    1.0000 </r>
       <r>   -7.3980    1.0000 </r>
       <r>   -6.4422    1.0000 </r>
       <r>   -6.4289    1.0000 </r>
       <r>   -6.4140    1.0000 </r>
       <r>   -6.4026    1.0000 </r>
       <r>   -5.6017    1.0000 </r>
       <r>   -5.5648    1.0000 </r>
       <r>   -5.5119    1.0000 </r>
       <r>   -5.3983    1.0000 </r>
       <r>   -5.3388    1.0000 </r>
       <r>   -5.2801    1.0000 </r>
       <r>   -5.2503    1.0000 </r>
       <r>   -5.1433    1.0000 </r>
       <r>   -5.1173    1.0000 </r>
       <r>   -5.0593    1.0000 </r>
       <r>   -3.8471    1.0000 </r>
       <r>   -3.6996    1.0000 </r>
       <r>   -1.5986    1.0000 </r>
       <r>   -1.3412    1.0000 </r>
       <r>   -1.2093    1.0000 </r>
       <r>   -1.0234    1.0000 </r>
       <r>   -0.6978    1.0000 </r>
       <r>   -0.6463    1.0000 </r>
       <r>   -0.6020    1.0000 </r>
       <r>   -0.5103    1.0000 </r>
       <r>   -0.2724    1.0000 </r>
       <r>   -0.2522    1.0000 </r>
       <r>   -0.2243    1.0000 </r>
       <r>   -0.1940    1.0000 </r>
       <r>   -0.1328    1.0000 </r>
       <r>   -0.0612    1.0000 </r>
       <r>    0.0971    1.0000 </r>
       <r>    0.1048    1.0000 </r>
       <r>    0.2124    1.0000 </r>
       <r>    0.3182    1.0000 </r>
       <r>    0.3709    1.0000 </r>
       <r>    0.4454    1.0000 </r>
       <r>    0.5118    1.0000 </r>
       <r>    0.5229    1.0000 </r>
       <r>    0.6008    1.0000 </r>
       <r>    0.6012    1.0000 </r>
       <r>    0.6976    1.0000 </r>
       <r>    0.6993    1.0000 </r>
       <r>    0.8016    1.0000 </r>
       <r>    0.8315    1.0000 </r>
       <r>    0.8791    1.0000 </r>
       <r>    0.9056    1.0000 </r>
       <r>    0.9352    1.0000 </r>
       <r>    0.9607    1.0000 </r>
       <r>    0.9904    1.0000 </r>
       <r>    1.0276    1.0000 </r>
       <r>    1.1178    1.0000 </r>
       <r>    1.1531    1.0000 </r>
       <r>    1.2493    1.0000 </r>
       <r>    1.2864    1.0000 </r>
       <r>    1.3241    1.0000 </r>
       <r>    1.3610    1.0000 </r>
       <r>    1.4093    1.0000 </r>
       <r>    1.4561    1.0000 </r>
       <r>    1.4987    1.0000 </r>
       <r>    1.5753    1.0000 </r>
       <r>    1.5945    1.0000 </r>
       <r>    1.6231    1.0000 </r>
       <r>    1.6309    1.0000 </r>
       <r>    1.7063    1.0000 </r>
       <r>    1.8288    1.0000 </r>
       <r>    1.8328    1.0000 </r>
       <r>    1.8667    1.0000 </r>
       <r>    2.0699    1.0000 </r>
       <r>    2.1053    1.0000 </r>
       <r>    2.1683    1.0000 </r>
       <r>    2.1856    1.0000 </r>
       <r>    2.2202    1.0000 </r>
       <r>    2.3228    1.0000 </r>
       <r>    2.3404    1.0000 </r>
       <r>    2.4002    1.0000 </r>
       <r>    2.4355    1.0000 </r>
       <r>    2.4964    1.0000 </r>
       <r>    2.5217    1.0000 </r>
       <r>    2.5231    1.0000 </r>
       <r>    2.5450    1.0000 </r>
       <r>    2.5579    1.0000 </r>
       <r>    2.6422    1.0000 </r>
       <r>    2.6691    1.0000 </r>
       <r>    2.7297    1.0000 </r>
       <r>    2.7338    1.0000 </r>
       <r>    2.7763    1.0000 </r>
       <r>    2.7953    1.0000 </r>
       <r>    2.8383    1.0000 </r>
       <r>    2.8646    1.0000 </r>
       <r>    2.9458    1.0000 </r>
       <r>    2.9907    1.0000 </r>
       <r>    3.0291    1.0000 </r>
       <r>    3.0531    1.0000 </r>
       <r>    3.0645    1.0000 </r>
       <r>    3.1030    1.0000 </r>
       <r>    3.1279    1.0000 </r>
       <r>    3.1382    1.0000 </r>
       <r>    3.1793    1.0000 </r>
       <r>    3.2133    1.0000 </r>
       <r>    3.2185    1.0000 </r>
       <r>    3.2214    1.0000 </r>
       <r>    3.2408    1.0000 </r>
       <r>    3.2943    1.0000 </r>
       <r>    3.4630    1.0000 </r>
       <r>    3.5127    1.0000 </r>
       <r>    3.6474    1.0000 </r>
       <r>    3.6587    1.0000 </r>
       <r>    3.7823    1.0000 </r>
       <r>    4.1288    1.0000 </r>
       <r>    4.1414    1.0000 </r>
       <r>    4.2020    1.0000 </r>
       <r>    4.2117    1.0000 </r>
       <r>    4.9315    0.0000 </r>
       <r>    4.9448    0.0000 </r>
       <r>    5.1605    0.0000 </r>
       <r>    5.1673    0.0000 </r>
       <r>    5.6558    0.0000 </r>
       <r>    5.6731    0.0000 </r>
       <r>    5.7909    0.0000 </r>
       <r>    5.7979    0.0000 </r>
       <r>    6.0774    0.0000 </r>
       <r>    6.0814    0.0000 </r>
       <r>    6.1125    0.0000 </r>
       <r>    6.1178    0.0000 </r>
       <r>    6.2019    0.0000 </r>
       <r>    6.2048    0.0000 </r>
       <r>    6.2287    0.0000 </r>
       <r>    6.2362    0.0000 </r>
       <r>    6.9252    0.0000 </r>
       <r>    6.9544    0.0000 </r>
       <r>    7.2378    0.0000 </r>
       <r>    7.2442    0.0000 </r>
       <r>    7.6288    0.0000 </r>
       <r>    7.7625    0.0000 </r>
       <r>    7.7733    0.0000 </r>
       <r>    7.8430    0.0000 </r>
       <r>    7.9038    0.0000 </r>
       <r>    8.0073    0.0000 </r>
       <r>    8.0172    0.0000 </r>
       <r>    8.1635    0.0000 </r>
       <r>    8.2435    0.0000 </r>
       <r>    8.6125    0.0000 </r>
       <r>    8.6246    0.0000 </r>
       <r>    8.7494    0.0000 </r>
       <r>    8.7636    0.0000 </r>
       <r>    8.7944    0.0000 </r>
       <r>    8.8696    0.0000 </r>
       <r>    8.8752    0.0000 </r>
       <r>    8.9248    0.0000 </r>
       <r>    9.0001    0.0000 </r>
       <r>    9.0077    0.0000 </r>
       <r>    9.0623    0.0000 </r>
       <r>    9.0709    0.0000 </r>
       <r>    9.1180    0.0000 </r>
       <r>    9.1991    0.0000 </r>
       <r>    9.2225    0.0000 </r>
       <r>    9.3369    0.0000 </r>
       <r>    9.3398    0.0000 </r>
       <r>    9.4592    0.0000 </r>
       <r>    9.4802    0.0000 </r>
       <r>    9.6235    0.0000 </r>
       <r>    9.6741    0.0000 </r>
       <r>    9.7278    0.0000 </r>
       <r>    9.8027    0.0000 </r>
      </set>
      <set comment="kpoint 2">
       <r>  -40.5835    1.0000 </r>
       <r>  -40.5831    1.0000 </r>
       <r>  -39.8868    1.0000 </r>
       <r>  -39.0093    1.0000 </r>
       <r>  -19.0598    1.0000 </r>
       <r>  -18.9912    1.0000 </r>
       <r>  -18.9826    1.0000 </r>
       <r>  -18.9805    1.0000 </r>
       <r>  -18.9749    1.0000 </r>
       <r>  -18.9195    1.0000 </r>
       <r>  -18.9124    1.0000 </r>
       <r>  -18.9045    1.0000 </r>
       <r>  -18.8986    1.0000 </r>
       <r>  -18.8960    1.0000 </r>
       <r>  -18.8959    1.0000 </r>
       <r>  -18.8803    1.0000 </r>
       <r>  -18.8738    1.0000 </r>
       <r>  -18.8314    1.0000 </r>
       <r>  -18.8292    1.0000 </r>
       <r>  -18.8236    1.0000 </r>
       <r>  -18.8212    1.0000 </r>
       <r>  -18.8194    1.0000 </r>
       <r>  -18.8113    1.0000 </r>
       <r>  -18.7945    1.0000 </r>
       <r>  -18.7891    1.0000 </r>
       <r>  -18.7767    1.0000 </r>
       <r>  -18.7683    1.0000 </r>
       <r>  -18.7624    1.0000 </r>
       <r>  -18.7540    1.0000 </r>
       <r>  -18.7492    1.0000 </r>
       <r>  -18.7469    1.0000 </r>
       <r>  -18.7293    1.0000 </r>
       <r>  -18.7270    1.0000 </r>
       <r>  -18.7089    1.0000 </r>
       <r>  -18.7066    1.0000 </r>
       <r>  -18.6809    1.0000 </r>
       <r>  -18.6802    1.0000 </r>
       <r>  -18.6648    1.0000 </r>
       <r>  -18.6639    1.0000 </r>
       <r>  -18.6507    1.0000 </r>
       <r>  -18.6496    1.0000 </r>
       <r>  -18.6199    1.0000 </r>
       <r>  -18.6174    1.0000 </r>
       <r>  -18.6128    1.0000 </r>
       <r>  -18.6103    1.0000 </r>
       <r>  -18.6018    1.0000 </r>
       <r>  -18.5998    1.0000 </r>
       <r>  -18.5957    1.0000 </r>
       <r>  -18.5890    1.0000 </r>
       <r>  -18.5852    1.0000 </r>
       <r>  -18.5780    1.0000 </r>
       <r>  -18.5292    1.0000 </r>
       <r>  -18.5286    1.0000 </r>
       <r>  -18.5217    1.0000 </r>
       <r>  -18.5101    1.0000 </r>
       <r>  -18.5030    1.0000 </r>
       <r>  -18.4924    1.0000 </r>
       <r>  -18.4914    1.0000 </r>
       <r>  -18.4910    1.0000 </r>
       <r>  -18.4607    1.0000 </r>
       <r>  -18.4581    1.0000 </r>
       <r>  -18.4518    1.0000 </r>
       <r>  -18.4478    1.0000 </r>
       <r>  -18.4424    1.0000 </r>
       <r>  -18.4402    1.0000 </r>
       <r>  -18.4286    1.0000 </r>
       <r>  -18.4274    1.0000 </r>
       <r>  -18.4210    1.0000 </r>
       <r>  -18.4170    1.0000 </r>
       <r>  -18.3707    1.0000 </r>
       <r>  -18.3673    1.0000 </r>
       <r>  -18.3581    1.0000 </r>
       <r>  -18.3566    1.0000 </r>
       <r>  -18.3276    1.0000 </r>
       <r>  -18.3060    1.0000 </r>
       <r>  -18.3016    1.0000 </r>
       <r>  -18.2799    1.0000 </r>
       <r>  -18.2792    1.0000 </r>
       <r>  -18.2577    1.0000 </r>
       <r>  -18.2476    1.0000 </r>
       <r>  -18.2292    1.0000 </r>
       <r>  -18.2209    1.0000 </r>
       <r>  -18.1696    1.0000 </r>
       <r>  -18.1442    1.0000 </r>
       <r>  -13.7275    1.0000 </r>
       <r>  -13.5929    1.0000 </r>
       <r>  -13.5769    1.0000 </r>
       <r>  -13.4672    1.0000 </r>
       <r>  -13.4567    1.0000 </r>
       <r>  -12.9015    1.0000 </r>
       <r>  -12.8729    1.0000 </r>
       <r>  -12.7501    1.0000 </r>
       <r>  -12.7407    1.0000 </r>
       <r>  -12.6633    1.0000 </r>
       <r>  -12.6047    1.0000 </r>
       <r>  -12.1549    1.0000 </r>
       <r>  -12.0864    1.0000 </r>
       <r>  -12.0436    1.0000 </r>
       <r>  -12.0126    1.0000 </r>
       <r>  -11.9140    1.0000 </r>
       <r>   -9.2492    1.0000 </r>
       <r>   -9.0924    1.0000 </r>
       <r>   -8.9759    1.0000 </r>
       <r>   -8.8160    1.0000 </r>
       <r>   -8.4465    1.0000 </r>
       <r>   -8.4397    1.0000 </r>
       <r>   -8.3136    1.0000 </r>
       <r>   -8.2996    1.0000 </r>
       <r>   -8.2481    1.0000 </r>
       <r>   -8.2376    1.0000 </r>
       <r>   -8.1107    1.0000 </r>
       <r>   -8.1017    1.0000 </r>
       <r>   -7.7919    1.0000 </r>
       <r>   -7.6840    1.0000 </r>
       <r>   -7.6736    1.0000 </r>
       <r>   -7.5657    1.0000 </r>
       <r>   -6.1083    1.0000 </r>
       <r>   -6.0852    1.0000 </r>
       <r>   -6.0020    1.0000 </r>
       <r>   -5.9379    1.0000 </r>
       <r>   -5.9114    1.0000 </r>
       <r>   -5.8706    1.0000 </r>
       <r>   -5.7369    1.0000 </r>
       <r>   -5.7151    1.0000 </r>
       <r>   -5.6937    1.0000 </r>
       <r>   -5.6028    1.0000 </r>
       <r>   -5.4981    1.0000 </r>
       <r>   -5.4390    1.0000 </r>
       <r>   -4.5397    1.0000 </r>
       <r>   -4.3867    1.0000 </r>
       <r>   -4.3769    1.0000 </r>
       <r>   -4.2146    1.0000 </r>
       <r>   -1.3402    1.0000 </r>
       <r>   -1.1641    1.0000 </r>
       <r>   -0.9620    1.0000 </r>
       <r>   -0.7923    1.0000 </r>
       <r>   -0.6021    1.0000 </r>
       <r>   -0.4523    1.0000 </r>
       <r>   -0.2991    1.0000 </r>
       <r>   -0.1838    1.0000 </r>
       <r>   -0.0997    1.0000 </r>
       <r>   -0.0391    1.0000 </r>
       <r>   -0.0251    1.0000 </r>
       <r>    0.0399    1.0000 </r>
       <r>    0.0809    1.0000 </r>
       <r>    0.1312    1.0000 </r>
       <r>    0.1424    1.0000 </r>
       <r>    0.2459    1.0000 </r>
       <r>    0.3425    1.0000 </r>
       <r>    0.3696    1.0000 </r>
       <r>    0.4245    1.0000 </r>
       <r>    0.4450    1.0000 </r>
       <r>    0.4737    1.0000 </r>
       <r>    0.5164    1.0000 </r>
       <r>    0.5942    1.0000 </r>
       <r>    0.6437    1.0000 </r>
       <r>    0.6542    1.0000 </r>
       <r>    0.6837    1.0000 </r>
       <r>    0.7584    1.0000 </r>
       <r>    0.7759    1.0000 </r>
       <r>    0.8084    1.0000 </r>
       <r>    0.8510    1.0000 </r>
       <r>    0.9584    1.0000 </r>
       <r>    0.9715    1.0000 </r>
       <r>    1.0392    1.0000 </r>
       <r>    1.0947    1.0000 </r>
       <r>    1.1444    1.0000 </r>
       <r>    1.1757    1.0000 </r>
       <r>    1.2105    1.0000 </r>
       <r>    1.2639    1.0000 </r>
       <r>    1.2711    1.0000 </r>
       <r>    1.3369    1.0000 </r>
       <r>    1.3516    1.0000 </r>
       <r>    1.4294    1.0000 </r>
       <r>    1.4452    1.0000 </r>
       <r>    1.4769    1.0000 </r>
       <r>    1.4838    1.0000 </r>
       <r>    1.5676    1.0000 </r>
       <r>    1.5899    1.0000 </r>
       <r>    1.5999    1.0000 </r>
       <r>    1.6746    1.0000 </r>
       <r>    1.7269    1.0000 </r>
       <r>    1.8188    1.0000 </r>
       <r>    1.8787    1.0000 </r>
       <r>    1.9404    1.0000 </r>
       <r>    1.9537    1.0000 </r>
       <r>    1.9969    1.0000 </r>
       <r>    2.0236    1.0000 </r>
       <r>    2.1465    1.0000 </r>
       <r>    2.1755    1.0000 </r>
       <r>    2.2361    1.0000 </r>
       <r>    2.2426    1.0000 </r>
       <r>    2.2825    1.0000 </r>
       <r>    2.3143    1.0000 </r>
       <r>    2.3602    1.0000 </r>
       <r>    2.4181    1.0000 </r>
       <r>    2.4791    1.0000 </r>
       <r>    2.5095    1.0000 </r>
       <r>    2.5276    1.0000 </r>
       <r>    2.6075    1.0000 </r>
       <r>    2.6522    1.0000 </r>
       <r>    2.6629    1.0000 </r>
       <r>    2.6893    1.0000 </r>
       <r>    2.7084    1.0000 </r>
       <r>    2.7583    1.0000 </r>
       <r>    2.7901    1.0000 </r>
       <r>    2.8190    1.0000 </r>
       <r>    2.8740    1.0000 </r>
       <r>    2.9048    1.0000 </r>
       <r>    2.9553    1.0000 </r>
       <r>    2.9941    1.0000 </r>
       <r>    3.0238    1.0000 </r>
       <r>    3.0901    1.0000 </r>
       <r>    3.0997    1.0000 </r>
       <r>    3.1430    1.0000 </r>
       <r>    3.1979    1.0000 </r>
       <r>    3.2851    1.0000 </r>
       <r>    3.3430    1.0000 </r>
       <r>    3.3977    1.0000 </r>
       <r>    3.4269    1.0000 </r>
       <r>    3.4506    1.0000 </r>
       <r>    3.5036    1.0000 </r>
       <r>    3.5600    1.0000 </r>
       <r>    3.5984    1.0000 </r>
       <r>    3.6934    1.0000 </r>
       <r>    3.7121    1.0000 </r>
       <r>    3.8003    1.0000 </r>
       <r>    3.9050    1.0000 </r>
       <r>    5.5010    0.0000 </r>
       <r>    5.5120    0.0000 </r>
       <r>    5.6667    0.0000 </r>
       <r>    5.6755    0.0000 </r>
       <r>    5.7049    0.0000 </r>
       <r>    5.7055    0.0000 </r>
       <r>    5.8562    0.0000 </r>
       <r>    5.8653    0.0000 </r>
       <r>    7.0688    0.0000 </r>
       <r>    7.0852    0.0000 </r>
       <r>    7.1802    0.0000 </r>
       <r>    7.2185    0.0000 </r>
       <r>    7.2571    0.0000 </r>
       <r>    7.2904    0.0000 </r>
       <r>    7.3196    0.0000 </r>
       <r>    7.3730    0.0000 </r>
       <r>    7.3870    0.0000 </r>
       <r>    7.4686    0.0000 </r>
       <r>    7.5443    0.0000 </r>
       <r>    7.5786    0.0000 </r>
       <r>    7.7594    0.0000 </r>
       <r>    7.7674    0.0000 </r>
       <r>    7.7777    0.0000 </r>
       <r>    7.8091    0.0000 </r>
       <r>    7.8253    0.0000 </r>
       <r>    7.8364    0.0000 </r>
       <r>    7.9044    0.0000 </r>
       <r>    7.9121    0.0000 </r>
       <r>    7.9271    0.0000 </r>
       <r>    7.9354    0.0000 </r>
       <r>    8.0524    0.0000 </r>
       <r>    8.1121    0.0000 </r>
       <r>    8.1819    0.0000 </r>
       <r>    8.2709    0.0000 </r>
       <r>    8.3664    0.0000 </r>
       <r>    8.3976    0.0000 </r>
       <r>    8.6428    0.0000 </r>
       <r>    8.6996    0.0000 </r>
       <r>    8.7058    0.0000 </r>
       <r>    8.7183    0.0000 </r>
       <r>    8.7231    0.0000 </r>
       <r>    8.8007    0.0000 </r>
       <r>    8.8851    0.0000 </r>
       <r>    8.9064    0.0000 </r>
       <r>    9.0566    0.0000 </r>
       <r>    9.2073    0.0000 </r>
       <r>    9.2703    0.0000 </r>
       <r>    9.3126    0.0000 </r>
       <r>    9.3979    0.0000 </r>
       <r>    9.5276    0.0000 </r>
       <r>    9.9217    0.0000 </r>
       <r>   10.2164    0.0000 </r>
      </set>
      <set comment="kpoint 3">
       <r>  -40.5835    1.0000 </r>
       <r>  -40.5831    1.0000 </r>
       <r>  -39.8868    1.0000 </r>
       <r>  -39.0093    1.0000 </r>
       <r>  -19.0598    1.0000 </r>
       <r>  -18.9913    1.0000 </r>
       <r>  -18.9826    1.0000 </r>
       <r>  -18.9806    1.0000 </r>
       <r>  -18.9749    1.0000 </r>
       <r>  -18.9197    1.0000 </r>
       <r>  -18.9124    1.0000 </r>
       <r>  -18.9043    1.0000 </r>
       <r>  -18.8986    1.0000 </r>
       <r>  -18.8960    1.0000 </r>
       <r>  -18.8960    1.0000 </r>
       <r>  -18.8803    1.0000 </r>
       <r>  -18.8738    1.0000 </r>
       <r>  -18.8314    1.0000 </r>
       <r>  -18.8293    1.0000 </r>
       <r>  -18.8236    1.0000 </r>
       <r>  -18.8212    1.0000 </r>
       <r>  -18.8194    1.0000 </r>
       <r>  -18.8113    1.0000 </r>
       <r>  -18.7945    1.0000 </r>
       <r>  -18.7891    1.0000 </r>
       <r>  -18.7766    1.0000 </r>
       <r>  -18.7683    1.0000 </r>
       <r>  -18.7625    1.0000 </r>
       <r>  -18.7540    1.0000 </r>
       <r>  -18.7491    1.0000 </r>
       <r>  -18.7469    1.0000 </r>
       <r>  -18.7293    1.0000 </r>
       <r>  -18.7270    1.0000 </r>
       <r>  -18.7089    1.0000 </r>
       <r>  -18.7066    1.0000 </r>
       <r>  -18.6809    1.0000 </r>
       <r>  -18.6802    1.0000 </r>
       <r>  -18.6651    1.0000 </r>
       <r>  -18.6637    1.0000 </r>
       <r>  -18.6510    1.0000 </r>
       <r>  -18.6492    1.0000 </r>
       <r>  -18.6199    1.0000 </r>
       <r>  -18.6173    1.0000 </r>
       <r>  -18.6128    1.0000 </r>
       <r>  -18.6103    1.0000 </r>
       <r>  -18.6019    1.0000 </r>
       <r>  -18.5998    1.0000 </r>
       <r>  -18.5957    1.0000 </r>
       <r>  -18.5890    1.0000 </r>
       <r>  -18.5852    1.0000 </r>
       <r>  -18.5780    1.0000 </r>
       <r>  -18.5293    1.0000 </r>
       <r>  -18.5286    1.0000 </r>
       <r>  -18.5217    1.0000 </r>
       <r>  -18.5101    1.0000 </r>
       <r>  -18.5030    1.0000 </r>
       <r>  -18.4924    1.0000 </r>
       <r>  -18.4915    1.0000 </r>
       <r>  -18.4910    1.0000 </r>
       <r>  -18.4607    1.0000 </r>
       <r>  -18.4580    1.0000 </r>
       <r>  -18.4518    1.0000 </r>
       <r>  -18.4479    1.0000 </r>
       <r>  -18.4425    1.0000 </r>
       <r>  -18.4401    1.0000 </r>
       <r>  -18.4285    1.0000 </r>
       <r>  -18.4274    1.0000 </r>
       <r>  -18.4210    1.0000 </r>
       <r>  -18.4170    1.0000 </r>
       <r>  -18.3707    1.0000 </r>
       <r>  -18.3673    1.0000 </r>
       <r>  -18.3581    1.0000 </r>
       <r>  -18.3566    1.0000 </r>
       <r>  -18.3276    1.0000 </r>
       <r>  -18.3060    1.0000 </r>
       <r>  -18.3016    1.0000 </r>
       <r>  -18.2799    1.0000 </r>
       <r>  -18.2792    1.0000 </r>
       <r>  -18.2577    1.0000 </r>
       <r>  -18.2476    1.0000 </r>
       <r>  -18.2292    1.0000 </r>
       <r>  -18.2209    1.0000 </r>
       <r>  -18.1696    1.0000 </r>
       <r>  -18.1442    1.0000 </r>
       <r>  -13.7283    1.0000 </r>
       <r>  -13.5914    1.0000 </r>
       <r>  -13.5769    1.0000 </r>
       <r>  -13.4683    1.0000 </r>
       <r>  -13.4564    1.0000 </r>
       <r>  -12.8991    1.0000 </r>
       <r>  -12.8747    1.0000 </r>
       <r>  -12.7511    1.0000 </r>
       <r>  -12.7399    1.0000 </r>
       <r>  -12.6639    1.0000 </r>
       <r>  -12.6043    1.0000 </r>
       <r>  -12.1538    1.0000 </r>
       <r>  -12.0871    1.0000 </r>
       <r>  -12.0447    1.0000 </r>
       <r>  -12.0128    1.0000 </r>
       <r>  -11.9149    1.0000 </r>
       <r>   -9.3830    1.0000 </r>
       <r>   -9.1073    1.0000 </r>
       <r>   -8.6410    1.0000 </r>
       <r>   -8.5759    1.0000 </r>
       <r>   -8.5457    1.0000 </r>
       <r>   -8.4949    1.0000 </r>
       <r>   -8.3793    1.0000 </r>
       <r>   -8.3178    1.0000 </r>
       <r>   -8.2831    1.0000 </r>
       <r>   -8.2465    1.0000 </r>
       <r>   -8.0861    1.0000 </r>
       <r>   -8.0444    1.0000 </r>
       <r>   -8.0405    1.0000 </r>
       <r>   -8.0182    1.0000 </r>
       <r>   -7.4040    1.0000 </r>
       <r>   -7.4007    1.0000 </r>
       <r>   -6.4330    1.0000 </r>
       <r>   -6.4176    1.0000 </r>
       <r>   -6.4047    1.0000 </r>
       <r>   -6.3932    1.0000 </r>
       <r>   -5.6098    1.0000 </r>
       <r>   -5.5722    1.0000 </r>
       <r>   -5.5479    1.0000 </r>
       <r>   -5.4157    1.0000 </r>
       <r>   -5.3548    1.0000 </r>
       <r>   -5.2828    1.0000 </r>
       <r>   -5.2351    1.0000 </r>
       <r>   -5.1032    1.0000 </r>
       <r>   -5.0735    1.0000 </r>
       <r>   -5.0146    1.0000 </r>
       <r>   -3.9240    1.0000 </r>
       <r>   -3.6106    1.0000 </r>
       <r>   -1.4580    1.0000 </r>
       <r>   -1.3991    1.0000 </r>
       <r>   -1.2942    1.0000 </r>
       <r>   -1.0870    1.0000 </r>
       <r>   -0.5694    1.0000 </r>
       <r>   -0.5561    1.0000 </r>
       <r>   -0.5140    1.0000 </r>
       <r>   -0.4754    1.0000 </r>
       <r>   -0.4656    1.0000 </r>
       <r>   -0.4255    1.0000 </r>
       <r>   -0.3943    1.0000 </r>
       <r>   -0.3460    1.0000 </r>
       <r>   -0.2448    1.0000 </r>
       <r>   -0.1753    1.0000 </r>
       <r>   -0.1077    1.0000 </r>
       <r>   -0.0687    1.0000 </r>
       <r>    0.0672    1.0000 </r>
       <r>    0.2305    1.0000 </r>
       <r>    0.2670    1.0000 </r>
       <r>    0.3353    1.0000 </r>
       <r>    0.4364    1.0000 </r>
       <r>    0.5006    1.0000 </r>
       <r>    0.5880    1.0000 </r>
       <r>    0.6098    1.0000 </r>
       <r>    0.6422    1.0000 </r>
       <r>    0.6585    1.0000 </r>
       <r>    0.6671    1.0000 </r>
       <r>    0.7858    1.0000 </r>
       <r>    0.8037    1.0000 </r>
       <r>    0.9376    1.0000 </r>
       <r>    0.9646    1.0000 </r>
       <r>    1.0037    1.0000 </r>
       <r>    1.0774    1.0000 </r>
       <r>    1.1539    1.0000 </r>
       <r>    1.1690    1.0000 </r>
       <r>    1.3054    1.0000 </r>
       <r>    1.3290    1.0000 </r>
       <r>    1.3761    1.0000 </r>
       <r>    1.3991    1.0000 </r>
       <r>    1.4391    1.0000 </r>
       <r>    1.4595    1.0000 </r>
       <r>    1.5259    1.0000 </r>
       <r>    1.5632    1.0000 </r>
       <r>    1.6146    1.0000 </r>
       <r>    1.6973    1.0000 </r>
       <r>    1.7187    1.0000 </r>
       <r>    1.7265    1.0000 </r>
       <r>    1.8547    1.0000 </r>
       <r>    1.9189    1.0000 </r>
       <r>    1.9802    1.0000 </r>
       <r>    2.0355    1.0000 </r>
       <r>    2.1515    1.0000 </r>
       <r>    2.2393    1.0000 </r>
       <r>    2.2504    1.0000 </r>
       <r>    2.3240    1.0000 </r>
       <r>    2.3516    1.0000 </r>
       <r>    2.3858    1.0000 </r>
       <r>    2.3915    1.0000 </r>
       <r>    2.4484    1.0000 </r>
       <r>    2.4948    1.0000 </r>
       <r>    2.5066    1.0000 </r>
       <r>    2.5118    1.0000 </r>
       <r>    2.5409    1.0000 </r>
       <r>    2.5493    1.0000 </r>
       <r>    2.5611    1.0000 </r>
       <r>    2.5738    1.0000 </r>
       <r>    2.6094    1.0000 </r>
       <r>    2.6688    1.0000 </r>
       <r>    2.7179    1.0000 </r>
       <r>    2.7943    1.0000 </r>
       <r>    2.8028    1.0000 </r>
       <r>    2.8617    1.0000 </r>
       <r>    2.8835    1.0000 </r>
       <r>    2.9106    1.0000 </r>
       <r>    2.9301    1.0000 </r>
       <r>    2.9686    1.0000 </r>
       <r>    2.9978    1.0000 </r>
       <r>    3.0007    1.0000 </r>
       <r>    3.0584    1.0000 </r>
       <r>    3.1103    1.0000 </r>
       <r>    3.1986    1.0000 </r>
       <r>    3.2285    1.0000 </r>
       <r>    3.2495    1.0000 </r>
       <r>    3.3220    1.0000 </r>
       <r>    3.3884    1.0000 </r>
       <r>    3.4141    1.0000 </r>
       <r>    3.4531    1.0000 </r>
       <r>    3.4893    1.0000 </r>
       <r>    3.5454    1.0000 </r>
       <r>    3.6019    1.0000 </r>
       <r>    3.6171    1.0000 </r>
       <r>    3.7271    1.0000 </r>
       <r>    4.1841    1.0000 </r>
       <r>    4.1912    1.0000 </r>
       <r>    4.2513    1.0000 </r>
       <r>    4.2632    1.0000 </r>
       <r>    5.0160    0.0000 </r>
       <r>    5.0269    0.0000 </r>
       <r>    5.2213    0.0000 </r>
       <r>    5.2289    0.0000 </r>
       <r>    5.6644    0.0000 </r>
       <r>    5.6808    0.0000 </r>
       <r>    5.8007    0.0000 </r>
       <r>    5.8085    0.0000 </r>
       <r>    6.1261    0.0000 </r>
       <r>    6.1278    0.0000 </r>
       <r>    6.1517    0.0000 </r>
       <r>    6.1565    0.0000 </r>
       <r>    6.2214    0.0000 </r>
       <r>    6.2228    0.0000 </r>
       <r>    6.2509    0.0000 </r>
       <r>    6.2576    0.0000 </r>
       <r>    6.6022    0.0000 </r>
       <r>    6.6742    0.0000 </r>
       <r>    6.8447    0.0000 </r>
       <r>    6.8980    0.0000 </r>
       <r>    7.1669    0.0000 </r>
       <r>    7.2007    0.0000 </r>
       <r>    7.2348    0.0000 </r>
       <r>    7.4464    0.0000 </r>
       <r>    7.7602    0.0000 </r>
       <r>    7.7856    0.0000 </r>
       <r>    7.8526    0.0000 </r>
       <r>    7.8847    0.0000 </r>
       <r>    8.0446    0.0000 </r>
       <r>    8.3487    0.0000 </r>
       <r>    8.3565    0.0000 </r>
       <r>    8.3752    0.0000 </r>
       <r>    8.5848    0.0000 </r>
       <r>    8.7404    0.0000 </r>
       <r>    8.8434    0.0000 </r>
       <r>    8.8638    0.0000 </r>
       <r>    8.9173    0.0000 </r>
       <r>    9.0045    0.0000 </r>
       <r>    9.0098    0.0000 </r>
       <r>    9.0276    0.0000 </r>
       <r>    9.0378    0.0000 </r>
       <r>    9.1140    0.0000 </r>
       <r>    9.1377    0.0000 </r>
       <r>    9.1689    0.0000 </r>
       <r>    9.4324    0.0000 </r>
       <r>    9.4388    0.0000 </r>
       <r>    9.5071    0.0000 </r>
       <r>    9.6648    0.0000 </r>
       <r>    9.6917    0.0000 </r>
       <r>    9.6999    0.0000 </r>
       <r>    9.9325    0.0000 </r>
       <r>    9.9509    0.0000 </r>
      </set>
      <set comment="kpoint 4">
       <r>  -40.5835    1.0000 </r>
       <r>  -40.5831    1.0000 </r>
       <r>  -39.8868    1.0000 </r>
       <r>  -39.0093    1.0000 </r>
       <r>  -19.0598    1.0000 </r>
       <r>  -18.9912    1.0000 </r>
       <r>  -18.9825    1.0000 </r>
       <r>  -18.9806    1.0000 </r>
       <r>  -18.9749    1.0000 </r>
       <r>  -18.9195    1.0000 </r>
       <r>  -18.9124    1.0000 </r>
       <r>  -18.9045    1.0000 </r>
       <r>  -18.8986    1.0000 </r>
       <r>  -18.8960    1.0000 </r>
       <r>  -18.8959    1.0000 </r>
       <r>  -18.8803    1.0000 </r>
       <r>  -18.8738    1.0000 </r>
       <r>  -18.8314    1.0000 </r>
       <r>  -18.8292    1.0000 </r>
       <r>  -18.8236    1.0000 </r>
       <r>  -18.8212    1.0000 </r>
       <r>  -18.8194    1.0000 </r>
       <r>  -18.8113    1.0000 </r>
       <r>  -18.7945    1.0000 </r>
       <r>  -18.7891    1.0000 </r>
       <r>  -18.7767    1.0000 </r>
       <r>  -18.7683    1.0000 </r>
       <r>  -18.7625    1.0000 </r>
       <r>  -18.7540    1.0000 </r>
       <r>  -18.7492    1.0000 </r>
       <r>  -18.7469    1.0000 </r>
       <r>  -18.7293    1.0000 </r>
       <r>  -18.7270    1.0000 </r>
       <r>  -18.7089    1.0000 </r>
       <r>  -18.7066    1.0000 </r>
       <r>  -18.6808    1.0000 </r>
       <r>  -18.6802    1.0000 </r>
       <r>  -18.6648    1.0000 </r>
       <r>  -18.6639    1.0000 </r>
       <r>  -18.6507    1.0000 </r>
       <r>  -18.6496    1.0000 </r>
       <r>  -18.6199    1.0000 </r>
       <r>  -18.6174    1.0000 </r>
       <r>  -18.6128    1.0000 </r>
       <r>  -18.6103    1.0000 </r>
       <r>  -18.6018    1.0000 </r>
       <r>  -18.5998    1.0000 </r>
       <r>  -18.5957    1.0000 </r>
       <r>  -18.5890    1.0000 </r>
       <r>  -18.5852    1.0000 </r>
       <r>  -18.5780    1.0000 </r>
       <r>  -18.5292    1.0000 </r>
       <r>  -18.5286    1.0000 </r>
       <r>  -18.5217    1.0000 </r>
       <r>  -18.5101    1.0000 </r>
       <r>  -18.5030    1.0000 </r>
       <r>  -18.4924    1.0000 </r>
       <r>  -18.4914    1.0000 </r>
       <r>  -18.4910    1.0000 </r>
       <r>  -18.4607    1.0000 </r>
       <r>  -18.4581    1.0000 </r>
       <r>  -18.4518    1.0000 </r>
       <r>  -18.4478    1.0000 </r>
       <r>  -18.4424    1.0000 </r>
       <r>  -18.4402    1.0000 </r>
       <r>  -18.4286    1.0000 </r>
       <r>  -18.4274    1.0000 </r>
       <r>  -18.4210    1.0000 </r>
       <r>  -18.4170    1.0000 </r>
       <r>  -18.3707    1.0000 </r>
       <r>  -18.3673    1.0000 </r>
       <r>  -18.3581    1.0000 </r>
       <r>  -18.3566    1.0000 </r>
       <r>  -18.3276    1.0000 </r>
       <r>  -18.3060    1.0000 </r>
       <r>  -18.3016    1.0000 </r>
       <r>  -18.2799    1.0000 </r>
       <r>  -18.2792    1.0000 </r>
       <r>  -18.2577    1.0000 </r>
       <r>  -18.2476    1.0000 </r>
       <r>  -18.2292    1.0000 </r>
       <r>  -18.2209    1.0000 </r>
       <r>  -18.1696    1.0000 </r>
       <r>  -18.1442    1.0000 </r>
       <r>  -13.7273    1.0000 </r>
       <r>  -13.5928    1.0000 </r>
       <r>  -13.5770    1.0000 </r>
       <r>  -13.4673    1.0000 </r>
       <r>  -13.4568    1.0000 </r>
       <r>  -12.9012    1.0000 </r>
       <r>  -12.8727    1.0000 </r>
       <r>  -12.7500    1.0000 </r>
       <r>  -12.7408    1.0000 </r>
       <r>  -12.6637    1.0000 </r>
       <r>  -12.6050    1.0000 </r>
       <r>  -12.1538    1.0000 </r>
       <r>  -12.0870    1.0000 </r>
       <r>  -12.0443    1.0000 </r>
[...]
       <r>    8.7718    0.0000 </r>
       <r>    8.8080    0.0000 </r>
       <r>    8.8178    0.0000 </r>
       <r>    8.8678    0.0000 </r>
       <r>    8.8829    0.0000 </r>
       <r>    8.9348    0.0000 </r>
       <r>    8.9724    0.0000 </r>
       <r>    9.4249    0.0000 </r>
       <r>    9.6405    0.0000 </r>
       <r>    9.9778    0.0000 </r>
       <r>   10.0854    0.0000 </r>
      </set>
     </set>
    </set>
   </array>
  </eigenvalues>
  <separator name="orbital magnetization" >
   <v name="MAGDIPOLOUT">      0.00000000      0.00000000      0.00000000</v>
  </separator>
  <dos>
   <i name="efermi">      4.30604935 </i>
   <total>
    <array>
     <dimension dim="1">gridpoints</dimension>
     <dimension dim="2">spin</dimension>
     <field>energy</field>
     <field>total</field>
     <field>integrated</field>
     <set>
      <set comment="spin 1">
       <r>   -43.1276     0.0000     0.0000 </r>
       <r>   -42.9410     0.0000     0.0000 </r>
       <r>   -42.7545     0.0000     0.0000 </r>
       <r>   -42.5679     0.0000     0.0000 </r>
       <r>   -42.3813     0.0000     0.0000 </r>
       <r>   -42.1948     0.0000     0.0000 </r>
       <r>   -42.0082     0.0000     0.0000 </r>
       <r>   -41.8216     0.0000     0.0000 </r>
       <r>   -41.6351     0.0000     0.0000 </r>
       <r>   -41.4485     0.0000     0.0000 </r>
       <r>   -41.2619     0.0000     0.0000 </r>
       <r>   -41.0754     0.0000     0.0000 </r>
       <r>   -40.8888     0.0000     0.0000 </r>
       <r>   -40.7023     0.0000     0.0000 </r>
       <r>   -40.5157     0.0000     4.0000 </r>
       <r>   -40.3291     0.0000     4.0000 </r>
       <r>   -40.1426     0.0000     4.0000 </r>
       <r>   -39.9560     0.0000     4.0000 </r>
       <r>   -39.7694     0.0000     6.0000 </r>
       <r>   -39.5829     0.0000     6.0000 </r>
       <r>   -39.3963     0.0000     6.0000 </r>
       <r>   -39.2098     0.0000     6.0000 </r>
       <r>   -39.0232     0.0000     6.0000 </r>
       <r>   -38.8366     0.0000     8.0000 </r>
       <r>   -38.6501     0.0000     8.0000 </r>
       <r>   -38.4635     0.0000     8.0000 </r>
       <r>   -38.2769     0.0000     8.0000 </r>
       <r>   -38.0904     0.0000     8.0000 </r>
       <r>   -37.9038     0.0000     8.0000 </r>
       <r>   -37.7173     0.0000     8.0000 </r>
       <r>   -37.5307     0.0000     8.0000 </r>
       <r>   -37.3441     0.0000     8.0000 </r>
       <r>   -37.1576     0.0000     8.0000 </r>
       <r>   -36.9710     0.0000     8.0000 </r>
       <r>   -36.7844     0.0000     8.0000 </r>
       <r>   -36.5979     0.0000     8.0000 </r>
       <r>   -36.4113     0.0000     8.0000 </r>
       <r>   -36.2247     0.0000     8.0000 </r>
       <r>   -36.0382     0.0000     8.0000 </r>
       <r>   -35.8516     0.0000     8.0000 </r>
       <r>   -35.6651     0.0000     8.0000 </r>
       <r>   -35.4785     0.0000     8.0000 </r>
       <r>   -35.2919     0.0000     8.0000 </r>
       <r>   -35.1054     0.0000     8.0000 </r>
       <r>   -34.9188     0.0000     8.0000 </r>
       <r>   -34.7322     0.0000     8.0000 </r>
       <r>   -34.5457     0.0000     8.0000 </r>
       <r>   -34.3591     0.0000     8.0000 </r>
       <r>   -34.1726     0.0000     8.0000 </r>
       <r>   -33.9860     0.0000     8.0000 </r>
       <r>   -33.7994     0.0000     8.0000 </r>
       <r>   -33.6129     0.0000     8.0000 </r>
       <r>   -33.4263     0.0000     8.0000 </r>
       <r>   -33.2397     0.0000     8.0000 </r>
       <r>   -33.0532     0.0000     8.0000 </r>
       <r>   -32.8666     0.0000     8.0000 </r>
       <r>   -32.6801     0.0000     8.0000 </r>
       <r>   -32.4935     0.0000     8.0000 </r>
       <r>   -32.3069     0.0000     8.0000 </r>
       <r>   -32.1204     0.0000     8.0000 </r>
       <r>   -31.9338     0.0000     8.0000 </r>
       <r>   -31.7472     0.0000     8.0000 </r>
       <r>   -31.5607     0.0000     8.0000 </r>
       <r>   -31.3741     0.0000     8.0000 </r>
       <r>   -31.1875     0.0000     8.0000 </r>
       <r>   -31.0010     0.0000     8.0000 </r>
       <r>   -30.8144     0.0000     8.0000 </r>
       <r>   -30.6279     0.0000     8.0000 </r>
       <r>   -30.4413     0.0000     8.0000 </r>
       <r>   -30.2547     0.0000     8.0000 </r>
       <r>   -30.0682     0.0000     8.0000 </r>
       <r>   -29.8816     0.0000     8.0000 </r>
       <r>   -29.6950     0.0000     8.0000 </r>
       <r>   -29.5085     0.0000     8.0000 </r>
       <r>   -29.3219     0.0000     8.0000 </r>
       <r>   -29.1354     0.0000     8.0000 </r>
       <r>   -28.9488     0.0000     8.0000 </r>
       <r>   -28.7622     0.0000     8.0000 </r>
       <r>   -28.5757     0.0000     8.0000 </r>
       <r>   -28.3891     0.0000     8.0000 </r>
       <r>   -28.2025     0.0000     8.0000 </r>
       <r>   -28.0160     0.0000     8.0000 </r>
       <r>   -27.8294     0.0000     8.0000 </r>
       <r>   -27.6429     0.0000     8.0000 </r>
       <r>   -27.4563     0.0000     8.0000 </r>
       <r>   -27.2697     0.0000     8.0000 </r>
       <r>   -27.0832     0.0000     8.0000 </r>
       <r>   -26.8966     0.0000     8.0000 </r>
       <r>   -26.7100     0.0000     8.0000 </r>
       <r>   -26.5235     0.0000     8.0000 </r>
       <r>   -26.3369     0.0000     8.0000 </r>
       <r>   -26.1504     0.0000     8.0000 </r>
       <r>   -25.9638     0.0000     8.0000 </r>
       <r>   -25.7772     0.0000     8.0000 </r>
       <r>   -25.5907     0.0000     8.0000 </r>
       <r>   -25.4041     0.0000     8.0000 </r>
       <r>   -25.2175     0.0000     8.0000 </r>
       <r>   -25.0310     0.0000     8.0000 </r>
       <r>   -24.8444     0.0000     8.0000 </r>
       <r>   -24.6578     0.0000     8.0000 </r>
       <r>   -24.4713     0.0000     8.0000 </r>
       <r>   -24.2847     0.0000     8.0000 </r>
       <r>   -24.0982     0.0000     8.0000 </r>
       <r>   -23.9116     0.0000     8.0000 </r>
       <r>   -23.7250     0.0000     8.0000 </r>
       <r>   -23.5385     0.0000     8.0000 </r>
       <r>   -23.3519     0.0000     8.0000 </r>
       <r>   -23.1653     0.0000     8.0000 </r>
       <r>   -22.9788     0.0000     8.0000 </r>
       <r>   -22.7922     0.0000     8.0000 </r>
       <r>   -22.6057     0.0000     8.0000 </r>
       <r>   -22.4191     0.0000     8.0000 </r>
       <r>   -22.2325     0.0000     8.0000 </r>
       <r>   -22.0460     0.0000     8.0000 </r>
       <r>   -21.8594     0.0000     8.0000 </r>
       <r>   -21.6728     0.0000     8.0000 </r>
       <r>   -21.4863     0.0000     8.0000 </r>
       <r>   -21.2997     0.0000     8.0000 </r>
       <r>   -21.1132     0.0000     8.0000 </r>
       <r>   -20.9266     0.0000     8.0000 </r>
       <r>   -20.7400     0.0000     8.0000 </r>
       <r>   -20.5535     0.0000     8.0000 </r>
       <r>   -20.3669     0.0000     8.0000 </r>
       <r>   -20.1803     0.0000     8.0000 </r>
       <r>   -19.9938     0.0000     8.0000 </r>
       <r>   -19.8072     0.0000     8.0000 </r>
       <r>   -19.6206     0.0000     8.0000 </r>
       <r>   -19.4341     0.0000     8.0000 </r>
       <r>   -19.2475     0.0000     8.0000 </r>
       <r>   -19.0610     0.0000     8.0000 </r>
       <r>   -18.8744     0.0000    32.0000 </r>
       <r>   -18.6878     0.0000    70.0000 </r>
       <r>   -18.5013     0.0000   112.0000 </r>
       <r>   -18.3147     0.0000   148.0000 </r>
       <r>   -18.1281     0.0000   168.0000 </r>
       <r>   -17.9416     0.0000   168.0000 </r>
       <r>   -17.7550     0.0000   168.0000 </r>
       <r>   -17.5685     0.0000   168.0000 </r>
       <r>   -17.3819     0.0000   168.0000 </r>
       <r>   -17.1953     0.0000   168.0000 </r>
       <r>   -17.0088     0.0000   168.0000 </r>
       <r>   -16.8222     0.0000   168.0000 </r>
       <r>   -16.6356     0.0000   168.0000 </r>
       <r>   -16.4491     0.0000   168.0000 </r>
       <r>   -16.2625     0.0000   168.0000 </r>
       <r>   -16.0760     0.0000   168.0000 </r>
       <r>   -15.8894     0.0000   168.0000 </r>
       <r>   -15.7028     0.0000   168.0000 </r>
       <r>   -15.5163     0.0000   168.0000 </r>
       <r>   -15.3297     0.0000   168.0000 </r>
       <r>   -15.1431     0.0000   168.0000 </r>
       <r>   -14.9566     0.0000   168.0000 </r>
       <r>   -14.7700     0.0000   168.0000 </r>
       <r>   -14.5834     0.0000   168.0000 </r>
       <r>   -14.3969     0.0000   168.0000 </r>
       <r>   -14.2103     0.0000   168.0000 </r>
       <r>   -14.0238     0.0000   168.0000 </r>
       <r>   -13.8372     0.0000   168.0000 </r>
       <r>   -13.6506     0.0000   170.0000 </r>
       <r>   -13.4641     0.0000   176.0000 </r>
       <r>   -13.2775     0.0000   178.0000 </r>
       <r>   -13.0909     0.0000   178.0000 </r>
       <r>   -12.9044     0.0000   178.0000 </r>
       <r>   -12.7178     0.0000   186.0000 </r>
       <r>   -12.5313     0.0000   190.0000 </r>
       <r>   -12.3447     0.0000   190.0000 </r>
       <r>   -12.1581     0.0000   190.0000 </r>
       <r>   -11.9716     0.0000   198.0000 </r>
       <r>   -11.7850     0.0000   200.0000 </r>
       <r>   -11.5984     0.0000   200.0000 </r>
       <r>   -11.4119     0.0000   200.0000 </r>
       <r>   -11.2253     0.0000   200.0000 </r>
       <r>   -11.0388     0.0000   200.0000 </r>
       <r>   -10.8522     0.0000   200.0000 </r>
       <r>   -10.6656     0.0000   200.0000 </r>
       <r>   -10.4791     0.0000   200.0000 </r>
       <r>   -10.2925     0.0000   200.0000 </r>
       <r>   -10.1059     0.0000   200.0000 </r>
       <r>    -9.9194     0.0000   200.0000 </r>
       <r>    -9.7328     0.0000   200.0000 </r>
       <r>    -9.5462     0.0000   200.0000 </r>
       <r>    -9.3597     3.0313   200.0439 </r>
       <r>    -9.1731     6.2199   201.8286 </r>
       <r>    -8.9866     0.0000   204.0000 </r>
       <r>    -8.8000    15.2946   206.3804 </r>
       <r>    -8.6134    13.8334   208.7689 </r>
       <r>    -8.4269    14.0326   213.1564 </r>
       <r>    -8.2403    39.9806   216.7492 </r>
       <r>    -8.0537    28.8706   220.9469 </r>
       <r>    -7.8672    18.2947   224.8277 </r>
       <r>    -7.6806     0.0000   228.0000 </r>
       <r>    -7.4941    12.5223   231.4136 </r>
       <r>    -7.3075     0.0000   232.0000 </r>
       <r>    -7.1209     0.0000   232.0000 </r>
       <r>    -6.9344     0.0000   232.0000 </r>
       <r>    -6.7478     0.0000   232.0000 </r>
       <r>    -6.5612     0.0000   232.0000 </r>
       <r>    -6.3747     6.2783   232.1628 </r>
       <r>    -6.1881    26.7742   235.4909 </r>
       <r>    -6.0016    11.2272   239.4675 </r>
       <r>    -5.8150    16.3616   242.4574 </r>
       <r>    -5.6284    19.9486   247.2719 </r>
       <r>    -5.4419    17.9715   250.4007 </r>
       <r>    -5.2553    15.9289   254.2286 </r>
       <r>    -5.0687     3.3681   255.9448 </r>
       <r>    -4.8822     7.9817   256.8689 </r>
       <r>    -4.6956     9.3461   258.4559 </r>
       <r>    -4.5090     7.8501   260.1833 </r>
       <r>    -4.3225     6.8752   261.5771 </r>
       <r>    -4.1359     6.0023   262.8349 </r>
       <r>    -3.9494     2.7948   263.6547 </r>
       <r>    -3.7628     0.7980   263.9546 </r>
       <r>    -3.5762     0.0000   264.0000 </r>
       <r>    -3.3897     0.0000   264.0000 </r>
       <r>    -3.2031     0.0000   264.0000 </r>
       <r>    -3.0165     0.0000   264.0000 </r>
       <r>    -2.8300     0.0000   264.0000 </r>
       <r>    -2.6434     0.0000   264.0000 </r>
       <r>    -2.4569     0.0000   264.0000 </r>
       <r>    -2.2703     0.0000   264.0000 </r>
       <r>    -2.0837     0.0000   264.0000 </r>
       <r>    -1.8972     0.0000   264.0000 </r>
       <r>    -1.7106     0.0000   264.0000 </r>
       <r>    -1.5240     0.5188   264.0129 </r>
       <r>    -1.3375     6.1178   264.5244 </r>
       <r>    -1.1509    11.5820   266.3301 </r>
       <r>    -0.9644    13.8520   268.6389 </r>
       <r>    -0.7778     7.6880   270.7098 </r>
       <r>    -0.5912    15.0558   272.1188 </r>
       <r>    -0.4047    22.8410   276.0031 </r>
       <r>    -0.2181    36.6422   281.1590 </r>
       <r>    -0.0315    27.0058   288.1180 </r>
       <r>     0.1550    35.7460   294.8849 </r>
       <r>     0.3416    30.1273   300.7496 </r>
       <r>     0.5281    22.4137   307.9388 </r>
       <r>     0.7147    29.3240   315.7033 </r>
       <r>     0.9013    35.2679   323.1573 </r>
       <r>     1.0878    40.3515   330.5911 </r>
       <r>     1.2744   100.9706   338.8451 </r>
       <r>     1.4610    40.6948   348.0471 </r>
       <r>     1.6475    47.4285   358.3433 </r>
       <r>     1.8341    34.6332   363.6384 </r>
       <r>     2.0207    49.3606   370.3882 </r>
       <r>     2.2072    42.8025   378.4212 </r>
       <r>     2.3938    52.9202   387.5837 </r>
       <r>     2.5803    50.7251   398.0306 </r>
       <r>     2.7669    50.0724   408.5037 </r>
       <r>     2.9535    65.2921   419.2696 </r>
       <r>     3.1400    39.7185   429.4116 </r>
       <r>     3.3266    36.8369   436.5411 </r>
       <r>     3.5132    38.1212   443.7045 </r>
       <r>     3.6997    24.0299   448.8360 </r>
       <r>     3.8863    24.3169   452.7345 </r>
       <r>     4.0728     8.0891   455.4274 </r>
       <r>     4.2594     0.0030   456.0000 </r>
       <r>     4.4460     0.0000   456.0000 </r>
       <r>     4.6325     0.0000   456.0000 </r>
       <r>     4.8191     0.0000   456.0000 </r>
       <r>     5.0057     0.2928   456.0067 </r>
       <r>     5.1922     2.3443   456.2439 </r>
       <r>     5.3788     6.6032   457.0690 </r>
       <r>     5.5653     8.5986   458.6373 </r>
       <r>     5.7519    11.6589   461.4285 </r>
       <r>     5.9385    14.1627   464.7720 </r>
       <r>     6.1250    11.7207   467.1687 </r>
       <r>     6.3116    13.0043   469.4229 </r>
       <r>     6.4982    15.4542   472.0784 </r>
       <r>     6.6847    17.8589   475.1857 </r>
       <r>     6.8713    20.8190   478.7810 </r>
       <r>     7.0579    25.4944   483.0880 </r>
       <r>     7.2444    33.2798   488.3946 </r>
       <r>     7.4310    30.7893   494.5837 </r>
       <r>     7.6175    28.1701   499.9029 </r>
       <r>     7.8041    52.9147   507.7984 </r>
       <r>     7.9907    33.0762   515.7008 </r>
       <r>     8.1772    19.7122   520.4800 </r>
       <r>     8.3638    21.1211   524.0992 </r>
       <r>     8.5504    24.7856   528.3352 </r>
       <r>     8.7369    44.6548   533.5761 </r>
       <r>     8.9235    33.2679   541.6025 </r>
       <r>     9.1100    18.3578   546.2225 </r>
       <r>     9.2966    16.2877   549.4766 </r>
       <r>     9.4832    15.4281   552.6168 </r>
       <r>     9.6697     7.8915   555.1134 </r>
       <r>     9.8563     7.5052   556.4365 </r>
       <r>    10.0429    10.2859   558.2869 </r>
       <r>    10.2294     6.0739   559.8348 </r>
       <r>    10.4160     0.0000   560.0000 </r>
       <r>    10.6025     0.0000   560.0000 </r>
       <r>    10.7891     0.0000   560.0000 </r>
       <r>    10.9757     0.0000   560.0000 </r>
       <r>    11.1622     0.0000   560.0000 </r>
       <r>    11.3488     0.0000   560.0000 </r>
       <r>    11.5354     0.0000   560.0000 </r>
       <r>    11.7219     0.0000   560.0000 </r>
       <r>    11.9085     0.0000   560.0000 </r>
       <r>    12.0951     0.0000   560.0000 </r>
       <r>    12.2816     0.0000   560.0000 </r>
       <r>    12.4682     0.0000   560.0000 </r>
       <r>    12.6547     0.0000   560.0000 </r>
       <r>    12.8413     0.0000   560.0000 </r>
      </set>
     </set>
    </array>
   </total>
  </dos>
 </calculation>
 <structure name="finalpos" >
  <crystal>
   <varray name="basis" >
    <v>      11.17850000       0.00000000       0.00000000 </v>
    <v>       0.00000000       9.57460000       0.00000000 </v>
    <v>       0.00000000       0.00000000      11.18240000 </v>
   </varray>
   <i name="volume">   1196.84853820 </i>
   <varray name="rec_basis" >
    <v>       0.08945744       0.00000000       0.00000000 </v>
    <v>       0.00000000       0.10444301       0.00000000 </v>
    <v>       0.00000000       0.00000000       0.08942624 </v>
   </varray>
  </crystal>
  <varray name="positions" >
   <v>       0.37539000       0.00017000       0.43687000 </v>
   <v>       0.12539000       0.99984000       0.93687000 </v>
   <v>       0.87539000       0.00017000       0.93687000 </v>
   <v>       0.87461000       0.00017000       0.68687000 </v>
   <v>       0.12461000       0.99984000       0.18687000 </v>
   <v>       0.87539000       0.00017000       0.43687000 </v>
   <v>       0.62461000       0.99984000       0.18687000 </v>
   <v>       0.37539000       0.00017000       0.93687000 </v>
   <v>       0.12461000       0.99984000       0.68687000 </v>
   <v>       0.62461000       0.99984000       0.68687000 </v>
   <v>       0.00013000       0.29519000       0.06281000 </v>
   <v>       0.25013000       0.70481000       0.06281000 </v>
   <v>       0.24987000       0.29519000       0.31282000 </v>
   <v>       0.49987000       0.70481000       0.31282000 </v>
   <v>       0.50013000       0.29519000       0.06281000 </v>
   <v>       0.75013000       0.70481000       0.06281000 </v>
   <v>       0.74987000       0.29519000       0.31282000 </v>
   <v>       0.99987000       0.70481000       0.31282000 </v>
   <v>       0.00013000       0.29519000       0.56281000 </v>
   <v>       0.25013000       0.70481000       0.56281000 </v>
   <v>       0.24987000       0.29519000       0.81282000 </v>
   <v>       0.49987000       0.70481000       0.81282000 </v>
   <v>       0.50013000       0.29519000       0.56281000 </v>
   <v>       0.75013000       0.70481000       0.56281000 </v>
   <v>       0.74987000       0.29519000       0.81282000 </v>
   <v>       0.99987000       0.70481000       0.81282000 </v>
   <v>       0.25005000       0.32677000       0.06286000 </v>
   <v>       0.00005000       0.67323000       0.06286000 </v>
   <v>       0.49995000       0.32677000       0.31286000 </v>
   <v>       0.24995000       0.67323000       0.31286000 </v>
   <v>       0.75005000       0.32677000       0.06286000 </v>
   <v>       0.50005000       0.67323000       0.06286000 </v>
   <v>       0.99995000       0.32677000       0.31286000 </v>
   <v>       0.74995000       0.67323000       0.31286000 </v>
   <v>       0.25005000       0.32677000       0.56286000 </v>
   <v>       0.00005000       0.67323000       0.56286000 </v>
   <v>       0.49995000       0.32677000       0.81286000 </v>
   <v>       0.24995000       0.67323000       0.81286000 </v>
   <v>       0.75005000       0.32677000       0.56286000 </v>
   <v>       0.50005000       0.67323000       0.56286000 </v>
   <v>       0.99995000       0.32677000       0.81286000 </v>
   <v>       0.74995000       0.67323000       0.81286000 </v>
   <v>       0.49987000       0.07798000       0.06246000 </v>
   <v>       0.24987000       0.92202000       0.06246000 </v>
   <v>       0.25013000       0.07798000       0.31246000 </v>
   <v>       0.00013000       0.92202000       0.31246000 </v>
   <v>       0.99987000       0.07798000       0.06246000 </v>
   <v>       0.74987000       0.92202000       0.06246000 </v>
   <v>       0.75013000       0.07798000       0.31246000 </v>
   <v>       0.50013000       0.92202000       0.31246000 </v>
   <v>       0.49987000       0.07798000       0.56246000 </v>
   <v>       0.24987000       0.92202000       0.56246000 </v>
   <v>       0.25013000       0.07798000       0.81246000 </v>
   <v>       0.00013000       0.92202000       0.81246000 </v>
   <v>       0.99987000       0.07798000       0.56246000 </v>
   <v>       0.74987000       0.92202000       0.56246000 </v>
   <v>       0.75013000       0.07798000       0.81246000 </v>
   <v>       0.50013000       0.92202000       0.81246000 </v>
  </varray>
 </structure>
</modeling>
