<?xml version="1.0" encoding="ISO-8859-1"?>
<modeling>
 <generator>
  <i name="program" type="string">vasp </i>
  <i name="version" type="string">5.4.4.18Apr17-6-g9f103f2a35  </i>
  <i name="subversion" type="string">(build Jul 31 2017 11:33:29) complex            parallel </i>
  <i name="platform" type="string">LinuxIFC </i>
  <i name="date" type="string">2021 09 29 </i>
  <i name="time" type="string">01:32:28 </i>
 </generator>
 <incar>
  <i type="string" name="SYSTEM"> La2O2S</i>
  <i type="string" name="PREC">normal</i>
  <i type="int" name="NELMIN">     4</i>
  <i type="int" name="IBRION">     2</i>
  <i type="int" name="NFREE">    10</i>
  <i name="EDIFF">      0.00000100</i>
  <i name="EDIFFG">     -0.01000000</i>
  <i type="int" name="NSW">     1</i>
  <i type="int" name="ISIF">     2</i>
  <i name="ENCUT">    600.00000000</i>
  <i name="ENAUG">    900.00000000</i>
  <i type="int" name="ISMEAR">    -5</i>
  <i type="logical" name="LWAVE"> F  </i>
  <i type="logical" name="LCHARG"> F  </i>
  <v type="int" name="KPOINT_BSE">    -1     0     0     0</v>
 </incar>
 <structure name="primitive_cell" >
  <crystal>
   <varray name="basis" >
    <v>      11.17850000       0.00000000       0.00000000 </v>
    <v>       0.00000000       9.57460000       0.00000000 </v>
    <v>       0.00000000       0.00000000      11.18240000 </v>
   </varray>
   <i name="volume">   1196.84853820 </i>
   <varray name="rec_basis" >
    <v>       0.08945744       0.00000000       0.00000000 </v>
    <v>       0.00000000       0.10444301       0.00000000 </v>
    <v>       0.00000000       0.00000000       0.08942624 </v>
   </varray>
  </crystal>
  <varray name="positions" >
   <v>       0.37539000       0.00017000       0.43687000 </v>
   <v>      -0.49987000      -0.07798000       0.31246000 </v>
   <v>       0.25013000       0.07798000       0.31246000 </v>
   <v>       0.49987000       0.07798000      -0.43754000 </v>
   <v>       0.24987000      -0.07798000      -0.43754000 </v>
   <v>      -0.37461000      -0.00016000       0.43687000 </v>
   <v>       0.37461000       0.00017000       0.18687000 </v>
   <v>       0.37461000       0.00017000      -0.31313000 </v>
   <v>       0.49987000      -0.29519000       0.31282000 </v>
   <v>       0.24987000       0.29519000       0.31282000 </v>
   <v>      -0.49987000       0.29519000      -0.43719000 </v>
   <v>       0.25013000      -0.29519000      -0.43719000 </v>
   <v>       0.49995000       0.32677000       0.31286000 </v>
   <v>       0.24995000      -0.32677000       0.31286000 </v>
   <v>      -0.49995000      -0.32677000      -0.43714000 </v>
   <v>       0.25005000       0.32677000      -0.43714000 </v>
   <v>       0.12461000      -0.00016000       0.18687000 </v>
   <v>       0.12461000      -0.00016000      -0.31313000 </v>
   <v>       0.49987000       0.07798000       0.06246000 </v>
   <v>      -0.24987000       0.07798000       0.31246000 </v>
   <v>      -0.25013000      -0.07798000      -0.43754000 </v>
   <v>       0.24987000      -0.07798000       0.06246000 </v>
   <v>       0.00013000      -0.07798000       0.31246000 </v>
   <v>      -0.49987000      -0.07798000      -0.18754000 </v>
   <v>      -0.00013000       0.07798000      -0.43754000 </v>
   <v>       0.25013000       0.07798000      -0.18754000 </v>
   <v>      -0.49987000       0.29519000       0.06281000 </v>
   <v>      -0.25013000       0.29519000       0.31282000 </v>
   <v>       0.25013000      -0.29519000       0.06281000 </v>
   <v>      -0.24987000      -0.29519000      -0.43719000 </v>
   <v>      -0.00013000      -0.29519000       0.31282000 </v>
   <v>       0.00013000       0.29519000      -0.43719000 </v>
   <v>       0.49987000      -0.29519000      -0.18718000 </v>
   <v>       0.24987000       0.29519000      -0.18718000 </v>
   <v>      -0.49995000      -0.32677000       0.06286000 </v>
   <v>       0.25005000       0.32677000       0.06286000 </v>
   <v>      -0.25005000      -0.32677000       0.31286000 </v>
   <v>      -0.24995000       0.32677000      -0.43714000 </v>
   <v>      -0.00005000       0.32677000       0.31286000 </v>
   <v>       0.00005000      -0.32677000      -0.43714000 </v>
   <v>       0.49995000       0.32677000      -0.18714000 </v>
   <v>       0.24995000      -0.32677000      -0.18714000 </v>
   <v>      -0.12461000       0.00017000       0.43687000 </v>
   <v>       0.37539000       0.00017000      -0.06313000 </v>
   <v>      -0.25013000      -0.07798000       0.06246000 </v>
   <v>      -0.00013000       0.07798000       0.06246000 </v>
   <v>      -0.24987000       0.07798000      -0.18754000 </v>
   <v>       0.00013000      -0.07798000      -0.18754000 </v>
   <v>      -0.12539000       0.00017000       0.18687000 </v>
   <v>      -0.12539000       0.00017000      -0.31313000 </v>
   <v>       0.12539000      -0.00016000      -0.06313000 </v>
   <v>      -0.37461000      -0.00016000      -0.06313000 </v>
   <v>      -0.24987000      -0.29519000       0.06281000 </v>
   <v>       0.00013000       0.29519000       0.06281000 </v>
   <v>      -0.25013000       0.29519000      -0.18718000 </v>
   <v>      -0.00013000      -0.29519000      -0.18718000 </v>
   <v>      -0.24995000       0.32677000       0.06286000 </v>
   <v>       0.00005000      -0.32677000       0.06286000 </v>
   <v>      -0.25005000      -0.32677000      -0.18714000 </v>
   <v>      -0.00005000       0.32677000      -0.18714000 </v>
   <v>      -0.12461000       0.00017000      -0.06313000 </v>
  </varray>
 </structure>
 <varray name="primitive_index" >
  <v type="int" >        1 </v>
  <v type="int" >       53 </v>
  <v type="int" >       48 </v>
  <v type="int" >       54 </v>
  <v type="int" >       55 </v>
  <v type="int" >        4 </v>
  <v type="int" >        3 </v>
  <v type="int" >       12 </v>
  <v type="int" >       17 </v>
  <v type="int" >       16 </v>
  <v type="int" >       26 </v>
  <v type="int" >       23 </v>
  <v type="int" >       32 </v>
  <v type="int" >       33 </v>
  <v type="int" >       43 </v>
  <v type="int" >       38 </v>
  <v type="int" >        2 </v>
  <v type="int" >        8 </v>
  <v type="int" >       46 </v>
  <v type="int" >       52 </v>
  <v type="int" >       59 </v>
  <v type="int" >       47 </v>
  <v type="int" >       49 </v>
  <v type="int" >       61 </v>
  <v type="int" >       58 </v>
  <v type="int" >       56 </v>
  <v type="int" >       18 </v>
  <v type="int" >       20 </v>
  <v type="int" >       15 </v>
  <v type="int" >       27 </v>
  <v type="int" >       21 </v>
  <v type="int" >       22 </v>
  <v type="int" >       25 </v>
  <v type="int" >       24 </v>
  <v type="int" >       35 </v>
  <v type="int" >       30 </v>
  <v type="int" >       37 </v>
  <v type="int" >       42 </v>
  <v type="int" >       36 </v>
  <v type="int" >       39 </v>
  <v type="int" >       40 </v>
  <v type="int" >       41 </v>
  <v type="int" >       11 </v>
  <v type="int" >        7 </v>
  <v type="int" >       51 </v>
  <v type="int" >       50 </v>
  <v type="int" >       60 </v>
  <v type="int" >       57 </v>
  <v type="int" >        5 </v>
  <v type="int" >       10 </v>
  <v type="int" >        6 </v>
  <v type="int" >       13 </v>
  <v type="int" >       19 </v>
  <v type="int" >       14 </v>
  <v type="int" >       28 </v>
  <v type="int" >       29 </v>
  <v type="int" >       34 </v>
  <v type="int" >       31 </v>
  <v type="int" >       45 </v>
  <v type="int" >       44 </v>
  <v type="int" >        9 </v>
 </varray>
 <kpoints>
  <generation param="Gamma">
   <v type="int" name="divisions">       2        2        2 </v>
   <v name="usershift">      0.00000000       0.00000000       0.00000000 </v>
   <v name="genvec1">      0.50000000       0.00000000       0.00000000 </v>
   <v name="genvec2">      0.00000000       0.50000000       0.00000000 </v>
   <v name="genvec3">      0.00000000       0.00000000       0.50000000 </v>
   <v name="shift">      0.00000000       0.00000000       0.00000000 </v>
  </generation>
  <varray name="kpointlist" >
   <v>       0.00000000       0.00000000       0.00000000 </v>
   <v>       0.50000000       0.00000000       0.00000000 </v>
   <v>       0.00000000       0.50000000       0.00000000 </v>
   <v>       0.50000000       0.50000000       0.00000000 </v>
   <v>       0.00000000       0.00000000       0.50000000 </v>
   <v>       0.50000000       0.00000000       0.50000000 </v>
   <v>       0.00000000       0.50000000       0.50000000 </v>
   <v>       0.50000000       0.50000000       0.50000000 </v>
  </varray>
  <varray name="weights" >
   <v>       0.12500000 </v>
   <v>       0.12500000 </v>
   <v>       0.12500000 </v>
   <v>       0.12500000 </v>
   <v>       0.12500000 </v>
   <v>       0.12500000 </v>
   <v>       0.12500000 </v>
   <v>       0.12500000 </v>
  </varray>
  <varray name="tetrahedronlist"  type="int" >
   <v type="int" >        2        1        2        4        5 </v>
   <v type="int" >        2        1        3        4        5 </v>
   <v type="int" >        2        3        4        5        7 </v>
   <v type="int" >        2        2        4        5        6 </v>
   <v type="int" >        2        4        5        6        8 </v>
   <v type="int" >        2        4        5        7        8 </v>
   <v type="int" >        2        1        2        3        6 </v>
   <v type="int" >        2        2        3        4        6 </v>
   <v type="int" >        2        3        4        6        8 </v>
   <v type="int" >        2        1        3        5        6 </v>
   <v type="int" >        2        3        5        6        7 </v>
   <v type="int" >        2        3        6        7        8 </v>
   <v type="int" >        2        2        3        4        7 </v>
   <v type="int" >        2        1        2        3        7 </v>
   <v type="int" >        2        1        2        5        7 </v>
   <v type="int" >        2        2        4        7        8 </v>
   <v type="int" >        2        2        6        7        8 </v>
   <v type="int" >        2        2        5        6        7 </v>
   <v type="int" >        2        1        3        4        8 </v>
   <v type="int" >        2        1        2        4        8 </v>
   <v type="int" >        2        1        2        6        8 </v>
   <v type="int" >        2        1        3        7        8 </v>
   <v type="int" >        2        1        5        7        8 </v>
   <v type="int" >        2        1        5        6        8 </v>
  </varray>
  <i name="volumeweight">      0.02083333 </i>
 </kpoints>
 <parameters>
  <separator name="general" >
   <i type="string" name="SYSTEM">La2O2S</i>
   <i type="logical" name="LCOMPAT"> F  </i>
  </separator>
  <separator name="electronic" >
   <i type="string" name="PREC">normal</i>
   <i name="ENMAX">    600.00000000</i>
   <i name="ENAUG">    900.00000000</i>
   <i name="EDIFF">      0.00000100</i>
   <i type="int" name="IALGO">    38</i>
   <i type="int" name="IWAVPR">    11</i>
   <i type="int" name="NBANDS">   280</i>
   <i name="NELECT">    468.00000000</i>
   <i type="int" name="TURBO">     0</i>
   <i type="int" name="IRESTART">     0</i>
   <i type="int" name="NREBOOT">     0</i>
   <i type="int" name="NMIN">     0</i>
   <i name="EREF">      0.00000000</i>
   <separator name="electronic smearing" >
    <i type="int" name="ISMEAR">    -5</i>
    <i name="SIGMA">      0.20000000</i>
    <i name="KSPACING">      0.50000000</i>
    <i type="logical" name="KGAMMA"> T  </i>
   </separator>
   <separator name="electronic projectors" >
    <i type="logical" name="LREAL"> F  </i>
    <v name="ROPT">      0.00000000      0.00000000      0.00000000      0.00000000      0.00000000</v>
    <i type="int" name="LMAXPAW">  -100</i>
    <i type="int" name="LMAXMIX">     2</i>
    <i type="logical" name="NLSPLINE"> F  </i>
   </separator>
   <separator name="electronic startup" >
    <i type="int" name="ISTART">     0</i>
    <i type="int" name="ICHARG">     2</i>
    <i type="int" name="INIWAV">     1</i>
   </separator>
   <separator name="electronic spin" >
    <i type="int" name="ISPIN">     1</i>
    <i type="logical" name="LNONCOLLINEAR"> F  </i>
    <v name="MAGMOM">      1.00000000      1.00000000      1.00000000      1.00000000      1.00000000      1.00000000      1.00000000      1.00000000      1.00000000      1.00000000      1.00000000      1.00000000      1.00000000      1.00000000      1.00000000      1.00000000      1.00000000      1.00000000      1.00000000      1.00000000
      1.00000000      1.00000000      1.00000000      1.00000000      1.00000000      1.00000000      1.00000000      1.00000000      1.00000000      1.00000000      1.00000000      1.00000000      1.00000000      1.00000000      1.00000000      1.00000000      1.00000000      1.00000000      1.00000000      1.00000000
      1.00000000      1.00000000      1.00000000      1.00000000      1.00000000      1.00000000      1.00000000      1.00000000      1.00000000      1.00000000      1.00000000      1.00000000      1.00000000      1.00000000      1.00000000      1.00000000      1.00000000      1.00000000      1.00000000      1.00000000
      1.00000000</v>
    <i name="NUPDOWN">     -1.00000000</i>
    <i type="logical" name="LSORBIT"> F  </i>
    <v name="SAXIS">      0.00000000      0.00000000      1.00000000</v>
    <i type="logical" name="LSPIRAL"> F  </i>
    <v name="QSPIRAL">      0.00000000      0.00000000      0.00000000</v>
    <i type="logical" name="LZEROZ"> F  </i>
   </separator>
   <separator name="electronic exchange-correlation" >
    <i type="logical" name="LASPH"> F  </i>
    <i type="logical" name="LMETAGGA"> F  </i>
   </separator>
   <separator name="electronic convergence" >
    <i type="int" name="NELM">    60</i>
    <i type="int" name="NELMDL">    -5</i>
    <i type="int" name="NELMIN">     4</i>
    <i name="ENINI">    600.00000000</i>
    <separator name="electronic convergence detail" >
     <i type="logical" name="LDIAG"> T  </i>
     <i type="logical" name="LSUBROT"> F  </i>
     <i name="WEIMIN">      0.00100000</i>
     <i name="EBREAK">      0.00000000</i>
     <i name="DEPER">      0.30000000</i>
     <i type="int" name="NRMM">     4</i>
     <i name="TIME">      0.40000000</i>
    </separator>
   </separator>
   <separator name="electronic mixer" >
    <i name="AMIX">      0.40000000</i>
    <i name="BMIX">      1.00000000</i>
    <i name="AMIN">      0.10000000</i>
    <i name="AMIX_MAG">      1.60000000</i>
    <i name="BMIX_MAG">      1.00000000</i>
    <separator name="electronic mixer details" >
     <i type="int" name="IMIX">     4</i>
     <i type="logical" name="MIXFIRST"> F  </i>
     <i type="int" name="MAXMIX">   -45</i>
     <i name="WC">    100.00000000</i>
     <i type="int" name="INIMIX">     1</i>
     <i type="int" name="MIXPRE">     1</i>
     <i type="int" name="MREMOVE">     5</i>
    </separator>
   </separator>
   <separator name="electronic dipolcorrection" >
    <i type="logical" name="LDIPOL"> F  </i>
    <i type="logical" name="LMONO"> F  </i>
    <i type="int" name="IDIPOL">     0</i>
    <i name="EPSILON">      1.00000000</i>
    <v name="DIPOL">   -100.00000000   -100.00000000   -100.00000000</v>
    <i name="EFIELD">      0.00000000</i>
   </separator>
  </separator>
  <separator name="grids" >
   <i type="int" name="NGX">    70</i>
   <i type="int" name="NGY">    60</i>
   <i type="int" name="NGZ">    70</i>
   <i type="int" name="NGXF">   140</i>
   <i type="int" name="NGYF">   120</i>
   <i type="int" name="NGZF">   140</i>
   <i type="logical" name="ADDGRID"> F  </i>
  </separator>
  <separator name="ionic" >
   <i type="int" name="NSW">     1</i>
   <i type="int" name="IBRION">     2</i>
   <i type="int" name="MDALGO">     0</i>
   <i type="int" name="ISIF">     2</i>
   <i name="PSTRESS">      0.00000000</i>
   <i name="EDIFFG">     -0.01000000</i>
   <i type="int" name="NFREE">    10</i>
   <i name="POTIM">      0.50000000</i>
   <i name="SMASS">     -3.00000000</i>
   <i name="SCALEE">      1.00000000</i>
  </separator>
  <separator name="ionic md" >
   <i name="TEBEG">      0.00010000</i>
   <i name="TEEND">      0.00010000</i>
   <i type="int" name="NBLOCK">     1</i>
   <i type="int" name="KBLOCK">     1</i>
   <i type="int" name="NPACO">   256</i>
   <i name="APACO">     16.00000000</i>
  </separator>
  <separator name="symmetry" >
   <i type="int" name="ISYM">     2</i>
   <i name="SYMPREC">      0.00001000</i>
  </separator>
  <separator name="dos" >
   <i type="int" name="LORBIT">     0</i>
   <v name="RWIGS">     -1.00000000     -1.00000000     -1.00000000     -1.00000000     -1.00000000</v>
   <i type="int" name="NEDOS">   301</i>
   <i name="EMIN">     10.00000000</i>
   <i name="EMAX">    -10.00000000</i>
   <i name="EFERMI">      0.00000000</i>
  </separator>
  <separator name="writing" >
   <i type="int" name="NWRITE">     2</i>
   <i type="logical" name="LWAVE"> F  </i>
   <i type="logical" name="LDOWNSAMPLE"> F  </i>
   <i type="logical" name="LCHARG"> F  </i>
   <i type="logical" name="LPARD"> F  </i>
   <i type="logical" name="LVTOT"> F  </i>
   <i type="logical" name="LVHAR"> F  </i>
   <i type="logical" name="LELF"> F  </i>
   <i type="logical" name="LOPTICS"> F  </i>
   <v name="STM">      0.00000000      0.00000000      0.00000000      0.00000000      0.00000000      0.00000000      0.00000000</v>
  </separator>
  <separator name="performance" >
   <i type="int" name="NPAR">    28</i>
   <i type="int" name="NSIM">     4</i>
   <i type="int" name="NBLK">    -1</i>
   <i type="logical" name="LPLANE"> T  </i>
   <i type="logical" name="LSCALAPACK"> T  </i>
   <i type="logical" name="LSCAAWARE"> F  </i>
   <i type="logical" name="LSCALU"> F  </i>
   <i type="logical" name="LASYNC"> F  </i>
   <i type="logical" name="LORBITALREAL"> F  </i>
  </separator>
  <separator name="miscellaneous" >
   <i type="int" name="IDIOT">     3</i>
   <i type="int" name="ISPECIAL">     0</i>
   <i type="logical" name="LMUSIC"> F  </i>
   <v name="POMASS">      7.01000000     24.30500000    208.98000000     32.06600000     16.00000000</v>
   <v name="DARWINR">      0.00000000      0.00000000      0.00000000      0.00000000      0.00000000</v>
   <v name="DARWINV">      1.00000000      1.00000000      1.00000000      1.00000000      1.00000000</v>
   <i type="logical" name="LCORR"> T  </i>
  </separator>
  <i type="logical" name="GGA_COMPAT"> T  </i>
  <i type="logical" name="LBERRY"> F  </i>
  <i type="int" name="ICORELEVEL">     0</i>
  <i type="logical" name="LDAU"> F  </i>
  <i type="int" name="I_CONSTRAINED_M">     0</i>
  <separator name="electronic exchange-correlation" >
   <i type="string" name="GGA">--</i>
   <i type="int" name="VOSKOWN">     0</i>
   <i type="logical" name="LHFCALC"> F  </i>
   <i type="string" name="PRECFOCK"></i>
   <i type="logical" name="LSYMGRAD"> F  </i>
   <i type="logical" name="LHFONE"> F  </i>
   <i type="logical" name="LRHFCALC"> F  </i>
   <i type="logical" name="LTHOMAS"> F  </i>
   <i type="logical" name="LMODELHF"> F  </i>
   <i name="ENCUT4O">     -1.00000000</i>
   <i type="int" name="EXXOEP">     0</i>
   <i type="int" name="FOURORBIT">     0</i>
   <i name="AEXX">      0.00000000</i>
   <i name="HFALPHA">      0.00000000</i>
   <i name="MCALPHA">      0.00000000</i>
   <i name="ALDAX">      1.00000000</i>
   <i name="AGGAX">      1.00000000</i>
   <i name="ALDAC">      1.00000000</i>
   <i name="AGGAC">      1.00000000</i>
   <i type="int" name="NKREDX">     1</i>
   <i type="int" name="NKREDY">     1</i>
   <i type="int" name="NKREDZ">     1</i>
   <i type="logical" name="SHIFTRED"> F  </i>
   <i type="logical" name="ODDONLY"> F  </i>
   <i type="logical" name="EVENONLY"> F  </i>
   <i type="int" name="LMAXFOCK">     0</i>
   <i type="int" name="NMAXFOCKAE">     0</i>
   <i type="logical" name="LFOCKAEDFT"> F  </i>
   <i name="HFSCREEN">      0.00000000</i>
   <i name="HFSCREENC">      0.00000000</i>
   <i type="int" name="NBANDSGWLOW">     0</i>
  </separator>
  <separator name="vdW DFT" >
   <i type="logical" name="LUSE_VDW"> F  </i>
   <i name="Zab_VDW">     -0.84910000</i>
   <i name="PARAM1">      0.12340000</i>
   <i name="PARAM2">      1.00000000</i>
   <i name="PARAM3">      0.00000000</i>
  </separator>
  <separator name="model GW" >
   <i type="int" name="MODEL_GW">     0</i>
   <i name="MODEL_EPS0">     11.77228070</i>
   <i name="MODEL_ALPHA">      1.00000000</i>
  </separator>
  <separator name="linear response parameters" >
   <i type="logical" name="LEPSILON"> F  </i>
   <i type="logical" name="LRPA"> F  </i>
   <i type="logical" name="LNABLA"> F  </i>
   <i type="logical" name="LVEL"> F  </i>
   <i type="int" name="KINTER">     0</i>
   <i name="CSHIFT">      0.10000000</i>
   <i name="OMEGAMAX">     -1.00000000</i>
   <i name="DEG_THRESHOLD">      0.00200000</i>
   <i name="RTIME">     -0.10000000</i>
   <i name="WPLASMAI">      0.00000000</i>
   <v name="DFIELD">      0.00000000      0.00000000      0.00000000</v>
   <v name="WPLASMA">      0.00000000      0.00000000      0.00000000      0.00000000      0.00000000      0.00000000      0.00000000      0.00000000      0.00000000</v>
  </separator>
  <separator name="orbital magnetization" >
   <i type="logical" name="NUCIND"> F  </i>
   <v name="MAGPOS">      0.00000000      0.00000000      0.00000000</v>
   <i type="logical" name="LNICSALL"> T  </i>
   <i type="logical" name="ORBITALMAG"> F  </i>
   <i type="logical" name="LMAGBLOCH"> F  </i>
   <i type="logical" name="LCHIMAG"> F  </i>
   <i type="logical" name="LGAUGE"> T  </i>
   <i type="int" name="MAGATOM">     0</i>
   <v name="MAGDIPOL">      0.00000000      0.00000000      0.00000000</v>
   <v name="AVECCONST">      0.00000000      0.00000000      0.00000000</v>
  </separator>
  <separator name="response functions" >
   <i type="logical" name="LADDER"> F  </i>
   <i type="logical" name="LRPAFORCE"> F  </i>
   <i type="logical" name="LFXC"> F  </i>
   <i type="logical" name="LHARTREE"> T  </i>
   <i type="int" name="IBSE">     0</i>
   <v type="int" name="KPOINT">    -1     0     0     0</v>
   <i type="logical" name="LTCTE"> F  </i>
   <i type="logical" name="LTETE"> F  </i>
   <i type="logical" name="LTRIPLET"> F  </i>
   <i type="logical" name="LFXCEPS"> F  </i>
   <i type="logical" name="LFXHEG"> F  </i>
   <i type="int" name="NATURALO">     2</i>
   <i type="logical" name="L2ORDER"> F  </i>
   <i type="logical" name="LMP2LT"> F  </i>
   <i type="logical" name="LUSEW"> F  </i>
   <i name="ENCUTGW">     -2.00000000</i>
   <i name="ENCUTGWSOFT">     -2.00000000</i>
   <i name="ENCUTLF">     -1.00000000</i>
   <i type="int" name="LMAXMP2">    -1</i>
   <i name="SCISSOR">      0.00000000</i>
   <i type="int" name="NOMEGA">     0</i>
   <i type="int" name="NOMEGAR">     0</i>
   <i type="int" name="NBANDSGW">    -1</i>
   <i type="int" name="NBANDSO">    -1</i>
   <i type="int" name="NBANDSV">    -1</i>
   <i type="int" name="NELM">     1</i>
   <i type="int" name="NELMHF">     1</i>
   <i type="int" name="DIM">     3</i>
   <i type="int" name="ANTIRES">     0</i>
   <i name="OMEGAMAX">    -30.00000000</i>
   <i name="OMEGAMIN">    -30.00000000</i>
   <i name="OMEGATL">   -200.00000000</i>
   <i type="int" name="OMEGAGRID">   140</i>
   <i name="CSHIFT">     -0.10000000</i>
   <i type="logical" name="SELFENERGY"> F  </i>
   <i type="logical" name="LSPECTRAL"> F  </i>
   <i type="logical" name="LSPECTRALGW"> F  </i>
   <i type="logical" name="LSINGLES"> F  </i>
   <i type="logical" name="LFERMIGW"> F  </i>
   <i type="logical" name="ODDONLYGW"> F  </i>
   <i type="logical" name="EVENONLYGW"> F  </i>
   <i type="int" name="NKREDLFX">     1</i>
   <i type="int" name="NKREDLFY">     1</i>
   <i type="int" name="NKREDLFZ">     1</i>
   <i type="int" name="MAXMEM">  2800</i>
   <i type="int" name="TELESCOPE">     0</i>
   <i type="int" name="TAUPAR">     1</i>
   <i type="int" name="OMEGAPAR">    -1</i>
   <i name="LAMBDA">      1.00000000</i>
  </separator>
  <separator name="External order field" >
   <i name="OFIELD_KAPPA">      0.00000000</i>
   <v name="OFIELD_K">      0.00000000      0.00000000      0.00000000</v>
   <i name="OFIELD_Q6_NEAR">      0.00000000</i>
   <i name="OFIELD_Q6_FAR">      0.00000000</i>
   <i name="OFIELD_A">      0.00000000</i>
  </separator>
 </parameters>
 <atominfo>
  <atoms>      61 </atoms>
  <types>       5 </types>
  <array name="atoms" >
   <dimension dim="1">ion</dimension>
   <field type="string">element</field>
   <field type="int">atomtype</field>
   <set>
    <rc><c>Li</c><c>   1</c></rc>
    <rc><c>Li</c><c>   1</c></rc>
    <rc><c>Li</c><c>   1</c></rc>
    <rc><c>Li</c><c>   1</c></rc>
    <rc><c>Li</c><c>   1</c></rc>
    <rc><c>Li</c><c>   1</c></rc>
    <rc><c>Li</c><c>   1</c></rc>
    <rc><c>Li</c><c>   1</c></rc>
    <rc><c>Li</c><c>   1</c></rc>
    <rc><c>Li</c><c>   1</c></rc>
    <rc><c>Mg</c><c>   2</c></rc>
    <rc><c>Mg</c><c>   2</c></rc>
    <rc><c>Mg</c><c>   2</c></rc>
    <rc><c>Bi</c><c>   3</c></rc>
    <rc><c>Bi</c><c>   3</c></rc>
    <rc><c>Bi</c><c>   3</c></rc>
    <rc><c>Bi</c><c>   3</c></rc>
    <rc><c>Bi</c><c>   3</c></rc>
    <rc><c>Bi</c><c>   3</c></rc>
    <rc><c>Bi</c><c>   3</c></rc>
    <rc><c>Bi</c><c>   3</c></rc>
    <rc><c>Bi</c><c>   3</c></rc>
    <rc><c>Bi</c><c>   3</c></rc>
    <rc><c>Bi</c><c>   3</c></rc>
    <rc><c>Bi</c><c>   3</c></rc>
    <rc><c>Bi</c><c>   3</c></rc>
    <rc><c>Bi</c><c>   3</c></rc>
    <rc><c>Bi</c><c>   3</c></rc>
    <rc><c>Bi</c><c>   3</c></rc>
    <rc><c>S </c><c>   4</c></rc>
    <rc><c>S </c><c>   4</c></rc>
    <rc><c>S </c><c>   4</c></rc>
    <rc><c>S </c><c>   4</c></rc>
    <rc><c>S </c><c>   4</c></rc>
    <rc><c>S </c><c>   4</c></rc>
    <rc><c>S </c><c>   4</c></rc>
    <rc><c>S </c><c>   4</c></rc>
    <rc><c>S </c><c>   4</c></rc>
    <rc><c>S </c><c>   4</c></rc>
    <rc><c>S </c><c>   4</c></rc>
    <rc><c>S </c><c>   4</c></rc>
    <rc><c>S </c><c>   4</c></rc>
    <rc><c>S </c><c>   4</c></rc>
    <rc><c>S </c><c>   4</c></rc>
    <rc><c>S </c><c>   4</c></rc>
    <rc><c>O </c><c>   5</c></rc>
    <rc><c>O </c><c>   5</c></rc>
    <rc><c>O </c><c>   5</c></rc>
    <rc><c>O </c><c>   5</c></rc>
    <rc><c>O </c><c>   5</c></rc>
    <rc><c>O </c><c>   5</c></rc>
    <rc><c>O </c><c>   5</c></rc>
    <rc><c>O </c><c>   5</c></rc>
    <rc><c>O </c><c>   5</c></rc>
    <rc><c>O </c><c>   5</c></rc>
    <rc><c>O </c><c>   5</c></rc>
    <rc><c>O </c><c>   5</c></rc>
    <rc><c>O </c><c>   5</c></rc>
    <rc><c>O </c><c>   5</c></rc>
    <rc><c>O </c><c>   5</c></rc>
    <rc><c>O </c><c>   5</c></rc>
   </set>
  </array>
  <array name="atomtypes" >
   <dimension dim="1">type</dimension>
   <field type="int">atomspertype</field>
   <field type="string">element</field>
   <field>mass</field>
   <field>valence</field>
   <field type="string">pseudopotential</field>
   <set>
    <rc><c>  10</c><c>Li</c><c>      7.01000000</c><c>      3.00000000</c><c>  PAW_PBE Li_sv 10Sep2004               </c></rc>
    <rc><c>   3</c><c>Mg</c><c>     24.30500000</c><c>      2.00000000</c><c>  PAW_PBE Mg 13Apr2007                  </c></rc>
    <rc><c>  16</c><c>Bi</c><c>    208.98000000</c><c>     15.00000000</c><c>  PAW_PBE Bi_d 06Sep2000                </c></rc>
    <rc><c>  16</c><c>S </c><c>     32.06600000</c><c>      6.00000000</c><c>  PAW_PBE S 06Sep2000                   </c></rc>
    <rc><c>  16</c><c>O </c><c>     16.00000000</c><c>      6.00000000</c><c>  PAW_PBE O 08Apr2002                   </c></rc>
   </set>
  </array>
 </atominfo>
 <structure name="initialpos" >
  <crystal>
   <varray name="basis" >
    <v>      11.17850000       0.00000000       0.00000000 </v>
    <v>       0.00000000       9.57460000       0.00000000 </v>
    <v>       0.00000000       0.00000000      11.18240000 </v>
   </varray>
   <i name="volume">   1196.84853820 </i>
   <varray name="rec_basis" >
    <v>       0.08945744       0.00000000       0.00000000 </v>
    <v>       0.00000000       0.10444301       0.00000000 </v>
    <v>       0.00000000       0.00000000       0.08942624 </v>
   </varray>
  </crystal>
  <varray name="positions" >
   <v>       0.37539000       0.00017000       0.43687000 </v>
   <v>       0.12461000       0.99984000       0.18687000 </v>
   <v>       0.37461000       0.00017000       0.18687000 </v>
   <v>       0.62539000       0.99984000       0.43687000 </v>
   <v>       0.87461000       0.00017000       0.18687000 </v>
   <v>       0.12539000       0.99984000       0.93687000 </v>
   <v>       0.37539000       0.00017000       0.93687000 </v>
   <v>       0.12461000       0.99984000       0.68687000 </v>
   <v>       0.87539000       0.00017000       0.93687000 </v>
   <v>       0.87461000       0.00017000       0.68687000 </v>
   <v>       0.87539000       0.00017000       0.43687000 </v>
   <v>       0.37461000       0.00017000       0.68687000 </v>
   <v>       0.62539000       0.99984000       0.93687000 </v>
   <v>       0.00013000       0.29519000       0.06281000 </v>
   <v>       0.25013000       0.70481000       0.06281000 </v>
   <v>       0.24987000       0.29519000       0.31282000 </v>
   <v>       0.49987000       0.70481000       0.31282000 </v>
   <v>       0.50013000       0.29519000       0.06281000 </v>
   <v>       0.75013000       0.70481000       0.06281000 </v>
   <v>       0.74987000       0.29519000       0.31282000 </v>
   <v>       0.99987000       0.70481000       0.31282000 </v>
   <v>       0.00013000       0.29519000       0.56281000 </v>
   <v>       0.25013000       0.70481000       0.56281000 </v>
   <v>       0.24987000       0.29519000       0.81282000 </v>
   <v>       0.49987000       0.70481000       0.81282000 </v>
   <v>       0.50013000       0.29519000       0.56281000 </v>
   <v>       0.75013000       0.70481000       0.56281000 </v>
   <v>       0.74987000       0.29519000       0.81282000 </v>
   <v>       0.99987000       0.70481000       0.81282000 </v>
   <v>       0.25005000       0.32677000       0.06286000 </v>
   <v>       0.00005000       0.67323000       0.06286000 </v>
   <v>       0.49995000       0.32677000       0.31286000 </v>
   <v>       0.24995000       0.67323000       0.31286000 </v>
   <v>       0.75005000       0.32677000       0.06286000 </v>
   <v>       0.50005000       0.67323000       0.06286000 </v>
   <v>       0.99995000       0.32677000       0.31286000 </v>
   <v>       0.74995000       0.67323000       0.31286000 </v>
   <v>       0.25005000       0.32677000       0.56286000 </v>
   <v>       0.00005000       0.67323000       0.56286000 </v>
   <v>       0.49995000       0.32677000       0.81286000 </v>
   <v>       0.24995000       0.67323000       0.81286000 </v>
   <v>       0.75005000       0.32677000       0.56286000 </v>
   <v>       0.50005000       0.67323000       0.56286000 </v>
   <v>       0.99995000       0.32677000       0.81286000 </v>
   <v>       0.74995000       0.67323000       0.81286000 </v>
   <v>       0.49987000       0.07798000       0.06246000 </v>
   <v>       0.24987000       0.92202000       0.06246000 </v>
   <v>       0.25013000       0.07798000       0.31246000 </v>
   <v>       0.00013000       0.92202000       0.31246000 </v>
   <v>       0.99987000       0.07798000       0.06246000 </v>
   <v>       0.74987000       0.92202000       0.06246000 </v>
   <v>       0.75013000       0.07798000       0.31246000 </v>
   <v>       0.50013000       0.92202000       0.31246000 </v>
   <v>       0.49987000       0.07798000       0.56246000 </v>
   <v>       0.24987000       0.92202000       0.56246000 </v>
   <v>       0.25013000       0.07798000       0.81246000 </v>
   <v>       0.00013000       0.92202000       0.81246000 </v>
   <v>       0.99987000       0.07798000       0.56246000 </v>
   <v>       0.74987000       0.92202000       0.56246000 </v>
   <v>       0.75013000       0.07798000       0.81246000 </v>
   <v>       0.50013000       0.92202000       0.81246000 </v>
  </varray>
 </structure>
 <calculation>
  <scstep>
   <time name="dav">   60.63   60.87</time>
   <time name="total">   60.71   60.95</time>
   <energy>
    <i name="alphaZ">   1073.51873187 </i>
    <i name="ewald"> -30886.74501432 </i>
    <i name="hartreedc"> -12702.80176269 </i>
    <i name="XCdc">   1394.96881877 </i>
    <i name="pawpsdc">  36823.70205594 </i>
    <i name="pawaedc"> -36326.52930246 </i>
    <i name="eentropy">      0.00000000 </i>
    <i name="bandstr">   1803.79904056 </i>
    <i name="atom">  44791.06186932 </i>
    <i name="e_fr_energy">   5970.97443700 </i>
    <i name="e_wo_entrp">   5970.97443700 </i>
    <i name="e_0_energy">   5970.97443700 </i>
   </energy>
  </scstep>
  <scstep>
   <time name="dav">   60.94   61.28</time>
   <time name="total">   60.95   61.29</time>
   <energy>
    <i name="e_fr_energy">    798.61195943 </i>
    <i name="e_wo_entrp">    798.61195943 </i>
    <i name="e_0_energy">    798.61195943 </i>
   </energy>
  </scstep>
  <scstep>
   <time name="dav">   70.87   71.56</time>
   <time name="total">   70.88   71.56</time>
   <energy>
    <i name="e_fr_energy">   -245.82408660 </i>
    <i name="e_wo_entrp">   -245.82408660 </i>
    <i name="e_0_energy">   -245.82408660 </i>
   </energy>
  </scstep>
  <scstep>
   <time name="dav">   73.00   73.27</time>
   <time name="total">   73.00   73.28</time>
   <energy>
    <i name="e_fr_energy">   -345.96981744 </i>
    <i name="e_wo_entrp">   -345.96981744 </i>
    <i name="e_0_energy">   -345.96981744 </i>
   </energy>
  </scstep>
  <scstep>
   <time name="dav">   99.62   99.74</time>
   <time name="total">  100.36  100.48</time>
   <energy>
    <i name="e_fr_energy">   -355.04774049 </i>
    <i name="e_wo_entrp">   -355.04774049 </i>
    <i name="e_0_energy">   -355.04774049 </i>
   </energy>
  </scstep>
  <scstep>
   <time name="dav">   86.17   86.42</time>
   <time name="total">   86.97   87.23</time>
   <energy>
    <i name="e_fr_energy">   -296.47244435 </i>
    <i name="e_wo_entrp">   -296.47244435 </i>
    <i name="e_0_energy">   -296.47244435 </i>
   </energy>
  </scstep>
  <scstep>
   <time name="dav">   65.80   66.29</time>
   <time name="total">   66.70   67.20</time>
   <energy>
    <i name="e_fr_energy">   -299.30855955 </i>
    <i name="e_wo_entrp">   -299.30855955 </i>
    <i name="e_0_energy">   -299.30855955 </i>
   </energy>
  </scstep>
  <scstep>
   <time name="dav">   81.61   82.21</time>
   <time name="total">   82.38   83.04</time>
   <energy>
    <i name="e_fr_energy">   -298.06075855 </i>
    <i name="e_wo_entrp">   -298.06075855 </i>
    <i name="e_0_energy">   -298.06075855 </i>
   </energy>
  </scstep>
  <scstep>
   <time name="dav">   79.60   80.31</time>
   <time name="total">   80.40   81.12</time>
   <energy>
    <i name="e_fr_energy">   -297.41160570 </i>
    <i name="e_wo_entrp">   -297.41160570 </i>
    <i name="e_0_energy">   -297.41160570 </i>
   </energy>
  </scstep>
  <scstep>
   <time name="dav">   72.84   73.77</time>
   <time name="total">   73.65   74.59</time>
   <energy>
    <i name="e_fr_energy">   -297.42033980 </i>
    <i name="e_wo_entrp">   -297.42033980 </i>
    <i name="e_0_energy">   -297.42033980 </i>
   </energy>
  </scstep>
  <scstep>
   <time name="dav">   78.37   79.27</time>
   <time name="total">   79.17   80.08</time>
   <energy>
    <i name="e_fr_energy">   -297.43138987 </i>
    <i name="e_wo_entrp">   -297.43138987 </i>
    <i name="e_0_energy">   -297.43138987 </i>
   </energy>
  </scstep>
  <scstep>
   <time name="dav">   80.07   80.35</time>
   <time name="total">   80.87   81.17</time>
   <energy>
    <i name="e_fr_energy">   -297.43512275 </i>
    <i name="e_wo_entrp">   -297.43512275 </i>
    <i name="e_0_energy">   -297.43512275 </i>
   </energy>
  </scstep>
  <scstep>
   <time name="dav">   75.07   75.12</time>
   <time name="total">   75.88   75.93</time>
   <energy>
    <i name="e_fr_energy">   -297.43621717 </i>
    <i name="e_wo_entrp">   -297.43621717 </i>
    <i name="e_0_energy">   -297.43621717 </i>
   </energy>
  </scstep>
  <scstep>
   <time name="dav">   74.31   74.71</time>
   <time name="total">   75.12   75.52</time>
   <energy>
    <i name="e_fr_energy">   -297.43648062 </i>
    <i name="e_wo_entrp">   -297.43648062 </i>
    <i name="e_0_energy">   -297.43648062 </i>
   </energy>
  </scstep>
  <scstep>
   <time name="dav">   77.32   78.34</time>
   <time name="total">   78.13   79.15</time>
   <energy>
    <i name="e_fr_energy">   -297.43652633 </i>
    <i name="e_wo_entrp">   -297.43652633 </i>
    <i name="e_0_energy">   -297.43652633 </i>
   </energy>
  </scstep>
  <scstep>
   <time name="dav">   65.53   66.16</time>
   <time name="total">   66.33   66.98</time>
   <energy>
    <i name="e_fr_energy">   -297.43654349 </i>
    <i name="e_wo_entrp">   -297.43654349 </i>
    <i name="e_0_energy">   -297.43654349 </i>
   </energy>
  </scstep>
  <scstep>
   <time name="dav">   65.08   65.76</time>
   <time name="total">   65.89   66.57</time>
   <energy>
    <i name="e_fr_energy">   -297.43654551 </i>
    <i name="e_wo_entrp">   -297.43654551 </i>
    <i name="e_0_energy">   -297.43654551 </i>
   </energy>
  </scstep>
  <scstep>
   <time name="dav">   58.90   59.29</time>
   <time name="total">   58.97   59.36</time>
   <energy>
    <i name="alphaZ">   1073.51873187 </i>
    <i name="ewald"> -30886.74501432 </i>
    <i name="hartreedc"> -12939.17616940 </i>
    <i name="XCdc">   1418.53860283 </i>
    <i name="pawpsdc">  43844.87339034 </i>
    <i name="pawaedc"> -43322.26181582 </i>
    <i name="eentropy">      0.00000000 </i>
    <i name="bandstr">  -4277.24614093 </i>
    <i name="atom">  44791.06186932 </i>
    <i name="e_fr_energy">   -297.43654611 </i>
    <i name="e_wo_entrp">   -297.43654611 </i>
    <i name="e_0_energy">   -297.43654611 </i>
   </energy>
  </scstep>
  <structure>
   <crystal>
    <varray name="basis" >
     <v>      11.17850000       0.00000000       0.00000000 </v>
     <v>       0.00000000       9.57460000       0.00000000 </v>
     <v>       0.00000000       0.00000000      11.18240000 </v>
    </varray>
    <i name="volume">   1196.84853820 </i>
    <varray name="rec_basis" >
     <v>       0.08945744       0.00000000       0.00000000 </v>
     <v>       0.00000000       0.10444301       0.00000000 </v>
     <v>       0.00000000       0.00000000       0.08942624 </v>
    </varray>
   </crystal>
   <varray name="positions" >
    <v>       0.37539000       0.00017000       0.43687000 </v>
    <v>       0.12461000       0.99984000       0.18687000 </v>
    <v>       0.37461000       0.00017000       0.18687000 </v>
    <v>       0.62539000       0.99984000       0.43687000 </v>
    <v>       0.87461000       0.00017000       0.18687000 </v>
    <v>       0.12539000       0.99984000       0.93687000 </v>
    <v>       0.37539000       0.00017000       0.93687000 </v>
    <v>       0.12461000       0.99984000       0.68687000 </v>
    <v>       0.87539000       0.00017000       0.93687000 </v>
    <v>       0.87461000       0.00017000       0.68687000 </v>
    <v>       0.87539000       0.00017000       0.43687000 </v>
    <v>       0.37461000       0.00017000       0.68687000 </v>
    <v>       0.62539000       0.99984000       0.93687000 </v>
    <v>       0.00013000       0.29519000       0.06281000 </v>
    <v>       0.25013000       0.70481000       0.06281000 </v>
    <v>       0.24987000       0.29519000       0.31282000 </v>
    <v>       0.49987000       0.70481000       0.31282000 </v>
    <v>       0.50013000       0.29519000       0.06281000 </v>
    <v>       0.75013000       0.70481000       0.06281000 </v>
    <v>       0.74987000       0.29519000       0.31282000 </v>
    <v>       0.99987000       0.70481000       0.31282000 </v>
    <v>       0.00013000       0.29519000       0.56281000 </v>
    <v>       0.25013000       0.70481000       0.56281000 </v>
    <v>       0.24987000       0.29519000       0.81282000 </v>
    <v>       0.49987000       0.70481000       0.81282000 </v>
    <v>       0.50013000       0.29519000       0.56281000 </v>
    <v>       0.75013000       0.70481000       0.56281000 </v>
    <v>       0.74987000       0.29519000       0.81282000 </v>
    <v>       0.99987000       0.70481000       0.81282000 </v>
    <v>       0.25005000       0.32677000       0.06286000 </v>
    <v>       0.00005000       0.67323000       0.06286000 </v>
    <v>       0.49995000       0.32677000       0.31286000 </v>
    <v>       0.24995000       0.67323000       0.31286000 </v>
    <v>       0.75005000       0.32677000       0.06286000 </v>
    <v>       0.50005000       0.67323000       0.06286000 </v>
    <v>       0.99995000       0.32677000       0.31286000 </v>
    <v>       0.74995000       0.67323000       0.31286000 </v>
    <v>       0.25005000       0.32677000       0.56286000 </v>
    <v>       0.00005000       0.67323000       0.56286000 </v>
    <v>       0.49995000       0.32677000       0.81286000 </v>
    <v>       0.24995000       0.67323000       0.81286000 </v>
    <v>       0.75005000       0.32677000       0.56286000 </v>
    <v>       0.50005000       0.67323000       0.56286000 </v>
    <v>       0.99995000       0.32677000       0.81286000 </v>
    <v>       0.74995000       0.67323000       0.81286000 </v>
    <v>       0.49987000       0.07798000       0.06246000 </v>
    <v>       0.24987000       0.92202000       0.06246000 </v>
    <v>       0.25013000       0.07798000       0.31246000 </v>
    <v>       0.00013000       0.92202000       0.31246000 </v>
    <v>       0.99987000       0.07798000       0.06246000 </v>
    <v>       0.74987000       0.92202000       0.06246000 </v>
    <v>       0.75013000       0.07798000       0.31246000 </v>
    <v>       0.50013000       0.92202000       0.31246000 </v>
    <v>       0.49987000       0.07798000       0.56246000 </v>
    <v>       0.24987000       0.92202000       0.56246000 </v>
    <v>       0.25013000       0.07798000       0.81246000 </v>
    <v>       0.00013000       0.92202000       0.81246000 </v>
    <v>       0.99987000       0.07798000       0.56246000 </v>
    <v>       0.74987000       0.92202000       0.56246000 </v>
    <v>       0.75013000       0.07798000       0.81246000 </v>
    <v>       0.50013000       0.92202000       0.81246000 </v>
   </varray>
  </structure>
  <varray name="forces" >
   <v>      -0.17805624       0.00177249      -0.50077320 </v>
   <v>       0.08178552       0.06397026       0.46684612 </v>
   <v>       0.25511496      -0.00406887       0.28232659 </v>
   <v>      -0.40220131      -0.06695783      -0.10882757 </v>
   <v>      -0.24566058      -0.00043324      -0.18967313 </v>
   <v>      -0.09048137      -0.06764484       0.12770025 </v>
   <v>      -0.14357491      -0.00356449       0.52593435 </v>
   <v>      -0.39921116      -0.06500354      -0.46199418 </v>
   <v>       0.13417921      -0.00049556       0.04584250 </v>
   <v>      -0.24842973      -0.00335689       0.20057961 </v>
   <v>       0.53669087      -0.00979839      -0.03439095 </v>
   <v>       0.62411139      -0.00396276      -0.44713720 </v>
   <v>       0.16105536       0.12016981       0.28019035 </v>
   <v>       0.01187968       0.01763156       0.11896002 </v>
   <v>      -0.01592957      -0.02299324       0.24514136 </v>
   <v>      -0.04030753      -1.03229929       0.08812956 </v>
   <v>       0.04715586       1.01029208      -0.11584177 </v>
   <v>       0.00987116      -0.01983236       0.45575444 </v>
   <v>      -0.03101513       0.02231480       0.33028127 </v>
   <v>      -0.24011512       0.01201758      -0.19342741 </v>
   <v>       0.25769255       0.04499372       0.02967109 </v>
   <v>       0.17417450      -0.02703331      -0.18951589 </v>
   <v>      -0.18442796      -0.03850946      -0.45744242 </v>
   <v>      -0.14488953       1.05484813       0.10602521 </v>
   <v>       0.15990610      -0.96570454      -0.13078927 </v>
   <v>       0.17451716      -0.00730170      -0.22730575 </v>
   <v>      -0.18882768       0.00581202       0.03479522 </v>
   <v>       0.04883278       0.01635856      -0.19237392 </v>
   <v>      -0.04409701      -0.04989058       0.02239233 </v>
   <v>      -0.01168494       0.19296262      -0.26457055 </v>
   <v>       0.00971890      -0.19053906      -0.08459270 </v>
   <v>       0.09383742       0.21463625       0.01903667 </v>
   <v>      -0.08738890      -0.21063296      -0.02377854 </v>
   <v>      -0.02622228       0.13851061      -0.13403865 </v>
   <v>       0.02647421      -0.12172364      -0.30982585 </v>
   <v>      -0.15258822       0.16658306       0.02103680 </v>
   <v>       0.14838767      -0.17599635       0.05988806 </v>
   <v>       0.05663106       0.11966279       0.32335473 </v>
   <v>      -0.04913434      -0.14209220       0.05757908 </v>
   <v>      -0.09736034       0.05567514       0.00955095 </v>
   <v>       0.10879030      -0.10890114      -0.04018426 </v>
   <v>       0.05699259       0.15071440       0.01593875 </v>
   <v>      -0.06891795      -0.14733975       0.28205531 </v>
   <v>       0.08903787       0.15541081       0.00679474 </v>
   <v>      -0.09712118      -0.10505521       0.05830449 </v>
   <v>      -0.10941000       0.00090080      -1.33574153 </v>
   <v>       0.00501503       0.02448916      -0.24318161 </v>
   <v>       0.52696390       0.86353328      -0.61478651 </v>
   <v>      -1.13953530      -0.09589203      -0.15037436 </v>
   <v>       0.00561725      -0.01820181      -0.09305948 </v>
   <v>       0.13418702      -0.04243067      -1.18150988 </v>
   <v>       1.10620365       0.00368222       1.05446573 </v>
   <v>      -0.54131745      -0.85631999       0.61569597 </v>
   <v>      -1.11676816       0.05358486       0.08873460 </v>
   <v>       1.05006309       0.09032738       1.28777865 </v>
   <v>       0.54913251      -0.84577232      -0.46696751 </v>
   <v>       0.07413919       0.08130938       0.00422261 </v>
   <v>      -1.06362826       0.05545650       0.22632856 </v>
   <v>       1.09187252       0.02068795      -0.99504795 </v>
   <v>       0.07581347      -0.00626820       1.09388264 </v>
   <v>      -0.72754260       0.69770801       0.60193343 </v>
  </varray>
  <varray name="stress" >
   <v>      -8.12191989       0.07403834       0.15884308 </v>
   <v>       0.07403836     -14.31265537       0.02289872 </v>
   <v>       0.15884289       0.02289873      -9.22495959 </v>
  </varray>
  <energy>
   <i name="e_fr_energy">   -312.08292116 </i>
   <i name="e_wo_entrp">   -312.08292116 </i>
   <i name="e_0_energy">      0.00000000 </i>
  </energy>
  <time name="totalsc"> 1444.39 1453.95</time>
  <eigenvalues>
   <array>
    <dimension dim="1">band</dimension>
    <dimension dim="2">kpoint</dimension>
    <dimension dim="3">spin</dimension>
    <field>eigene</field>
    <field>occ</field>
    <set>
     <set comment="spin 1">
      <set comment="kpoint 1">
       <r>  -40.2590    1.0000 </r>
       <r>  -40.0255    1.0000 </r>
       <r>  -40.0123    1.0000 </r>
       <r>  -39.8884    1.0000 </r>
       <r>  -39.8453    1.0000 </r>
       <r>  -39.7612    1.0000 </r>
       <r>  -39.5605    1.0000 </r>
       <r>  -39.5588    1.0000 </r>
       <r>  -39.4460    1.0000 </r>
       <r>  -39.4014    1.0000 </r>
       <r>  -18.9258    1.0000 </r>
       <r>  -18.9143    1.0000 </r>
       <r>  -18.8553    1.0000 </r>
       <r>  -18.8483    1.0000 </r>
       <r>  -18.8457    1.0000 </r>
       <r>  -18.8385    1.0000 </r>
       <r>  -18.7517    1.0000 </r>
       <r>  -18.7447    1.0000 </r>
       <r>  -18.7390    1.0000 </r>
       <r>  -18.7235    1.0000 </r>
       <r>  -18.7152    1.0000 </r>
       <r>  -18.7108    1.0000 </r>
       <r>  -18.7052    1.0000 </r>
       <r>  -18.7010    1.0000 </r>
       <r>  -18.6989    1.0000 </r>
       <r>  -18.6925    1.0000 </r>
       <r>  -18.6523    1.0000 </r>
       <r>  -18.6445    1.0000 </r>
       <r>  -18.6432    1.0000 </r>
       <r>  -18.6427    1.0000 </r>
       <r>  -18.6416    1.0000 </r>
       <r>  -18.6405    1.0000 </r>
       <r>  -18.6398    1.0000 </r>
       <r>  -18.6388    1.0000 </r>
       <r>  -18.6367    1.0000 </r>
       <r>  -18.6348    1.0000 </r>
       <r>  -18.6320    1.0000 </r>
       <r>  -18.6315    1.0000 </r>
       <r>  -18.6313    1.0000 </r>
       <r>  -18.6312    1.0000 </r>
       <r>  -18.6302    1.0000 </r>
       <r>  -18.6292    1.0000 </r>
       <r>  -18.6288    1.0000 </r>
       <r>  -18.6266    1.0000 </r>
       <r>  -18.6259    1.0000 </r>
       <r>  -18.6230    1.0000 </r>
       <r>  -18.6224    1.0000 </r>
       <r>  -18.6200    1.0000 </r>
       <r>  -18.6188    1.0000 </r>
       <r>  -18.6185    1.0000 </r>
       <r>  -18.5734    1.0000 </r>
       <r>  -18.5632    1.0000 </r>
       <r>  -18.5590    1.0000 </r>
       <r>  -18.5589    1.0000 </r>
       <r>  -18.5542    1.0000 </r>
       <r>  -18.5496    1.0000 </r>
       <r>  -18.5494    1.0000 </r>
       <r>  -18.5421    1.0000 </r>
       <r>  -18.5399    1.0000 </r>
       <r>  -18.5397    1.0000 </r>
       <r>  -18.4932    1.0000 </r>
       <r>  -18.4922    1.0000 </r>
       <r>  -18.4850    1.0000 </r>
       <r>  -18.4842    1.0000 </r>
       <r>  -18.4829    1.0000 </r>
       <r>  -18.4812    1.0000 </r>
       <r>  -18.4794    1.0000 </r>
       <r>  -18.4777    1.0000 </r>
       <r>  -18.4745    1.0000 </r>
       <r>  -18.4740    1.0000 </r>
       <r>  -18.4735    1.0000 </r>
       <r>  -18.4730    1.0000 </r>
       <r>  -18.4716    1.0000 </r>
       <r>  -18.4699    1.0000 </r>
       <r>  -18.4692    1.0000 </r>
       <r>  -18.4668    1.0000 </r>
       <r>  -18.4156    1.0000 </r>
       <r>  -18.4059    1.0000 </r>
       <r>  -18.4040    1.0000 </r>
       <r>  -18.3888    1.0000 </r>
       <r>  -18.3881    1.0000 </r>
       <r>  -18.3872    1.0000 </r>
       <r>  -18.3757    1.0000 </r>
       <r>  -18.3742    1.0000 </r>
       <r>  -18.2955    1.0000 </r>
       <r>  -18.2946    1.0000 </r>
       <r>  -18.1805    1.0000 </r>
       <r>  -18.1796    1.0000 </r>
       <r>  -18.1676    1.0000 </r>
       <r>  -18.1660    1.0000 </r>
       <r>  -13.5556    1.0000 </r>
       <r>  -13.4488    1.0000 </r>
       <r>  -12.8941    1.0000 </r>
       <r>  -12.8178    1.0000 </r>
       <r>  -12.7670    1.0000 </r>
       <r>  -12.7552    1.0000 </r>
       <r>  -12.7499    1.0000 </r>
       <r>  -12.6864    1.0000 </r>
       <r>  -12.6810    1.0000 </r>
       <r>  -12.6684    1.0000 </r>
       <r>  -12.6490    1.0000 </r>
       <r>  -12.6280    1.0000 </r>
       <r>  -12.6099    1.0000 </r>
       <r>  -12.5664    1.0000 </r>
       <r>  -11.9560    1.0000 </r>
       <r>  -11.8928    1.0000 </r>
       <r>   -9.3202    1.0000 </r>
       <r>   -9.0256    1.0000 </r>
       <r>   -8.5299    1.0000 </r>
       <r>   -8.4910    1.0000 </r>
       <r>   -8.4785    1.0000 </r>
       <r>   -8.4356    1.0000 </r>
       <r>   -8.3063    1.0000 </r>
       <r>   -8.2719    1.0000 </r>
       <r>   -8.2521    1.0000 </r>
       <r>   -8.2116    1.0000 </r>
       <r>   -8.0207    1.0000 </r>
       <r>   -8.0193    1.0000 </r>
       <r>   -7.9861    1.0000 </r>
       <r>   -7.9846    1.0000 </r>
       <r>   -7.3492    1.0000 </r>
       <r>   -7.3477    1.0000 </r>
       <r>   -6.3659    1.0000 </r>
       <r>   -6.3564    1.0000 </r>
       <r>   -6.3400    1.0000 </r>
       <r>   -6.3344    1.0000 </r>
       <r>   -5.5202    1.0000 </r>
       <r>   -5.4852    1.0000 </r>
       <r>   -5.3567    1.0000 </r>
       <r>   -5.3386    1.0000 </r>
       <r>   -5.3311    1.0000 </r>
       <r>   -5.2441    1.0000 </r>
       <r>   -5.2054    1.0000 </r>
       <r>   -5.1633    1.0000 </r>
       <r>   -5.1174    1.0000 </r>
       <r>   -5.0461    1.0000 </r>
       <r>   -3.8005    1.0000 </r>
       <r>   -3.6479    1.0000 </r>
       <r>   -1.4097    1.0000 </r>
       <r>   -1.3371    1.0000 </r>
       <r>   -1.0686    1.0000 </r>
       <r>   -1.0219    1.0000 </r>
       <r>   -0.5382    1.0000 </r>
       <r>   -0.5106    1.0000 </r>
       <r>   -0.4724    1.0000 </r>
       <r>   -0.4441    1.0000 </r>
       <r>   -0.1808    1.0000 </r>
       <r>   -0.1557    1.0000 </r>
       <r>   -0.1436    1.0000 </r>
       <r>   -0.1314    1.0000 </r>
       <r>    0.0559    1.0000 </r>
       <r>    0.1846    1.0000 </r>
       <r>    0.3443    1.0000 </r>
       <r>    0.4333    1.0000 </r>
       <r>    0.4867    1.0000 </r>
       <r>    0.5478    1.0000 </r>
       <r>    0.6066    1.0000 </r>
       <r>    0.6535    1.0000 </r>
       <r>    0.7213    1.0000 </r>
       <r>    0.7385    1.0000 </r>
       <r>    0.7469    1.0000 </r>
       <r>    0.7956    1.0000 </r>
       <r>    0.8446    1.0000 </r>
       <r>    0.8793    1.0000 </r>
       <r>    0.9630    1.0000 </r>
       <r>    0.9741    1.0000 </r>
       <r>    0.9903    1.0000 </r>
       <r>    1.0160    1.0000 </r>
       <r>    1.0467    1.0000 </r>
       <r>    1.1157    1.0000 </r>
       <r>    1.1700    1.0000 </r>
       <r>    1.2364    1.0000 </r>
       <r>    1.2730    1.0000 </r>
       <r>    1.3097    1.0000 </r>
       <r>    1.3342    1.0000 </r>
       <r>    1.4019    1.0000 </r>
       <r>    1.4373    1.0000 </r>
       <r>    1.4921    1.0000 </r>
       <r>    1.5032    1.0000 </r>
       <r>    1.5437    1.0000 </r>
       <r>    1.5822    1.0000 </r>
       <r>    1.6592    1.0000 </r>
       <r>    1.6823    1.0000 </r>
       <r>    1.7051    1.0000 </r>
       <r>    1.8273    1.0000 </r>
       <r>    1.8348    1.0000 </r>
       <r>    1.8802    1.0000 </r>
       <r>    1.9051    1.0000 </r>
       <r>    1.9175    1.0000 </r>
       <r>    2.0195    1.0000 </r>
       <r>    2.1052    1.0000 </r>
       <r>    2.1466    1.0000 </r>
       <r>    2.1702    1.0000 </r>
       <r>    2.2693    1.0000 </r>
       <r>    2.3262    1.0000 </r>
       <r>    2.3937    1.0000 </r>
       <r>    2.5313    1.0000 </r>
       <r>    2.5804    1.0000 </r>
       <r>    2.5826    1.0000 </r>
       <r>    2.5920    1.0000 </r>
       <r>    2.5961    1.0000 </r>
       <r>    2.6085    1.0000 </r>
       <r>    2.6270    1.0000 </r>
       <r>    2.6516    1.0000 </r>
       <r>    2.6862    1.0000 </r>
       <r>    2.6951    1.0000 </r>
       <r>    2.7286    1.0000 </r>
       <r>    2.7690    1.0000 </r>
       <r>    2.7898    1.0000 </r>
       <r>    2.8280    1.0000 </r>
       <r>    2.8716    1.0000 </r>
       <r>    2.9055    1.0000 </r>
       <r>    2.9209    1.0000 </r>
       <r>    2.9329    1.0000 </r>
       <r>    2.9646    1.0000 </r>
       <r>    2.9707    1.0000 </r>
       <r>    3.0753    1.0000 </r>
       <r>    3.1110    1.0000 </r>
       <r>    3.1360    1.0000 </r>
       <r>    3.1472    1.0000 </r>
       <r>    3.1591    1.0000 </r>
       <r>    3.1836    1.0000 </r>
       <r>    3.1874    1.0000 </r>
       <r>    3.2319    1.0000 </r>
       <r>    3.2517    1.0000 </r>
       <r>    3.3290    1.0000 </r>
       <r>    3.4357    1.0000 </r>
       <r>    3.4409    1.0000 </r>
       <r>    3.5118    1.0000 </r>
       <r>    3.5432    1.0000 </r>
       <r>    4.1995    1.0000 </r>
       <r>    4.2054    1.0000 </r>
       <r>    4.2216    1.0000 </r>
       <r>    4.2344    1.0000 </r>
       <r>    5.0922    0.0000 </r>
       <r>    5.1003    0.0000 </r>
       <r>    5.1314    0.0000 </r>
       <r>    5.1467    0.0000 </r>
       <r>    5.7637    0.0000 </r>
       <r>    5.7681    0.0000 </r>
       <r>    5.8047    0.0000 </r>
       <r>    5.8093    0.0000 </r>
       <r>    6.1093    0.0000 </r>
       <r>    6.1219    0.0000 </r>
       <r>    6.1349    0.0000 </r>
       <r>    6.1609    0.0000 </r>
       <r>    6.2395    0.0000 </r>
       <r>    6.2486    0.0000 </r>
       <r>    6.2735    0.0000 </r>
       <r>    6.2797    0.0000 </r>
       <r>    7.1488    0.0000 </r>
       <r>    7.1701    0.0000 </r>
       <r>    7.2732    0.0000 </r>
       <r>    7.3001    0.0000 </r>
       <r>    7.8091    0.0000 </r>
       <r>    7.8777    0.0000 </r>
       <r>    7.9309    0.0000 </r>
       <r>    7.9541    0.0000 </r>
       <r>    7.9971    0.0000 </r>
       <r>    8.0634    0.0000 </r>
       <r>    8.1406    0.0000 </r>
       <r>    8.1948    0.0000 </r>
       <r>    8.4585    0.0000 </r>
       <r>    8.5451    0.0000 </r>
       <r>    8.6823    0.0000 </r>
       <r>    8.7818    0.0000 </r>
       <r>    8.7948    0.0000 </r>
       <r>    8.9009    0.0000 </r>
       <r>    8.9413    0.0000 </r>
       <r>    8.9826    0.0000 </r>
       <r>    9.0150    0.0000 </r>
       <r>    9.0693    0.0000 </r>
       <r>    9.0880    0.0000 </r>
       <r>    9.1252    0.0000 </r>
       <r>    9.1292    0.0000 </r>
       <r>    9.1948    0.0000 </r>
       <r>    9.2167    0.0000 </r>
       <r>    9.2607    0.0000 </r>
       <r>    9.4455    0.0000 </r>
       <r>    9.6381    0.0000 </r>
      </set>
      <set comment="kpoint 2">
       <r>  -40.2590    1.0000 </r>
       <r>  -40.0255    1.0000 </r>
       <r>  -40.0123    1.0000 </r>
       <r>  -39.8884    1.0000 </r>
       <r>  -39.8453    1.0000 </r>
       <r>  -39.7612    1.0000 </r>
       <r>  -39.5605    1.0000 </r>
       <r>  -39.5588    1.0000 </r>
       <r>  -39.4460    1.0000 </r>
       <r>  -39.4014    1.0000 </r>
       <r>  -18.9258    1.0000 </r>
       <r>  -18.9143    1.0000 </r>
       <r>  -18.8552    1.0000 </r>
       <r>  -18.8483    1.0000 </r>
       <r>  -18.8456    1.0000 </r>
       <r>  -18.8385    1.0000 </r>
       <r>  -18.7517    1.0000 </r>
       <r>  -18.7447    1.0000 </r>
       <r>  -18.7390    1.0000 </r>
       <r>  -18.7235    1.0000 </r>
       <r>  -18.7154    1.0000 </r>
       <r>  -18.7110    1.0000 </r>
       <r>  -18.7052    1.0000 </r>
       <r>  -18.7010    1.0000 </r>
       <r>  -18.6989    1.0000 </r>
       <r>  -18.6924    1.0000 </r>
       <r>  -18.6520    1.0000 </r>
       <r>  -18.6442    1.0000 </r>
       <r>  -18.6428    1.0000 </r>
       <r>  -18.6418    1.0000 </r>
       <r>  -18.6416    1.0000 </r>
       <r>  -18.6412    1.0000 </r>
       <r>  -18.6390    1.0000 </r>
       <r>  -18.6380    1.0000 </r>
       <r>  -18.6373    1.0000 </r>
       <r>  -18.6368    1.0000 </r>
       <r>  -18.6323    1.0000 </r>
       <r>  -18.6319    1.0000 </r>
       <r>  -18.6316    1.0000 </r>
       <r>  -18.6313    1.0000 </r>
       <r>  -18.6306    1.0000 </r>
       <r>  -18.6299    1.0000 </r>
       <r>  -18.6286    1.0000 </r>
       <r>  -18.6260    1.0000 </r>
       <r>  -18.6254    1.0000 </r>
       <r>  -18.6227    1.0000 </r>
       <r>  -18.6221    1.0000 </r>
       <r>  -18.6202    1.0000 </r>
       <r>  -18.6187    1.0000 </r>
       <r>  -18.6179    1.0000 </r>
       <r>  -18.5733    1.0000 </r>
       <r>  -18.5631    1.0000 </r>
       <r>  -18.5590    1.0000 </r>
       <r>  -18.5589    1.0000 </r>
       <r>  -18.5542    1.0000 </r>
       <r>  -18.5497    1.0000 </r>
       <r>  -18.5494    1.0000 </r>
       <r>  -18.5421    1.0000 </r>
       <r>  -18.5398    1.0000 </r>
       <r>  -18.5397    1.0000 </r>
       <r>  -18.4932    1.0000 </r>
       <r>  -18.4922    1.0000 </r>
       <r>  -18.4850    1.0000 </r>
       <r>  -18.4842    1.0000 </r>
       <r>  -18.4829    1.0000 </r>
       <r>  -18.4812    1.0000 </r>
       <r>  -18.4794    1.0000 </r>
       <r>  -18.4777    1.0000 </r>
       <r>  -18.4745    1.0000 </r>
       <r>  -18.4740    1.0000 </r>
       <r>  -18.4735    1.0000 </r>
       <r>  -18.4730    1.0000 </r>
       <r>  -18.4716    1.0000 </r>
       <r>  -18.4699    1.0000 </r>
       <r>  -18.4692    1.0000 </r>
       <r>  -18.4668    1.0000 </r>
       <r>  -18.4156    1.0000 </r>
       <r>  -18.4059    1.0000 </r>
       <r>  -18.4040    1.0000 </r>
       <r>  -18.3888    1.0000 </r>
       <r>  -18.3881    1.0000 </r>
       <r>  -18.3872    1.0000 </r>
       <r>  -18.3757    1.0000 </r>
       <r>  -18.3742    1.0000 </r>
       <r>  -18.2955    1.0000 </r>
       <r>  -18.2946    1.0000 </r>
       <r>  -18.1805    1.0000 </r>
       <r>  -18.1796    1.0000 </r>
       <r>  -18.1676    1.0000 </r>
       <r>  -18.1660    1.0000 </r>
       <r>  -13.5547    1.0000 </r>
       <r>  -13.4497    1.0000 </r>
       <r>  -12.8893    1.0000 </r>
       <r>  -12.8130    1.0000 </r>
       <r>  -12.7888    1.0000 </r>
       <r>  -12.7577    1.0000 </r>
       <r>  -12.7323    1.0000 </r>
       <r>  -12.7093    1.0000 </r>
       <r>  -12.6722    1.0000 </r>
       <r>  -12.6570    1.0000 </r>
       <r>  -12.6424    1.0000 </r>
       <r>  -12.6271    1.0000 </r>
       <r>  -12.6163    1.0000 </r>
       <r>  -12.5677    1.0000 </r>
       <r>  -11.9564    1.0000 </r>
       <r>  -11.8925    1.0000 </r>
       <r>   -9.1147    1.0000 </r>
       <r>   -9.1000    1.0000 </r>
       <r>   -8.8408    1.0000 </r>
       <r>   -8.8237    1.0000 </r>
       <r>   -8.3187    1.0000 </r>
       <r>   -8.3144    1.0000 </r>
       <r>   -8.3082    1.0000 </r>
       <r>   -8.2989    1.0000 </r>
       <r>   -8.1307    1.0000 </r>
       <r>   -8.1267    1.0000 </r>
       <r>   -8.1217    1.0000 </r>
       <r>   -8.1138    1.0000 </r>
       <r>   -7.6836    1.0000 </r>
       <r>   -7.6793    1.0000 </r>
       <r>   -7.5728    1.0000 </r>
       <r>   -7.5699    1.0000 </r>
       <r>   -5.9703    1.0000 </r>
       <r>   -5.9332    1.0000 </r>
       <r>   -5.8842    1.0000 </r>
       <r>   -5.8819    1.0000 </r>
       <r>   -5.8426    1.0000 </r>
       <r>   -5.7680    1.0000 </r>
       <r>   -5.7347    1.0000 </r>
       <r>   -5.7319    1.0000 </r>
       <r>   -5.6368    1.0000 </r>
       <r>   -5.5857    1.0000 </r>
       <r>   -5.4949    1.0000 </r>
       <r>   -5.4787    1.0000 </r>
       <r>   -4.4244    1.0000 </r>
       <r>   -4.4080    1.0000 </r>
       <r>   -4.2570    1.0000 </r>
       <r>   -4.2390    1.0000 </r>
       <r>   -1.1515    1.0000 </r>
       <r>   -1.1108    1.0000 </r>
       <r>   -0.8044    1.0000 </r>
       <r>   -0.7930    1.0000 </r>
       <r>   -0.4638    1.0000 </r>
       <r>   -0.3194    1.0000 </r>
       <r>    0.0097    1.0000 </r>
       <r>    0.0491    1.0000 </r>
       <r>    0.0891    1.0000 </r>
       <r>    0.0984    1.0000 </r>
       <r>    0.1677    1.0000 </r>
       <r>    0.2166    1.0000 </r>
       <r>    0.2590    1.0000 </r>
       <r>    0.3092    1.0000 </r>
       <r>    0.3229    1.0000 </r>
       <r>    0.3401    1.0000 </r>
       <r>    0.5170    1.0000 </r>
       <r>    0.5551    1.0000 </r>
       <r>    0.5755    1.0000 </r>
       <r>    0.5834    1.0000 </r>
       <r>    0.6140    1.0000 </r>
       <r>    0.6433    1.0000 </r>
       <r>    0.6975    1.0000 </r>
       <r>    0.7320    1.0000 </r>
       <r>    0.7405    1.0000 </r>
       <r>    0.7904    1.0000 </r>
       <r>    0.9087    1.0000 </r>
       <r>    0.9198    1.0000 </r>
       <r>    0.9786    1.0000 </r>
       <r>    1.0107    1.0000 </r>
       <r>    1.0956    1.0000 </r>
       <r>    1.1395    1.0000 </r>
       <r>    1.1873    1.0000 </r>
       <r>    1.2516    1.0000 </r>
       <r>    1.2700    1.0000 </r>
       <r>    1.3004    1.0000 </r>
       <r>    1.3199    1.0000 </r>
       <r>    1.3587    1.0000 </r>
       <r>    1.4373    1.0000 </r>
       <r>    1.4442    1.0000 </r>
       <r>    1.4642    1.0000 </r>
       <r>    1.5019    1.0000 </r>
       <r>    1.5740    1.0000 </r>
       <r>    1.6072    1.0000 </r>
       <r>    1.6464    1.0000 </r>
       <r>    1.6990    1.0000 </r>
       <r>    1.7317    1.0000 </r>
       <r>    1.7952    1.0000 </r>
       <r>    1.8174    1.0000 </r>
       <r>    1.8576    1.0000 </r>
       <r>    1.9136    1.0000 </r>
       <r>    1.9225    1.0000 </r>
       <r>    2.0065    1.0000 </r>
       <r>    2.0311    1.0000 </r>
       <r>    2.0504    1.0000 </r>
       <r>    2.0992    1.0000 </r>
       <r>    2.1265    1.0000 </r>
       <r>    2.1719    1.0000 </r>
       <r>    2.1892    1.0000 </r>
       <r>    2.2728    1.0000 </r>
       <r>    2.3154    1.0000 </r>
       <r>    2.3356    1.0000 </r>
       <r>    2.3980    1.0000 </r>
       <r>    2.4467    1.0000 </r>
       <r>    2.5327    1.0000 </r>
       <r>    2.5446    1.0000 </r>
       <r>    2.6234    1.0000 </r>
       <r>    2.6287    1.0000 </r>
       <r>    2.6522    1.0000 </r>
       <r>    2.6765    1.0000 </r>
       <r>    2.7027    1.0000 </r>
       <r>    2.7334    1.0000 </r>
       <r>    2.7632    1.0000 </r>
       <r>    2.7767    1.0000 </r>
       <r>    2.8346    1.0000 </r>
       <r>    2.8670    1.0000 </r>
       <r>    2.8948    1.0000 </r>
       <r>    2.9082    1.0000 </r>
       <r>    2.9179    1.0000 </r>
       <r>    2.9386    1.0000 </r>
       <r>    3.0745    1.0000 </r>
       <r>    3.0886    1.0000 </r>
       <r>    3.1075    1.0000 </r>
       <r>    3.1250    1.0000 </r>
       <r>    3.1497    1.0000 </r>
       <r>    3.2061    1.0000 </r>
       <r>    3.2278    1.0000 </r>
       <r>    3.3346    1.0000 </r>
       <r>    3.4990    1.0000 </r>
       <r>    3.5204    1.0000 </r>
       <r>    3.5401    1.0000 </r>
       <r>    3.5568    1.0000 </r>
       <r>    3.5681    1.0000 </r>
       <r>    3.5875    1.0000 </r>
       <r>    3.6796    1.0000 </r>
       <r>    3.7496    1.0000 </r>
       <r>    5.6835    0.0000 </r>
       <r>    5.6894    0.0000 </r>
       <r>    5.6969    0.0000 </r>
       <r>    5.7055    0.0000 </r>
       <r>    5.7646    0.0000 </r>
       <r>    5.7700    0.0000 </r>
       <r>    5.7978    0.0000 </r>
       <r>    5.8058    0.0000 </r>
       <r>    7.2297    0.0000 </r>
       <r>    7.2457    0.0000 </r>
       <r>    7.3091    0.0000 </r>
       <r>    7.3412    0.0000 </r>
       <r>    7.4210    0.0000 </r>
       <r>    7.4264    0.0000 </r>
       <r>    7.4517    0.0000 </r>
       <r>    7.4739    0.0000 </r>
       <r>    7.4818    0.0000 </r>
       <r>    7.4867    0.0000 </r>
       <r>    7.5071    0.0000 </r>
       <r>    7.5232    0.0000 </r>
       <r>    7.8382    0.0000 </r>
       <r>    7.8593    0.0000 </r>
       <r>    7.8634    0.0000 </r>
       <r>    7.8746    0.0000 </r>
       <r>    7.8813    0.0000 </r>
       <r>    7.9017    0.0000 </r>
       <r>    7.9503    0.0000 </r>
       <r>    7.9818    0.0000 </r>
       <r>    8.0068    0.0000 </r>
       <r>    8.0269    0.0000 </r>
       <r>    8.1159    0.0000 </r>
       <r>    8.1238    0.0000 </r>
       <r>    8.3133    0.0000 </r>
       <r>    8.3608    0.0000 </r>
       <r>    8.4542    0.0000 </r>
       <r>    8.5520    0.0000 </r>
       <r>    8.6672    0.0000 </r>
       <r>    8.6852    0.0000 </r>
       <r>    8.7685    0.0000 </r>
       <r>    8.7744    0.0000 </r>
       <r>    8.8315    0.0000 </r>
       <r>    8.8427    0.0000 </r>
       <r>    8.9357    0.0000 </r>
       <r>    8.9406    0.0000 </r>
       <r>    9.1943    0.0000 </r>
       <r>    9.2149    0.0000 </r>
      </set>
      <set comment="kpoint 3">
       <r>  -40.2590    1.0000 </r>
       <r>  -40.0255    1.0000 </r>
       <r>  -40.0123    1.0000 </r>
       <r>  -39.8884    1.0000 </r>
       <r>  -39.8453    1.0000 </r>
       <r>  -39.7612    1.0000 </r>
       <r>  -39.5605    1.0000 </r>
       <r>  -39.5588    1.0000 </r>
       <r>  -39.4460    1.0000 </r>
       <r>  -39.4014    1.0000 </r>
       <r>  -18.9258    1.0000 </r>
       <r>  -18.9143    1.0000 </r>
       <r>  -18.8553    1.0000 </r>
       <r>  -18.8483    1.0000 </r>
       <r>  -18.8457    1.0000 </r>
       <r>  -18.8385    1.0000 </r>
       <r>  -18.7517    1.0000 </r>
       <r>  -18.7447    1.0000 </r>
       <r>  -18.7390    1.0000 </r>
       <r>  -18.7235    1.0000 </r>
       <r>  -18.7152    1.0000 </r>
       <r>  -18.7108    1.0000 </r>
       <r>  -18.7052    1.0000 </r>
       <r>  -18.7010    1.0000 </r>
       <r>  -18.6989    1.0000 </r>
       <r>  -18.6925    1.0000 </r>
       <r>  -18.6523    1.0000 </r>
       <r>  -18.6445    1.0000 </r>
       <r>  -18.6432    1.0000 </r>
       <r>  -18.6427    1.0000 </r>
       <r>  -18.6416    1.0000 </r>
       <r>  -18.6405    1.0000 </r>
       <r>  -18.6398    1.0000 </r>
       <r>  -18.6388    1.0000 </r>
       <r>  -18.6367    1.0000 </r>
       <r>  -18.6348    1.0000 </r>
       <r>  -18.6320    1.0000 </r>
       <r>  -18.6315    1.0000 </r>
       <r>  -18.6314    1.0000 </r>
       <r>  -18.6312    1.0000 </r>
       <r>  -18.6302    1.0000 </r>
       <r>  -18.6292    1.0000 </r>
       <r>  -18.6288    1.0000 </r>
       <r>  -18.6267    1.0000 </r>
       <r>  -18.6259    1.0000 </r>
       <r>  -18.6230    1.0000 </r>
       <r>  -18.6224    1.0000 </r>
       <r>  -18.6200    1.0000 </r>
       <r>  -18.6189    1.0000 </r>
       <r>  -18.6184    1.0000 </r>
       <r>  -18.5734    1.0000 </r>
       <r>  -18.5632    1.0000 </r>
       <r>  -18.5590    1.0000 </r>
       <r>  -18.5589    1.0000 </r>
       <r>  -18.5543    1.0000 </r>
       <r>  -18.5496    1.0000 </r>
       <r>  -18.5494    1.0000 </r>
       <r>  -18.5421    1.0000 </r>
       <r>  -18.5398    1.0000 </r>
       <r>  -18.5397    1.0000 </r>
       <r>  -18.4932    1.0000 </r>
       <r>  -18.4922    1.0000 </r>
       <r>  -18.4849    1.0000 </r>
       <r>  -18.4842    1.0000 </r>
       <r>  -18.4829    1.0000 </r>
       <r>  -18.4812    1.0000 </r>
       <r>  -18.4794    1.0000 </r>
       <r>  -18.4777    1.0000 </r>
       <r>  -18.4745    1.0000 </r>
       <r>  -18.4740    1.0000 </r>
       <r>  -18.4734    1.0000 </r>
       <r>  -18.4731    1.0000 </r>
       <r>  -18.4716    1.0000 </r>
       <r>  -18.4699    1.0000 </r>
       <r>  -18.4692    1.0000 </r>
       <r>  -18.4668    1.0000 </r>
       <r>  -18.4156    1.0000 </r>
       <r>  -18.4059    1.0000 </r>
       <r>  -18.4040    1.0000 </r>
       <r>  -18.3888    1.0000 </r>
       <r>  -18.3881    1.0000 </r>
       <r>  -18.3872    1.0000 </r>
       <r>  -18.3757    1.0000 </r>
       <r>  -18.3742    1.0000 </r>
       <r>  -18.2956    1.0000 </r>
       <r>  -18.2944    1.0000 </r>
       <r>  -18.1805    1.0000 </r>
       <r>  -18.1796    1.0000 </r>
       <r>  -18.1676    1.0000 </r>
       <r>  -18.1661    1.0000 </r>
       <r>  -13.5553    1.0000 </r>
       <r>  -13.4490    1.0000 </r>
       <r>  -12.8923    1.0000 </r>
       <r>  -12.8175    1.0000 </r>
       <r>  -12.7669    1.0000 </r>
       <r>  -12.7552    1.0000 </r>
       <r>  -12.7494    1.0000 </r>
       <r>  -12.6864    1.0000 </r>
       <r>  -12.6811    1.0000 </r>
       <r>  -12.6685    1.0000 </r>
       <r>  -12.6505    1.0000 </r>
       <r>  -12.6285    1.0000 </r>
       <r>  -12.6106    1.0000 </r>
       <r>  -12.5672    1.0000 </r>
       <r>  -11.9550    1.0000 </r>
       <r>  -11.8944    1.0000 </r>
       <r>   -9.3105    1.0000 </r>
       <r>   -9.0324    1.0000 </r>
       <r>   -8.5473    1.0000 </r>
       <r>   -8.5100    1.0000 </r>
       <r>   -8.4965    1.0000 </r>
       <r>   -8.4525    1.0000 </r>
       <r>   -8.2867    1.0000 </r>
       <r>   -8.2512    1.0000 </r>
       <r>   -8.2316    1.0000 </r>
       <r>   -8.1927    1.0000 </r>
       <r>   -8.0250    1.0000 </r>
       <r>   -8.0230    1.0000 </r>
       <r>   -7.9891    1.0000 </r>
       <r>   -7.9874    1.0000 </r>
       <r>   -7.3519    1.0000 </r>
       <r>   -7.3506    1.0000 </r>
       <r>   -6.3567    1.0000 </r>
       <r>   -6.3464    1.0000 </r>
       <r>   -6.3317    1.0000 </r>
       <r>   -6.3230    1.0000 </r>
       <r>   -5.5365    1.0000 </r>
       <r>   -5.4703    1.0000 </r>
       <r>   -5.3957    1.0000 </r>
       <r>   -5.3818    1.0000 </r>
       <r>   -5.3741    1.0000 </r>
       <r>   -5.2631    1.0000 </r>
       <r>   -5.1469    1.0000 </r>
       <r>   -5.1063    1.0000 </r>
       <r>   -5.0795    1.0000 </r>
       <r>   -4.9984    1.0000 </r>
       <r>   -3.8738    1.0000 </r>
       <r>   -3.5629    1.0000 </r>
       <r>   -1.3278    1.0000 </r>
       <r>   -1.2877    1.0000 </r>
       <r>   -1.1831    1.0000 </r>
       <r>   -1.0876    1.0000 </r>
       <r>   -0.4252    1.0000 </r>
       <r>   -0.4099    1.0000 </r>
       <r>   -0.3956    1.0000 </r>
       <r>   -0.3789    1.0000 </r>
       <r>   -0.3474    1.0000 </r>
       <r>   -0.3115    1.0000 </r>
       <r>   -0.2684    1.0000 </r>
       <r>   -0.2201    1.0000 </r>
       <r>   -0.0959    1.0000 </r>
       <r>   -0.0179    1.0000 </r>
       <r>    0.1615    1.0000 </r>
       <r>    0.2464    1.0000 </r>
       <r>    0.2755    1.0000 </r>
       <r>    0.3033    1.0000 </r>
       <r>    0.4087    1.0000 </r>
       <r>    0.4342    1.0000 </r>
       <r>    0.5366    1.0000 </r>
       <r>    0.6250    1.0000 </r>
       <r>    0.7286    1.0000 </r>
       <r>    0.7613    1.0000 </r>
       <r>    0.7719    1.0000 </r>
       <r>    0.8180    1.0000 </r>
       <r>    0.8248    1.0000 </r>
       <r>    0.8970    1.0000 </r>
       <r>    1.0073    1.0000 </r>
       <r>    1.1057    1.0000 </r>
       <r>    1.1433    1.0000 </r>
       <r>    1.2076    1.0000 </r>
       <r>    1.2758    1.0000 </r>
       <r>    1.3292    1.0000 </r>
       <r>    1.4070    1.0000 </r>
       <r>    1.5030    1.0000 </r>
       <r>    1.5378    1.0000 </r>
       <r>    1.6003    1.0000 </r>
       <r>    1.6256    1.0000 </r>
       <r>    1.6467    1.0000 </r>
       <r>    1.6858    1.0000 </r>
       <r>    1.7383    1.0000 </r>
       <r>    1.7746    1.0000 </r>
       <r>    1.7907    1.0000 </r>
       <r>    1.7982    1.0000 </r>
       <r>    1.8114    1.0000 </r>
       <r>    1.8794    1.0000 </r>
       <r>    1.9265    1.0000 </r>
       <r>    1.9446    1.0000 </r>
       <r>    1.9878    1.0000 </r>
       <r>    2.0290    1.0000 </r>
       <r>    2.1005    1.0000 </r>
       <r>    2.1456    1.0000 </r>
       <r>    2.1736    1.0000 </r>
       <r>    2.2443    1.0000 </r>
       <r>    2.3190    1.0000 </r>
       <r>    2.4602    1.0000 </r>
       <r>    2.5084    1.0000 </r>
       <r>    2.5227    1.0000 </r>
       <r>    2.5395    1.0000 </r>
       <r>    2.5644    1.0000 </r>
       <r>    2.5812    1.0000 </r>
       <r>    2.5873    1.0000 </r>
       <r>    2.5901    1.0000 </r>
       <r>    2.5945    1.0000 </r>
       <r>    2.6182    1.0000 </r>
       <r>    2.6433    1.0000 </r>
       <r>    2.6759    1.0000 </r>
       <r>    2.7476    1.0000 </r>
       <r>    2.7561    1.0000 </r>
       <r>    2.8001    1.0000 </r>
       <r>    2.8143    1.0000 </r>
       <r>    2.8388    1.0000 </r>
       <r>    2.8563    1.0000 </r>
       <r>    2.8819    1.0000 </r>
       <r>    2.9216    1.0000 </r>
       <r>    2.9586    1.0000 </r>
       <r>    2.9694    1.0000 </r>
       <r>    3.0024    1.0000 </r>
       <r>    3.0269    1.0000 </r>
       <r>    3.0729    1.0000 </r>
       <r>    3.0968    1.0000 </r>
       <r>    3.1348    1.0000 </r>
       <r>    3.2932    1.0000 </r>
       <r>    3.3342    1.0000 </r>
       <r>    3.3789    1.0000 </r>
       <r>    3.4108    1.0000 </r>
       <r>    3.4276    1.0000 </r>
       <r>    3.4734    1.0000 </r>
       <r>    3.4971    1.0000 </r>
       <r>    3.5234    1.0000 </r>
       <r>    3.5779    1.0000 </r>
       <r>    4.2481    1.0000 </r>
       <r>    4.2531    1.0000 </r>
       <r>    4.2745    1.0000 </r>
       <r>    4.2844    1.0000 </r>
       <r>    5.1648    0.0000 </r>
       <r>    5.1669    0.0000 </r>
       <r>    5.2036    0.0000 </r>
       <r>    5.2056    0.0000 </r>
       <r>    5.7705    0.0000 </r>
       <r>    5.7789    0.0000 </r>
       <r>    5.8120    0.0000 </r>
       <r>    5.8166    0.0000 </r>
       <r>    6.1639    0.0000 </r>
       <r>    6.1773    0.0000 </r>
       <r>    6.1936    0.0000 </r>
       <r>    6.2021    0.0000 </r>
       <r>    6.2534    0.0000 </r>
       <r>    6.2583    0.0000 </r>
       <r>    6.2819    0.0000 </r>
       <r>    6.2978    0.0000 </r>
       <r>    6.7902    0.0000 </r>
       <r>    6.8804    0.0000 </r>
       <r>    6.9866    0.0000 </r>
       <r>    7.0707    0.0000 </r>
       <r>    7.2382    0.0000 </r>
       <r>    7.4045    0.0000 </r>
       <r>    7.4448    0.0000 </r>
       <r>    7.5270    0.0000 </r>
       <r>    7.7520    0.0000 </r>
       <r>    7.8427    0.0000 </r>
       <r>    7.9410    0.0000 </r>
       <r>    7.9652    0.0000 </r>
       <r>    8.0299    0.0000 </r>
       <r>    8.3098    0.0000 </r>
       <r>    8.3437    0.0000 </r>
       <r>    8.4775    0.0000 </r>
       <r>    8.7155    0.0000 </r>
       <r>    8.7690    0.0000 </r>
       <r>    8.9469    0.0000 </r>
       <r>    8.9559    0.0000 </r>
       <r>    9.0231    0.0000 </r>
       <r>    9.0389    0.0000 </r>
       <r>    9.0473    0.0000 </r>
       <r>    9.1089    0.0000 </r>
       <r>    9.1463    0.0000 </r>
       <r>    9.1487    0.0000 </r>
       <r>    9.1771    0.0000 </r>
       <r>    9.2074    0.0000 </r>
       <r>    9.4873    0.0000 </r>
       <r>    9.6198    0.0000 </r>
      </set>
      <set comment="kpoint 4">
       <r>  -40.2590    1.0000 </r>
       <r>  -40.0255    1.0000 </r>
       <r>  -40.0123    1.0000 </r>
       <r>  -39.8884    1.0000 </r>
       <r>  -39.8453    1.0000 </r>
       <r>  -39.7612    1.0000 </r>
       <r>  -39.5605    1.0000 </r>
       <r>  -39.5588    1.0000 </r>
       <r>  -39.4460    1.0000 </r>
       <r>  -39.4014    1.0000 </r>
       <r>  -18.9258    1.0000 </r>
       <r>  -18.9143    1.0000 </r>
       <r>  -18.8552    1.0000 </r>
       <r>  -18.8483    1.0000 </r>
       <r>  -18.8456    1.0000 </r>
       <r>  -18.8385    1.0000 </r>
       <r>  -18.7517    1.0000 </r>
       <r>  -18.7447    1.0000 </r>
       <r>  -18.7390    1.0000 </r>
       <r>  -18.7235    1.0000 </r>
       <r>  -18.7153    1.0000 </r>
       <r>  -18.7109    1.0000 </r>
       <r>  -18.7052    1.0000 </r>
       <r>  -18.7010    1.0000 </r>
       <r>  -18.6988    1.0000 </r>
       <r>  -18.6924    1.0000 </r>
       <r>  -18.6520    1.0000 </r>
       <r>  -18.6442    1.0000 </r>
       <r>  -18.6428    1.0000 </r>
       <r>  -18.6418    1.0000 </r>
       <r>  -18.6416    1.0000 </r>
       <r>  -18.6413    1.0000 </r>
       <r>  -18.6390    1.0000 </r>
       <r>  -18.6380    1.0000 </r>
       <r>  -18.6373    1.0000 </r>
       <r>  -18.6368    1.0000 </r>
       <r>  -18.6323    1.0000 </r>
       <r>  -18.6319    1.0000 </r>
       <r>  -18.6316    1.0000 </r>
       <r>  -18.6313    1.0000 </r>
       <r>  -18.6307    1.0000 </r>
       <r>  -18.6298    1.0000 </r>
       <r>  -18.6286    1.0000 </r>
       <r>  -18.6261    1.0000 </r>
       <r>  -18.6254    1.0000 </r>
       <r>  -18.6227    1.0000 </r>
       <r>  -18.6221    1.0000 </r>
       <r>  -18.6202    1.0000 </r>
       <r>  -18.6187    1.0000 </r>
       <r>  -18.6178    1.0000 </r>
       <r>  -18.5733    1.0000 </r>
       <r>  -18.5631    1.0000 </r>
       <r>  -18.5590    1.0000 </r>
       <r>  -18.5589    1.0000 </r>
       <r>  -18.5542    1.0000 </r>
       <r>  -18.5497    1.0000 </r>
       <r>  -18.5494    1.0000 </r>
       <r>  -18.5421    1.0000 </r>
       <r>  -18.5398    1.0000 </r>
       <r>  -18.5397    1.0000 </r>
       <r>  -18.4932    1.0000 </r>
       <r>  -18.4922    1.0000 </r>
       <r>  -18.4850    1.0000 </r>
       <r>  -18.4842    1.0000 </r>
       <r>  -18.4829    1.0000 </r>
       <r>  -18.4812    1.0000 </r>
       <r>  -18.4794    1.0000 </r>
       <r>  -18.4777    1.0000 </r>
       <r>  -18.4745    1.0000 </r>
       <r>  -18.4740    1.0000 </r>
[...]
       <r>    8.8822    0.0000 </r>
       <r>    8.8918    0.0000 </r>
       <r>    8.9056    0.0000 </r>
       <r>    8.9158    0.0000 </r>
       <r>    8.9237    0.0000 </r>
      </set>
     </set>
    </set>
   </array>
  </eigenvalues>
  <separator name="orbital magnetization" >
   <v name="MAGDIPOLOUT">      0.00000000      0.00000000      0.00000000</v>
  </separator>
  <dos>
   <i name="efermi">      4.31158112 </i>
   <total>
    <array>
     <dimension dim="1">gridpoints</dimension>
     <dimension dim="2">spin</dimension>
     <field>energy</field>
     <field>total</field>
     <field>integrated</field>
     <set>
      <set comment="spin 1">
       <r>   -42.7539     0.0000     0.0000 </r>
       <r>   -42.5709     0.0000     0.0000 </r>
       <r>   -42.3880     0.0000     0.0000 </r>
       <r>   -42.2050     0.0000     0.0000 </r>
       <r>   -42.0221     0.0000     0.0000 </r>
       <r>   -41.8391     0.0000     0.0000 </r>
       <r>   -41.6562     0.0000     0.0000 </r>
       <r>   -41.4732     0.0000     0.0000 </r>
       <r>   -41.2902     0.0000     0.0000 </r>
       <r>   -41.1073     0.0000     0.0000 </r>
       <r>   -40.9243     0.0000     0.0000 </r>
       <r>   -40.7414     0.0000     0.0000 </r>
       <r>   -40.5584     0.0000     0.0000 </r>
       <r>   -40.3755     0.0000     0.0000 </r>
       <r>   -40.1925     0.0000     2.0000 </r>
       <r>   -40.0095     0.0000     6.0000 </r>
       <r>   -39.8266     0.0000    10.0000 </r>
       <r>   -39.6436     0.0000    12.0000 </r>
       <r>   -39.4607     0.0000    16.0000 </r>
       <r>   -39.2777     0.0000    20.0000 </r>
       <r>   -39.0948     0.0000    20.0000 </r>
       <r>   -38.9118     0.0000    20.0000 </r>
       <r>   -38.7289     0.0000    20.0000 </r>
       <r>   -38.5459     0.0000    20.0000 </r>
       <r>   -38.3629     0.0000    20.0000 </r>
       <r>   -38.1800     0.0000    20.0000 </r>
       <r>   -37.9970     0.0000    20.0000 </r>
       <r>   -37.8141     0.0000    20.0000 </r>
       <r>   -37.6311     0.0000    20.0000 </r>
       <r>   -37.4482     0.0000    20.0000 </r>
       <r>   -37.2652     0.0000    20.0000 </r>
       <r>   -37.0822     0.0000    20.0000 </r>
       <r>   -36.8993     0.0000    20.0000 </r>
       <r>   -36.7163     0.0000    20.0000 </r>
       <r>   -36.5334     0.0000    20.0000 </r>
       <r>   -36.3504     0.0000    20.0000 </r>
       <r>   -36.1675     0.0000    20.0000 </r>
       <r>   -35.9845     0.0000    20.0000 </r>
       <r>   -35.8016     0.0000    20.0000 </r>
       <r>   -35.6186     0.0000    20.0000 </r>
       <r>   -35.4356     0.0000    20.0000 </r>
       <r>   -35.2527     0.0000    20.0000 </r>
       <r>   -35.0697     0.0000    20.0000 </r>
       <r>   -34.8868     0.0000    20.0000 </r>
       <r>   -34.7038     0.0000    20.0000 </r>
       <r>   -34.5209     0.0000    20.0000 </r>
       <r>   -34.3379     0.0000    20.0000 </r>
       <r>   -34.1549     0.0000    20.0000 </r>
       <r>   -33.9720     0.0000    20.0000 </r>
       <r>   -33.7890     0.0000    20.0000 </r>
       <r>   -33.6061     0.0000    20.0000 </r>
       <r>   -33.4231     0.0000    20.0000 </r>
       <r>   -33.2402     0.0000    20.0000 </r>
       <r>   -33.0572     0.0000    20.0000 </r>
       <r>   -32.8743     0.0000    20.0000 </r>
       <r>   -32.6913     0.0000    20.0000 </r>
       <r>   -32.5083     0.0000    20.0000 </r>
       <r>   -32.3254     0.0000    20.0000 </r>
       <r>   -32.1424     0.0000    20.0000 </r>
       <r>   -31.9595     0.0000    20.0000 </r>
       <r>   -31.7765     0.0000    20.0000 </r>
       <r>   -31.5936     0.0000    20.0000 </r>
       <r>   -31.4106     0.0000    20.0000 </r>
       <r>   -31.2276     0.0000    20.0000 </r>
       <r>   -31.0447     0.0000    20.0000 </r>
       <r>   -30.8617     0.0000    20.0000 </r>
       <r>   -30.6788     0.0000    20.0000 </r>
       <r>   -30.4958     0.0000    20.0000 </r>
       <r>   -30.3129     0.0000    20.0000 </r>
       <r>   -30.1299     0.0000    20.0000 </r>
       <r>   -29.9470     0.0000    20.0000 </r>
       <r>   -29.7640     0.0000    20.0000 </r>
       <r>   -29.5810     0.0000    20.0000 </r>
       <r>   -29.3981     0.0000    20.0000 </r>
       <r>   -29.2151     0.0000    20.0000 </r>
       <r>   -29.0322     0.0000    20.0000 </r>
       <r>   -28.8492     0.0000    20.0000 </r>
       <r>   -28.6663     0.0000    20.0000 </r>
       <r>   -28.4833     0.0000    20.0000 </r>
       <r>   -28.3004     0.0000    20.0000 </r>
       <r>   -28.1174     0.0000    20.0000 </r>
       <r>   -27.9344     0.0000    20.0000 </r>
       <r>   -27.7515     0.0000    20.0000 </r>
       <r>   -27.5685     0.0000    20.0000 </r>
       <r>   -27.3856     0.0000    20.0000 </r>
       <r>   -27.2026     0.0000    20.0000 </r>
       <r>   -27.0197     0.0000    20.0000 </r>
       <r>   -26.8367     0.0000    20.0000 </r>
       <r>   -26.6537     0.0000    20.0000 </r>
       <r>   -26.4708     0.0000    20.0000 </r>
       <r>   -26.2878     0.0000    20.0000 </r>
       <r>   -26.1049     0.0000    20.0000 </r>
       <r>   -25.9219     0.0000    20.0000 </r>
       <r>   -25.7390     0.0000    20.0000 </r>
       <r>   -25.5560     0.0000    20.0000 </r>
       <r>   -25.3731     0.0000    20.0000 </r>
       <r>   -25.1901     0.0000    20.0000 </r>
       <r>   -25.0071     0.0000    20.0000 </r>
       <r>   -24.8242     0.0000    20.0000 </r>
       <r>   -24.6412     0.0000    20.0000 </r>
       <r>   -24.4583     0.0000    20.0000 </r>
       <r>   -24.2753     0.0000    20.0000 </r>
       <r>   -24.0924     0.0000    20.0000 </r>
       <r>   -23.9094     0.0000    20.0000 </r>
       <r>   -23.7264     0.0000    20.0000 </r>
       <r>   -23.5435     0.0000    20.0000 </r>
       <r>   -23.3605     0.0000    20.0000 </r>
       <r>   -23.1776     0.0000    20.0000 </r>
       <r>   -22.9946     0.0000    20.0000 </r>
       <r>   -22.8117     0.0000    20.0000 </r>
       <r>   -22.6287     0.0000    20.0000 </r>
       <r>   -22.4458     0.0000    20.0000 </r>
       <r>   -22.2628     0.0000    20.0000 </r>
       <r>   -22.0798     0.0000    20.0000 </r>
       <r>   -21.8969     0.0000    20.0000 </r>
       <r>   -21.7139     0.0000    20.0000 </r>
       <r>   -21.5310     0.0000    20.0000 </r>
       <r>   -21.3480     0.0000    20.0000 </r>
       <r>   -21.1651     0.0000    20.0000 </r>
       <r>   -20.9821     0.0000    20.0000 </r>
       <r>   -20.7991     0.0000    20.0000 </r>
       <r>   -20.6162     0.0000    20.0000 </r>
       <r>   -20.4332     0.0000    20.0000 </r>
       <r>   -20.2503     0.0000    20.0000 </r>
       <r>   -20.0673     0.0000    20.0000 </r>
       <r>   -19.8844     0.0000    20.0000 </r>
       <r>   -19.7014     0.0000    20.0000 </r>
       <r>   -19.5185     0.0000    20.0000 </r>
       <r>   -19.3355     0.0000    20.0000 </r>
       <r>   -19.1525     0.0000    20.0000 </r>
       <r>   -18.9696     0.0000    20.0000 </r>
       <r>   -18.7866     0.0000    32.0000 </r>
       <r>   -18.6037     0.0000   100.0000 </r>
       <r>   -18.4207     0.0000   152.0000 </r>
       <r>   -18.2378     0.0000   172.0000 </r>
       <r>   -18.0548     0.0000   180.0000 </r>
       <r>   -17.8719     0.0000   180.0000 </r>
       <r>   -17.6889     0.0000   180.0000 </r>
       <r>   -17.5059     0.0000   180.0000 </r>
       <r>   -17.3230     0.0000   180.0000 </r>
       <r>   -17.1400     0.0000   180.0000 </r>
       <r>   -16.9571     0.0000   180.0000 </r>
       <r>   -16.7741     0.0000   180.0000 </r>
       <r>   -16.5912     0.0000   180.0000 </r>
       <r>   -16.4082     0.0000   180.0000 </r>
       <r>   -16.2252     0.0000   180.0000 </r>
       <r>   -16.0423     0.0000   180.0000 </r>
       <r>   -15.8593     0.0000   180.0000 </r>
       <r>   -15.6764     0.0000   180.0000 </r>
       <r>   -15.4934     0.0000   180.0000 </r>
       <r>   -15.3105     0.0000   180.0000 </r>
       <r>   -15.1275     0.0000   180.0000 </r>
       <r>   -14.9446     0.0000   180.0000 </r>
       <r>   -14.7616     0.0000   180.0000 </r>
       <r>   -14.5786     0.0000   180.0000 </r>
       <r>   -14.3957     0.0000   180.0000 </r>
       <r>   -14.2127     0.0000   180.0000 </r>
       <r>   -14.0298     0.0000   180.0000 </r>
       <r>   -13.8468     0.0000   180.0000 </r>
       <r>   -13.6639     0.0000   180.0000 </r>
       <r>   -13.4809     0.0000   182.0000 </r>
       <r>   -13.2979     0.0000   184.0000 </r>
       <r>   -13.1150     0.0000   184.0000 </r>
       <r>   -12.9320     0.0000   184.0000 </r>
       <r>   -12.7491     3.3121   192.0010 </r>
       <r>   -12.5661     0.0000   208.0000 </r>
       <r>   -12.3832     0.0000   208.0000 </r>
       <r>   -12.2002     0.0000   208.0000 </r>
       <r>   -12.0173     0.0000   208.0000 </r>
       <r>   -11.8343     0.0000   212.0000 </r>
       <r>   -11.6513     0.0000   212.0000 </r>
       <r>   -11.4684     0.0000   212.0000 </r>
       <r>   -11.2854     0.0000   212.0000 </r>
       <r>   -11.1025     0.0000   212.0000 </r>
       <r>   -10.9195     0.0000   212.0000 </r>
       <r>   -10.7366     0.0000   212.0000 </r>
       <r>   -10.5536     0.0000   212.0000 </r>
       <r>   -10.3706     0.0000   212.0000 </r>
       <r>   -10.1877     0.0000   212.0000 </r>
       <r>   -10.0047     0.0000   212.0000 </r>
       <r>    -9.8218     0.0000   212.0000 </r>
       <r>    -9.6388     0.0000   212.0000 </r>
       <r>    -9.4559     0.0000   212.0000 </r>
       <r>    -9.2729     3.1743   212.0676 </r>
       <r>    -9.0900    12.1034   213.6338 </r>
       <r>    -8.9070     0.0000   216.0000 </r>
       <r>    -8.7240    14.1601   218.5492 </r>
       <r>    -8.5411    13.8212   220.8853 </r>
       <r>    -8.3581    26.4028   225.4217 </r>
       <r>    -8.1752    24.0184   228.6090 </r>
       <r>    -7.9922    24.5611   233.2540 </r>
       <r>    -7.8093    16.5198   236.9801 </r>
       <r>    -7.6263    16.2907   240.0727 </r>
       <r>    -7.4434    10.6418   243.5019 </r>
       <r>    -7.2604     0.0000   244.0000 </r>
       <r>    -7.0774     0.0000   244.0000 </r>
       <r>    -6.8945     0.0000   244.0000 </r>
       <r>    -6.7115     0.0000   244.0000 </r>
       <r>    -6.5286     0.0000   244.0000 </r>
       <r>    -6.3456     0.6797   244.0047 </r>
       <r>    -6.1627    18.2983   245.6997 </r>
       <r>    -5.9797    17.8923   250.1546 </r>
       <r>    -5.7967    22.6298   253.5739 </r>
       <r>    -5.6138    24.1074   258.3816 </r>
       <r>    -5.4308    22.8222   262.3110 </r>
       <r>    -5.2479    16.5590   265.8955 </r>
       <r>    -5.0649     5.0014   267.8227 </r>
       <r>    -4.8820     7.1862   268.6956 </r>
       <r>    -4.6990     8.2459   270.1025 </r>
       <r>    -4.5161    10.0698   271.8513 </r>
       <r>    -4.3331     6.0940   273.2264 </r>
       <r>    -4.1501     6.8585   274.4997 </r>
       <r>    -3.9672     3.7593   275.4789 </r>
       <r>    -3.7842     1.1627   275.8941 </r>
       <r>    -3.6013     0.0563   275.9993 </r>
       <r>    -3.4183     0.0000   276.0000 </r>
       <r>    -3.2354     0.0000   276.0000 </r>
       <r>    -3.0524     0.0000   276.0000 </r>
       <r>    -2.8694     0.0000   276.0000 </r>
       <r>    -2.6865     0.0000   276.0000 </r>
       <r>    -2.5035     0.0000   276.0000 </r>
       <r>    -2.3206     0.0000   276.0000 </r>
       <r>    -2.1376     0.0000   276.0000 </r>
       <r>    -1.9547     0.0000   276.0000 </r>
       <r>    -1.7717     0.0000   276.0000 </r>
       <r>    -1.5888     0.0000   276.0000 </r>
       <r>    -1.4058     0.0031   276.0000 </r>
       <r>    -1.2228     6.8426   276.4572 </r>
       <r>    -1.0399    10.4243   278.1188 </r>
       <r>    -0.8569    12.8621   280.3917 </r>
       <r>    -0.6740     8.0144   282.3127 </r>
       <r>    -0.4910     7.0023   283.4487 </r>
       <r>    -0.3081    21.0021   286.3522 </r>
       <r>    -0.1251    31.6969   290.8914 </r>
       <r>     0.0579    36.9552   297.9143 </r>
       <r>     0.2408    29.2930   303.7026 </r>
       <r>     0.4238    39.0178   310.9896 </r>
       <r>     0.6067    43.0963   318.1475 </r>
       <r>     0.7897    22.7136   324.8194 </r>
       <r>     0.9726    42.4483   331.1557 </r>
       <r>     1.1556    43.4377   339.4735 </r>
       <r>     1.3385    47.6403   347.5121 </r>
       <r>     1.5215    55.6320   356.0974 </r>
       <r>     1.7045    53.3083   365.6591 </r>
       <r>     1.8874    59.8691   375.4806 </r>
       <r>     2.0704    47.6971   383.1297 </r>
       <r>     2.2533    35.7971   390.9877 </r>
       <r>     2.4363    54.5546   398.9418 </r>
       <r>     2.6192    65.8549   410.7345 </r>
       <r>     2.8022    63.2571   422.8876 </r>
       <r>     2.9851    59.5219   435.2925 </r>
       <r>     3.1681    45.3079   446.0805 </r>
       <r>     3.3511    34.1108   452.7852 </r>
       <r>     3.5340    53.4476   459.6298 </r>
       <r>     3.7170    21.8177   463.7545 </r>
       <r>     3.8999    10.2438   466.2376 </r>
       <r>     4.0829     4.7789   467.6119 </r>
       <r>     4.2658     0.0384   467.9998 </r>
       <r>     4.4488     0.0000   468.0000 </r>
       <r>     4.6318     0.0000   468.0000 </r>
       <r>     4.8147     0.0000   468.0000 </r>
       <r>     4.9977     0.0000   468.0000 </r>
       <r>     5.1806     0.7126   468.0187 </r>
       <r>     5.3636     4.6340   468.5040 </r>
       <r>     5.5465     8.6081   469.7152 </r>
       <r>     5.7295     8.5632   471.4076 </r>
       <r>     5.9124    16.8316   475.4671 </r>
       <r>     6.0954    12.2842   477.9596 </r>
       <r>     6.2784    11.6254   480.0929 </r>
       <r>     6.4613    13.3251   482.3735 </r>
       <r>     6.6443    15.0282   484.9675 </r>
       <r>     6.8272    16.7327   487.8724 </r>
       <r>     7.0102    19.3487   491.1464 </r>
       <r>     7.1931    28.0135   495.3405 </r>
       <r>     7.3761    40.3234   501.7038 </r>
       <r>     7.5591    25.4462   508.9247 </r>
       <r>     7.7420    39.6259   513.9979 </r>
       <r>     7.9250    49.6054   522.3640 </r>
       <r>     8.1079    26.9521   529.8205 </r>
       <r>     8.2909    19.1181   533.8304 </r>
       <r>     8.4738    20.1194   537.2886 </r>
       <r>     8.6568    27.0575   541.6158 </r>
       <r>     8.8397    43.3128   547.0930 </r>
       <r>     9.0227    30.5146   554.8299 </r>
       <r>     9.2057    10.0324   558.3441 </r>
       <r>     9.3886     4.1963   559.5977 </r>
       <r>     9.5716     0.7005   559.9797 </r>
       <r>     9.7545     0.0000   560.0000 </r>
       <r>     9.9375     0.0000   560.0000 </r>
       <r>    10.1204     0.0000   560.0000 </r>
       <r>    10.3034     0.0000   560.0000 </r>
       <r>    10.4864     0.0000   560.0000 </r>
       <r>    10.6693     0.0000   560.0000 </r>
       <r>    10.8523     0.0000   560.0000 </r>
       <r>    11.0352     0.0000   560.0000 </r>
       <r>    11.2182     0.0000   560.0000 </r>
       <r>    11.4011     0.0000   560.0000 </r>
       <r>    11.5841     0.0000   560.0000 </r>
       <r>    11.7670     0.0000   560.0000 </r>
       <r>    11.9500     0.0000   560.0000 </r>
       <r>    12.1330     0.0000   560.0000 </r>
      </set>
     </set>
    </array>
   </total>
  </dos>
 </calculation>
 <structure name="finalpos" >
  <crystal>
   <varray name="basis" >
    <v>      11.17850000       0.00000000       0.00000000 </v>
    <v>       0.00000000       9.57460000       0.00000000 </v>
    <v>       0.00000000       0.00000000      11.18240000 </v>
   </varray>
   <i name="volume">   1196.84853820 </i>
   <varray name="rec_basis" >
    <v>       0.08945744       0.00000000       0.00000000 </v>
    <v>       0.00000000       0.10444301       0.00000000 </v>
    <v>       0.00000000       0.00000000       0.08942624 </v>
   </varray>
  </crystal>
  <varray name="positions" >
   <v>       0.37539000       0.00017000       0.43687000 </v>
   <v>       0.12461000       0.99984000       0.18687000 </v>
   <v>       0.37461000       0.00017000       0.18687000 </v>
   <v>       0.62539000       0.99984000       0.43687000 </v>
   <v>       0.87461000       0.00017000       0.18687000 </v>
   <v>       0.12539000       0.99984000       0.93687000 </v>
   <v>       0.37539000       0.00017000       0.93687000 </v>
   <v>       0.12461000       0.99984000       0.68687000 </v>
   <v>       0.87539000       0.00017000       0.93687000 </v>
   <v>       0.87461000       0.00017000       0.68687000 </v>
   <v>       0.87539000       0.00017000       0.43687000 </v>
   <v>       0.37461000       0.00017000       0.68687000 </v>
   <v>       0.62539000       0.99984000       0.93687000 </v>
   <v>       0.00013000       0.29519000       0.06281000 </v>
   <v>       0.25013000       0.70481000       0.06281000 </v>
   <v>       0.24987000       0.29519000       0.31282000 </v>
   <v>       0.49987000       0.70481000       0.31282000 </v>
   <v>       0.50013000       0.29519000       0.06281000 </v>
   <v>       0.75013000       0.70481000       0.06281000 </v>
   <v>       0.74987000       0.29519000       0.31282000 </v>
   <v>       0.99987000       0.70481000       0.31282000 </v>
   <v>       0.00013000       0.29519000       0.56281000 </v>
   <v>       0.25013000       0.70481000       0.56281000 </v>
   <v>       0.24987000       0.29519000       0.81282000 </v>
   <v>       0.49987000       0.70481000       0.81282000 </v>
   <v>       0.50013000       0.29519000       0.56281000 </v>
   <v>       0.75013000       0.70481000       0.56281000 </v>
   <v>       0.74987000       0.29519000       0.81282000 </v>
   <v>       0.99987000       0.70481000       0.81282000 </v>
   <v>       0.25005000       0.32677000       0.06286000 </v>
   <v>       0.00005000       0.67323000       0.06286000 </v>
   <v>       0.49995000       0.32677000       0.31286000 </v>
   <v>       0.24995000       0.67323000       0.31286000 </v>
   <v>       0.75005000       0.32677000       0.06286000 </v>
   <v>       0.50005000       0.67323000       0.06286000 </v>
   <v>       0.99995000       0.32677000       0.31286000 </v>
   <v>       0.74995000       0.67323000       0.31286000 </v>
   <v>       0.25005000       0.32677000       0.56286000 </v>
   <v>       0.00005000       0.67323000       0.56286000 </v>
   <v>       0.49995000       0.32677000       0.81286000 </v>
   <v>       0.24995000       0.67323000       0.81286000 </v>
   <v>       0.75005000       0.32677000       0.56286000 </v>
   <v>       0.50005000       0.67323000       0.56286000 </v>
   <v>       0.99995000       0.32677000       0.81286000 </v>
   <v>       0.74995000       0.67323000       0.81286000 </v>
   <v>       0.49987000       0.07798000       0.06246000 </v>
   <v>       0.24987000       0.92202000       0.06246000 </v>
   <v>       0.25013000       0.07798000       0.31246000 </v>
   <v>       0.00013000       0.92202000       0.31246000 </v>
   <v>       0.99987000       0.07798000       0.06246000 </v>
   <v>       0.74987000       0.92202000       0.06246000 </v>
   <v>       0.75013000       0.07798000       0.31246000 </v>
   <v>       0.50013000       0.92202000       0.31246000 </v>
   <v>       0.49987000       0.07798000       0.56246000 </v>
   <v>       0.24987000       0.92202000       0.56246000 </v>
   <v>       0.25013000       0.07798000       0.81246000 </v>
   <v>       0.00013000       0.92202000       0.81246000 </v>
   <v>       0.99987000       0.07798000       0.56246000 </v>
   <v>       0.74987000       0.92202000       0.56246000 </v>
   <v>       0.75013000       0.07798000       0.81246000 </v>
   <v>       0.50013000       0.92202000       0.81246000 </v>
  </varray>
 </structure>
</modeling>
