<?xml version="1.0" encoding="ISO-8859-1"?>
<modeling>
 <generator>
  <i name="program" type="string">vasp </i>
  <i name="version" type="string">5.4.4.18Apr17-6-g9f103f2a35  </i>
  <i name="subversion" type="string">(build Jul 31 2017 11:33:29) complex            parallel </i>
  <i name="platform" type="string">LinuxIFC </i>
  <i name="date" type="string">2021 09 23 </i>
  <i name="time" type="string">10:58:02 </i>
 </generator>
 <incar>
  <i type="string" name="SYSTEM"> La2O2S</i>
  <i type="string" name="PREC">normal</i>
  <i type="int" name="NELMIN">     4</i>
  <i type="int" name="IBRION">     2</i>
  <i type="int" name="NFREE">    10</i>
  <i name="EDIFF">      0.00000100</i>
  <i name="EDIFFG">     -0.01000000</i>
  <i type="int" name="NSW">   200</i>
  <i type="int" name="ISIF">     3</i>
  <i name="ENCUT">    600.00000000</i>
  <i name="ENAUG">    900.00000000</i>
  <i type="int" name="ISMEAR">    -5</i>
  <i type="logical" name="LWAVE"> F  </i>
  <i type="logical" name="LCHARG"> F  </i>
  <v type="int" name="KPOINT_BSE">    -1     0     0     0</v>
 </incar>
 <structure name="primitive_cell" >
  <crystal>
   <varray name="basis" >
    <v>      11.17850000       0.00000000       0.00000000 </v>
    <v>       0.00000000       9.57460000       0.00000000 </v>
    <v>       0.00000000       0.00000000      11.18240000 </v>
   </varray>
   <i name="volume">   1196.84853820 </i>
   <varray name="rec_basis" >
    <v>       0.08945744       0.00000000       0.00000000 </v>
    <v>       0.00000000       0.10444301       0.00000000 </v>
    <v>       0.00000000       0.00000000       0.08942624 </v>
   </varray>
  </crystal>
  <varray name="positions" >
   <v>       0.37539000       0.00017000       0.43687000 </v>
   <v>      -0.49987000      -0.07798000       0.31246000 </v>
   <v>       0.25013000       0.07798000       0.31246000 </v>
   <v>       0.49987000       0.07798000      -0.43754000 </v>
   <v>       0.24987000      -0.07798000      -0.43754000 </v>
   <v>       0.37461000       0.00017000      -0.31313000 </v>
   <v>       0.49987000      -0.29519000       0.31282000 </v>
   <v>       0.24987000       0.29519000       0.31282000 </v>
   <v>      -0.49987000       0.29519000      -0.43719000 </v>
   <v>       0.25013000      -0.29519000      -0.43719000 </v>
   <v>       0.49995000       0.32677000       0.31286000 </v>
   <v>       0.24995000      -0.32677000       0.31286000 </v>
   <v>      -0.49995000      -0.32677000      -0.43714000 </v>
   <v>       0.25005000       0.32677000      -0.43714000 </v>
   <v>      -0.37539000      -0.00016000       0.18687000 </v>
   <v>      -0.37539000      -0.00016000      -0.31313000 </v>
   <v>       0.12461000      -0.00016000       0.18687000 </v>
   <v>       0.12461000      -0.00016000      -0.31313000 </v>
   <v>       0.49987000       0.07798000       0.06246000 </v>
   <v>      -0.24987000       0.07798000       0.31246000 </v>
   <v>      -0.25013000      -0.07798000      -0.43754000 </v>
   <v>       0.24987000      -0.07798000       0.06246000 </v>
   <v>       0.00013000      -0.07798000       0.31246000 </v>
   <v>      -0.49987000      -0.07798000      -0.18754000 </v>
   <v>      -0.00013000       0.07798000      -0.43754000 </v>
   <v>       0.25013000       0.07798000      -0.18754000 </v>
   <v>      -0.49987000       0.29519000       0.06281000 </v>
   <v>      -0.25013000       0.29519000       0.31282000 </v>
   <v>       0.25013000      -0.29519000       0.06281000 </v>
   <v>      -0.24987000      -0.29519000      -0.43719000 </v>
   <v>      -0.00013000      -0.29519000       0.31282000 </v>
   <v>       0.00013000       0.29519000      -0.43719000 </v>
   <v>       0.49987000      -0.29519000      -0.18718000 </v>
   <v>       0.24987000       0.29519000      -0.18718000 </v>
   <v>      -0.49995000      -0.32677000       0.06286000 </v>
   <v>       0.25005000       0.32677000       0.06286000 </v>
   <v>      -0.25005000      -0.32677000       0.31286000 </v>
   <v>      -0.24995000       0.32677000      -0.43714000 </v>
   <v>      -0.00005000       0.32677000       0.31286000 </v>
   <v>       0.00005000      -0.32677000      -0.43714000 </v>
   <v>       0.49995000       0.32677000      -0.18714000 </v>
   <v>       0.24995000      -0.32677000      -0.18714000 </v>
   <v>      -0.12461000       0.00017000       0.43687000 </v>
   <v>       0.37539000       0.00017000      -0.06313000 </v>
   <v>      -0.25013000      -0.07798000       0.06246000 </v>
   <v>      -0.00013000       0.07798000       0.06246000 </v>
   <v>      -0.24987000       0.07798000      -0.18754000 </v>
   <v>       0.00013000      -0.07798000      -0.18754000 </v>
   <v>      -0.12539000       0.00017000       0.18687000 </v>
   <v>      -0.12539000       0.00017000      -0.31313000 </v>
   <v>       0.12539000      -0.00016000      -0.06313000 </v>
   <v>      -0.37461000      -0.00016000      -0.06313000 </v>
   <v>      -0.24987000      -0.29519000       0.06281000 </v>
   <v>       0.00013000       0.29519000       0.06281000 </v>
   <v>      -0.25013000       0.29519000      -0.18718000 </v>
   <v>      -0.00013000      -0.29519000      -0.18718000 </v>
   <v>      -0.24995000       0.32677000       0.06286000 </v>
   <v>       0.00005000      -0.32677000       0.06286000 </v>
   <v>      -0.25005000      -0.32677000      -0.18714000 </v>
   <v>      -0.00005000       0.32677000      -0.18714000 </v>
   <v>      -0.12461000       0.00017000      -0.06313000 </v>
  </varray>
 </structure>
 <varray name="primitive_index" >
  <v type="int" >        1 </v>
  <v type="int" >       53 </v>
  <v type="int" >       48 </v>
  <v type="int" >       54 </v>
  <v type="int" >       55 </v>
  <v type="int" >        8 </v>
  <v type="int" >       17 </v>
  <v type="int" >       16 </v>
  <v type="int" >       26 </v>
  <v type="int" >       23 </v>
  <v type="int" >       32 </v>
  <v type="int" >       33 </v>
  <v type="int" >       43 </v>
  <v type="int" >       38 </v>
  <v type="int" >        3 </v>
  <v type="int" >       10 </v>
  <v type="int" >        2 </v>
  <v type="int" >        7 </v>
  <v type="int" >       46 </v>
  <v type="int" >       52 </v>
  <v type="int" >       59 </v>
  <v type="int" >       47 </v>
  <v type="int" >       49 </v>
  <v type="int" >       61 </v>
  <v type="int" >       58 </v>
  <v type="int" >       56 </v>
  <v type="int" >       18 </v>
  <v type="int" >       20 </v>
  <v type="int" >       15 </v>
  <v type="int" >       27 </v>
  <v type="int" >       21 </v>
  <v type="int" >       22 </v>
  <v type="int" >       25 </v>
  <v type="int" >       24 </v>
  <v type="int" >       35 </v>
  <v type="int" >       30 </v>
  <v type="int" >       37 </v>
  <v type="int" >       42 </v>
  <v type="int" >       36 </v>
  <v type="int" >       39 </v>
  <v type="int" >       40 </v>
  <v type="int" >       41 </v>
  <v type="int" >       11 </v>
  <v type="int" >        6 </v>
  <v type="int" >       51 </v>
  <v type="int" >       50 </v>
  <v type="int" >       60 </v>
  <v type="int" >       57 </v>
  <v type="int" >        4 </v>
  <v type="int" >       13 </v>
  <v type="int" >        5 </v>
  <v type="int" >        9 </v>
  <v type="int" >       19 </v>
  <v type="int" >       14 </v>
  <v type="int" >       28 </v>
  <v type="int" >       29 </v>
  <v type="int" >       34 </v>
  <v type="int" >       31 </v>
  <v type="int" >       45 </v>
  <v type="int" >       44 </v>
  <v type="int" >       12 </v>
 </varray>
 <kpoints>
  <generation param="Gamma">
   <v type="int" name="divisions">       2        2        2 </v>
   <v name="usershift">      0.00000000       0.00000000       0.00000000 </v>
   <v name="genvec1">      0.50000000       0.00000000       0.00000000 </v>
   <v name="genvec2">      0.00000000       0.50000000       0.00000000 </v>
   <v name="genvec3">      0.00000000       0.00000000       0.50000000 </v>
   <v name="shift">      0.00000000       0.00000000       0.00000000 </v>
  </generation>
  <varray name="kpointlist" >
   <v>       0.00000000       0.00000000       0.00000000 </v>
   <v>       0.50000000       0.00000000       0.00000000 </v>
   <v>       0.00000000       0.50000000       0.00000000 </v>
   <v>       0.50000000       0.50000000       0.00000000 </v>
   <v>       0.00000000       0.00000000       0.50000000 </v>
   <v>       0.50000000       0.00000000       0.50000000 </v>
   <v>       0.00000000       0.50000000       0.50000000 </v>
   <v>       0.50000000       0.50000000       0.50000000 </v>
  </varray>
  <varray name="weights" >
   <v>       0.12500000 </v>
   <v>       0.12500000 </v>
   <v>       0.12500000 </v>
   <v>       0.12500000 </v>
   <v>       0.12500000 </v>
   <v>       0.12500000 </v>
   <v>       0.12500000 </v>
   <v>       0.12500000 </v>
  </varray>
  <varray name="tetrahedronlist"  type="int" >
   <v type="int" >        2        1        2        4        5 </v>
   <v type="int" >        2        1        3        4        5 </v>
   <v type="int" >        2        3        4        5        7 </v>
   <v type="int" >        2        2        4        5        6 </v>
   <v type="int" >        2        4        5        6        8 </v>
   <v type="int" >        2        4        5        7        8 </v>
   <v type="int" >        2        1        2        3        6 </v>
   <v type="int" >        2        2        3        4        6 </v>
   <v type="int" >        2        3        4        6        8 </v>
   <v type="int" >        2        1        3        5        6 </v>
   <v type="int" >        2        3        5        6        7 </v>
   <v type="int" >        2        3        6        7        8 </v>
   <v type="int" >        2        2        3        4        7 </v>
   <v type="int" >        2        1        2        3        7 </v>
   <v type="int" >        2        1        2        5        7 </v>
   <v type="int" >        2        2        4        7        8 </v>
   <v type="int" >        2        2        6        7        8 </v>
   <v type="int" >        2        2        5        6        7 </v>
   <v type="int" >        2        1        3        4        8 </v>
   <v type="int" >        2        1        2        4        8 </v>
   <v type="int" >        2        1        2        6        8 </v>
   <v type="int" >        2        1        3        7        8 </v>
   <v type="int" >        2        1        5        7        8 </v>
   <v type="int" >        2        1        5        6        8 </v>
  </varray>
  <i name="volumeweight">      0.02083333 </i>
 </kpoints>
 <parameters>
  <separator name="general" >
   <i type="string" name="SYSTEM">La2O2S</i>
   <i type="logical" name="LCOMPAT"> F  </i>
  </separator>
  <separator name="electronic" >
   <i type="string" name="PREC">normal</i>
   <i name="ENMAX">    600.00000000</i>
   <i name="ENAUG">    900.00000000</i>
   <i name="EDIFF">      0.00000100</i>
   <i type="int" name="IALGO">    38</i>
   <i type="int" name="IWAVPR">    11</i>
   <i type="int" name="NBANDS">   280</i>
   <i name="NELECT">    468.00000000</i>
   <i type="int" name="TURBO">     0</i>
   <i type="int" name="IRESTART">     0</i>
   <i type="int" name="NREBOOT">     0</i>
   <i type="int" name="NMIN">     0</i>
   <i name="EREF">      0.00000000</i>
   <separator name="electronic smearing" >
    <i type="int" name="ISMEAR">    -5</i>
    <i name="SIGMA">      0.20000000</i>
    <i name="KSPACING">      0.50000000</i>
    <i type="logical" name="KGAMMA"> T  </i>
   </separator>
   <separator name="electronic projectors" >
    <i type="logical" name="LREAL"> F  </i>
    <v name="ROPT">      0.00000000      0.00000000      0.00000000      0.00000000      0.00000000</v>
    <i type="int" name="LMAXPAW">  -100</i>
    <i type="int" name="LMAXMIX">     2</i>
    <i type="logical" name="NLSPLINE"> F  </i>
   </separator>
   <separator name="electronic startup" >
    <i type="int" name="ISTART">     0</i>
    <i type="int" name="ICHARG">     2</i>
    <i type="int" name="INIWAV">     1</i>
   </separator>
   <separator name="electronic spin" >
    <i type="int" name="ISPIN">     1</i>
    <i type="logical" name="LNONCOLLINEAR"> F  </i>
    <v name="MAGMOM">      1.00000000      1.00000000      1.00000000      1.00000000      1.00000000      1.00000000      1.00000000      1.00000000      1.00000000      1.00000000      1.00000000      1.00000000      1.00000000      1.00000000      1.00000000      1.00000000      1.00000000      1.00000000      1.00000000      1.00000000
      1.00000000      1.00000000      1.00000000      1.00000000      1.00000000      1.00000000      1.00000000      1.00000000      1.00000000      1.00000000      1.00000000      1.00000000      1.00000000      1.00000000      1.00000000      1.00000000      1.00000000      1.00000000      1.00000000      1.00000000
      1.00000000      1.00000000      1.00000000      1.00000000      1.00000000      1.00000000      1.00000000      1.00000000      1.00000000      1.00000000      1.00000000      1.00000000      1.00000000      1.00000000      1.00000000      1.00000000      1.00000000      1.00000000      1.00000000      1.00000000
      1.00000000</v>
    <i name="NUPDOWN">     -1.00000000</i>
    <i type="logical" name="LSORBIT"> F  </i>
    <v name="SAXIS">      0.00000000      0.00000000      1.00000000</v>
    <i type="logical" name="LSPIRAL"> F  </i>
    <v name="QSPIRAL">      0.00000000      0.00000000      0.00000000</v>
    <i type="logical" name="LZEROZ"> F  </i>
   </separator>
   <separator name="electronic exchange-correlation" >
    <i type="logical" name="LASPH"> F  </i>
    <i type="logical" name="LMETAGGA"> F  </i>
   </separator>
   <separator name="electronic convergence" >
    <i type="int" name="NELM">    60</i>
    <i type="int" name="NELMDL">    -5</i>
    <i type="int" name="NELMIN">     4</i>
    <i name="ENINI">    600.00000000</i>
    <separator name="electronic convergence detail" >
     <i type="logical" name="LDIAG"> T  </i>
     <i type="logical" name="LSUBROT"> F  </i>
     <i name="WEIMIN">      0.00100000</i>
     <i name="EBREAK">      0.00000000</i>
     <i name="DEPER">      0.30000000</i>
     <i type="int" name="NRMM">     4</i>
     <i name="TIME">      0.40000000</i>
    </separator>
   </separator>
   <separator name="electronic mixer" >
    <i name="AMIX">      0.40000000</i>
    <i name="BMIX">      1.00000000</i>
    <i name="AMIN">      0.10000000</i>
    <i name="AMIX_MAG">      1.60000000</i>
    <i name="BMIX_MAG">      1.00000000</i>
    <separator name="electronic mixer details" >
     <i type="int" name="IMIX">     4</i>
     <i type="logical" name="MIXFIRST"> F  </i>
     <i type="int" name="MAXMIX">   -45</i>
     <i name="WC">    100.00000000</i>
     <i type="int" name="INIMIX">     1</i>
     <i type="int" name="MIXPRE">     1</i>
     <i type="int" name="MREMOVE">     5</i>
    </separator>
   </separator>
   <separator name="electronic dipolcorrection" >
    <i type="logical" name="LDIPOL"> F  </i>
    <i type="logical" name="LMONO"> F  </i>
    <i type="int" name="IDIPOL">     0</i>
    <i name="EPSILON">      1.00000000</i>
    <v name="DIPOL">   -100.00000000   -100.00000000   -100.00000000</v>
    <i name="EFIELD">      0.00000000</i>
   </separator>
  </separator>
  <separator name="grids" >
   <i type="int" name="NGX">    70</i>
   <i type="int" name="NGY">    60</i>
   <i type="int" name="NGZ">    70</i>
   <i type="int" name="NGXF">   140</i>
   <i type="int" name="NGYF">   120</i>
   <i type="int" name="NGZF">   140</i>
   <i type="logical" name="ADDGRID"> F  </i>
  </separator>
  <separator name="ionic" >
   <i type="int" name="NSW">   200</i>
   <i type="int" name="IBRION">     2</i>
   <i type="int" name="MDALGO">     0</i>
   <i type="int" name="ISIF">     3</i>
   <i name="PSTRESS">      0.00000000</i>
   <i name="EDIFFG">     -0.01000000</i>
   <i type="int" name="NFREE">    10</i>
   <i name="POTIM">      0.50000000</i>
   <i name="SMASS">     -3.00000000</i>
   <i name="SCALEE">      1.00000000</i>
  </separator>
  <separator name="ionic md" >
   <i name="TEBEG">      0.00010000</i>
   <i name="TEEND">      0.00010000</i>
   <i type="int" name="NBLOCK">     1</i>
   <i type="int" name="KBLOCK">   200</i>
   <i type="int" name="NPACO">   256</i>
   <i name="APACO">     16.00000000</i>
  </separator>
  <separator name="symmetry" >
   <i type="int" name="ISYM">     2</i>
   <i name="SYMPREC">      0.00001000</i>
  </separator>
  <separator name="dos" >
   <i type="int" name="LORBIT">     0</i>
   <v name="RWIGS">     -1.00000000     -1.00000000     -1.00000000     -1.00000000     -1.00000000</v>
   <i type="int" name="NEDOS">   301</i>
   <i name="EMIN">     10.00000000</i>
   <i name="EMAX">    -10.00000000</i>
   <i name="EFERMI">      0.00000000</i>
  </separator>
  <separator name="writing" >
   <i type="int" name="NWRITE">     2</i>
   <i type="logical" name="LWAVE"> F  </i>
   <i type="logical" name="LDOWNSAMPLE"> F  </i>
   <i type="logical" name="LCHARG"> F  </i>
   <i type="logical" name="LPARD"> F  </i>
   <i type="logical" name="LVTOT"> F  </i>
   <i type="logical" name="LVHAR"> F  </i>
   <i type="logical" name="LELF"> F  </i>
   <i type="logical" name="LOPTICS"> F  </i>
   <v name="STM">      0.00000000      0.00000000      0.00000000      0.00000000      0.00000000      0.00000000      0.00000000</v>
  </separator>
  <separator name="performance" >
   <i type="int" name="NPAR">    28</i>
   <i type="int" name="NSIM">     4</i>
   <i type="int" name="NBLK">    -1</i>
   <i type="logical" name="LPLANE"> T  </i>
   <i type="logical" name="LSCALAPACK"> T  </i>
   <i type="logical" name="LSCAAWARE"> F  </i>
   <i type="logical" name="LSCALU"> F  </i>
   <i type="logical" name="LASYNC"> F  </i>
   <i type="logical" name="LORBITALREAL"> F  </i>
  </separator>
  <separator name="miscellaneous" >
   <i type="int" name="IDIOT">     3</i>
   <i type="int" name="ISPECIAL">     0</i>
   <i type="logical" name="LMUSIC"> F  </i>
   <v name="POMASS">      7.01000000     24.30500000    208.98000000     32.06600000     16.00000000</v>
   <v name="DARWINR">      0.00000000      0.00000000      0.00000000      0.00000000      0.00000000</v>
   <v name="DARWINV">      1.00000000      1.00000000      1.00000000      1.00000000      1.00000000</v>
   <i type="logical" name="LCORR"> T  </i>
  </separator>
  <i type="logical" name="GGA_COMPAT"> T  </i>
  <i type="logical" name="LBERRY"> F  </i>
  <i type="int" name="ICORELEVEL">     0</i>
  <i type="logical" name="LDAU"> F  </i>
  <i type="int" name="I_CONSTRAINED_M">     0</i>
  <separator name="electronic exchange-correlation" >
   <i type="string" name="GGA">--</i>
   <i type="int" name="VOSKOWN">     0</i>
   <i type="logical" name="LHFCALC"> F  </i>
   <i type="string" name="PRECFOCK"></i>
   <i type="logical" name="LSYMGRAD"> F  </i>
   <i type="logical" name="LHFONE"> F  </i>
   <i type="logical" name="LRHFCALC"> F  </i>
   <i type="logical" name="LTHOMAS"> F  </i>
   <i type="logical" name="LMODELHF"> F  </i>
   <i name="ENCUT4O">     -1.00000000</i>
   <i type="int" name="EXXOEP">     0</i>
   <i type="int" name="FOURORBIT">     0</i>
   <i name="AEXX">      0.00000000</i>
   <i name="HFALPHA">      0.00000000</i>
   <i name="MCALPHA">      0.00000000</i>
   <i name="ALDAX">      1.00000000</i>
   <i name="AGGAX">      1.00000000</i>
   <i name="ALDAC">      1.00000000</i>
   <i name="AGGAC">      1.00000000</i>
   <i type="int" name="NKREDX">     1</i>
   <i type="int" name="NKREDY">     1</i>
   <i type="int" name="NKREDZ">     1</i>
   <i type="logical" name="SHIFTRED"> F  </i>
   <i type="logical" name="ODDONLY"> F  </i>
   <i type="logical" name="EVENONLY"> F  </i>
   <i type="int" name="LMAXFOCK">     0</i>
   <i type="int" name="NMAXFOCKAE">     0</i>
   <i type="logical" name="LFOCKAEDFT"> F  </i>
   <i name="HFSCREEN">      0.00000000</i>
   <i name="HFSCREENC">      0.00000000</i>
   <i type="int" name="NBANDSGWLOW">     0</i>
  </separator>
  <separator name="vdW DFT" >
   <i type="logical" name="LUSE_VDW"> F  </i>
   <i name="Zab_VDW">     -0.84910000</i>
   <i name="PARAM1">      0.12340000</i>
   <i name="PARAM2">      1.00000000</i>
   <i name="PARAM3">      0.00000000</i>
  </separator>
  <separator name="model GW" >
   <i type="int" name="MODEL_GW">     0</i>
   <i name="MODEL_EPS0">     11.77228070</i>
   <i name="MODEL_ALPHA">      1.00000000</i>
  </separator>
  <separator name="linear response parameters" >
   <i type="logical" name="LEPSILON"> F  </i>
   <i type="logical" name="LRPA"> F  </i>
   <i type="logical" name="LNABLA"> F  </i>
   <i type="logical" name="LVEL"> F  </i>
   <i type="int" name="KINTER">     0</i>
   <i name="CSHIFT">      0.10000000</i>
   <i name="OMEGAMAX">     -1.00000000</i>
   <i name="DEG_THRESHOLD">      0.00200000</i>
   <i name="RTIME">     -0.10000000</i>
   <i name="WPLASMAI">      0.00000000</i>
   <v name="DFIELD">      0.00000000      0.00000000      0.00000000</v>
   <v name="WPLASMA">      0.00000000      0.00000000      0.00000000      0.00000000      0.00000000      0.00000000      0.00000000      0.00000000      0.00000000</v>
  </separator>
  <separator name="orbital magnetization" >
   <i type="logical" name="NUCIND"> F  </i>
   <v name="MAGPOS">      0.00000000      0.00000000      0.00000000</v>
   <i type="logical" name="LNICSALL"> T  </i>
   <i type="logical" name="ORBITALMAG"> F  </i>
   <i type="logical" name="LMAGBLOCH"> F  </i>
   <i type="logical" name="LCHIMAG"> F  </i>
   <i type="logical" name="LGAUGE"> T  </i>
   <i type="int" name="MAGATOM">     0</i>
   <v name="MAGDIPOL">      0.00000000      0.00000000      0.00000000</v>
   <v name="AVECCONST">      0.00000000      0.00000000      0.00000000</v>
  </separator>
  <separator name="response functions" >
   <i type="logical" name="LADDER"> F  </i>
   <i type="logical" name="LRPAFORCE"> F  </i>
   <i type="logical" name="LFXC"> F  </i>
   <i type="logical" name="LHARTREE"> T  </i>
   <i type="int" name="IBSE">     0</i>
   <v type="int" name="KPOINT">    -1     0     0     0</v>
   <i type="logical" name="LTCTE"> F  </i>
   <i type="logical" name="LTETE"> F  </i>
   <i type="logical" name="LTRIPLET"> F  </i>
   <i type="logical" name="LFXCEPS"> F  </i>
   <i type="logical" name="LFXHEG"> F  </i>
   <i type="int" name="NATURALO">     2</i>
   <i type="logical" name="L2ORDER"> F  </i>
   <i type="logical" name="LMP2LT"> F  </i>
   <i type="logical" name="LUSEW"> F  </i>
   <i name="ENCUTGW">     -2.00000000</i>
   <i name="ENCUTGWSOFT">     -2.00000000</i>
   <i name="ENCUTLF">     -1.00000000</i>
   <i type="int" name="LMAXMP2">    -1</i>
   <i name="SCISSOR">      0.00000000</i>
   <i type="int" name="NOMEGA">     0</i>
   <i type="int" name="NOMEGAR">     0</i>
   <i type="int" name="NBANDSGW">    -1</i>
   <i type="int" name="NBANDSO">    -1</i>
   <i type="int" name="NBANDSV">    -1</i>
   <i type="int" name="NELM">     1</i>
   <i type="int" name="NELMHF">     1</i>
   <i type="int" name="DIM">     3</i>
   <i type="int" name="ANTIRES">     0</i>
   <i name="OMEGAMAX">    -30.00000000</i>
   <i name="OMEGAMIN">    -30.00000000</i>
   <i name="OMEGATL">   -200.00000000</i>
   <i type="int" name="OMEGAGRID">   140</i>
   <i name="CSHIFT">     -0.10000000</i>
   <i type="logical" name="SELFENERGY"> F  </i>
   <i type="logical" name="LSPECTRAL"> F  </i>
   <i type="logical" name="LSPECTRALGW"> F  </i>
   <i type="logical" name="LSINGLES"> F  </i>
   <i type="logical" name="LFERMIGW"> F  </i>
   <i type="logical" name="ODDONLYGW"> F  </i>
   <i type="logical" name="EVENONLYGW"> F  </i>
   <i type="int" name="NKREDLFX">     1</i>
   <i type="int" name="NKREDLFY">     1</i>
   <i type="int" name="NKREDLFZ">     1</i>
   <i type="int" name="MAXMEM">  2800</i>
   <i type="int" name="TELESCOPE">     0</i>
   <i type="int" name="TAUPAR">     1</i>
   <i type="int" name="OMEGAPAR">    -1</i>
   <i name="LAMBDA">      1.00000000</i>
  </separator>
  <separator name="External order field" >
   <i name="OFIELD_KAPPA">      0.00000000</i>
   <v name="OFIELD_K">      0.00000000      0.00000000      0.00000000</v>
   <i name="OFIELD_Q6_NEAR">      0.00000000</i>
   <i name="OFIELD_Q6_FAR">      0.00000000</i>
   <i name="OFIELD_A">      0.00000000</i>
  </separator>
 </parameters>
 <atominfo>
  <atoms>      61 </atoms>
  <types>       5 </types>
  <array name="atoms" >
   <dimension dim="1">ion</dimension>
   <field type="string">element</field>
   <field type="int">atomtype</field>
   <set>
    <rc><c>Li</c><c>   1</c></rc>
    <rc><c>Li</c><c>   1</c></rc>
    <rc><c>Li</c><c>   1</c></rc>
    <rc><c>Li</c><c>   1</c></rc>
    <rc><c>Li</c><c>   1</c></rc>
    <rc><c>Li</c><c>   1</c></rc>
    <rc><c>Li</c><c>   1</c></rc>
    <rc><c>Li</c><c>   1</c></rc>
    <rc><c>Li</c><c>   1</c></rc>
    <rc><c>Li</c><c>   1</c></rc>
    <rc><c>Mg</c><c>   2</c></rc>
    <rc><c>Mg</c><c>   2</c></rc>
    <rc><c>Mg</c><c>   2</c></rc>
    <rc><c>Bi</c><c>   3</c></rc>
    <rc><c>Bi</c><c>   3</c></rc>
    <rc><c>Bi</c><c>   3</c></rc>
    <rc><c>Bi</c><c>   3</c></rc>
    <rc><c>Bi</c><c>   3</c></rc>
    <rc><c>Bi</c><c>   3</c></rc>
    <rc><c>Bi</c><c>   3</c></rc>
    <rc><c>Bi</c><c>   3</c></rc>
    <rc><c>Bi</c><c>   3</c></rc>
    <rc><c>Bi</c><c>   3</c></rc>
    <rc><c>Bi</c><c>   3</c></rc>
    <rc><c>Bi</c><c>   3</c></rc>
    <rc><c>Bi</c><c>   3</c></rc>
    <rc><c>Bi</c><c>   3</c></rc>
    <rc><c>Bi</c><c>   3</c></rc>
    <rc><c>Bi</c><c>   3</c></rc>
    <rc><c>S </c><c>   4</c></rc>
    <rc><c>S </c><c>   4</c></rc>
    <rc><c>S </c><c>   4</c></rc>
    <rc><c>S </c><c>   4</c></rc>
    <rc><c>S </c><c>   4</c></rc>
    <rc><c>S </c><c>   4</c></rc>
    <rc><c>S </c><c>   4</c></rc>
    <rc><c>S </c><c>   4</c></rc>
    <rc><c>S </c><c>   4</c></rc>
    <rc><c>S </c><c>   4</c></rc>
    <rc><c>S </c><c>   4</c></rc>
    <rc><c>S </c><c>   4</c></rc>
    <rc><c>S </c><c>   4</c></rc>
    <rc><c>S </c><c>   4</c></rc>
    <rc><c>S </c><c>   4</c></rc>
    <rc><c>S </c><c>   4</c></rc>
    <rc><c>O </c><c>   5</c></rc>
    <rc><c>O </c><c>   5</c></rc>
    <rc><c>O </c><c>   5</c></rc>
    <rc><c>O </c><c>   5</c></rc>
    <rc><c>O </c><c>   5</c></rc>
    <rc><c>O </c><c>   5</c></rc>
    <rc><c>O </c><c>   5</c></rc>
    <rc><c>O </c><c>   5</c></rc>
    <rc><c>O </c><c>   5</c></rc>
    <rc><c>O </c><c>   5</c></rc>
    <rc><c>O </c><c>   5</c></rc>
    <rc><c>O </c><c>   5</c></rc>
    <rc><c>O </c><c>   5</c></rc>
    <rc><c>O </c><c>   5</c></rc>
    <rc><c>O </c><c>   5</c></rc>
    <rc><c>O </c><c>   5</c></rc>
   </set>
  </array>
  <array name="atomtypes" >
   <dimension dim="1">type</dimension>
   <field type="int">atomspertype</field>
   <field type="string">element</field>
   <field>mass</field>
   <field>valence</field>
   <field type="string">pseudopotential</field>
   <set>
    <rc><c>  10</c><c>Li</c><c>      7.01000000</c><c>      3.00000000</c><c>  PAW_PBE Li_sv 10Sep2004               </c></rc>
    <rc><c>   3</c><c>Mg</c><c>     24.30500000</c><c>      2.00000000</c><c>  PAW_PBE Mg 13Apr2007                  </c></rc>
    <rc><c>  16</c><c>Bi</c><c>    208.98000000</c><c>     15.00000000</c><c>  PAW_PBE Bi_d 06Sep2000                </c></rc>
    <rc><c>  16</c><c>S </c><c>     32.06600000</c><c>      6.00000000</c><c>  PAW_PBE S 06Sep2000                   </c></rc>
    <rc><c>  16</c><c>O </c><c>     16.00000000</c><c>      6.00000000</c><c>  PAW_PBE O 08Apr2002                   </c></rc>
   </set>
  </array>
 </atominfo>
 <structure name="initialpos" >
  <crystal>
   <varray name="basis" >
    <v>      11.17850000       0.00000000       0.00000000 </v>
    <v>       0.00000000       9.57460000       0.00000000 </v>
    <v>       0.00000000       0.00000000      11.18240000 </v>
   </varray>
   <i name="volume">   1196.84853820 </i>
   <varray name="rec_basis" >
    <v>       0.08945744       0.00000000       0.00000000 </v>
    <v>       0.00000000       0.10444301       0.00000000 </v>
    <v>       0.00000000       0.00000000       0.08942624 </v>
   </varray>
  </crystal>
  <varray name="positions" >
   <v>       0.37539000       0.00017000       0.43687000 </v>
   <v>       0.12461000       0.99984000       0.18687000 </v>
   <v>       0.62461000       0.99984000       0.18687000 </v>
   <v>       0.87461000       0.00017000       0.18687000 </v>
   <v>       0.12539000       0.99984000       0.93687000 </v>
   <v>       0.37539000       0.00017000       0.93687000 </v>
   <v>       0.12461000       0.99984000       0.68687000 </v>
   <v>       0.37461000       0.00017000       0.68687000 </v>
   <v>       0.62539000       0.99984000       0.93687000 </v>
   <v>       0.62461000       0.99984000       0.68687000 </v>
   <v>       0.87539000       0.00017000       0.43687000 </v>
   <v>       0.87539000       0.00017000       0.93687000 </v>
   <v>       0.87461000       0.00017000       0.68687000 </v>
   <v>       0.00013000       0.29519000       0.06281000 </v>
   <v>       0.25013000       0.70481000       0.06281000 </v>
   <v>       0.24987000       0.29519000       0.31282000 </v>
   <v>       0.49987000       0.70481000       0.31282000 </v>
   <v>       0.50013000       0.29519000       0.06281000 </v>
   <v>       0.75013000       0.70481000       0.06281000 </v>
   <v>       0.74987000       0.29519000       0.31282000 </v>
   <v>       0.99987000       0.70481000       0.31282000 </v>
   <v>       0.00013000       0.29519000       0.56281000 </v>
   <v>       0.25013000       0.70481000       0.56281000 </v>
   <v>       0.24987000       0.29519000       0.81282000 </v>
   <v>       0.49987000       0.70481000       0.81282000 </v>
   <v>       0.50013000       0.29519000       0.56281000 </v>
   <v>       0.75013000       0.70481000       0.56281000 </v>
   <v>       0.74987000       0.29519000       0.81282000 </v>
   <v>       0.99987000       0.70481000       0.81282000 </v>
   <v>       0.25005000       0.32677000       0.06286000 </v>
   <v>       0.00005000       0.67323000       0.06286000 </v>
   <v>       0.49995000       0.32677000       0.31286000 </v>
   <v>       0.24995000       0.67323000       0.31286000 </v>
   <v>       0.75005000       0.32677000       0.06286000 </v>
   <v>       0.50005000       0.67323000       0.06286000 </v>
   <v>       0.99995000       0.32677000       0.31286000 </v>
   <v>       0.74995000       0.67323000       0.31286000 </v>
   <v>       0.25005000       0.32677000       0.56286000 </v>
   <v>       0.00005000       0.67323000       0.56286000 </v>
   <v>       0.49995000       0.32677000       0.81286000 </v>
   <v>       0.24995000       0.67323000       0.81286000 </v>
   <v>       0.75005000       0.32677000       0.56286000 </v>
   <v>       0.50005000       0.67323000       0.56286000 </v>
   <v>       0.99995000       0.32677000       0.81286000 </v>
   <v>       0.74995000       0.67323000       0.81286000 </v>
   <v>       0.49987000       0.07798000       0.06246000 </v>
   <v>       0.24987000       0.92202000       0.06246000 </v>
   <v>       0.25013000       0.07798000       0.31246000 </v>
   <v>       0.00013000       0.92202000       0.31246000 </v>
   <v>       0.99987000       0.07798000       0.06246000 </v>
   <v>       0.74987000       0.92202000       0.06246000 </v>
   <v>       0.75013000       0.07798000       0.31246000 </v>
   <v>       0.50013000       0.92202000       0.31246000 </v>
   <v>       0.49987000       0.07798000       0.56246000 </v>
   <v>       0.24987000       0.92202000       0.56246000 </v>
   <v>       0.25013000       0.07798000       0.81246000 </v>
   <v>       0.00013000       0.92202000       0.81246000 </v>
   <v>       0.99987000       0.07798000       0.56246000 </v>
   <v>       0.74987000       0.92202000       0.56246000 </v>
   <v>       0.75013000       0.07798000       0.81246000 </v>
   <v>       0.50013000       0.92202000       0.81246000 </v>
  </varray>
 </structure>
 <calculation>
  <scstep>
   <time name="dav">   59.56   59.66</time>
   <time name="total">   59.64   59.75</time>
   <energy>
    <i name="alphaZ">   1073.51873187 </i>
    <i name="ewald"> -30884.14446744 </i>
    <i name="hartreedc"> -12705.05369233 </i>
    <i name="XCdc">   1395.02916244 </i>
    <i name="pawpsdc">  36823.70205594 </i>
    <i name="pawaedc"> -36326.52930246 </i>
    <i name="eentropy">      0.00000000 </i>
    <i name="bandstr">   1804.51729821 </i>
    <i name="atom">  44791.06186932 </i>
    <i name="e_fr_energy">   5972.10165555 </i>
    <i name="e_wo_entrp">   5972.10165555 </i>
    <i name="e_0_energy">   5972.10165555 </i>
   </energy>
  </scstep>
  <scstep>
   <time name="dav">   60.62   60.71</time>
   <time name="total">   60.63   60.72</time>
   <energy>
    <i name="e_fr_energy">    791.86196711 </i>
    <i name="e_wo_entrp">    791.86196711 </i>
    <i name="e_0_energy">    791.86196711 </i>
   </energy>
  </scstep>
  <scstep>
   <time name="dav">   68.19   68.32</time>
   <time name="total">   68.20   68.33</time>
   <energy>
    <i name="e_fr_energy">   -242.38577948 </i>
    <i name="e_wo_entrp">   -242.38577948 </i>
    <i name="e_0_energy">   -242.38577948 </i>
   </energy>
  </scstep>
  <scstep>
   <time name="dav">   72.27   72.52</time>
   <time name="total">   72.27   72.53</time>
   <energy>
    <i name="e_fr_energy">   -345.89985602 </i>
    <i name="e_wo_entrp">   -345.89985602 </i>
    <i name="e_0_energy">   -345.89985602 </i>
   </energy>
  </scstep>
  <scstep>
   <time name="dav">   96.21   96.48</time>
   <time name="total">   96.94   97.20</time>
   <energy>
    <i name="e_fr_energy">   -354.16628933 </i>
    <i name="e_wo_entrp">   -354.16628933 </i>
    <i name="e_0_energy">   -354.16628933 </i>
   </energy>
  </scstep>
  <scstep>
   <time name="dav">   84.70   85.20</time>
   <time name="total">   85.49   86.00</time>
   <energy>
    <i name="e_fr_energy">   -294.64170993 </i>
    <i name="e_wo_entrp">   -294.64170993 </i>
    <i name="e_0_energy">   -294.64170993 </i>
   </energy>
  </scstep>
  <scstep>
   <time name="dav">   65.35   65.44</time>
   <time name="total">   66.14   66.23</time>
   <energy>
    <i name="e_fr_energy">   -297.05752293 </i>
    <i name="e_wo_entrp">   -297.05752293 </i>
    <i name="e_0_energy">   -297.05752293 </i>
   </energy>
  </scstep>
  <scstep>
   <time name="dav">   75.93   76.07</time>
   <time name="total">   76.72   76.88</time>
   <energy>
    <i name="e_fr_energy">   -295.67013411 </i>
    <i name="e_wo_entrp">   -295.67013411 </i>
    <i name="e_0_energy">   -295.67013411 </i>
   </energy>
  </scstep>
  <scstep>
   <time name="dav">   68.59   68.80</time>
   <time name="total">   69.38   69.58</time>
   <energy>
    <i name="e_fr_energy">   -294.94326090 </i>
    <i name="e_wo_entrp">   -294.94326090 </i>
    <i name="e_0_energy">   -294.94326090 </i>
   </energy>
  </scstep>
  <scstep>
   <time name="dav">   74.59   74.81</time>
   <time name="total">   75.38   75.61</time>
   <energy>
    <i name="e_fr_energy">   -294.99970874 </i>
    <i name="e_wo_entrp">   -294.99970874 </i>
    <i name="e_0_energy">   -294.99970874 </i>
   </energy>
  </scstep>
  <scstep>
   <time name="dav">   80.83   80.95</time>
   <time name="total">   81.62   81.75</time>
   <energy>
    <i name="e_fr_energy">   -294.99963885 </i>
    <i name="e_wo_entrp">   -294.99963885 </i>
    <i name="e_0_energy">   -294.99963885 </i>
   </energy>
  </scstep>
  <scstep>
   <time name="dav">   78.06   78.17</time>
   <time name="total">   78.85   78.96</time>
   <energy>
    <i name="e_fr_energy">   -295.00442442 </i>
    <i name="e_wo_entrp">   -295.00442442 </i>
    <i name="e_0_energy">   -295.00442442 </i>
   </energy>
  </scstep>
  <scstep>
   <time name="dav">   80.14   80.35</time>
   <time name="total">   80.92   81.17</time>
   <energy>
    <i name="e_fr_energy">   -295.00477631 </i>
    <i name="e_wo_entrp">   -295.00477631 </i>
    <i name="e_0_energy">   -295.00477631 </i>
   </energy>
  </scstep>
  <scstep>
   <time name="dav">   71.56   71.77</time>
   <time name="total">   72.35   72.56</time>
   <energy>
    <i name="e_fr_energy">   -295.00466295 </i>
    <i name="e_wo_entrp">   -295.00466295 </i>
    <i name="e_0_energy">   -295.00466295 </i>
   </energy>
  </scstep>
  <scstep>
   <time name="dav">   75.29   75.54</time>
   <time name="total">   76.08   76.33</time>
   <energy>
    <i name="e_fr_energy">   -295.00481019 </i>
    <i name="e_wo_entrp">   -295.00481019 </i>
    <i name="e_0_energy">   -295.00481019 </i>
   </energy>
  </scstep>
  <scstep>
   <time name="dav">   87.16   87.44</time>
   <time name="total">   87.94   88.23</time>
   <energy>
    <i name="e_fr_energy">   -295.00480955 </i>
    <i name="e_wo_entrp">   -295.00480955 </i>
    <i name="e_0_energy">   -295.00480955 </i>
   </energy>
  </scstep>
  <scstep>
   <time name="dav">   68.20   68.40</time>
   <time name="total">   68.99   69.20</time>
   <energy>
    <i name="e_fr_energy">   -295.00481554 </i>
    <i name="e_wo_entrp">   -295.00481554 </i>
    <i name="e_0_energy">   -295.00481554 </i>
   </energy>
  </scstep>
  <scstep>
   <time name="dav">   65.17   65.41</time>
   <time name="total">   65.95   66.20</time>
   <energy>
    <i name="e_fr_energy">   -295.00481772 </i>
    <i name="e_wo_entrp">   -295.00481772 </i>
    <i name="e_0_energy">   -295.00481772 </i>
   </energy>
  </scstep>
  <scstep>
   <time name="dav">   61.30   61.49</time>
   <time name="total">   61.38   61.57</time>
   <energy>
    <i name="alphaZ">   1073.51873187 </i>
    <i name="ewald"> -30884.14446744 </i>
    <i name="hartreedc"> -12935.55151016 </i>
    <i name="XCdc">   1418.20030701 </i>
    <i name="pawpsdc">  43852.81258403 </i>
    <i name="pawaedc"> -43331.13359975 </i>
    <i name="eentropy">      0.00000000 </i>
    <i name="bandstr">  -4279.76873286 </i>
    <i name="atom">  44791.06186932 </i>
    <i name="e_fr_energy">   -295.00481798 </i>
    <i name="e_wo_entrp">   -295.00481798 </i>
    <i name="e_0_energy">   -295.00481798 </i>
   </energy>
  </scstep>
  <structure>
   <crystal>
    <varray name="basis" >
     <v>      11.17850000       0.00000000       0.00000000 </v>
     <v>       0.00000000       9.57460000       0.00000000 </v>
     <v>       0.00000000       0.00000000      11.18240000 </v>
    </varray>
    <i name="volume">   1196.84853820 </i>
    <varray name="rec_basis" >
     <v>       0.08945744       0.00000000       0.00000000 </v>
     <v>       0.00000000       0.10444301       0.00000000 </v>
     <v>       0.00000000       0.00000000       0.08942624 </v>
    </varray>
   </crystal>
   <varray name="positions" >
    <v>       0.37539000       0.00017000       0.43687000 </v>
    <v>       0.12461000       0.99984000       0.18687000 </v>
    <v>       0.62461000       0.99984000       0.18687000 </v>
    <v>       0.87461000       0.00017000       0.18687000 </v>
    <v>       0.12539000       0.99984000       0.93687000 </v>
    <v>       0.37539000       0.00017000       0.93687000 </v>
    <v>       0.12461000       0.99984000       0.68687000 </v>
    <v>       0.37461000       0.00017000       0.68687000 </v>
    <v>       0.62539000       0.99984000       0.93687000 </v>
    <v>       0.62461000       0.99984000       0.68687000 </v>
    <v>       0.87539000       0.00017000       0.43687000 </v>
    <v>       0.87539000       0.00017000       0.93687000 </v>
    <v>       0.87461000       0.00017000       0.68687000 </v>
    <v>       0.00013000       0.29519000       0.06281000 </v>
    <v>       0.25013000       0.70481000       0.06281000 </v>
    <v>       0.24987000       0.29519000       0.31282000 </v>
    <v>       0.49987000       0.70481000       0.31282000 </v>
    <v>       0.50013000       0.29519000       0.06281000 </v>
    <v>       0.75013000       0.70481000       0.06281000 </v>
    <v>       0.74987000       0.29519000       0.31282000 </v>
    <v>       0.99987000       0.70481000       0.31282000 </v>
    <v>       0.00013000       0.29519000       0.56281000 </v>
    <v>       0.25013000       0.70481000       0.56281000 </v>
    <v>       0.24987000       0.29519000       0.81282000 </v>
    <v>       0.49987000       0.70481000       0.81282000 </v>
    <v>       0.50013000       0.29519000       0.56281000 </v>
    <v>       0.75013000       0.70481000       0.56281000 </v>
    <v>       0.74987000       0.29519000       0.81282000 </v>
    <v>       0.99987000       0.70481000       0.81282000 </v>
    <v>       0.25005000       0.32677000       0.06286000 </v>
    <v>       0.00005000       0.67323000       0.06286000 </v>
    <v>       0.49995000       0.32677000       0.31286000 </v>
    <v>       0.24995000       0.67323000       0.31286000 </v>
    <v>       0.75005000       0.32677000       0.06286000 </v>
    <v>       0.50005000       0.67323000       0.06286000 </v>
    <v>       0.99995000       0.32677000       0.31286000 </v>
    <v>       0.74995000       0.67323000       0.31286000 </v>
    <v>       0.25005000       0.32677000       0.56286000 </v>
    <v>       0.00005000       0.67323000       0.56286000 </v>
    <v>       0.49995000       0.32677000       0.81286000 </v>
    <v>       0.24995000       0.67323000       0.81286000 </v>
    <v>       0.75005000       0.32677000       0.56286000 </v>
    <v>       0.50005000       0.67323000       0.56286000 </v>
    <v>       0.99995000       0.32677000       0.81286000 </v>
    <v>       0.74995000       0.67323000       0.81286000 </v>
    <v>       0.49987000       0.07798000       0.06246000 </v>
    <v>       0.24987000       0.92202000       0.06246000 </v>
    <v>       0.25013000       0.07798000       0.31246000 </v>
    <v>       0.00013000       0.92202000       0.31246000 </v>
    <v>       0.99987000       0.07798000       0.06246000 </v>
    <v>       0.74987000       0.92202000       0.06246000 </v>
    <v>       0.75013000       0.07798000       0.31246000 </v>
    <v>       0.50013000       0.92202000       0.31246000 </v>
    <v>       0.49987000       0.07798000       0.56246000 </v>
    <v>       0.24987000       0.92202000       0.56246000 </v>
    <v>       0.25013000       0.07798000       0.81246000 </v>
    <v>       0.00013000       0.92202000       0.81246000 </v>
    <v>       0.99987000       0.07798000       0.56246000 </v>
    <v>       0.74987000       0.92202000       0.56246000 </v>
    <v>       0.75013000       0.07798000       0.81246000 </v>
    <v>       0.50013000       0.92202000       0.81246000 </v>
   </varray>
  </structure>
  <varray name="forces" >
   <v>      -0.00975592      -0.00191654      -0.51723318 </v>
   <v>       0.79831634      -0.02194806       0.55825998 </v>
   <v>      -0.78150710       0.02255623       0.55854012 </v>
   <v>       0.00214251      -0.00091762       0.42914097 </v>
   <v>       0.89792955       0.01177112       0.32279220 </v>
   <v>      -0.00977495      -0.00073974       0.55874818 </v>
   <v>       0.82813004       0.00546124      -0.56238747 </v>
   <v>       0.00474083      -0.00138500      -0.37577100 </v>
   <v>      -0.90901892      -0.01308028       0.31786645 </v>
   <v>      -0.81154181      -0.00724610      -0.56213958 </v>
   <v>      -0.01866836      -0.00709991      -1.12534526 </v>
   <v>      -0.01826929      -0.00497468       1.18200483 </v>
   <v>       0.01283547      -0.00602617      -0.57257809 </v>
   <v>       0.51240249       1.14343227       0.47099305 </v>
   <v>       0.46899333       0.99094319       0.47162414 </v>
   <v>       0.36065089      -1.96163045      -0.01153338 </v>
   <v>      -0.34353096       1.95510834      -0.01154294 </v>
   <v>      -0.48409450      -0.98868674       0.47074428 </v>
   <v>      -0.52006749      -1.13679244       0.46978286 </v>
   <v>      -0.62378768       0.08902557       0.01930512 </v>
   <v>       0.63606746      -0.09426786       0.01840002 </v>
   <v>       0.75941460       1.15087999      -0.53085542 </v>
   <v>       0.26255171       0.99347084      -0.47081760 </v>
   <v>       0.39994795       0.08385580      -0.00993824 </v>
   <v>      -0.38688087      -0.08322772      -0.01052483 </v>
   <v>      -0.27792891      -0.98789384      -0.47099031 </v>
   <v>      -0.76629558      -1.14015680      -0.53240624 </v>
   <v>      -0.63965605       2.14344071       0.02925522 </v>
   <v>       0.64572535      -2.13879335       0.02647218 </v>
   <v>      -0.39676192       0.20828573      -0.36479451 </v>
   <v>      -0.34717970      -0.04946898      -0.36125460 </v>
   <v>       0.39632129       0.25488342      -0.00609890 </v>
   <v>      -0.39438622      -0.25602540      -0.00718117 </v>
   <v>       0.34715962       0.04942970      -0.36225355 </v>
   <v>       0.39419383      -0.20862215      -0.36303909 </v>
   <v>      -0.36792108       0.11818195       0.03196948 </v>
   <v>       0.36724690      -0.11954180       0.03014673 </v>
   <v>      -0.36172623       0.23174769       0.37304518 </v>
   <v>      -0.38404435       0.02432221       0.32299564 </v>
   <v>       0.35307091       0.20120002      -0.00121595 </v>
   <v>      -0.35098681      -0.20216506      -0.00031202 </v>
   <v>       0.38468057      -0.02599424       0.32480953 </v>
   <v>       0.35972294      -0.23243616       0.37178496 </v>
   <v>      -0.36314670      -0.11318680       0.00512454 </v>
   <v>       0.36232246       0.11081782       0.00495489 </v>
   <v>       0.88309962       0.79781158      -0.83301132 </v>
   <v>      -0.86974564      -0.79873038      -0.83391271 </v>
   <v>      -0.24276413       1.76662959      -0.04510222 </v>
   <v>      -1.34215736       0.06465975      -0.11444535 </v>
   <v>      -0.80639016      -0.99297554      -0.85343100 </v>
   <v>       0.82855765       0.99625027      -0.86209851 </v>
   <v>       1.33388053      -0.06145087      -0.11245513 </v>
   <v>       0.23094036      -1.76273205      -0.04523470 </v>
   <v>      -0.29656619       0.85533456       0.88622210 </v>
   <v>       0.30486399      -0.85602266       0.88564426 </v>
   <v>      -0.34012896      -0.06655865       0.00228908 </v>
   <v>      -1.26982156       1.83904314      -0.01531975 </v>
   <v>      -1.75136600      -1.03919610       0.90794800 </v>
   <v>       1.76471656       1.04036775       0.89654026 </v>
   <v>       1.25478692      -1.83513855      -0.00398671 </v>
   <v>       0.33045873       0.06811820       0.00180648 </v>
  </varray>
  <varray name="stress" >
   <v>      -7.89425912       0.04236299       0.00915193 </v>
   <v>       0.04236251     -12.74538936       0.06687361 </v>
   <v>       0.00915222       0.06687356      -1.52806144 </v>
  </varray>
  <energy>
   <i name="e_fr_energy">   -309.74594928 </i>
   <i name="e_wo_entrp">   -309.74594928 </i>
   <i name="e_0_energy">      0.00000000 </i>
  </energy>
  <time name="totalsc"> 1521.91 1526.73</time>
 </calculation>
 <calculation>
  <scstep>
   <time name="dav">   61.41   61.71</time>
   <time name="total">   62.19   62.50</time>
   <energy>
    <i name="alphaZ">   1087.71369397 </i>
    <i name="ewald"> -31012.00785383 </i>
    <i name="hartreedc"> -12987.39979705 </i>
    <i name="XCdc">   1426.00419858 </i>
    <i name="pawpsdc">  43852.46011979 </i>
    <i name="pawaedc"> -43330.78335801 </i>
    <i name="eentropy">      0.00000000 </i>
    <i name="bandstr">  -4120.47481803 </i>
    <i name="atom">  44791.06186932 </i>
    <i name="e_fr_energy">   -293.42594525 </i>
    <i name="e_wo_entrp">   -293.42594525 </i>
    <i name="e_0_energy">   -293.42594525 </i>
   </energy>
  </scstep>
  <scstep>
   <time name="dav">   71.19   71.95</time>
   <time name="total">   71.98   72.74</time>
   <energy>
    <i name="e_fr_energy">   -297.01027837 </i>
    <i name="e_wo_entrp">   -297.01027837 </i>
    <i name="e_0_energy">   -297.01027837 </i>
   </energy>
  </scstep>
  <scstep>
   <time name="dav">   87.45   87.89</time>
   <time name="total">   88.24   88.68</time>
   <energy>
    <i name="e_fr_energy">   -296.78746986 </i>
    <i name="e_wo_entrp">   -296.78746986 </i>
    <i name="e_0_energy">   -296.78746986 </i>
   </energy>
  </scstep>
  <scstep>
   <time name="dav">   75.88   76.22</time>
   <time name="total">   76.67   77.02</time>
   <energy>
    <i name="e_fr_energy">   -296.63377954 </i>
    <i name="e_wo_entrp">   -296.63377954 </i>
    <i name="e_0_energy">   -296.63377954 </i>
   </energy>
  </scstep>
  <scstep>
   <time name="dav">   77.58   78.01</time>
   <time name="total">   78.37   78.80</time>
   <energy>
    <i name="e_fr_energy">   -296.62529651 </i>
    <i name="e_wo_entrp">   -296.62529651 </i>
    <i name="e_0_energy">   -296.62529651 </i>
   </energy>
  </scstep>
  <scstep>
   <time name="dav">   88.69   89.32</time>
   <time name="total">   89.48   90.11</time>
   <energy>
    <i name="e_fr_energy">   -296.62250726 </i>
    <i name="e_wo_entrp">   -296.62250726 </i>
    <i name="e_0_energy">   -296.62250726 </i>
   </energy>
  </scstep>
  <scstep>
   <time name="dav">   77.05   77.73</time>
   <time name="total">   77.84   78.52</time>
   <energy>
    <i name="e_fr_energy">   -296.62080417 </i>
    <i name="e_wo_entrp">   -296.62080417 </i>
    <i name="e_0_energy">   -296.62080417 </i>
   </energy>
  </scstep>
  <scstep>
   <time name="dav">   86.12   86.26</time>
   <time name="total">   86.91   87.05</time>
   <energy>
    <i name="e_fr_energy">   -296.62068210 </i>
    <i name="e_wo_entrp">   -296.62068210 </i>
    <i name="e_0_energy">   -296.62068210 </i>
   </energy>
  </scstep>
  <scstep>
   <time name="dav">   72.21   72.27</time>
   <time name="total">   73.00   73.06</time>
   <energy>
    <i name="e_fr_energy">   -296.62073037 </i>
    <i name="e_wo_entrp">   -296.62073037 </i>
    <i name="e_0_energy">   -296.62073037 </i>
   </energy>
  </scstep>
  <scstep>
   <time name="dav">   87.11   88.22</time>
   <time name="total">   87.90   89.01</time>
   <energy>
    <i name="e_fr_energy">   -296.62074196 </i>
    <i name="e_wo_entrp">   -296.62074196 </i>
    <i name="e_0_energy">   -296.62074196 </i>
   </energy>
  </scstep>
  <scstep>
   <time name="dav">   76.35   77.71</time>
   <time name="total">   77.14   78.50</time>
   <energy>
    <i name="e_fr_energy">   -296.62074239 </i>
    <i name="e_wo_entrp">   -296.62074239 </i>
    <i name="e_0_energy">   -296.62074239 </i>
   </energy>
  </scstep>
  <scstep>
   <time name="dav">   58.10   59.24</time>
   <time name="total">   58.18   59.32</time>
   <energy>
    <i name="alphaZ">   1087.71369397 </i>
    <i name="ewald"> -31012.00785383 </i>
    <i name="hartreedc"> -12872.19159078 </i>
    <i name="XCdc">   1420.95697287 </i>
    <i name="pawpsdc">  44201.89055127 </i>
    <i name="pawaedc"> -43683.32949219 </i>
    <i name="eentropy">      0.00000000 </i>
    <i name="bandstr">  -4230.71489301 </i>
    <i name="atom">  44791.06186932 </i>
    <i name="e_fr_energy">   -296.62074237 </i>
    <i name="e_wo_entrp">   -296.62074237 </i>
    <i name="e_0_energy">   -296.62074237 </i>
   </energy>
  </scstep>
  <structure>
   <crystal>
    <varray name="basis" >
     <v>      11.12636554       0.00027977       0.00006044 </v>
     <v>       0.00023963       9.50250524       0.00037827 </v>
     <v>       0.00006046       0.00044179      11.17230501 </v>
    </varray>
    <i name="volume">   1181.22933643 </i>
    <varray name="rec_basis" >
     <v>       0.08987661      -0.00000227      -0.00000049 </v>
     <v>      -0.00000265       0.10523541      -0.00000416 </v>
     <v>      -0.00000049      -0.00000356       0.08950704 </v>
    </varray>
   </crystal>
   <varray name="positions" >
    <v>       0.37534790       0.00016034       0.43463857 </v>
    <v>       0.12805527       0.99972941       0.18927842 </v>
    <v>       0.62123728       0.99995365       0.18927963 </v>
    <v>       0.87461925       0.00016538       0.18872138 </v>
    <v>       0.12926516       0.99989931       0.93826258 </v>
    <v>       0.37534781       0.00016627       0.93928053 </v>
    <v>       0.12818393       0.99986752       0.68444377 </v>
    <v>       0.37463046       0.00016302       0.68524886 </v>
    <v>       0.62146698       0.99977409       0.93824133 </v>
    <v>       0.62110766       0.99980349       0.68444484 </v>
    <v>       0.87530943       0.00013423       0.43201508 </v>
    <v>       0.87531116       0.00014493       0.94196936 </v>
    <v>       0.87466539       0.00013964       0.68439981 </v>
    <v>       0.00234136       0.30095131       0.06484194 </v>
    <v>       0.25215402       0.70980297       0.06484466 </v>
    <v>       0.25142645       0.28530611       0.31277024 </v>
    <v>       0.49838744       0.71466102       0.31277020 </v>
    <v>       0.49804081       0.29020840       0.06484087 </v>
    <v>       0.74788556       0.69908215       0.06483672 </v>
    <v>       0.74717794       0.29563856       0.31290329 </v>
    <v>       0.00261505       0.70433502       0.31289938 </v>
    <v>       0.00340738       0.30098883       0.56051981 </v>
    <v>       0.25126309       0.70981571       0.56077882 </v>
    <v>       0.25159604       0.29561252       0.81277712 </v>
    <v>       0.49820035       0.70439065       0.81277459 </v>
    <v>       0.49893055       0.29021239       0.56077807 </v>
    <v>       0.74682293       0.69906520       0.56051311 </v>
    <v>       0.74710946       0.30598996       0.81294621 </v>
    <v>       0.00265673       0.69403346       0.81293421 </v>
    <v>       0.24833771       0.32781947       0.06128622 </v>
    <v>      -0.00144831       0.67298075       0.06130149 </v>
    <v>       0.50166039       0.32805426       0.31283369 </v>
    <v>       0.24824796       0.67193999       0.31282902 </v>
    <v>       0.75154822       0.32701906       0.06129718 </v>
    <v>       0.50175121       0.67217883       0.06129379 </v>
    <v>       0.99836218       0.32736547       0.31299792 </v>
    <v>       0.75153491       0.67262768       0.31299006 </v>
    <v>       0.24848891       0.32793769       0.56446938 </v>
    <v>      -0.00160741       0.67335255       0.56425345 </v>
    <v>       0.50147374       0.32778377       0.81285475 </v>
    <v>       0.24843526       0.67221137       0.81285865 </v>
    <v>       0.75171015       0.32663903       0.56426128 </v>
    <v>       0.50160244       0.67205885       0.56446394 </v>
    <v>       0.99838278       0.32619970       0.81288211 </v>
    <v>       0.75151366       0.67378837       0.81288138 </v>
    <v>       0.50368116       0.08199986       0.05886626 </v>
    <v>       0.24611647       0.91799551       0.05886237 </v>
    <v>       0.24908231       0.08688135       0.31226542 </v>
    <v>      -0.00566230       0.92234580       0.31196626 </v>
    <v>       0.99638989       0.07297679       0.05877816 </v>
    <v>       0.75344578       0.92703971       0.05874077 </v>
    <v>       0.75588658       0.07767037       0.31197485 </v>
    <v>       0.50112666       0.91313828       0.31226485 </v>
    <v>       0.49859012       0.08228970       0.56628330 </v>
    <v>       0.25118569       0.91770684       0.56628081 </v>
    <v>       0.24866212       0.07764464       0.81246988 </v>
    <v>      -0.00535012       0.93128622       0.81239391 </v>
    <v>       0.99231169       0.07274390       0.56637703 </v>
    <v>       0.75748592       0.92726201       0.56632782 </v>
    <v>       0.75554524       0.06873346       0.81244280 </v>
    <v>       0.50155615       0.92236322       0.81246779 </v>
   </varray>
  </structure>
  <varray name="forces" >
   <v>      -0.00534877      -0.00128763      -0.36106629 </v>
   <v>       0.41981421      -0.01784488       0.35979966 </v>
   <v>      -0.40842121       0.02089412       0.35877937 </v>
   <v>       0.00715245      -0.00281427       0.12546652 </v>
   <v>       0.34899586       0.01911411       0.08685233 </v>
   <v>      -0.00788881      -0.00168195       0.32935798 </v>
   <v>       0.29063547       0.02187013      -0.31539376 </v>
   <v>       0.00441057      -0.00056942      -0.16860869 </v>
   <v>      -0.36514674      -0.01516259       0.08493357 </v>
   <v>      -0.27725719      -0.02215077      -0.31753403 </v>
   <v>      -0.01563081      -0.00191828      -0.10048954 </v>
   <v>      -0.02787341      -0.01053882       0.01615221 </v>
   <v>       0.02285542      -0.00180290       0.41488812 </v>
   <v>       0.15977576      -0.09998588       0.08486617 </v>
   <v>       0.20584848      -0.97781217       0.22404739 </v>
   <v>       0.14564203       2.72700847      -0.00547486 </v>
   <v>      -0.14249006      -2.71606882      -0.00489450 </v>
   <v>      -0.21264701       0.97909651       0.22319670 </v>
   <v>      -0.16951708       0.10081462       0.08465909 </v>
   <v>      -0.27219321       0.21844641       0.03497622 </v>
   <v>       0.28479127      -0.21897414       0.03423320 </v>
   <v>       0.28070201      -0.20916562      -0.15129350 </v>
   <v>      -0.00205173      -1.06586605      -0.20850446 </v>
   <v>       0.07624382       0.20096228      -0.01273369 </v>
   <v>      -0.06905686      -0.19910049      -0.01308602 </v>
   <v>      -0.00433439       1.06499061      -0.20777175 </v>
   <v>      -0.29194453       0.21104685      -0.15319762 </v>
   <v>      -0.16696896      -0.16270315       0.00324537 </v>
   <v>       0.17795191       0.16500482       0.00227031 </v>
   <v>      -0.21313831       0.13538409      -0.18565089 </v>
   <v>      -0.12803472      -0.18465951      -0.14931680 </v>
   <v>       0.21983856       0.10312796      -0.01723121 </v>
   <v>      -0.22033549      -0.10377182      -0.01800348 </v>
   <v>       0.12615462       0.18411127      -0.14936930 </v>
   <v>       0.21343029      -0.13458213      -0.18429327 </v>
   <v>      -0.16157371       0.13814269       0.02758370 </v>
   <v>       0.16230402      -0.13931305       0.02602337 </v>
   <v>      -0.17561306       0.15830194       0.19247924 </v>
   <v>      -0.14953037      -0.14185370       0.11922650 </v>
   <v>       0.16094132       0.20517174       0.00593460 </v>
   <v>      -0.16106241      -0.20520529       0.00638199 </v>
   <v>       0.14802276       0.13992706       0.12013485 </v>
   <v>       0.17613059      -0.15797465       0.19198556 </v>
   <v>      -0.11666393       0.20624739       0.00753965 </v>
   <v>       0.11835944      -0.20761517       0.00696842 </v>
   <v>       0.55560701      -1.11258721      -0.54369815 </v>
   <v>      -0.54420997       1.10944185      -0.54100973 </v>
   <v>      -0.10090531      -2.93782706      -0.02125653 </v>
   <v>      -0.67900146       0.03066081      -0.31159473 </v>
   <v>      -0.06716843       0.47154194      -0.06556494 </v>
   <v>       0.09785785      -0.46023248      -0.08535999 </v>
   <v>       0.67171680      -0.03158536      -0.30406588 </v>
   <v>       0.10015552       2.92261247      -0.02077286 </v>
   <v>      -0.45190171      -1.16290310       0.55371819 </v>
   <v>       0.45203627       1.16745542       0.55607757 </v>
   <v>      -0.02261349      -0.16385100       0.00153249 </v>
   <v>      -0.38089109      -0.67754888       0.04859195 </v>
   <v>      -0.69465332       0.62603546       0.11471098 </v>
   <v>       0.70115398      -0.62469752       0.10279455 </v>
   <v>       0.36239577       0.68199349       0.06457686 </v>
   <v>       0.01514349       0.16225132       0.00325179 </v>
  </varray>
  <varray name="stress" >
   <v>       8.48108580       0.43656492       0.01871478 </v>
   <v>       0.43656474      12.92349494       0.06314806 </v>
   <v>       0.01871480       0.06314811       4.32969129 </v>
  </varray>
  <energy>
   <i name="e_fr_energy">   -311.50774697 </i>
   <i name="e_wo_entrp">   -311.50774697 </i>
   <i name="e_0_energy">      0.00000000 </i>
  </energy>
  <time name="totalsc"> 1032.94 1040.85</time>
 </calculation>
 <calculation>
  <scstep>
   <time name="dav">   64.33   64.71</time>
   <time name="total">   65.05   65.53</time>
   <energy>
    <i name="alphaZ">   1085.21905829 </i>
    <i name="ewald"> -30994.85879572 </i>
    <i name="hartreedc"> -12858.67762219 </i>
    <i name="XCdc">   1419.51691562 </i>
    <i name="pawpsdc">  44202.12009283 </i>
    <i name="pawaedc"> -43683.56100122 </i>
    <i name="eentropy">      0.00000000 </i>
    <i name="bandstr">  -4257.46334413 </i>
    <i name="atom">  44791.06186932 </i>
    <i name="e_fr_energy">   -296.64282719 </i>
    <i name="e_wo_entrp">   -296.64282719 </i>
    <i name="e_0_energy">   -296.64282719 </i>
   </energy>
  </scstep>
  <scstep>
   <time name="dav">   67.88   68.01</time>
   <time name="total">   68.67   68.80</time>
   <energy>
    <i name="e_fr_energy">   -296.74773131 </i>
    <i name="e_wo_entrp">   -296.74773131 </i>
    <i name="e_0_energy">   -296.74773131 </i>
   </energy>
  </scstep>
  <scstep>
   <time name="dav">   79.54   80.65</time>
   <time name="total">   80.33   81.45</time>
   <energy>
    <i name="e_fr_energy">   -296.74308682 </i>
    <i name="e_wo_entrp">   -296.74308682 </i>
    <i name="e_0_energy">   -296.74308682 </i>
   </energy>
  </scstep>
  <scstep>
   <time name="dav">   73.71   75.32</time>
   <time name="total">   74.50   76.12</time>
   <energy>
    <i name="e_fr_energy">   -296.73783315 </i>
    <i name="e_wo_entrp">   -296.73783315 </i>
    <i name="e_0_energy">   -296.73783315 </i>
   </energy>
  </scstep>
  <scstep>
   <time name="dav">   84.85   85.70</time>
   <time name="total">   85.64   86.50</time>
   <energy>
    <i name="e_fr_energy">   -296.73743008 </i>
    <i name="e_wo_entrp">   -296.73743008 </i>
    <i name="e_0_energy">   -296.73743008 </i>
   </energy>
  </scstep>
  <scstep>
   <time name="dav">   72.14   72.51</time>
   <time name="total">   72.93   73.30</time>
   <energy>
    <i name="e_fr_energy">   -296.73737441 </i>
    <i name="e_wo_entrp">   -296.73737441 </i>
    <i name="e_0_energy">   -296.73737441 </i>
   </energy>
  </scstep>
  <scstep>
   <time name="dav">   90.04   90.20</time>
   <time name="total">   90.84   90.99</time>
   <energy>
    <i name="e_fr_energy">   -296.73731406 </i>
    <i name="e_wo_entrp">   -296.73731406 </i>
    <i name="e_0_energy">   -296.73731406 </i>
   </energy>
  </scstep>
  <scstep>
   <time name="dav">   69.46   70.24</time>
   <time name="total">   70.25   71.04</time>
   <energy>
    <i name="e_fr_energy">   -296.73729411 </i>
    <i name="e_wo_entrp">   -296.73729411 </i>
    <i name="e_0_energy">   -296.73729411 </i>
   </energy>
  </scstep>
  <scstep>
   <time name="dav">   80.26   80.78</time>
   <time name="total">   81.07   81.59</time>
   <energy>
    <i name="e_fr_energy">   -296.73729156 </i>
    <i name="e_wo_entrp">   -296.73729156 </i>
    <i name="e_0_energy">   -296.73729156 </i>
   </energy>
  </scstep>
  <scstep>
   <time name="dav">   61.06   61.15</time>
   <time name="total">   61.85   61.95</time>
   <energy>
    <i name="e_fr_energy">   -296.73729403 </i>
    <i name="e_wo_entrp">   -296.73729403 </i>
    <i name="e_0_energy">   -296.73729403 </i>
   </energy>
  </scstep>
  <scstep>
   <time name="dav">   55.91   55.92</time>
   <time name="total">   55.99   55.99</time>
   <energy>
    <i name="alphaZ">   1085.21905829 </i>
    <i name="ewald"> -30994.85879572 </i>
    <i name="hartreedc"> -12879.13580981 </i>
    <i name="XCdc">   1420.42166056 </i>
    <i name="pawpsdc">  44121.69637785 </i>
    <i name="pawaedc"> -43602.27558046 </i>
    <i name="eentropy">      0.00000000 </i>
    <i name="bandstr">  -4238.86607461 </i>
    <i name="atom">  44791.06186932 </i>
    <i name="e_fr_energy">   -296.73729457 </i>
    <i name="e_wo_entrp">   -296.73729457 </i>
    <i name="e_0_energy">   -296.73729457 </i>
   </energy>
  </scstep>
  <structure>
   <crystal>
    <varray name="basis" >
     <v>      11.13545541       0.00023099       0.00004990 </v>
     <v>       0.00019785       9.51507527       0.00031232 </v>
     <v>       0.00004992       0.00036476      11.17406512 </v>
    </varray>
    <i name="volume">   1183.94467471 </i>
    <varray name="rec_basis" >
     <v>       0.08980324      -0.00000187      -0.00000040 </v>
     <v>      -0.00000218       0.10509638      -0.00000343 </v>
     <v>      -0.00000040      -0.00000294       0.08949295 </v>
    </varray>
   </crystal>
   <varray name="positions" >
    <v>       0.37535527       0.00016202       0.43502798 </v>
    <v>       0.12745176       0.99974888       0.18885813 </v>
    <v>       0.62182808       0.99993369       0.18885912 </v>
    <v>       0.87461763       0.00016620       0.18839829 </v>
    <v>       0.12858635       0.99988892       0.93801956 </v>
    <v>       0.37535521       0.00016695       0.93885986 </v>
    <v>       0.12755788       0.99986268       0.68486718 </v>
    <v>       0.37462687       0.00016423       0.68553177 </v>
    <v>       0.62215418       0.99978566       0.93800201 </v>
    <v>       0.62172117       0.99980987       0.68486806 </v>
    <v>       0.87532354       0.00014047       0.43286232 </v>
    <v>       0.87532497       0.00014938       0.94107946 </v>
    <v>       0.87465569       0.00014495       0.68483088 </v>
    <v>       0.00195401       0.29993920       0.06448738 </v>
    <v>       0.25179949       0.70892585       0.06448962 </v>
    <v>       0.25115377       0.28704249       0.31277887 </v>
    <v>       0.49864718       0.71293042       0.31277895 </v>
    <v>       0.49840676       0.29108355       0.06448642 </v>
    <v>       0.74827870       0.70008841       0.06448300 </v>
    <v>       0.74764951       0.29555975       0.31288875 </v>
    <v>       0.00213420       0.70441848       0.31288553 </v>
    <v>       0.00283330       0.29997011       0.56091951 </v>
    <v>       0.25106462       0.70893631       0.56113331 </v>
    <v>       0.25129369       0.29553830       0.81278461 </v>
    <v>       0.49849282       0.70446431       0.81278251 </v>
    <v>       0.49914064       0.29108682       0.56113264 </v>
    <v>       0.74740221       0.70007439       0.56091391 </v>
    <v>       0.74759307       0.30409264       0.81292425 </v>
    <v>       0.00216854       0.69592667       0.81291421 </v>
    <v>       0.24863766       0.32763508       0.06156087 </v>
    <v>      -0.00118585       0.67302451       0.06157347 </v>
    <v>       0.50136078       0.32782865       0.31283829 </v>
    <v>       0.24854610       0.67216660       0.31283442 </v>
    <v>       0.75128578       0.32697530       0.06156991 </v>
    <v>       0.50145320       0.67236350       0.06156711 </v>
    <v>       0.99864032       0.32726085       0.31297385 </v>
    <v>       0.75125728       0.67273350       0.31296736 </v>
    <v>       0.24876237       0.32773256       0.56418853 </v>
    <v>      -0.00131707       0.67333102       0.56401028 </v>
    <v>       0.50120682       0.32760568       0.81285568 </v>
    <v>       0.24870059       0.67239031       0.81285888 </v>
    <v>       0.75141934       0.32666205       0.56401674 </v>
    <v>       0.50133050       0.67226461       0.56418403 </v>
    <v>       0.99865731       0.32629988       0.81287825 </v>
    <v>       0.75123976       0.67369028       0.81287765 </v>
    <v>       0.50301357       0.08129365       0.05949343 </v>
    <v>       0.24677396       0.91870247       0.05949017 </v>
    <v>       0.24926587       0.08531758       0.31229943 </v>
    <v>      -0.00464766       0.92228853       0.31205242 </v>
    <v>       0.99699948       0.07385569       0.05942065 </v>
    <v>       0.75281942       0.92615785       0.05938985 </v>
    <v>       0.75487819       0.07772479       0.31205952 </v>
    <v>       0.50095204       0.91469860       0.31229885 </v>
    <v>       0.49881434       0.08153260       0.56561612 </v>
    <v>       0.25095521       0.91846460       0.56561401 </v>
    <v>       0.24891925       0.07770355       0.81246815 </v>
    <v>      -0.00439013       0.92965833       0.81240549 </v>
    <v>       0.99363567       0.07366375       0.56569343 </v>
    <v>       0.75615186       0.92634118       0.56565288 </v>
    <v>       0.75459661       0.07035789       0.81244575 </v>
    <v>       0.50130633       0.92230293       0.81246644 </v>
   </varray>
  </structure>
  <varray name="forces" >
   <v>      -0.00607051      -0.00136261      -0.39150043 </v>
   <v>       0.48781090      -0.01482874       0.39527941 </v>
   <v>      -0.47540819       0.01744472       0.39441525 </v>
   <v>       0.00631461      -0.00246039       0.18211724 </v>
   <v>       0.44725612       0.01430783       0.13007044 </v>
   <v>      -0.00824841      -0.00152898       0.37159816 </v>
   <v>       0.38487123       0.01621489      -0.35929610 </v>
   <v>       0.00443711      -0.00069787      -0.20734449 </v>
   <v>      -0.46256280      -0.01134192       0.12754492 </v>
   <v>      -0.37087574      -0.01686433      -0.36123050 </v>
   <v>      -0.01633928      -0.00277809      -0.29683671 </v>
   <v>      -0.02648541      -0.00964439       0.24708279 </v>
   <v>       0.02148188      -0.00268996       0.20596637 </v>
   <v>       0.22754584       0.07943420       0.15344941 </v>
   <v>       0.24425750      -0.56393421       0.26149207 </v>
   <v>       0.17302509       1.54788586      -0.00854487 </v>
   <v>      -0.16685791      -1.54249400      -0.00803939 </v>
   <v>      -0.25250995       0.56554843       0.26066705 </v>
   <v>      -0.23701130      -0.07788677       0.15314406 </v>
   <v>      -0.33999441       0.19655792       0.03215664 </v>
   <v>       0.35258299      -0.19798286       0.03147021 </v>
   <v>       0.37498357      -0.01312701      -0.22053395 </v>
   <v>       0.04589100      -0.62606739      -0.24733979 </v>
   <v>       0.13212812       0.17858879      -0.01235276 </v>
   <v>      -0.12395314      -0.17694371      -0.01276442 </v>
   <v>      -0.05392456       0.62675240      -0.24684168 </v>
   <v>      -0.38563200       0.01595129      -0.22238527 </v>
   <v>      -0.25468695       0.12061767       0.00743374 </v>
   <v>       0.26519010      -0.11817371       0.00627474 </v>
   <v>      -0.24902340       0.15094775      -0.21853027 </v>
   <v>      -0.16689059      -0.16269816      -0.18735566 </v>
   <v>       0.25703102       0.13408609      -0.01531482 </v>
   <v>      -0.25712331      -0.13478287      -0.01615662 </v>
   <v>       0.16527943       0.16222166      -0.18757620 </v>
   <v>       0.24883919      -0.15031340      -0.21706641 </v>
   <v>      -0.19923491       0.13629570       0.02898622 </v>
   <v>       0.19975773      -0.13751608       0.02736094 </v>
   <v>      -0.21453382       0.17353809       0.22526800 </v>
   <v>      -0.19165236      -0.11539742       0.15576338 </v>
   <v>       0.19969199       0.20529416       0.00466621 </v>
   <v>      -0.19941238      -0.20547372       0.00520139 </v>
   <v>       0.19047365       0.11349378       0.15682468 </v>
   <v>       0.21462268      -0.17336425       0.22462675 </v>
   <v>      -0.16075937       0.15549080       0.00701707 </v>
   <v>       0.16211647      -0.15702711       0.00651943 </v>
   <v>       0.60786604      -0.71354981      -0.59053672 </v>
   <v>      -0.59615509       0.71073117      -0.58859322 </v>
   <v>      -0.11490838      -1.76521122      -0.02346212 </v>
   <v>      -0.80711246       0.04457058      -0.27045315 </v>
   <v>      -0.22019331       0.23994461      -0.22423612 </v>
   <v>       0.24966645      -0.22963621      -0.24218179 </v>
   <v>       0.79971071      -0.04470570      -0.26384350 </v>
   <v>       0.11175159       1.75586287      -0.02311435 </v>
   <v>      -0.42448690      -0.73511327       0.60439193 </v>
   <v>       0.42605501       0.73822414       0.60625914 </v>
   <v>      -0.07836314      -0.14517723       0.00202666 </v>
   <v>      -0.55223315      -0.34782726       0.03442340 </v>
   <v>      -0.91747429       0.35667442       0.28628774 </v>
   <v>       0.92512244      -0.35475609       0.27430983 </v>
   <v>       0.53385786       0.35256749       0.04993453 </v>
   <v>       0.07049910       0.14410942       0.00340153 </v>
  </varray>
  <varray name="stress" >
   <v>       5.18990468       0.32785140       0.01660309 </v>
   <v>       0.32785130       5.32816212       0.06396257 </v>
   <v>       0.01660304       0.06396254       2.94803049 </v>
  </varray>
  <energy>
   <i name="e_fr_energy">   -311.59728705 </i>
   <i name="e_wo_entrp">   -311.59728705 </i>
   <i name="e_0_energy">      0.00000000 </i>
  </energy>
  <time name="totalsc">  911.96  918.32</time>
 </calculation>
 <calculation>
  <scstep>
   <time name="dav">   62.33   62.37</time>
   <time name="total">   63.12   63.16</time>
   <energy>
    <i name="alphaZ">   1081.04942258 </i>
    <i name="ewald"> -31070.30393467 </i>
    <i name="hartreedc"> -12755.51511487 </i>
    <i name="XCdc">   1417.52952181 </i>
    <i name="pawpsdc">  44121.73602673 </i>
    <i name="pawaedc"> -43602.31349769 </i>
    <i name="eentropy">      0.00000000 </i>
    <i name="bandstr">  -4279.43381280 </i>
    <i name="atom">  44791.06186932 </i>
    <i name="e_fr_energy">   -296.18951960 </i>
    <i name="e_wo_entrp">   -296.18951960 </i>
    <i name="e_0_energy">   -296.18951960 </i>
   </energy>
  </scstep>
  <scstep>
   <time name="dav">   74.35   74.49</time>
   <time name="total">   75.14   75.28</time>
   <energy>
    <i name="e_fr_energy">   -297.41744260 </i>
    <i name="e_wo_entrp">   -297.41744260 </i>
    <i name="e_0_energy">   -297.41744260 </i>
   </energy>
  </scstep>
  <scstep>
   <time name="dav">   81.04   81.35</time>
   <time name="total">   81.83   82.14</time>
   <energy>
    <i name="e_fr_energy">   -297.39686543 </i>
    <i name="e_wo_entrp">   -297.39686543 </i>
    <i name="e_0_energy">   -297.39686543 </i>
   </energy>
  </scstep>
  <scstep>
   <time name="dav">   74.73   74.77</time>
   <time name="total">   75.52   75.56</time>
   <energy>
    <i name="e_fr_energy">   -297.37337717 </i>
    <i name="e_wo_entrp">   -297.37337717 </i>
    <i name="e_0_energy">   -297.37337717 </i>
   </energy>
  </scstep>
  <scstep>
   <time name="dav">   70.76   70.97</time>
   <time name="total">   71.55   71.76</time>
   <energy>
    <i name="e_fr_energy">   -297.35926612 </i>
    <i name="e_wo_entrp">   -297.35926612 </i>
    <i name="e_0_energy">   -297.35926612 </i>
   </energy>
  </scstep>
  <scstep>
   <time name="dav">   74.09   76.00</time>
   <time name="total">   74.89   76.87</time>
   <energy>
    <i name="e_fr_energy">   -297.35901160 </i>
    <i name="e_wo_entrp">   -297.35901160 </i>
    <i name="e_0_energy">   -297.35901160 </i>
   </energy>
  </scstep>
  <scstep>
   <time name="dav">   76.08   76.25</time>
   <time name="total">   76.89   77.07</time>
   <energy>
    <i name="e_fr_energy">   -297.35907116 </i>
    <i name="e_wo_entrp">   -297.35907116 </i>
    <i name="e_0_energy">   -297.35907116 </i>
   </energy>
  </scstep>
  <scstep>
   <time name="dav">   78.57   78.62</time>
   <time name="total">   79.36   79.42</time>
   <energy>
    <i name="e_fr_energy">   -297.35895518 </i>
    <i name="e_wo_entrp">   -297.35895518 </i>
    <i name="e_0_energy">   -297.35895518 </i>
   </energy>
  </scstep>
  <scstep>
   <time name="dav">   79.96   79.98</time>
   <time name="total">   80.75   80.77</time>
   <energy>
    <i name="e_fr_energy">   -297.35891955 </i>
    <i name="e_wo_entrp">   -297.35891955 </i>
    <i name="e_0_energy">   -297.35891955 </i>
   </energy>
  </scstep>
  <scstep>
   <time name="dav">   68.17   68.53</time>
   <time name="total">   68.96   69.32</time>
   <energy>
    <i name="e_fr_energy">   -297.35892582 </i>
    <i name="e_wo_entrp">   -297.35892582 </i>
    <i name="e_0_energy">   -297.35892582 </i>
   </energy>
  </scstep>
  <scstep>
   <time name="dav">   71.94   72.08</time>
   <time name="total">   72.74   72.88</time>
   <energy>
    <i name="e_fr_energy">   -297.35892677 </i>
    <i name="e_wo_entrp">   -297.35892677 </i>
    <i name="e_0_energy">   -297.35892677 </i>
   </energy>
  </scstep>
  <scstep>
   <time name="dav">   57.51   57.53</time>
   <time name="total">   58.36   58.38</time>
   <energy>
    <i name="e_fr_energy">   -297.35892794 </i>
    <i name="e_wo_entrp">   -297.35892794 </i>
    <i name="e_0_energy">   -297.35892794 </i>
   </energy>
  </scstep>
  <scstep>
   <time name="dav">   57.75   57.96</time>
   <time name="total">   57.83   58.04</time>
   <energy>
    <i name="alphaZ">   1081.04942258 </i>
    <i name="ewald"> -31070.30393467 </i>
    <i name="hartreedc"> -12786.57539957 </i>
    <i name="XCdc">   1419.01692964 </i>
    <i name="pawpsdc">  43880.05578528 </i>
    <i name="pawaedc"> -43357.00276205 </i>
    <i name="eentropy">      0.00000000 </i>
    <i name="bandstr">  -4254.66083932 </i>
    <i name="atom">  44791.06186932 </i>
    <i name="e_fr_energy">   -297.35892878 </i>
    <i name="e_wo_entrp">   -297.35892878 </i>
    <i name="e_0_energy">   -297.35892878 </i>
   </energy>
  </scstep>
  <structure>
   <crystal>
    <varray name="basis" >
     <v>      11.15320892       0.00237002       0.00017147 </v>
     <v>       0.00202576       9.52319327       0.00076348 </v>
     <v>       0.00017198       0.00089439      11.18976222 </v>
    </varray>
    <i name="volume">   1188.51118008 </i>
    <varray name="rec_basis" >
     <v>       0.08966030      -0.00001907      -0.00000138 </v>
     <v>      -0.00002231       0.10500680      -0.00000839 </v>
     <v>      -0.00000137      -0.00000716       0.08936740 </v>
    </varray>
   </crystal>
   <varray name="positions" >
    <v>       0.37531782       0.00015266       0.43275842 </v>
    <v>       0.13047993       0.99964435       0.19119405 </v>
    <v>       0.61887257       0.00005172       0.19119181 </v>
    <v>       0.87464668       0.00015278       0.18968669 </v>
    <v>       0.13156830       0.99997588       0.93895984 </v>
    <v>       0.37530860       0.00015831       0.94109772 </v>
    <v>       0.13019256       0.99994996       0.68267608 </v>
    <v>       0.37465130       0.00015886       0.68420412 </v>
    <v>       0.61909449       0.99971125       0.93892572 </v>
    <v>       0.61916556       0.99971699       0.68266923 </v>
    <v>       0.87523212       0.00011669       0.43023682 </v>
    <v>       0.87519160       0.00009488       0.94356756 </v>
    <v>       0.87476140       0.00012305       0.68498257 </v>
    <v>       0.00353988       0.30198478       0.06570790 </v>
    <v>       0.25340154       0.70760222       0.06616121 </v>
    <v>       0.25232372       0.29177417       0.31272889 </v>
    <v>       0.49752421       0.70821568       0.31273134 </v>
    <v>       0.49675149       0.29241823       0.06615343 </v>
    <v>       0.74664376       0.69805994       0.06570088 </v>
    <v>       0.74545549       0.29665063       0.31304654 </v>
    <v>       0.00439607       0.70331302       0.31303938 </v>
    <v>       0.00534152       0.30157362       0.55934547 </v>
    <v>       0.25158164       0.70731245       0.55952176 </v>
    <v>       0.25234137       0.29653369       0.81272084 </v>
    <v>       0.49749551       0.70347789       0.81271637 </v>
    <v>       0.49857100       0.29272224       0.55952286 </v>
    <v>       0.74484095       0.69850036       0.55933036 </v>
    <v>       0.74573604       0.30778898       0.81299123 </v>
    <v>       0.00407700       0.69224901       0.81297312 </v>
    <v>       0.24710512       0.32867564       0.06020012 </v>
    <v>      -0.00231354       0.67215677       0.06034704 </v>
    <v>       0.50292622       0.32885410       0.31276691 </v>
    <v>       0.24698268       0.67113610       0.31275827 </v>
[...]
       <r>    8.7957    0.0000 </r>
       <r>    8.7987    0.0000 </r>
       <r>    8.8466    0.0000 </r>
       <r>    8.8710    0.0000 </r>
       <r>    8.8998    0.0000 </r>
      </set>
     </set>
    </set>
   </array>
  </eigenvalues>
  <separator name="orbital magnetization" >
   <v name="MAGDIPOLOUT">      0.00000000      0.00000000      0.00000000</v>
  </separator>
  <dos>
   <i name="efermi">      4.23753642 </i>
   <total>
    <array>
     <dimension dim="1">gridpoints</dimension>
     <dimension dim="2">spin</dimension>
     <field>energy</field>
     <field>total</field>
     <field>integrated</field>
     <set>
      <set comment="spin 1">
       <r>   -42.6393     0.0000     0.0000 </r>
       <r>   -42.4573     0.0000     0.0000 </r>
       <r>   -42.2752     0.0000     0.0000 </r>
       <r>   -42.0932     0.0000     0.0000 </r>
       <r>   -41.9111     0.0000     0.0000 </r>
       <r>   -41.7291     0.0000     0.0000 </r>
       <r>   -41.5470     0.0000     0.0000 </r>
       <r>   -41.3650     0.0000     0.0000 </r>
       <r>   -41.1830     0.0000     0.0000 </r>
       <r>   -41.0009     0.0000     0.0000 </r>
       <r>   -40.8189     0.0000     0.0000 </r>
       <r>   -40.6368     0.0000     0.0000 </r>
       <r>   -40.4548     0.0000     0.0000 </r>
       <r>   -40.2727     0.0000     0.0000 </r>
       <r>   -40.0907     0.0000     4.0000 </r>
       <r>   -39.9086     0.0000     4.0000 </r>
       <r>   -39.7266     0.0000    14.0000 </r>
       <r>   -39.5445     0.0000    16.0000 </r>
       <r>   -39.3625     0.0000    16.0000 </r>
       <r>   -39.1805     0.0000    16.0000 </r>
       <r>   -38.9984     0.0000    18.0000 </r>
       <r>   -38.8164     0.0000    20.0000 </r>
       <r>   -38.6343     0.0000    20.0000 </r>
       <r>   -38.4523     0.0000    20.0000 </r>
       <r>   -38.2702     0.0000    20.0000 </r>
       <r>   -38.0882     0.0000    20.0000 </r>
       <r>   -37.9061     0.0000    20.0000 </r>
       <r>   -37.7241     0.0000    20.0000 </r>
       <r>   -37.5420     0.0000    20.0000 </r>
       <r>   -37.3600     0.0000    20.0000 </r>
       <r>   -37.1779     0.0000    20.0000 </r>
       <r>   -36.9959     0.0000    20.0000 </r>
       <r>   -36.8139     0.0000    20.0000 </r>
       <r>   -36.6318     0.0000    20.0000 </r>
       <r>   -36.4498     0.0000    20.0000 </r>
       <r>   -36.2677     0.0000    20.0000 </r>
       <r>   -36.0857     0.0000    20.0000 </r>
       <r>   -35.9036     0.0000    20.0000 </r>
       <r>   -35.7216     0.0000    20.0000 </r>
       <r>   -35.5395     0.0000    20.0000 </r>
       <r>   -35.3575     0.0000    20.0000 </r>
       <r>   -35.1754     0.0000    20.0000 </r>
       <r>   -34.9934     0.0000    20.0000 </r>
       <r>   -34.8113     0.0000    20.0000 </r>
       <r>   -34.6293     0.0000    20.0000 </r>
       <r>   -34.4473     0.0000    20.0000 </r>
       <r>   -34.2652     0.0000    20.0000 </r>
       <r>   -34.0832     0.0000    20.0000 </r>
       <r>   -33.9011     0.0000    20.0000 </r>
       <r>   -33.7191     0.0000    20.0000 </r>
       <r>   -33.5370     0.0000    20.0000 </r>
       <r>   -33.3550     0.0000    20.0000 </r>
       <r>   -33.1729     0.0000    20.0000 </r>
       <r>   -32.9909     0.0000    20.0000 </r>
       <r>   -32.8088     0.0000    20.0000 </r>
       <r>   -32.6268     0.0000    20.0000 </r>
       <r>   -32.4447     0.0000    20.0000 </r>
       <r>   -32.2627     0.0000    20.0000 </r>
       <r>   -32.0807     0.0000    20.0000 </r>
       <r>   -31.8986     0.0000    20.0000 </r>
       <r>   -31.7166     0.0000    20.0000 </r>
       <r>   -31.5345     0.0000    20.0000 </r>
       <r>   -31.3525     0.0000    20.0000 </r>
       <r>   -31.1704     0.0000    20.0000 </r>
       <r>   -30.9884     0.0000    20.0000 </r>
       <r>   -30.8063     0.0000    20.0000 </r>
       <r>   -30.6243     0.0000    20.0000 </r>
       <r>   -30.4422     0.0000    20.0000 </r>
       <r>   -30.2602     0.0000    20.0000 </r>
       <r>   -30.0781     0.0000    20.0000 </r>
       <r>   -29.8961     0.0000    20.0000 </r>
       <r>   -29.7141     0.0000    20.0000 </r>
       <r>   -29.5320     0.0000    20.0000 </r>
       <r>   -29.3500     0.0000    20.0000 </r>
       <r>   -29.1679     0.0000    20.0000 </r>
       <r>   -28.9859     0.0000    20.0000 </r>
       <r>   -28.8038     0.0000    20.0000 </r>
       <r>   -28.6218     0.0000    20.0000 </r>
       <r>   -28.4397     0.0000    20.0000 </r>
       <r>   -28.2577     0.0000    20.0000 </r>
       <r>   -28.0756     0.0000    20.0000 </r>
       <r>   -27.8936     0.0000    20.0000 </r>
       <r>   -27.7115     0.0000    20.0000 </r>
       <r>   -27.5295     0.0000    20.0000 </r>
       <r>   -27.3475     0.0000    20.0000 </r>
       <r>   -27.1654     0.0000    20.0000 </r>
       <r>   -26.9834     0.0000    20.0000 </r>
       <r>   -26.8013     0.0000    20.0000 </r>
       <r>   -26.6193     0.0000    20.0000 </r>
       <r>   -26.4372     0.0000    20.0000 </r>
       <r>   -26.2552     0.0000    20.0000 </r>
       <r>   -26.0731     0.0000    20.0000 </r>
       <r>   -25.8911     0.0000    20.0000 </r>
       <r>   -25.7090     0.0000    20.0000 </r>
       <r>   -25.5270     0.0000    20.0000 </r>
       <r>   -25.3449     0.0000    20.0000 </r>
       <r>   -25.1629     0.0000    20.0000 </r>
       <r>   -24.9809     0.0000    20.0000 </r>
       <r>   -24.7988     0.0000    20.0000 </r>
       <r>   -24.6168     0.0000    20.0000 </r>
       <r>   -24.4347     0.0000    20.0000 </r>
       <r>   -24.2527     0.0000    20.0000 </r>
       <r>   -24.0706     0.0000    20.0000 </r>
       <r>   -23.8886     0.0000    20.0000 </r>
       <r>   -23.7065     0.0000    20.0000 </r>
       <r>   -23.5245     0.0000    20.0000 </r>
       <r>   -23.3424     0.0000    20.0000 </r>
       <r>   -23.1604     0.0000    20.0000 </r>
       <r>   -22.9784     0.0000    20.0000 </r>
       <r>   -22.7963     0.0000    20.0000 </r>
       <r>   -22.6143     0.0000    20.0000 </r>
       <r>   -22.4322     0.0000    20.0000 </r>
       <r>   -22.2502     0.0000    20.0000 </r>
       <r>   -22.0681     0.0000    20.0000 </r>
       <r>   -21.8861     0.0000    20.0000 </r>
       <r>   -21.7040     0.0000    20.0000 </r>
       <r>   -21.5220     0.0000    20.0000 </r>
       <r>   -21.3399     0.0000    20.0000 </r>
       <r>   -21.1579     0.0000    20.0000 </r>
       <r>   -20.9758     0.0000    20.0000 </r>
       <r>   -20.7938     0.0000    20.0000 </r>
       <r>   -20.6118     0.0000    20.0000 </r>
       <r>   -20.4297     0.0000    20.0000 </r>
       <r>   -20.2477     0.0000    20.0000 </r>
       <r>   -20.0656     0.0000    20.0000 </r>
       <r>   -19.8836     0.0000    20.0000 </r>
       <r>   -19.7015     0.0000    20.0000 </r>
       <r>   -19.5195     0.0000    20.0000 </r>
       <r>   -19.3374     0.0000    20.0000 </r>
       <r>   -19.1554     0.0000    20.0000 </r>
       <r>   -18.9733     0.0000    20.0000 </r>
       <r>   -18.7913     0.0000    30.0000 </r>
       <r>   -18.6092     0.0000    76.0000 </r>
       <r>   -18.4272     0.0000   138.0000 </r>
       <r>   -18.2452     0.0000   172.0000 </r>
       <r>   -18.0631     0.0000   180.0000 </r>
       <r>   -17.8811     0.0000   180.0000 </r>
       <r>   -17.6990     0.0000   180.0000 </r>
       <r>   -17.5170     0.0000   180.0000 </r>
       <r>   -17.3349     0.0000   180.0000 </r>
       <r>   -17.1529     0.0000   180.0000 </r>
       <r>   -16.9708     0.0000   180.0000 </r>
       <r>   -16.7888     0.0000   180.0000 </r>
       <r>   -16.6067     0.0000   180.0000 </r>
       <r>   -16.4247     0.0000   180.0000 </r>
       <r>   -16.2426     0.0000   180.0000 </r>
       <r>   -16.0606     0.0000   180.0000 </r>
       <r>   -15.8786     0.0000   180.0000 </r>
       <r>   -15.6965     0.0000   180.0000 </r>
       <r>   -15.5145     0.0000   180.0000 </r>
       <r>   -15.3324     0.0000   180.0000 </r>
       <r>   -15.1504     0.0000   180.0000 </r>
       <r>   -14.9683     0.0000   180.0000 </r>
       <r>   -14.7863     0.0000   180.0000 </r>
       <r>   -14.6042     0.0000   180.0000 </r>
       <r>   -14.4222     0.0000   180.0000 </r>
       <r>   -14.2401     0.0000   180.0000 </r>
       <r>   -14.0581     0.0000   180.0000 </r>
       <r>   -13.8760     0.0000   180.0000 </r>
       <r>   -13.6940     0.0000   180.0000 </r>
       <r>   -13.5120     0.0000   180.0000 </r>
       <r>   -13.3299     0.0000   182.0000 </r>
       <r>   -13.1479     0.0000   184.0000 </r>
       <r>   -12.9658     0.0000   188.0000 </r>
       <r>   -12.7838     0.0000   192.0000 </r>
       <r>   -12.6017     0.0000   196.0000 </r>
       <r>   -12.4197     0.0000   206.0000 </r>
       <r>   -12.2376     0.0000   212.0000 </r>
       <r>   -12.0556     0.0000   212.0000 </r>
       <r>   -11.8735     0.0000   212.0000 </r>
       <r>   -11.6915     0.0000   212.0000 </r>
       <r>   -11.5094     0.0000   212.0000 </r>
       <r>   -11.3274     0.0000   212.0000 </r>
       <r>   -11.1454     0.0000   212.0000 </r>
       <r>   -10.9633     0.0000   212.0000 </r>
       <r>   -10.7813     0.0000   212.0000 </r>
       <r>   -10.5992     0.0000   212.0000 </r>
       <r>   -10.4172     0.0000   212.0000 </r>
       <r>   -10.2351     0.0000   212.0000 </r>
       <r>   -10.0531     0.0000   212.0000 </r>
       <r>    -9.8710     0.0000   212.0000 </r>
       <r>    -9.6890     0.0000   212.0000 </r>
       <r>    -9.5069     0.0000   212.0000 </r>
       <r>    -9.3249    12.7278   212.6251 </r>
       <r>    -9.1428     0.0000   214.0000 </r>
       <r>    -8.9608     7.8887   215.6656 </r>
       <r>    -8.7788     7.8134   216.6820 </r>
       <r>    -8.5967     5.8381   219.9622 </r>
       <r>    -8.4147     6.6717   224.2009 </r>
       <r>    -8.2326    12.4531   227.4920 </r>
       <r>    -8.0506    41.5550   229.3283 </r>
       <r>    -7.8685    29.1180   236.4644 </r>
       <r>    -7.6865     1.5570   240.0068 </r>
       <r>    -7.5044    18.0070   243.1694 </r>
       <r>    -7.3224     0.0000   244.0000 </r>
       <r>    -7.1403     0.0000   244.0000 </r>
       <r>    -6.9583     0.0000   244.0000 </r>
       <r>    -6.7763     0.0000   244.0000 </r>
       <r>    -6.5942     0.0000   244.0000 </r>
       <r>    -6.4122     0.0000   244.0000 </r>
       <r>    -6.2301    15.2299   244.6834 </r>
       <r>    -6.0481    12.2826   249.2058 </r>
       <r>    -5.8660    15.6719   252.1137 </r>
       <r>    -5.6840    27.6181   255.1546 </r>
       <r>    -5.5019    21.9593   260.6617 </r>
       <r>    -5.3199    20.0368   264.2802 </r>
       <r>    -5.1378    10.8803   267.1142 </r>
       <r>    -4.9558     4.0866   268.1013 </r>
       <r>    -4.7737    13.2911   269.8505 </r>
       <r>    -4.5917     7.2338   271.5264 </r>
       <r>    -4.4097     4.9723   272.7171 </r>
       <r>    -4.2276     8.7040   273.9255 </r>
       <r>    -4.0456     4.1757   275.2955 </r>
       <r>    -3.8635     1.8287   275.7745 </r>
       <r>    -3.6815     0.4613   275.9827 </r>
       <r>    -3.4994     0.0000   276.0000 </r>
       <r>    -3.3174     0.0000   276.0000 </r>
       <r>    -3.1353     0.0000   276.0000 </r>
       <r>    -2.9533     0.0000   276.0000 </r>
       <r>    -2.7712     0.0000   276.0000 </r>
       <r>    -2.5892     0.0000   276.0000 </r>
       <r>    -2.4071     0.0000   276.0000 </r>
       <r>    -2.2251     0.0000   276.0000 </r>
       <r>    -2.0431     0.0000   276.0000 </r>
       <r>    -1.8610     0.0000   276.0000 </r>
       <r>    -1.6790     0.0000   276.0000 </r>
       <r>    -1.4969     0.0000   276.0000 </r>
       <r>    -1.3149     1.7086   276.0388 </r>
       <r>    -1.1328     6.7002   277.0907 </r>
       <r>    -0.9508     5.9624   278.3753 </r>
       <r>    -0.7687    12.6310   279.8844 </r>
       <r>    -0.5867    11.1136   282.3785 </r>
       <r>    -0.4046    21.9695   284.5249 </r>
       <r>    -0.2226    26.9816   289.7242 </r>
       <r>    -0.0405    33.4530   294.4838 </r>
       <r>     0.1415    37.0656   301.1652 </r>
       <r>     0.3235    38.5983   307.8792 </r>
       <r>     0.5056    35.3546   314.4170 </r>
       <r>     0.6876    39.2812   320.9299 </r>
       <r>     0.8697    37.8758   327.7156 </r>
       <r>     1.0517    34.3871   334.3516 </r>
       <r>     1.2338    38.8642   342.5313 </r>
       <r>     1.4158    41.9279   351.0820 </r>
       <r>     1.5979    50.7051   359.2960 </r>
       <r>     1.7799    42.0548   367.9015 </r>
       <r>     1.9620    51.3226   376.5447 </r>
       <r>     2.1440    52.1814   384.3064 </r>
       <r>     2.3261    54.9068   393.5790 </r>
       <r>     2.5081    77.9161   405.2921 </r>
       <r>     2.6901    61.5306   417.6522 </r>
       <r>     2.8722    67.0514   427.8363 </r>
       <r>     3.0542    71.7667   440.4149 </r>
       <r>     3.2363    38.8989   448.9399 </r>
       <r>     3.4183    28.7800   455.0015 </r>
       <r>     3.6004    29.0780   461.5615 </r>
       <r>     3.7824    14.3356   465.2131 </r>
       <r>     3.9645     7.5779   467.2076 </r>
       <r>     4.1465     1.0249   467.9746 </r>
       <r>     4.3286     0.0000   468.0000 </r>
       <r>     4.5106     0.0000   468.0000 </r>
       <r>     4.6927     0.0000   468.0000 </r>
       <r>     4.8747     0.0000   468.0000 </r>
       <r>     5.0567     0.0000   468.0000 </r>
       <r>     5.2388     1.5209   468.0557 </r>
       <r>     5.4208     7.3813   468.8600 </r>
       <r>     5.6029    10.6296   470.5847 </r>
       <r>     5.7849    25.1847   472.6113 </r>
       <r>     5.9670    17.5944   476.5746 </r>
       <r>     6.1490    12.8455   479.1220 </r>
       <r>     6.3311    12.7649   481.4243 </r>
       <r>     6.5131    14.3339   483.8825 </r>
       <r>     6.6952    16.0795   486.6528 </r>
       <r>     6.8772    18.1634   489.7487 </r>
       <r>     7.0593    22.6930   493.4077 </r>
       <r>     7.2413    23.2023   497.5749 </r>
       <r>     7.4233    33.9882   502.4744 </r>
       <r>     7.6054    25.8258   508.0178 </r>
       <r>     7.7874    36.7777   513.5502 </r>
       <r>     7.9695    38.1111   519.7297 </r>
       <r>     8.1515    34.9372   526.1031 </r>
       <r>     8.3336    26.4246   531.9611 </r>
       <r>     8.5156    27.5756   536.4763 </r>
       <r>     8.6977    30.1254   541.8832 </r>
       <r>     8.8797    45.4534   548.8584 </r>
       <r>     9.0618    27.4036   555.6273 </r>
       <r>     9.2438     9.8561   559.2534 </r>
       <r>     9.4258     1.0876   559.9737 </r>
       <r>     9.6079     0.0000   560.0000 </r>
       <r>     9.7899     0.0000   560.0000 </r>
       <r>     9.9720     0.0000   560.0000 </r>
       <r>    10.1540     0.0000   560.0000 </r>
       <r>    10.3361     0.0000   560.0000 </r>
       <r>    10.5181     0.0000   560.0000 </r>
       <r>    10.7002     0.0000   560.0000 </r>
       <r>    10.8822     0.0000   560.0000 </r>
       <r>    11.0643     0.0000   560.0000 </r>
       <r>    11.2463     0.0000   560.0000 </r>
       <r>    11.4284     0.0000   560.0000 </r>
       <r>    11.6104     0.0000   560.0000 </r>
       <r>    11.7924     0.0000   560.0000 </r>
       <r>    11.9745     0.0000   560.0000 </r>
      </set>
     </set>
    </array>
   </total>
  </dos>
 </calculation>
 <structure name="finalpos" >
  <crystal>
   <varray name="basis" >
    <v>      11.24178742       0.07918966       0.00011560 </v>
    <v>       0.06691705       9.48932799       0.00025952 </v>
    <v>       0.00011620       0.00024743      11.21111150 </v>
   </varray>
   <i name="volume">   1195.90842187 </i>
   <varray name="rec_basis" >
    <v>       0.08895824      -0.00062732      -0.00000091 </v>
    <v>      -0.00074237       0.10538678      -0.00000232 </v>
    <v>      -0.00000090      -0.00000243       0.08919722 </v>
   </varray>
  </crystal>
  <varray name="positions" >
   <v>       0.37506158       0.00011522       0.44228558 </v>
   <v>       0.20062412       0.96434596       0.22459487 </v>
   <v>       0.55088700       0.03584512       0.22519421 </v>
   <v>       0.87472864      -0.00010740       0.18619315 </v>
   <v>       0.13688764       0.01286520       0.94936404 </v>
   <v>       0.37516459      -0.00011640       0.94637261 </v>
   <v>       0.14447059       0.01517356       0.66213777 </v>
   <v>       0.37490422       0.00007760       0.69428944 </v>
   <v>       0.61327556       0.98725958       0.94919702 </v>
   <v>       0.60518565       0.98432251       0.66127717 </v>
   <v>       0.87478014       0.00003424       0.43140546 </v>
   <v>       0.87507767      -0.00005038       0.93695798 </v>
   <v>       0.87486799      -0.00005043       0.68811885 </v>
   <v>       0.00025987       0.30716436       0.06030332 </v>
   <v>       0.25228647       0.69918200       0.05856522 </v>
   <v>       0.25371824       0.29919229       0.31537187 </v>
   <v>       0.49625765       0.70097838       0.31534691 </v>
   <v>       0.49774937       0.30066877       0.05862080 </v>
   <v>       0.74976760       0.69279283       0.06030839 </v>
   <v>       0.75249352       0.31162950       0.30956921 </v>
   <v>      -0.00260905       0.68844249       0.30957757 </v>
   <v>      -0.00090485       0.31142569       0.55715247 </v>
   <v>       0.25444598       0.70368964       0.56163044 </v>
   <v>       0.25163977       0.30330888       0.81242768 </v>
   <v>       0.49831435       0.69671979       0.81245432 </v>
   <v>       0.49545026       0.29644419       0.56165649 </v>
   <v>       0.75083211       0.68842164       0.55716591 </v>
   <v>       0.74991717       0.31791599       0.81117499 </v>
   <v>       0.00005997       0.68202005       0.81112396 </v>
   <v>       0.25015415       0.33370284       0.05946678 </v>
   <v>      -0.00288111       0.65316273       0.05737761 </v>
   <v>       0.50851254       0.30617213       0.30722408 </v>
   <v>       0.24143498       0.69430652       0.30717818 </v>
   <v>       0.75289844       0.34692801       0.05739082 </v>
   <v>       0.49985249       0.66624468       0.05949826 </v>
   <v>       0.00500506       0.34054032       0.31084766 </v>
   <v>       0.74488810       0.65919292       0.31083673 </v>
   <v>       0.25075109       0.35026633       0.56316351 </v>
   <v>      -0.00422143       0.65296188       0.56052911 </v>
   <v>       0.50359634       0.34575180       0.80941748 </v>
   <v>       0.24639282       0.65414549       0.80940769 </v>
   <v>       0.75421678       0.34702520       0.56052762 </v>
   <v>       0.49928505       0.65002304       0.56321415 </v>
   <v>       0.00174801       0.35036756       0.80928014 </v>
   <v>       0.74823953       0.64968904       0.80929020 </v>
   <v>       0.50596884       0.08439156       0.05280282 </v>
   <v>       0.24437205       0.91551436       0.05261874 </v>
   <v>       0.25883543       0.08993100       0.33209142 </v>
   <v>      -0.02769981       0.90397422       0.30853163 </v>
   <v>       0.98985770       0.08778600       0.04323751 </v>
   <v>       0.76027057       0.91220811       0.04332619 </v>
   <v>       0.77694227       0.09589578       0.30846267 </v>
   <v>       0.49132096       0.91025718       0.33204728 </v>
   <v>       0.48336199       0.08404276       0.58060604 </v>
   <v>       0.26635101       0.91604625       0.58079813 </v>
   <v>       0.24562218       0.08342302       0.81169760 </v>
   <v>      -0.02094762       0.90887292       0.81104520 </v>
   <v>       0.97916276       0.08663103       0.56738182 </v>
   <v>       0.77044479       0.91332680       0.56742566 </v>
   <v>       0.77101023       0.09112978       0.81124601 </v>
   <v>       0.50427001       0.91660783       0.81166358 </v>
  </varray>
 </structure>
</modeling>
