<?xml version="1.0" encoding="ISO-8859-1"?>
<modeling>
 <generator>
  <i name="program" type="string">vasp </i>
  <i name="version" type="string">5.4.4.18Apr17-6-g9f103f2a35  </i>
  <i name="subversion" type="string">(build Jul 31 2017 11:33:29) complex            parallel </i>
  <i name="platform" type="string">LinuxIFC </i>
  <i name="date" type="string">2021 09 29 </i>
  <i name="time" type="string">04:32:26 </i>
 </generator>
 <incar>
  <i type="string" name="SYSTEM"> La2O2S</i>
  <i type="string" name="PREC">normal</i>
  <i type="int" name="NELMIN">     4</i>
  <i type="int" name="IBRION">     2</i>
  <i type="int" name="NFREE">    10</i>
  <i name="EDIFF">      0.00000100</i>
  <i name="EDIFFG">     -0.01000000</i>
  <i type="int" name="NSW">     1</i>
  <i type="int" name="ISIF">     2</i>
  <i name="ENCUT">    600.00000000</i>
  <i name="ENAUG">    900.00000000</i>
  <i type="int" name="ISMEAR">    -5</i>
  <i type="logical" name="LWAVE"> F  </i>
  <i type="logical" name="LCHARG"> F  </i>
  <v type="int" name="KPOINT_BSE">    -1     0     0     0</v>
 </incar>
 <structure name="primitive_cell" >
  <crystal>
   <varray name="basis" >
    <v>      11.17850000       0.00000000       0.00000000 </v>
    <v>       0.00000000       9.57460000       0.00000000 </v>
    <v>       0.00000000       0.00000000      11.18240000 </v>
   </varray>
   <i name="volume">   1196.84853820 </i>
   <varray name="rec_basis" >
    <v>       0.08945744       0.00000000       0.00000000 </v>
    <v>       0.00000000       0.10444301       0.00000000 </v>
    <v>       0.00000000       0.00000000       0.08942624 </v>
   </varray>
  </crystal>
  <varray name="positions" >
   <v>       0.37539000       0.00017000       0.43687000 </v>
   <v>      -0.49987000      -0.07798000       0.31246000 </v>
   <v>       0.25013000       0.07798000       0.31246000 </v>
   <v>       0.49987000       0.07798000      -0.43754000 </v>
   <v>       0.24987000      -0.07798000      -0.43754000 </v>
   <v>      -0.37461000      -0.00016000       0.43687000 </v>
   <v>       0.37461000       0.00017000       0.18687000 </v>
   <v>       0.37461000       0.00017000      -0.31313000 </v>
   <v>       0.49987000      -0.29519000       0.31282000 </v>
   <v>       0.24987000       0.29519000       0.31282000 </v>
   <v>      -0.49987000       0.29519000      -0.43719000 </v>
   <v>       0.25013000      -0.29519000      -0.43719000 </v>
   <v>       0.49995000       0.32677000       0.31286000 </v>
   <v>       0.24995000      -0.32677000       0.31286000 </v>
   <v>      -0.49995000      -0.32677000      -0.43714000 </v>
   <v>       0.25005000       0.32677000      -0.43714000 </v>
   <v>      -0.37539000      -0.00016000       0.18687000 </v>
   <v>       0.12461000      -0.00016000       0.18687000 </v>
   <v>       0.12461000      -0.00016000      -0.31313000 </v>
   <v>       0.49987000       0.07798000       0.06246000 </v>
   <v>      -0.24987000       0.07798000       0.31246000 </v>
   <v>      -0.25013000      -0.07798000      -0.43754000 </v>
   <v>       0.24987000      -0.07798000       0.06246000 </v>
   <v>       0.00013000      -0.07798000       0.31246000 </v>
   <v>      -0.49987000      -0.07798000      -0.18754000 </v>
   <v>      -0.00013000       0.07798000      -0.43754000 </v>
   <v>       0.25013000       0.07798000      -0.18754000 </v>
   <v>      -0.49987000       0.29519000       0.06281000 </v>
   <v>      -0.25013000       0.29519000       0.31282000 </v>
   <v>       0.25013000      -0.29519000       0.06281000 </v>
   <v>      -0.24987000      -0.29519000      -0.43719000 </v>
   <v>      -0.00013000      -0.29519000       0.31282000 </v>
   <v>       0.00013000       0.29519000      -0.43719000 </v>
   <v>       0.49987000      -0.29519000      -0.18718000 </v>
   <v>       0.24987000       0.29519000      -0.18718000 </v>
   <v>      -0.49995000      -0.32677000       0.06286000 </v>
   <v>       0.25005000       0.32677000       0.06286000 </v>
   <v>      -0.25005000      -0.32677000       0.31286000 </v>
   <v>      -0.24995000       0.32677000      -0.43714000 </v>
   <v>      -0.00005000       0.32677000       0.31286000 </v>
   <v>       0.00005000      -0.32677000      -0.43714000 </v>
   <v>       0.49995000       0.32677000      -0.18714000 </v>
   <v>       0.24995000      -0.32677000      -0.18714000 </v>
   <v>      -0.12461000       0.00017000       0.43687000 </v>
   <v>       0.37539000       0.00017000      -0.06313000 </v>
   <v>      -0.25013000      -0.07798000       0.06246000 </v>
   <v>      -0.00013000       0.07798000       0.06246000 </v>
   <v>      -0.24987000       0.07798000      -0.18754000 </v>
   <v>       0.00013000      -0.07798000      -0.18754000 </v>
   <v>      -0.12539000       0.00017000       0.18687000 </v>
   <v>      -0.12539000       0.00017000      -0.31313000 </v>
   <v>       0.12539000      -0.00016000      -0.06313000 </v>
   <v>      -0.37461000      -0.00016000      -0.06313000 </v>
   <v>      -0.24987000      -0.29519000       0.06281000 </v>
   <v>       0.00013000       0.29519000       0.06281000 </v>
   <v>      -0.25013000       0.29519000      -0.18718000 </v>
   <v>      -0.00013000      -0.29519000      -0.18718000 </v>
   <v>      -0.24995000       0.32677000       0.06286000 </v>
   <v>       0.00005000      -0.32677000       0.06286000 </v>
   <v>      -0.25005000      -0.32677000      -0.18714000 </v>
   <v>      -0.00005000       0.32677000      -0.18714000 </v>
   <v>      -0.12461000       0.00017000      -0.06313000 </v>
  </varray>
 </structure>
 <varray name="primitive_index" >
  <v type="int" >        1 </v>
  <v type="int" >       54 </v>
  <v type="int" >       49 </v>
  <v type="int" >       55 </v>
  <v type="int" >       56 </v>
  <v type="int" >        4 </v>
  <v type="int" >        3 </v>
  <v type="int" >       13 </v>
  <v type="int" >       18 </v>
  <v type="int" >       17 </v>
  <v type="int" >       27 </v>
  <v type="int" >       24 </v>
  <v type="int" >       33 </v>
  <v type="int" >       34 </v>
  <v type="int" >       44 </v>
  <v type="int" >       39 </v>
  <v type="int" >        6 </v>
  <v type="int" >        2 </v>
  <v type="int" >       10 </v>
  <v type="int" >       47 </v>
  <v type="int" >       53 </v>
  <v type="int" >       60 </v>
  <v type="int" >       48 </v>
  <v type="int" >       50 </v>
  <v type="int" >       62 </v>
  <v type="int" >       59 </v>
  <v type="int" >       57 </v>
  <v type="int" >       19 </v>
  <v type="int" >       21 </v>
  <v type="int" >       16 </v>
  <v type="int" >       28 </v>
  <v type="int" >       22 </v>
  <v type="int" >       23 </v>
  <v type="int" >       26 </v>
  <v type="int" >       25 </v>
  <v type="int" >       36 </v>
  <v type="int" >       31 </v>
  <v type="int" >       38 </v>
  <v type="int" >       43 </v>
  <v type="int" >       37 </v>
  <v type="int" >       40 </v>
  <v type="int" >       41 </v>
  <v type="int" >       42 </v>
  <v type="int" >        5 </v>
  <v type="int" >        9 </v>
  <v type="int" >       52 </v>
  <v type="int" >       51 </v>
  <v type="int" >       61 </v>
  <v type="int" >       58 </v>
  <v type="int" >        7 </v>
  <v type="int" >       12 </v>
  <v type="int" >        8 </v>
  <v type="int" >       14 </v>
  <v type="int" >       20 </v>
  <v type="int" >       15 </v>
  <v type="int" >       29 </v>
  <v type="int" >       30 </v>
  <v type="int" >       35 </v>
  <v type="int" >       32 </v>
  <v type="int" >       46 </v>
  <v type="int" >       45 </v>
  <v type="int" >       11 </v>
 </varray>
 <kpoints>
  <generation param="Gamma">
   <v type="int" name="divisions">       2        2        2 </v>
   <v name="usershift">      0.00000000       0.00000000       0.00000000 </v>
   <v name="genvec1">      0.50000000       0.00000000       0.00000000 </v>
   <v name="genvec2">      0.00000000       0.50000000       0.00000000 </v>
   <v name="genvec3">      0.00000000       0.00000000       0.50000000 </v>
   <v name="shift">      0.00000000       0.00000000       0.00000000 </v>
  </generation>
  <varray name="kpointlist" >
   <v>       0.00000000       0.00000000       0.00000000 </v>
   <v>       0.50000000       0.00000000       0.00000000 </v>
   <v>       0.00000000       0.50000000       0.00000000 </v>
   <v>       0.50000000       0.50000000       0.00000000 </v>
   <v>       0.00000000       0.00000000       0.50000000 </v>
   <v>       0.50000000       0.00000000       0.50000000 </v>
   <v>       0.00000000       0.50000000       0.50000000 </v>
   <v>       0.50000000       0.50000000       0.50000000 </v>
  </varray>
  <varray name="weights" >
   <v>       0.12500000 </v>
   <v>       0.12500000 </v>
   <v>       0.12500000 </v>
   <v>       0.12500000 </v>
   <v>       0.12500000 </v>
   <v>       0.12500000 </v>
   <v>       0.12500000 </v>
   <v>       0.12500000 </v>
  </varray>
  <varray name="tetrahedronlist"  type="int" >
   <v type="int" >        2        1        2        4        5 </v>
   <v type="int" >        2        1        3        4        5 </v>
   <v type="int" >        2        3        4        5        7 </v>
   <v type="int" >        2        2        4        5        6 </v>
   <v type="int" >        2        4        5        6        8 </v>
   <v type="int" >        2        4        5        7        8 </v>
   <v type="int" >        2        1        2        3        6 </v>
   <v type="int" >        2        2        3        4        6 </v>
   <v type="int" >        2        3        4        6        8 </v>
   <v type="int" >        2        1        3        5        6 </v>
   <v type="int" >        2        3        5        6        7 </v>
   <v type="int" >        2        3        6        7        8 </v>
   <v type="int" >        2        2        3        4        7 </v>
   <v type="int" >        2        1        2        3        7 </v>
   <v type="int" >        2        1        2        5        7 </v>
   <v type="int" >        2        2        4        7        8 </v>
   <v type="int" >        2        2        6        7        8 </v>
   <v type="int" >        2        2        5        6        7 </v>
   <v type="int" >        2        1        3        4        8 </v>
   <v type="int" >        2        1        2        4        8 </v>
   <v type="int" >        2        1        2        6        8 </v>
   <v type="int" >        2        1        3        7        8 </v>
   <v type="int" >        2        1        5        7        8 </v>
   <v type="int" >        2        1        5        6        8 </v>
  </varray>
  <i name="volumeweight">      0.02083333 </i>
 </kpoints>
 <parameters>
  <separator name="general" >
   <i type="string" name="SYSTEM">La2O2S</i>
   <i type="logical" name="LCOMPAT"> F  </i>
  </separator>
  <separator name="electronic" >
   <i type="string" name="PREC">normal</i>
   <i name="ENMAX">    600.00000000</i>
   <i name="ENAUG">    900.00000000</i>
   <i name="EDIFF">      0.00000100</i>
   <i type="int" name="IALGO">    38</i>
   <i type="int" name="IWAVPR">    11</i>
   <i type="int" name="NBANDS">   308</i>
   <i name="NELECT">    472.00000000</i>
   <i type="int" name="TURBO">     0</i>
   <i type="int" name="IRESTART">     0</i>
   <i type="int" name="NREBOOT">     0</i>
   <i type="int" name="NMIN">     0</i>
   <i name="EREF">      0.00000000</i>
   <separator name="electronic smearing" >
    <i type="int" name="ISMEAR">    -5</i>
    <i name="SIGMA">      0.20000000</i>
    <i name="KSPACING">      0.50000000</i>
    <i type="logical" name="KGAMMA"> T  </i>
   </separator>
   <separator name="electronic projectors" >
    <i type="logical" name="LREAL"> F  </i>
    <v name="ROPT">      0.00000000      0.00000000      0.00000000      0.00000000      0.00000000</v>
    <i type="int" name="LMAXPAW">  -100</i>
    <i type="int" name="LMAXMIX">     2</i>
    <i type="logical" name="NLSPLINE"> F  </i>
   </separator>
   <separator name="electronic startup" >
    <i type="int" name="ISTART">     0</i>
    <i type="int" name="ICHARG">     2</i>
    <i type="int" name="INIWAV">     1</i>
   </separator>
   <separator name="electronic spin" >
    <i type="int" name="ISPIN">     1</i>
    <i type="logical" name="LNONCOLLINEAR"> F  </i>
    <v name="MAGMOM">      1.00000000      1.00000000      1.00000000      1.00000000      1.00000000      1.00000000      1.00000000      1.00000000      1.00000000      1.00000000      1.00000000      1.00000000      1.00000000      1.00000000      1.00000000      1.00000000      1.00000000      1.00000000      1.00000000      1.00000000
      1.00000000      1.00000000      1.00000000      1.00000000      1.00000000      1.00000000      1.00000000      1.00000000      1.00000000      1.00000000      1.00000000      1.00000000      1.00000000      1.00000000      1.00000000      1.00000000      1.00000000      1.00000000      1.00000000      1.00000000
      1.00000000      1.00000000      1.00000000      1.00000000      1.00000000      1.00000000      1.00000000      1.00000000      1.00000000      1.00000000      1.00000000      1.00000000      1.00000000      1.00000000      1.00000000      1.00000000      1.00000000      1.00000000      1.00000000      1.00000000
      1.00000000      1.00000000</v>
    <i name="NUPDOWN">     -1.00000000</i>
    <i type="logical" name="LSORBIT"> F  </i>
    <v name="SAXIS">      0.00000000      0.00000000      1.00000000</v>
    <i type="logical" name="LSPIRAL"> F  </i>
    <v name="QSPIRAL">      0.00000000      0.00000000      0.00000000</v>
    <i type="logical" name="LZEROZ"> F  </i>
   </separator>
   <separator name="electronic exchange-correlation" >
    <i type="logical" name="LASPH"> F  </i>
    <i type="logical" name="LMETAGGA"> F  </i>
   </separator>
   <separator name="electronic convergence" >
    <i type="int" name="NELM">    60</i>
    <i type="int" name="NELMDL">    -5</i>
    <i type="int" name="NELMIN">     4</i>
    <i name="ENINI">    600.00000000</i>
    <separator name="electronic convergence detail" >
     <i type="logical" name="LDIAG"> T  </i>
     <i type="logical" name="LSUBROT"> F  </i>
     <i name="WEIMIN">      0.00100000</i>
     <i name="EBREAK">      0.00000000</i>
     <i name="DEPER">      0.30000000</i>
     <i type="int" name="NRMM">     4</i>
     <i name="TIME">      0.40000000</i>
    </separator>
   </separator>
   <separator name="electronic mixer" >
    <i name="AMIX">      0.40000000</i>
    <i name="BMIX">      1.00000000</i>
    <i name="AMIN">      0.10000000</i>
    <i name="AMIX_MAG">      1.60000000</i>
    <i name="BMIX_MAG">      1.00000000</i>
    <separator name="electronic mixer details" >
     <i type="int" name="IMIX">     4</i>
     <i type="logical" name="MIXFIRST"> F  </i>
     <i type="int" name="MAXMIX">   -45</i>
     <i name="WC">    100.00000000</i>
     <i type="int" name="INIMIX">     1</i>
     <i type="int" name="MIXPRE">     1</i>
     <i type="int" name="MREMOVE">     5</i>
    </separator>
   </separator>
   <separator name="electronic dipolcorrection" >
    <i type="logical" name="LDIPOL"> F  </i>
    <i type="logical" name="LMONO"> F  </i>
    <i type="int" name="IDIPOL">     0</i>
    <i name="EPSILON">      1.00000000</i>
    <v name="DIPOL">   -100.00000000   -100.00000000   -100.00000000</v>
    <i name="EFIELD">      0.00000000</i>
   </separator>
  </separator>
  <separator name="grids" >
   <i type="int" name="NGX">    70</i>
   <i type="int" name="NGY">    60</i>
   <i type="int" name="NGZ">    70</i>
   <i type="int" name="NGXF">   140</i>
   <i type="int" name="NGYF">   120</i>
   <i type="int" name="NGZF">   140</i>
   <i type="logical" name="ADDGRID"> F  </i>
  </separator>
  <separator name="ionic" >
   <i type="int" name="NSW">     1</i>
   <i type="int" name="IBRION">     2</i>
   <i type="int" name="MDALGO">     0</i>
   <i type="int" name="ISIF">     2</i>
   <i name="PSTRESS">      0.00000000</i>
   <i name="EDIFFG">     -0.01000000</i>
   <i type="int" name="NFREE">    10</i>
   <i name="POTIM">      0.50000000</i>
   <i name="SMASS">     -3.00000000</i>
   <i name="SCALEE">      1.00000000</i>
  </separator>
  <separator name="ionic md" >
   <i name="TEBEG">      0.00010000</i>
   <i name="TEEND">      0.00010000</i>
   <i type="int" name="NBLOCK">     1</i>
   <i type="int" name="KBLOCK">     1</i>
   <i type="int" name="NPACO">   256</i>
   <i name="APACO">     16.00000000</i>
  </separator>
  <separator name="symmetry" >
   <i type="int" name="ISYM">     2</i>
   <i name="SYMPREC">      0.00001000</i>
  </separator>
  <separator name="dos" >
   <i type="int" name="LORBIT">     0</i>
   <v name="RWIGS">     -1.00000000     -1.00000000     -1.00000000     -1.00000000     -1.00000000</v>
   <i type="int" name="NEDOS">   301</i>
   <i name="EMIN">     10.00000000</i>
   <i name="EMAX">    -10.00000000</i>
   <i name="EFERMI">      0.00000000</i>
  </separator>
  <separator name="writing" >
   <i type="int" name="NWRITE">     2</i>
   <i type="logical" name="LWAVE"> F  </i>
   <i type="logical" name="LDOWNSAMPLE"> F  </i>
   <i type="logical" name="LCHARG"> F  </i>
   <i type="logical" name="LPARD"> F  </i>
   <i type="logical" name="LVTOT"> F  </i>
   <i type="logical" name="LVHAR"> F  </i>
   <i type="logical" name="LELF"> F  </i>
   <i type="logical" name="LOPTICS"> F  </i>
   <v name="STM">      0.00000000      0.00000000      0.00000000      0.00000000      0.00000000      0.00000000      0.00000000</v>
  </separator>
  <separator name="performance" >
   <i type="int" name="NPAR">    28</i>
   <i type="int" name="NSIM">     4</i>
   <i type="int" name="NBLK">    -1</i>
   <i type="logical" name="LPLANE"> T  </i>
   <i type="logical" name="LSCALAPACK"> T  </i>
   <i type="logical" name="LSCAAWARE"> F  </i>
   <i type="logical" name="LSCALU"> F  </i>
   <i type="logical" name="LASYNC"> F  </i>
   <i type="logical" name="LORBITALREAL"> F  </i>
  </separator>
  <separator name="miscellaneous" >
   <i type="int" name="IDIOT">     3</i>
   <i type="int" name="ISPECIAL">     0</i>
   <i type="logical" name="LMUSIC"> F  </i>
   <v name="POMASS">      7.01000000     24.30500000    208.98000000     32.06600000     16.00000000</v>
   <v name="DARWINR">      0.00000000      0.00000000      0.00000000      0.00000000      0.00000000</v>
   <v name="DARWINV">      1.00000000      1.00000000      1.00000000      1.00000000      1.00000000</v>
   <i type="logical" name="LCORR"> T  </i>
  </separator>
  <i type="logical" name="GGA_COMPAT"> T  </i>
  <i type="logical" name="LBERRY"> F  </i>
  <i type="int" name="ICORELEVEL">     0</i>
  <i type="logical" name="LDAU"> F  </i>
  <i type="int" name="I_CONSTRAINED_M">     0</i>
  <separator name="electronic exchange-correlation" >
   <i type="string" name="GGA">--</i>
   <i type="int" name="VOSKOWN">     0</i>
   <i type="logical" name="LHFCALC"> F  </i>
   <i type="string" name="PRECFOCK"></i>
   <i type="logical" name="LSYMGRAD"> F  </i>
   <i type="logical" name="LHFONE"> F  </i>
   <i type="logical" name="LRHFCALC"> F  </i>
   <i type="logical" name="LTHOMAS"> F  </i>
   <i type="logical" name="LMODELHF"> F  </i>
   <i name="ENCUT4O">     -1.00000000</i>
   <i type="int" name="EXXOEP">     0</i>
   <i type="int" name="FOURORBIT">     0</i>
   <i name="AEXX">      0.00000000</i>
   <i name="HFALPHA">      0.00000000</i>
   <i name="MCALPHA">      0.00000000</i>
   <i name="ALDAX">      1.00000000</i>
   <i name="AGGAX">      1.00000000</i>
   <i name="ALDAC">      1.00000000</i>
   <i name="AGGAC">      1.00000000</i>
   <i type="int" name="NKREDX">     1</i>
   <i type="int" name="NKREDY">     1</i>
   <i type="int" name="NKREDZ">     1</i>
   <i type="logical" name="SHIFTRED"> F  </i>
   <i type="logical" name="ODDONLY"> F  </i>
   <i type="logical" name="EVENONLY"> F  </i>
   <i type="int" name="LMAXFOCK">     0</i>
   <i type="int" name="NMAXFOCKAE">     0</i>
   <i type="logical" name="LFOCKAEDFT"> F  </i>
   <i name="HFSCREEN">      0.00000000</i>
   <i name="HFSCREENC">      0.00000000</i>
   <i type="int" name="NBANDSGWLOW">     0</i>
  </separator>
  <separator name="vdW DFT" >
   <i type="logical" name="LUSE_VDW"> F  </i>
   <i name="Zab_VDW">     -0.84910000</i>
   <i name="PARAM1">      0.12340000</i>
   <i name="PARAM2">      1.00000000</i>
   <i name="PARAM3">      0.00000000</i>
  </separator>
  <separator name="model GW" >
   <i type="int" name="MODEL_GW">     0</i>
   <i name="MODEL_EPS0">     11.58240521</i>
   <i name="MODEL_ALPHA">      1.00000000</i>
  </separator>
  <separator name="linear response parameters" >
   <i type="logical" name="LEPSILON"> F  </i>
   <i type="logical" name="LRPA"> F  </i>
   <i type="logical" name="LNABLA"> F  </i>
   <i type="logical" name="LVEL"> F  </i>
   <i type="int" name="KINTER">     0</i>
   <i name="CSHIFT">      0.10000000</i>
   <i name="OMEGAMAX">     -1.00000000</i>
   <i name="DEG_THRESHOLD">      0.00200000</i>
   <i name="RTIME">     -0.10000000</i>
   <i name="WPLASMAI">      0.00000000</i>
   <v name="DFIELD">      0.00000000      0.00000000      0.00000000</v>
   <v name="WPLASMA">      0.00000000      0.00000000      0.00000000      0.00000000      0.00000000      0.00000000      0.00000000      0.00000000      0.00000000</v>
  </separator>
  <separator name="orbital magnetization" >
   <i type="logical" name="NUCIND"> F  </i>
   <v name="MAGPOS">      0.00000000      0.00000000      0.00000000</v>
   <i type="logical" name="LNICSALL"> T  </i>
   <i type="logical" name="ORBITALMAG"> F  </i>
   <i type="logical" name="LMAGBLOCH"> F  </i>
   <i type="logical" name="LCHIMAG"> F  </i>
   <i type="logical" name="LGAUGE"> T  </i>
   <i type="int" name="MAGATOM">     0</i>
   <v name="MAGDIPOL">      0.00000000      0.00000000      0.00000000</v>
   <v name="AVECCONST">      0.00000000      0.00000000      0.00000000</v>
  </separator>
  <separator name="response functions" >
   <i type="logical" name="LADDER"> F  </i>
   <i type="logical" name="LRPAFORCE"> F  </i>
   <i type="logical" name="LFXC"> F  </i>
   <i type="logical" name="LHARTREE"> T  </i>
   <i type="int" name="IBSE">     0</i>
   <v type="int" name="KPOINT">    -1     0     0     0</v>
   <i type="logical" name="LTCTE"> F  </i>
   <i type="logical" name="LTETE"> F  </i>
   <i type="logical" name="LTRIPLET"> F  </i>
   <i type="logical" name="LFXCEPS"> F  </i>
   <i type="logical" name="LFXHEG"> F  </i>
   <i type="int" name="NATURALO">     2</i>
   <i type="logical" name="L2ORDER"> F  </i>
   <i type="logical" name="LMP2LT"> F  </i>
   <i type="logical" name="LUSEW"> F  </i>
   <i name="ENCUTGW">     -2.00000000</i>
   <i name="ENCUTGWSOFT">     -2.00000000</i>
   <i name="ENCUTLF">     -1.00000000</i>
   <i type="int" name="LMAXMP2">    -1</i>
   <i name="SCISSOR">      0.00000000</i>
   <i type="int" name="NOMEGA">     0</i>
   <i type="int" name="NOMEGAR">     0</i>
   <i type="int" name="NBANDSGW">    -1</i>
   <i type="int" name="NBANDSO">    -1</i>
   <i type="int" name="NBANDSV">    -1</i>
   <i type="int" name="NELM">     1</i>
   <i type="int" name="NELMHF">     1</i>
   <i type="int" name="DIM">     3</i>
   <i type="int" name="ANTIRES">     0</i>
   <i name="OMEGAMAX">    -30.00000000</i>
   <i name="OMEGAMIN">    -30.00000000</i>
   <i name="OMEGATL">   -200.00000000</i>
   <i type="int" name="OMEGAGRID">   140</i>
   <i name="CSHIFT">     -0.10000000</i>
   <i type="logical" name="SELFENERGY"> F  </i>
   <i type="logical" name="LSPECTRAL"> F  </i>
   <i type="logical" name="LSPECTRALGW"> F  </i>
   <i type="logical" name="LSINGLES"> F  </i>
   <i type="logical" name="LFERMIGW"> F  </i>
   <i type="logical" name="ODDONLYGW"> F  </i>
   <i type="logical" name="EVENONLYGW"> F  </i>
   <i type="int" name="NKREDLFX">     1</i>
   <i type="int" name="NKREDLFY">     1</i>
   <i type="int" name="NKREDLFZ">     1</i>
   <i type="int" name="MAXMEM">  2800</i>
   <i type="int" name="TELESCOPE">     0</i>
   <i type="int" name="TAUPAR">     1</i>
   <i type="int" name="OMEGAPAR">    -1</i>
   <i name="LAMBDA">      1.00000000</i>
  </separator>
  <separator name="External order field" >
   <i name="OFIELD_KAPPA">      0.00000000</i>
   <v name="OFIELD_K">      0.00000000      0.00000000      0.00000000</v>
   <i name="OFIELD_Q6_NEAR">      0.00000000</i>
   <i name="OFIELD_Q6_FAR">      0.00000000</i>
   <i name="OFIELD_A">      0.00000000</i>
  </separator>
 </parameters>
 <atominfo>
  <atoms>      62 </atoms>
  <types>       5 </types>
  <array name="atoms" >
   <dimension dim="1">ion</dimension>
   <field type="string">element</field>
   <field type="int">atomtype</field>
   <set>
    <rc><c>Li</c><c>   1</c></rc>
    <rc><c>Li</c><c>   1</c></rc>
    <rc><c>Li</c><c>   1</c></rc>
    <rc><c>Li</c><c>   1</c></rc>
    <rc><c>Li</c><c>   1</c></rc>
    <rc><c>Li</c><c>   1</c></rc>
    <rc><c>Li</c><c>   1</c></rc>
    <rc><c>Li</c><c>   1</c></rc>
    <rc><c>Li</c><c>   1</c></rc>
    <rc><c>Li</c><c>   1</c></rc>
    <rc><c>Li</c><c>   1</c></rc>
    <rc><c>Li</c><c>   1</c></rc>
    <rc><c>Mg</c><c>   2</c></rc>
    <rc><c>Mg</c><c>   2</c></rc>
    <rc><c>Bi</c><c>   3</c></rc>
    <rc><c>Bi</c><c>   3</c></rc>
    <rc><c>Bi</c><c>   3</c></rc>
    <rc><c>Bi</c><c>   3</c></rc>
    <rc><c>Bi</c><c>   3</c></rc>
    <rc><c>Bi</c><c>   3</c></rc>
    <rc><c>Bi</c><c>   3</c></rc>
    <rc><c>Bi</c><c>   3</c></rc>
    <rc><c>Bi</c><c>   3</c></rc>
    <rc><c>Bi</c><c>   3</c></rc>
    <rc><c>Bi</c><c>   3</c></rc>
    <rc><c>Bi</c><c>   3</c></rc>
    <rc><c>Bi</c><c>   3</c></rc>
    <rc><c>Bi</c><c>   3</c></rc>
    <rc><c>Bi</c><c>   3</c></rc>
    <rc><c>Bi</c><c>   3</c></rc>
    <rc><c>S </c><c>   4</c></rc>
    <rc><c>S </c><c>   4</c></rc>
    <rc><c>S </c><c>   4</c></rc>
    <rc><c>S </c><c>   4</c></rc>
    <rc><c>S </c><c>   4</c></rc>
    <rc><c>S </c><c>   4</c></rc>
    <rc><c>S </c><c>   4</c></rc>
    <rc><c>S </c><c>   4</c></rc>
    <rc><c>S </c><c>   4</c></rc>
    <rc><c>S </c><c>   4</c></rc>
    <rc><c>S </c><c>   4</c></rc>
    <rc><c>S </c><c>   4</c></rc>
    <rc><c>S </c><c>   4</c></rc>
    <rc><c>S </c><c>   4</c></rc>
    <rc><c>S </c><c>   4</c></rc>
    <rc><c>S </c><c>   4</c></rc>
    <rc><c>O </c><c>   5</c></rc>
    <rc><c>O </c><c>   5</c></rc>
    <rc><c>O </c><c>   5</c></rc>
    <rc><c>O </c><c>   5</c></rc>
    <rc><c>O </c><c>   5</c></rc>
    <rc><c>O </c><c>   5</c></rc>
    <rc><c>O </c><c>   5</c></rc>
    <rc><c>O </c><c>   5</c></rc>
    <rc><c>O </c><c>   5</c></rc>
    <rc><c>O </c><c>   5</c></rc>
    <rc><c>O </c><c>   5</c></rc>
    <rc><c>O </c><c>   5</c></rc>
    <rc><c>O </c><c>   5</c></rc>
    <rc><c>O </c><c>   5</c></rc>
    <rc><c>O </c><c>   5</c></rc>
    <rc><c>O </c><c>   5</c></rc>
   </set>
  </array>
  <array name="atomtypes" >
   <dimension dim="1">type</dimension>
   <field type="int">atomspertype</field>
   <field type="string">element</field>
   <field>mass</field>
   <field>valence</field>
   <field type="string">pseudopotential</field>
   <set>
    <rc><c>  12</c><c>Li</c><c>      7.01000000</c><c>      3.00000000</c><c>  PAW_PBE Li_sv 10Sep2004               </c></rc>
    <rc><c>   2</c><c>Mg</c><c>     24.30500000</c><c>      2.00000000</c><c>  PAW_PBE Mg 13Apr2007                  </c></rc>
    <rc><c>  16</c><c>Bi</c><c>    208.98000000</c><c>     15.00000000</c><c>  PAW_PBE Bi_d 06Sep2000                </c></rc>
    <rc><c>  16</c><c>S </c><c>     32.06600000</c><c>      6.00000000</c><c>  PAW_PBE S 06Sep2000                   </c></rc>
    <rc><c>  16</c><c>O </c><c>     16.00000000</c><c>      6.00000000</c><c>  PAW_PBE O 08Apr2002                   </c></rc>
   </set>
  </array>
 </atominfo>
 <structure name="initialpos" >
  <crystal>
   <varray name="basis" >
    <v>      11.17850000       0.00000000       0.00000000 </v>
    <v>       0.00000000       9.57460000       0.00000000 </v>
    <v>       0.00000000       0.00000000      11.18240000 </v>
   </varray>
   <i name="volume">   1196.84853820 </i>
   <varray name="rec_basis" >
    <v>       0.08945744       0.00000000       0.00000000 </v>
    <v>       0.00000000       0.10444301       0.00000000 </v>
    <v>       0.00000000       0.00000000       0.08942624 </v>
   </varray>
  </crystal>
  <varray name="positions" >
   <v>       0.37539000       0.00017000       0.43687000 </v>
   <v>       0.12461000       0.99984000       0.18687000 </v>
   <v>       0.37461000       0.00017000       0.18687000 </v>
   <v>       0.62539000       0.99984000       0.43687000 </v>
   <v>       0.87539000       0.00017000       0.43687000 </v>
   <v>       0.62461000       0.99984000       0.18687000 </v>
   <v>       0.87461000       0.00017000       0.18687000 </v>
   <v>       0.12539000       0.99984000       0.93687000 </v>
   <v>       0.37539000       0.00017000       0.93687000 </v>
   <v>       0.12461000       0.99984000       0.68687000 </v>
   <v>       0.87539000       0.00017000       0.93687000 </v>
   <v>       0.87461000       0.00017000       0.68687000 </v>
   <v>       0.37461000       0.00017000       0.68687000 </v>
   <v>       0.62539000       0.99984000       0.93687000 </v>
   <v>       0.00013000       0.29519000       0.06281000 </v>
   <v>       0.25013000       0.70481000       0.06281000 </v>
   <v>       0.24987000       0.29519000       0.31282000 </v>
   <v>       0.49987000       0.70481000       0.31282000 </v>
   <v>       0.50013000       0.29519000       0.06281000 </v>
   <v>       0.75013000       0.70481000       0.06281000 </v>
   <v>       0.74987000       0.29519000       0.31282000 </v>
   <v>       0.99987000       0.70481000       0.31282000 </v>
   <v>       0.00013000       0.29519000       0.56281000 </v>
   <v>       0.25013000       0.70481000       0.56281000 </v>
   <v>       0.24987000       0.29519000       0.81282000 </v>
   <v>       0.49987000       0.70481000       0.81282000 </v>
   <v>       0.50013000       0.29519000       0.56281000 </v>
   <v>       0.75013000       0.70481000       0.56281000 </v>
   <v>       0.74987000       0.29519000       0.81282000 </v>
   <v>       0.99987000       0.70481000       0.81282000 </v>
   <v>       0.25005000       0.32677000       0.06286000 </v>
   <v>       0.00005000       0.67323000       0.06286000 </v>
   <v>       0.49995000       0.32677000       0.31286000 </v>
   <v>       0.24995000       0.67323000       0.31286000 </v>
   <v>       0.75005000       0.32677000       0.06286000 </v>
   <v>       0.50005000       0.67323000       0.06286000 </v>
   <v>       0.99995000       0.32677000       0.31286000 </v>
   <v>       0.74995000       0.67323000       0.31286000 </v>
   <v>       0.25005000       0.32677000       0.56286000 </v>
   <v>       0.00005000       0.67323000       0.56286000 </v>
   <v>       0.49995000       0.32677000       0.81286000 </v>
   <v>       0.24995000       0.67323000       0.81286000 </v>
   <v>       0.75005000       0.32677000       0.56286000 </v>
   <v>       0.50005000       0.67323000       0.56286000 </v>
   <v>       0.99995000       0.32677000       0.81286000 </v>
   <v>       0.74995000       0.67323000       0.81286000 </v>
   <v>       0.49987000       0.07798000       0.06246000 </v>
   <v>       0.24987000       0.92202000       0.06246000 </v>
   <v>       0.25013000       0.07798000       0.31246000 </v>
   <v>       0.00013000       0.92202000       0.31246000 </v>
   <v>       0.99987000       0.07798000       0.06246000 </v>
   <v>       0.74987000       0.92202000       0.06246000 </v>
   <v>       0.75013000       0.07798000       0.31246000 </v>
   <v>       0.50013000       0.92202000       0.31246000 </v>
   <v>       0.49987000       0.07798000       0.56246000 </v>
   <v>       0.24987000       0.92202000       0.56246000 </v>
   <v>       0.25013000       0.07798000       0.81246000 </v>
   <v>       0.00013000       0.92202000       0.81246000 </v>
   <v>       0.99987000       0.07798000       0.56246000 </v>
   <v>       0.74987000       0.92202000       0.56246000 </v>
   <v>       0.75013000       0.07798000       0.81246000 </v>
   <v>       0.50013000       0.92202000       0.81246000 </v>
  </varray>
 </structure>
 <calculation>
  <scstep>
   <time name="dav">   66.04   66.37</time>
   <time name="total">   66.12   66.46</time>
   <energy>
    <i name="alphaZ">   1079.87189334 </i>
    <i name="ewald"> -31112.09547460 </i>
    <i name="hartreedc"> -12712.93690210 </i>
    <i name="XCdc">   1468.88792589 </i>
    <i name="pawpsdc">  36917.91861236 </i>
    <i name="pawaedc"> -36503.41947684 </i>
    <i name="eentropy">      0.00000000 </i>
    <i name="bandstr">   1589.18332559 </i>
    <i name="atom">  45173.57650906 </i>
    <i name="e_fr_energy">   5900.98641271 </i>
    <i name="e_wo_entrp">   5900.98641271 </i>
    <i name="e_0_energy">   5900.98641271 </i>
   </energy>
  </scstep>
  <scstep>
   <time name="dav">   66.22   66.57</time>
   <time name="total">   66.23   66.58</time>
   <energy>
    <i name="e_fr_energy">    756.67646457 </i>
    <i name="e_wo_entrp">    756.67646457 </i>
    <i name="e_0_energy">    756.67646457 </i>
   </energy>
  </scstep>
  <scstep>
   <time name="dav">   72.30   72.94</time>
   <time name="total">   72.31   72.94</time>
   <energy>
    <i name="e_fr_energy">   -243.11205783 </i>
    <i name="e_wo_entrp">   -243.11205783 </i>
    <i name="e_0_energy">   -243.11205783 </i>
   </energy>
  </scstep>
  <scstep>
   <time name="dav">   81.97   82.27</time>
   <time name="total">   81.97   82.27</time>
   <energy>
    <i name="e_fr_energy">   -352.54343563 </i>
    <i name="e_wo_entrp">   -352.54343563 </i>
    <i name="e_0_energy">   -352.54343563 </i>
   </energy>
  </scstep>
  <scstep>
   <time name="dav">  105.97  106.06</time>
   <time name="total">  106.66  106.79</time>
   <energy>
    <i name="e_fr_energy">   -361.12519036 </i>
    <i name="e_wo_entrp">   -361.12519036 </i>
    <i name="e_0_energy">   -361.12519036 </i>
   </energy>
  </scstep>
  <scstep>
   <time name="dav">   92.67   93.29</time>
   <time name="total">   93.48   94.10</time>
   <energy>
    <i name="e_fr_energy">   -301.08253519 </i>
    <i name="e_wo_entrp">   -301.08253519 </i>
    <i name="e_0_energy">   -301.08253519 </i>
   </energy>
  </scstep>
  <scstep>
   <time name="dav">   72.84   73.16</time>
   <time name="total">   73.64   73.96</time>
   <energy>
    <i name="e_fr_energy">   -303.25083400 </i>
    <i name="e_wo_entrp">   -303.25083400 </i>
    <i name="e_0_energy">   -303.25083400 </i>
   </energy>
  </scstep>
  <scstep>
   <time name="dav">   84.86   84.97</time>
   <time name="total">   85.79   85.90</time>
   <energy>
    <i name="e_fr_energy">   -301.84321740 </i>
    <i name="e_wo_entrp">   -301.84321740 </i>
    <i name="e_0_energy">   -301.84321740 </i>
   </energy>
  </scstep>
  <scstep>
   <time name="dav">   90.81   90.97</time>
   <time name="total">   91.62   91.78</time>
   <energy>
    <i name="e_fr_energy">   -301.22380153 </i>
    <i name="e_wo_entrp">   -301.22380153 </i>
    <i name="e_0_energy">   -301.22380153 </i>
   </energy>
  </scstep>
  <scstep>
   <time name="dav">   79.27   79.38</time>
   <time name="total">   80.07   80.18</time>
   <energy>
    <i name="e_fr_energy">   -301.18305785 </i>
    <i name="e_wo_entrp">   -301.18305785 </i>
    <i name="e_0_energy">   -301.18305785 </i>
   </energy>
  </scstep>
  <scstep>
   <time name="dav">   89.57   89.85</time>
   <time name="total">   90.38   90.65</time>
   <energy>
    <i name="e_fr_energy">   -301.19636694 </i>
    <i name="e_wo_entrp">   -301.19636694 </i>
    <i name="e_0_energy">   -301.19636694 </i>
   </energy>
  </scstep>
  <scstep>
   <time name="dav">   82.89   83.16</time>
   <time name="total">   83.71   84.00</time>
   <energy>
    <i name="e_fr_energy">   -301.20120767 </i>
    <i name="e_wo_entrp">   -301.20120767 </i>
    <i name="e_0_energy">   -301.20120767 </i>
   </energy>
  </scstep>
  <scstep>
   <time name="dav">   86.60   86.70</time>
   <time name="total">   87.40   87.51</time>
   <energy>
    <i name="e_fr_energy">   -301.20201724 </i>
    <i name="e_wo_entrp">   -301.20201724 </i>
    <i name="e_0_energy">   -301.20201724 </i>
   </energy>
  </scstep>
  <scstep>
   <time name="dav">   74.93   74.96</time>
   <time name="total">   75.74   75.77</time>
   <energy>
    <i name="e_fr_energy">   -301.20228298 </i>
    <i name="e_wo_entrp">   -301.20228298 </i>
    <i name="e_0_energy">   -301.20228298 </i>
   </energy>
  </scstep>
  <scstep>
   <time name="dav">   95.68   95.91</time>
   <time name="total">   96.49   96.72</time>
   <energy>
    <i name="e_fr_energy">   -301.20231684 </i>
    <i name="e_wo_entrp">   -301.20231684 </i>
    <i name="e_0_energy">   -301.20231684 </i>
   </energy>
  </scstep>
  <scstep>
   <time name="dav">   68.60   68.88</time>
   <time name="total">   69.40   69.68</time>
   <energy>
    <i name="e_fr_energy">   -301.20233346 </i>
    <i name="e_wo_entrp">   -301.20233346 </i>
    <i name="e_0_energy">   -301.20233346 </i>
   </energy>
  </scstep>
  <scstep>
   <time name="dav">   75.35   75.80</time>
   <time name="total">   76.15   76.60</time>
   <energy>
    <i name="e_fr_energy">   -301.20233628 </i>
    <i name="e_wo_entrp">   -301.20233628 </i>
    <i name="e_0_energy">   -301.20233628 </i>
   </energy>
  </scstep>
  <scstep>
   <time name="dav">   57.80   58.17</time>
   <time name="total">   57.87   58.24</time>
   <energy>
    <i name="alphaZ">   1079.87189334 </i>
    <i name="ewald"> -31112.09547460 </i>
    <i name="hartreedc"> -12948.59222010 </i>
    <i name="XCdc">   1491.80873724 </i>
    <i name="pawpsdc">  43946.94008526 </i>
    <i name="pawaedc"> -43507.99670199 </i>
    <i name="eentropy">      0.00000000 </i>
    <i name="bandstr">  -4424.71516484 </i>
    <i name="atom">  45173.57650906 </i>
    <i name="e_fr_energy">   -301.20233661 </i>
    <i name="e_wo_entrp">   -301.20233661 </i>
    <i name="e_0_energy">   -301.20233661 </i>
   </energy>
  </scstep>
  <structure>
   <crystal>
    <varray name="basis" >
     <v>      11.17850000       0.00000000       0.00000000 </v>
     <v>       0.00000000       9.57460000       0.00000000 </v>
     <v>       0.00000000       0.00000000      11.18240000 </v>
    </varray>
    <i name="volume">   1196.84853820 </i>
    <varray name="rec_basis" >
     <v>       0.08945744       0.00000000       0.00000000 </v>
     <v>       0.00000000       0.10444301       0.00000000 </v>
     <v>       0.00000000       0.00000000       0.08942624 </v>
    </varray>
   </crystal>
   <varray name="positions" >
    <v>       0.37539000       0.00017000       0.43687000 </v>
    <v>       0.12461000       0.99984000       0.18687000 </v>
    <v>       0.37461000       0.00017000       0.18687000 </v>
    <v>       0.62539000       0.99984000       0.43687000 </v>
    <v>       0.87539000       0.00017000       0.43687000 </v>
    <v>       0.62461000       0.99984000       0.18687000 </v>
    <v>       0.87461000       0.00017000       0.18687000 </v>
    <v>       0.12539000       0.99984000       0.93687000 </v>
    <v>       0.37539000       0.00017000       0.93687000 </v>
    <v>       0.12461000       0.99984000       0.68687000 </v>
    <v>       0.87539000       0.00017000       0.93687000 </v>
    <v>       0.87461000       0.00017000       0.68687000 </v>
    <v>       0.37461000       0.00017000       0.68687000 </v>
    <v>       0.62539000       0.99984000       0.93687000 </v>
    <v>       0.00013000       0.29519000       0.06281000 </v>
    <v>       0.25013000       0.70481000       0.06281000 </v>
    <v>       0.24987000       0.29519000       0.31282000 </v>
    <v>       0.49987000       0.70481000       0.31282000 </v>
    <v>       0.50013000       0.29519000       0.06281000 </v>
    <v>       0.75013000       0.70481000       0.06281000 </v>
    <v>       0.74987000       0.29519000       0.31282000 </v>
    <v>       0.99987000       0.70481000       0.31282000 </v>
    <v>       0.00013000       0.29519000       0.56281000 </v>
    <v>       0.25013000       0.70481000       0.56281000 </v>
    <v>       0.24987000       0.29519000       0.81282000 </v>
    <v>       0.49987000       0.70481000       0.81282000 </v>
    <v>       0.50013000       0.29519000       0.56281000 </v>
    <v>       0.75013000       0.70481000       0.56281000 </v>
    <v>       0.74987000       0.29519000       0.81282000 </v>
    <v>       0.99987000       0.70481000       0.81282000 </v>
    <v>       0.25005000       0.32677000       0.06286000 </v>
    <v>       0.00005000       0.67323000       0.06286000 </v>
    <v>       0.49995000       0.32677000       0.31286000 </v>
    <v>       0.24995000       0.67323000       0.31286000 </v>
    <v>       0.75005000       0.32677000       0.06286000 </v>
    <v>       0.50005000       0.67323000       0.06286000 </v>
    <v>       0.99995000       0.32677000       0.31286000 </v>
    <v>       0.74995000       0.67323000       0.31286000 </v>
    <v>       0.25005000       0.32677000       0.56286000 </v>
    <v>       0.00005000       0.67323000       0.56286000 </v>
    <v>       0.49995000       0.32677000       0.81286000 </v>
    <v>       0.24995000       0.67323000       0.81286000 </v>
    <v>       0.75005000       0.32677000       0.56286000 </v>
    <v>       0.50005000       0.67323000       0.56286000 </v>
    <v>       0.99995000       0.32677000       0.81286000 </v>
    <v>       0.74995000       0.67323000       0.81286000 </v>
    <v>       0.49987000       0.07798000       0.06246000 </v>
    <v>       0.24987000       0.92202000       0.06246000 </v>
    <v>       0.25013000       0.07798000       0.31246000 </v>
    <v>       0.00013000       0.92202000       0.31246000 </v>
    <v>       0.99987000       0.07798000       0.06246000 </v>
    <v>       0.74987000       0.92202000       0.06246000 </v>
    <v>       0.75013000       0.07798000       0.31246000 </v>
    <v>       0.50013000       0.92202000       0.31246000 </v>
    <v>       0.49987000       0.07798000       0.56246000 </v>
    <v>       0.24987000       0.92202000       0.56246000 </v>
    <v>       0.25013000       0.07798000       0.81246000 </v>
    <v>       0.00013000       0.92202000       0.81246000 </v>
    <v>       0.99987000       0.07798000       0.56246000 </v>
    <v>       0.74987000       0.92202000       0.56246000 </v>
    <v>       0.75013000       0.07798000       0.81246000 </v>
    <v>       0.50013000       0.92202000       0.81246000 </v>
   </varray>
  </structure>
  <varray name="forces" >
   <v>      -0.37536083       0.06398174      -0.30552828 </v>
   <v>      -0.03223936       0.00140748       0.57424375 </v>
   <v>      -0.28452548      -0.00915046       0.32998046 </v>
   <v>       0.10781652      -0.06546871       0.42083189 </v>
   <v>       0.36352535      -0.06514404       0.15969923 </v>
   <v>       0.04781159      -0.00088872       0.56652637 </v>
   <v>       0.29767344       0.00843716       0.32294627 </v>
   <v>      -0.13332119      -0.06755372       0.09996658 </v>
   <v>      -0.35678746      -0.06704444       0.32397000 </v>
   <v>      -0.51252887      -0.00301663      -0.56971416 </v>
   <v>       0.34750398       0.06424350      -0.15334117 </v>
   <v>      -0.21275928      -0.00855470      -0.30603848 </v>
   <v>       0.55683174       0.00136702      -0.52173426 </v>
   <v>       0.23427010       0.11750177      -0.79447086 </v>
   <v>       0.05348156       0.02291248       0.19930491 </v>
   <v>      -0.21373959      -0.04409713       0.25862352 </v>
   <v>      -0.28792810      -1.03232691       0.21396038 </v>
   <v>      -0.03562165      -0.03636039       0.17084055 </v>
   <v>      -0.15797949       1.06770954       0.32404726 </v>
   <v>       0.30019090      -1.05585659       0.26642402 </v>
   <v>       0.20794851       0.00981166       0.23666518 </v>
   <v>       0.14757565       1.05561670       0.27974855 </v>
   <v>       0.03880919      -1.03124367      -0.30155151 </v>
   <v>      -0.41186299      -0.03707795      -0.44593008 </v>
   <v>      -0.30668994       1.05868279      -0.05352369 </v>
   <v>       0.17026763      -0.98776258      -0.33317600 </v>
   <v>       0.25153995      -0.00503809      -0.17741945 </v>
   <v>       0.08815334       1.03157194      -0.05596177 </v>
   <v>       0.19348212       0.03680483      -0.45496082 </v>
   <v>      -0.03975887      -0.03902425      -0.19600929 </v>
   <v>       0.15806833       0.15243377      -0.25457567 </v>
   <v>      -0.07749754      -0.18743051      -0.17372613 </v>
   <v>       0.10568282       0.19310181      -0.17432322 </v>
   <v>       0.19117249      -0.19270405      -0.10239983 </v>
   <v>      -0.20880655       0.09706002      -0.11100959 </v>
   <v>       0.12348521      -0.05370988      -0.18754855 </v>
   <v>      -0.11787070       0.21982670      -0.20105903 </v>
   <v>      -0.18278298      -0.22715924      -0.27560242 </v>
   <v>       0.22071020       0.14323251       0.33432986 </v>
   <v>       0.10047257      -0.23308411       0.20423539 </v>
   <v>      -0.08884330       0.00031102       0.17163281 </v>
   <v>       0.19227034      -0.10661886       0.02872710 </v>
   <v>      -0.16014252       0.20863575       0.06157026 </v>
   <v>      -0.15809448      -0.13207503       0.18953292 </v>
   <v>       0.08794240       0.19062233       0.16972783 </v>
   <v>      -0.18606157      -0.07435245       0.31301556 </v>
   <v>       0.57717471      -0.93080845      -0.65999444 </v>
   <v>       0.17287536       0.08920498      -0.24068189 </v>
   <v>       0.72642405       0.82867028      -0.67770904 </v>
   <v>      -0.66435873      -0.87388444      -0.74281091 </v>
   <v>      -0.07465999      -0.03093374      -0.16170007 </v>
   <v>      -0.65145440       0.86258384      -0.56703513 </v>
   <v>      -0.16284930       0.02361891      -0.24309775 </v>
   <v>       0.06677080       0.03261014      -0.17133913 </v>
   <v>      -1.15093195       0.03074365       0.02460350 </v>
   <v>       1.17179023       0.07180389       1.27757315 </v>
   <v>       0.63789888      -0.85258275      -0.38392497 </v>
   <v>       0.07000370       0.03609595       0.15899299 </v>
   <v>      -0.51042632       0.88423801       0.74545575 </v>
   <v>       0.47329758      -0.86730380      -0.54148240 </v>
   <v>      -0.03878619      -0.06800312       1.33219692 </v>
   <v>      -0.68825163       0.78141727       0.78000703 </v>
  </varray>
  <varray name="stress" >
   <v>      -8.05777189      -0.03142297       0.13899944 </v>
   <v>      -0.03142310     -14.37676586       0.22012142 </v>
   <v>       0.13899948       0.22012121      -8.84443973 </v>
  </varray>
  <energy>
   <i name="e_fr_energy">   -317.03854349 </i>
   <i name="e_wo_entrp">   -317.03854349 </i>
   <i name="e_0_energy">      0.00000000 </i>
  </energy>
  <time name="totalsc"> 1569.86 1575.45</time>
  <eigenvalues>
   <array>
    <dimension dim="1">band</dimension>
    <dimension dim="2">kpoint</dimension>
    <dimension dim="3">spin</dimension>
    <field>eigene</field>
    <field>occ</field>
    <set>
     <set comment="spin 1">
      <set comment="kpoint 1">
       <r>  -40.5061    1.0000 </r>
       <r>  -40.2049    1.0000 </r>
       <r>  -40.0364    1.0000 </r>
       <r>  -39.9895    1.0000 </r>
       <r>  -39.8283    1.0000 </r>
       <r>  -39.7541    1.0000 </r>
       <r>  -39.7395    1.0000 </r>
       <r>  -39.5879    1.0000 </r>
       <r>  -39.5325    1.0000 </r>
       <r>  -39.3828    1.0000 </r>
       <r>  -39.3809    1.0000 </r>
       <r>  -39.1376    1.0000 </r>
       <r>  -18.9793    1.0000 </r>
       <r>  -18.9738    1.0000 </r>
       <r>  -18.9055    1.0000 </r>
       <r>  -18.9039    1.0000 </r>
       <r>  -18.9027    1.0000 </r>
       <r>  -18.8992    1.0000 </r>
       <r>  -18.8938    1.0000 </r>
       <r>  -18.8895    1.0000 </r>
       <r>  -18.8311    1.0000 </r>
       <r>  -18.8281    1.0000 </r>
       <r>  -18.8234    1.0000 </r>
       <r>  -18.8204    1.0000 </r>
       <r>  -18.8007    1.0000 </r>
       <r>  -18.7992    1.0000 </r>
       <r>  -18.7947    1.0000 </r>
       <r>  -18.7825    1.0000 </r>
       <r>  -18.7289    1.0000 </r>
       <r>  -18.7264    1.0000 </r>
       <r>  -18.7163    1.0000 </r>
       <r>  -18.7139    1.0000 </r>
       <r>  -18.6952    1.0000 </r>
       <r>  -18.6843    1.0000 </r>
       <r>  -18.6829    1.0000 </r>
       <r>  -18.6815    1.0000 </r>
       <r>  -18.6736    1.0000 </r>
       <r>  -18.6662    1.0000 </r>
       <r>  -18.6163    1.0000 </r>
       <r>  -18.6113    1.0000 </r>
       <r>  -18.6102    1.0000 </r>
       <r>  -18.6088    1.0000 </r>
       <r>  -18.5999    1.0000 </r>
       <r>  -18.5962    1.0000 </r>
       <r>  -18.5942    1.0000 </r>
       <r>  -18.5932    1.0000 </r>
       <r>  -18.5879    1.0000 </r>
       <r>  -18.5812    1.0000 </r>
       <r>  -18.5802    1.0000 </r>
       <r>  -18.5787    1.0000 </r>
       <r>  -18.5596    1.0000 </r>
       <r>  -18.5465    1.0000 </r>
       <r>  -18.5428    1.0000 </r>
       <r>  -18.5419    1.0000 </r>
       <r>  -18.5374    1.0000 </r>
       <r>  -18.5251    1.0000 </r>
       <r>  -18.5250    1.0000 </r>
       <r>  -18.5247    1.0000 </r>
       <r>  -18.5153    1.0000 </r>
       <r>  -18.5112    1.0000 </r>
       <r>  -18.4597    1.0000 </r>
       <r>  -18.4514    1.0000 </r>
       <r>  -18.4503    1.0000 </r>
       <r>  -18.4489    1.0000 </r>
       <r>  -18.4340    1.0000 </r>
       <r>  -18.4301    1.0000 </r>
       <r>  -18.4287    1.0000 </r>
       <r>  -18.4276    1.0000 </r>
       <r>  -18.4034    1.0000 </r>
       <r>  -18.3920    1.0000 </r>
       <r>  -18.3749    1.0000 </r>
       <r>  -18.3686    1.0000 </r>
       <r>  -18.3646    1.0000 </r>
       <r>  -18.3634    1.0000 </r>
       <r>  -18.3560    1.0000 </r>
       <r>  -18.3521    1.0000 </r>
       <r>  -18.2995    1.0000 </r>
       <r>  -18.2945    1.0000 </r>
       <r>  -18.2890    1.0000 </r>
       <r>  -18.2840    1.0000 </r>
       <r>  -18.2747    1.0000 </r>
       <r>  -18.2688    1.0000 </r>
       <r>  -18.2056    1.0000 </r>
       <r>  -18.2001    1.0000 </r>
       <r>  -18.1608    1.0000 </r>
       <r>  -18.1556    1.0000 </r>
       <r>  -18.1475    1.0000 </r>
       <r>  -18.1426    1.0000 </r>
       <r>  -18.0889    1.0000 </r>
       <r>  -18.0829    1.0000 </r>
       <r>  -18.0796    1.0000 </r>
       <r>  -18.0746    1.0000 </r>
       <r>  -13.6643    1.0000 </r>
       <r>  -13.5491    1.0000 </r>
       <r>  -13.4719    1.0000 </r>
       <r>  -13.4585    1.0000 </r>
       <r>  -12.8184    1.0000 </r>
       <r>  -12.7503    1.0000 </r>
       <r>  -12.7362    1.0000 </r>
       <r>  -12.6540    1.0000 </r>
       <r>  -12.6392    1.0000 </r>
       <r>  -12.6166    1.0000 </r>
       <r>  -12.5968    1.0000 </r>
       <r>  -12.5303    1.0000 </r>
       <r>  -11.9346    1.0000 </r>
       <r>  -11.9073    1.0000 </r>
       <r>  -11.8251    1.0000 </r>
       <r>  -11.7998    1.0000 </r>
       <r>   -9.3197    1.0000 </r>
       <r>   -9.0293    1.0000 </r>
       <r>   -8.5277    1.0000 </r>
       <r>   -8.4750    1.0000 </r>
       <r>   -8.4440    1.0000 </r>
       <r>   -8.4369    1.0000 </r>
       <r>   -8.3090    1.0000 </r>
       <r>   -8.2583    1.0000 </r>
       <r>   -8.2224    1.0000 </r>
       <r>   -8.2171    1.0000 </r>
       <r>   -7.9715    1.0000 </r>
       <r>   -7.9575    1.0000 </r>
       <r>   -7.9385    1.0000 </r>
       <r>   -7.9259    1.0000 </r>
       <r>   -7.3158    1.0000 </r>
       <r>   -7.3149    1.0000 </r>
       <r>   -6.3530    1.0000 </r>
       <r>   -6.3458    1.0000 </r>
       <r>   -6.3411    1.0000 </r>
       <r>   -6.3372    1.0000 </r>
       <r>   -5.5495    1.0000 </r>
       <r>   -5.5326    1.0000 </r>
       <r>   -5.3414    1.0000 </r>
       <r>   -5.3254    1.0000 </r>
       <r>   -5.2621    1.0000 </r>
       <r>   -5.1917    1.0000 </r>
       <r>   -5.1323    1.0000 </r>
       <r>   -5.1167    1.0000 </r>
       <r>   -5.0401    1.0000 </r>
       <r>   -4.9805    1.0000 </r>
       <r>   -3.7564    1.0000 </r>
       <r>   -3.5999    1.0000 </r>
       <r>   -1.4284    1.0000 </r>
       <r>   -1.3227    1.0000 </r>
       <r>   -1.0694    1.0000 </r>
       <r>   -1.0151    1.0000 </r>
       <r>   -0.5445    1.0000 </r>
       <r>   -0.5192    1.0000 </r>
       <r>   -0.4571    1.0000 </r>
       <r>   -0.4271    1.0000 </r>
       <r>   -0.1733    1.0000 </r>
       <r>   -0.1482    1.0000 </r>
       <r>   -0.1255    1.0000 </r>
       <r>   -0.1041    1.0000 </r>
       <r>   -0.0455    1.0000 </r>
       <r>    0.0330    1.0000 </r>
       <r>    0.2196    1.0000 </r>
       <r>    0.2388    1.0000 </r>
       <r>    0.3691    1.0000 </r>
       <r>    0.4616    1.0000 </r>
       <r>    0.4961    1.0000 </r>
       <r>    0.6185    1.0000 </r>
       <r>    0.6475    1.0000 </r>
       <r>    0.7236    1.0000 </r>
       <r>    0.7687    1.0000 </r>
       <r>    0.7804    1.0000 </r>
       <r>    0.8545    1.0000 </r>
       <r>    0.8624    1.0000 </r>
       <r>    0.9310    1.0000 </r>
       <r>    0.9603    1.0000 </r>
       <r>    1.0321    1.0000 </r>
       <r>    1.0326    1.0000 </r>
       <r>    1.0615    1.0000 </r>
       <r>    1.1270    1.0000 </r>
       <r>    1.1653    1.0000 </r>
       <r>    1.1820    1.0000 </r>
       <r>    1.2255    1.0000 </r>
       <r>    1.2924    1.0000 </r>
       <r>    1.3336    1.0000 </r>
       <r>    1.4451    1.0000 </r>
       <r>    1.4821    1.0000 </r>
       <r>    1.5156    1.0000 </r>
       <r>    1.5214    1.0000 </r>
       <r>    1.5959    1.0000 </r>
       <r>    1.6222    1.0000 </r>
       <r>    1.6476    1.0000 </r>
       <r>    1.6685    1.0000 </r>
       <r>    1.7252    1.0000 </r>
       <r>    1.8268    1.0000 </r>
       <r>    1.8825    1.0000 </r>
       <r>    1.9018    1.0000 </r>
       <r>    1.9531    1.0000 </r>
       <r>    2.0260    1.0000 </r>
       <r>    2.1444    1.0000 </r>
       <r>    2.1589    1.0000 </r>
       <r>    2.2426    1.0000 </r>
       <r>    2.2804    1.0000 </r>
       <r>    2.3181    1.0000 </r>
       <r>    2.3708    1.0000 </r>
       <r>    2.4203    1.0000 </r>
       <r>    2.4213    1.0000 </r>
       <r>    2.4775    1.0000 </r>
       <r>    2.5609    1.0000 </r>
       <r>    2.5967    1.0000 </r>
       <r>    2.6042    1.0000 </r>
       <r>    2.6146    1.0000 </r>
       <r>    2.6230    1.0000 </r>
       <r>    2.6443    1.0000 </r>
       <r>    2.6578    1.0000 </r>
       <r>    2.6928    1.0000 </r>
       <r>    2.7778    1.0000 </r>
       <r>    2.7903    1.0000 </r>
       <r>    2.8223    1.0000 </r>
       <r>    2.9117    1.0000 </r>
       <r>    2.9176    1.0000 </r>
       <r>    2.9442    1.0000 </r>
       <r>    2.9858    1.0000 </r>
       <r>    3.0960    1.0000 </r>
       <r>    3.1051    1.0000 </r>
       <r>    3.1451    1.0000 </r>
       <r>    3.1669    1.0000 </r>
       <r>    3.1796    1.0000 </r>
       <r>    3.1999    1.0000 </r>
       <r>    3.2430    1.0000 </r>
       <r>    3.2516    1.0000 </r>
       <r>    3.2702    1.0000 </r>
       <r>    3.3094    1.0000 </r>
       <r>    3.3731    1.0000 </r>
       <r>    3.4113    1.0000 </r>
       <r>    3.4207    1.0000 </r>
       <r>    3.4950    1.0000 </r>
       <r>    3.5288    1.0000 </r>
       <r>    3.5933    1.0000 </r>
       <r>    3.6582    1.0000 </r>
       <r>    4.2477    1.0000 </r>
       <r>    4.2523    1.0000 </r>
       <r>    4.2676    1.0000 </r>
       <r>    4.2731    1.0000 </r>
       <r>    5.1109    0.0000 </r>
       <r>    5.1152    0.0000 </r>
       <r>    5.1570    0.0000 </r>
       <r>    5.1650    0.0000 </r>
       <r>    5.7616    0.0000 </r>
       <r>    5.7657    0.0000 </r>
       <r>    5.7973    0.0000 </r>
       <r>    5.8054    0.0000 </r>
       <r>    6.1539    0.0000 </r>
       <r>    6.1583    0.0000 </r>
       <r>    6.1878    0.0000 </r>
       <r>    6.2044    0.0000 </r>
       <r>    6.2886    0.0000 </r>
       <r>    6.2970    0.0000 </r>
       <r>    6.3176    0.0000 </r>
       <r>    6.3278    0.0000 </r>
       <r>    7.0860    0.0000 </r>
       <r>    7.1244    0.0000 </r>
       <r>    7.2416    0.0000 </r>
       <r>    7.2619    0.0000 </r>
       <r>    7.8368    0.0000 </r>
       <r>    7.8615    0.0000 </r>
       <r>    7.9530    0.0000 </r>
       <r>    8.0030    0.0000 </r>
       <r>    8.0444    0.0000 </r>
       <r>    8.0813    0.0000 </r>
       <r>    8.1492    0.0000 </r>
       <r>    8.2401    0.0000 </r>
       <r>    8.4887    0.0000 </r>
       <r>    8.6977    0.0000 </r>
       <r>    8.7868    0.0000 </r>
       <r>    8.8497    0.0000 </r>
       <r>    8.8569    0.0000 </r>
       <r>    8.8680    0.0000 </r>
       <r>    8.8941    0.0000 </r>
       <r>    8.9603    0.0000 </r>
       <r>    9.0538    0.0000 </r>
       <r>    9.0601    0.0000 </r>
       <r>    9.0946    0.0000 </r>
       <r>    9.1579    0.0000 </r>
       <r>    9.1815    0.0000 </r>
       <r>    9.2045    0.0000 </r>
       <r>    9.2428    0.0000 </r>
       <r>    9.3142    0.0000 </r>
       <r>    9.4059    0.0000 </r>
       <r>    9.5492    0.0000 </r>
       <r>    9.5869    0.0000 </r>
       <r>    9.6866    0.0000 </r>
       <r>    9.7107    0.0000 </r>
       <r>    9.7344    0.0000 </r>
       <r>    9.7407    0.0000 </r>
       <r>    9.8704    0.0000 </r>
       <r>   10.2173    0.0000 </r>
       <r>   10.2468    0.0000 </r>
       <r>   10.2689    0.0000 </r>
       <r>   10.2759    0.0000 </r>
       <r>   10.3859    0.0000 </r>
       <r>   10.4161    0.0000 </r>
       <r>   10.5555    0.0000 </r>
       <r>   10.6244    0.0000 </r>
       <r>   10.6371    0.0000 </r>
       <r>   10.6684    0.0000 </r>
       <r>   11.0373    0.0000 </r>
       <r>   11.2697    0.0000 </r>
       <r>   11.4391    0.0000 </r>
       <r>   11.4732    0.0000 </r>
       <r>   11.5449    0.0000 </r>
       <r>   11.6256    0.0000 </r>
       <r>   11.7085    0.0000 </r>
       <r>   11.8094    0.0000 </r>
       <r>   11.8951    0.0000 </r>
       <r>   11.9478    0.0000 </r>
      </set>
      <set comment="kpoint 2">
       <r>  -40.5061    1.0000 </r>
       <r>  -40.2049    1.0000 </r>
       <r>  -40.0364    1.0000 </r>
       <r>  -39.9895    1.0000 </r>
       <r>  -39.8283    1.0000 </r>
       <r>  -39.7541    1.0000 </r>
       <r>  -39.7395    1.0000 </r>
       <r>  -39.5879    1.0000 </r>
       <r>  -39.5325    1.0000 </r>
       <r>  -39.3828    1.0000 </r>
       <r>  -39.3809    1.0000 </r>
       <r>  -39.1376    1.0000 </r>
       <r>  -18.9793    1.0000 </r>
       <r>  -18.9738    1.0000 </r>
       <r>  -18.9055    1.0000 </r>
       <r>  -18.9039    1.0000 </r>
       <r>  -18.9027    1.0000 </r>
       <r>  -18.8992    1.0000 </r>
       <r>  -18.8938    1.0000 </r>
       <r>  -18.8895    1.0000 </r>
       <r>  -18.8311    1.0000 </r>
       <r>  -18.8281    1.0000 </r>
       <r>  -18.8234    1.0000 </r>
       <r>  -18.8204    1.0000 </r>
       <r>  -18.8007    1.0000 </r>
       <r>  -18.7992    1.0000 </r>
       <r>  -18.7947    1.0000 </r>
       <r>  -18.7825    1.0000 </r>
       <r>  -18.7289    1.0000 </r>
       <r>  -18.7264    1.0000 </r>
       <r>  -18.7163    1.0000 </r>
       <r>  -18.7139    1.0000 </r>
       <r>  -18.6953    1.0000 </r>
       <r>  -18.6844    1.0000 </r>
       <r>  -18.6829    1.0000 </r>
       <r>  -18.6814    1.0000 </r>
       <r>  -18.6736    1.0000 </r>
       <r>  -18.6662    1.0000 </r>
       <r>  -18.6163    1.0000 </r>
       <r>  -18.6114    1.0000 </r>
       <r>  -18.6102    1.0000 </r>
       <r>  -18.6088    1.0000 </r>
       <r>  -18.5999    1.0000 </r>
       <r>  -18.5965    1.0000 </r>
       <r>  -18.5942    1.0000 </r>
       <r>  -18.5934    1.0000 </r>
       <r>  -18.5876    1.0000 </r>
       <r>  -18.5810    1.0000 </r>
       <r>  -18.5799    1.0000 </r>
       <r>  -18.5786    1.0000 </r>
       <r>  -18.5597    1.0000 </r>
       <r>  -18.5465    1.0000 </r>
       <r>  -18.5429    1.0000 </r>
       <r>  -18.5419    1.0000 </r>
       <r>  -18.5374    1.0000 </r>
       <r>  -18.5251    1.0000 </r>
       <r>  -18.5250    1.0000 </r>
       <r>  -18.5247    1.0000 </r>
       <r>  -18.5153    1.0000 </r>
       <r>  -18.5112    1.0000 </r>
       <r>  -18.4597    1.0000 </r>
       <r>  -18.4515    1.0000 </r>
       <r>  -18.4503    1.0000 </r>
       <r>  -18.4488    1.0000 </r>
       <r>  -18.4340    1.0000 </r>
       <r>  -18.4301    1.0000 </r>
       <r>  -18.4287    1.0000 </r>
       <r>  -18.4276    1.0000 </r>
       <r>  -18.4034    1.0000 </r>
       <r>  -18.3920    1.0000 </r>
       <r>  -18.3749    1.0000 </r>
       <r>  -18.3686    1.0000 </r>
       <r>  -18.3646    1.0000 </r>
       <r>  -18.3634    1.0000 </r>
       <r>  -18.3560    1.0000 </r>
       <r>  -18.3521    1.0000 </r>
       <r>  -18.2995    1.0000 </r>
       <r>  -18.2945    1.0000 </r>
       <r>  -18.2890    1.0000 </r>
       <r>  -18.2840    1.0000 </r>
       <r>  -18.2748    1.0000 </r>
       <r>  -18.2688    1.0000 </r>
       <r>  -18.2056    1.0000 </r>
       <r>  -18.2001    1.0000 </r>
       <r>  -18.1608    1.0000 </r>
       <r>  -18.1556    1.0000 </r>
       <r>  -18.1475    1.0000 </r>
       <r>  -18.1426    1.0000 </r>
       <r>  -18.0889    1.0000 </r>
       <r>  -18.0829    1.0000 </r>
       <r>  -18.0796    1.0000 </r>
       <r>  -18.0746    1.0000 </r>
       <r>  -13.6635    1.0000 </r>
       <r>  -13.5494    1.0000 </r>
       <r>  -13.4739    1.0000 </r>
       <r>  -13.4570    1.0000 </r>
       <r>  -12.8189    1.0000 </r>
       <r>  -12.7508    1.0000 </r>
       <r>  -12.7346    1.0000 </r>
       <r>  -12.6557    1.0000 </r>
       <r>  -12.6370    1.0000 </r>
       <r>  -12.6172    1.0000 </r>
       <r>  -12.5970    1.0000 </r>
       <r>  -12.5306    1.0000 </r>
       <r>  -11.9376    1.0000 </r>
       <r>  -11.9041    1.0000 </r>
       <r>  -11.8256    1.0000 </r>
       <r>  -11.7997    1.0000 </r>
       <r>   -9.1771    1.0000 </r>
       <r>   -9.0165    1.0000 </r>
       <r>   -8.9061    1.0000 </r>
       <r>   -8.7433    1.0000 </r>
       <r>   -8.3763    1.0000 </r>
       <r>   -8.3434    1.0000 </r>
       <r>   -8.2400    1.0000 </r>
       <r>   -8.2031    1.0000 </r>
       <r>   -8.1816    1.0000 </r>
       <r>   -8.1397    1.0000 </r>
       <r>   -8.0447    1.0000 </r>
       <r>   -7.9989    1.0000 </r>
       <r>   -7.7076    1.0000 </r>
       <r>   -7.6045    1.0000 </r>
       <r>   -7.5850    1.0000 </r>
       <r>   -7.4816    1.0000 </r>
       <r>   -6.0357    1.0000 </r>
       <r>   -6.0071    1.0000 </r>
       <r>   -5.9354    1.0000 </r>
       <r>   -5.8646    1.0000 </r>
       <r>   -5.8150    1.0000 </r>
       <r>   -5.7878    1.0000 </r>
       <r>   -5.6874    1.0000 </r>
       <r>   -5.6353    1.0000 </r>
       <r>   -5.5764    1.0000 </r>
       <r>   -5.5698    1.0000 </r>
       <r>   -5.3889    1.0000 </r>
       <r>   -5.3630    1.0000 </r>
       <r>   -4.4554    1.0000 </r>
       <r>   -4.3035    1.0000 </r>
       <r>   -4.2826    1.0000 </r>
       <r>   -4.1176    1.0000 </r>
       <r>   -1.2358    1.0000 </r>
       <r>   -1.0068    1.0000 </r>
       <r>   -0.8750    1.0000 </r>
       <r>   -0.6956    1.0000 </r>
       <r>   -0.5607    1.0000 </r>
       <r>   -0.3370    1.0000 </r>
       <r>   -0.1115    1.0000 </r>
       <r>   -0.0273    1.0000 </r>
       <r>    0.0301    1.0000 </r>
       <r>    0.0405    1.0000 </r>
       <r>    0.0847    1.0000 </r>
       <r>    0.1176    1.0000 </r>
       <r>    0.1795    1.0000 </r>
       <r>    0.2696    1.0000 </r>
       <r>    0.3397    1.0000 </r>
       <r>    0.3745    1.0000 </r>
       <r>    0.4951    1.0000 </r>
       <r>    0.5188    1.0000 </r>
       <r>    0.5458    1.0000 </r>
       <r>    0.6337    1.0000 </r>
       <r>    0.6523    1.0000 </r>
       <r>    0.6892    1.0000 </r>
       <r>    0.7068    1.0000 </r>
       <r>    0.7427    1.0000 </r>
       <r>    0.7576    1.0000 </r>
       <r>    0.7991    1.0000 </r>
       <r>    0.8791    1.0000 </r>
       <r>    0.8817    1.0000 </r>
       <r>    0.9397    1.0000 </r>
       <r>    0.9727    1.0000 </r>
       <r>    1.0228    1.0000 </r>
       <r>    1.0840    1.0000 </r>
       <r>    1.1294    1.0000 </r>
       <r>    1.1845    1.0000 </r>
       <r>    1.2109    1.0000 </r>
       <r>    1.2902    1.0000 </r>
       <r>    1.3755    1.0000 </r>
       <r>    1.3965    1.0000 </r>
       <r>    1.4067    1.0000 </r>
       <r>    1.4174    1.0000 </r>
       <r>    1.4919    1.0000 </r>
       <r>    1.5441    1.0000 </r>
       <r>    1.6008    1.0000 </r>
       <r>    1.6219    1.0000 </r>
       <r>    1.6430    1.0000 </r>
       <r>    1.6832    1.0000 </r>
       <r>    1.7050    1.0000 </r>
       <r>    1.8377    1.0000 </r>
       <r>    1.8722    1.0000 </r>
       <r>    1.8901    1.0000 </r>
       <r>    1.9448    1.0000 </r>
       <r>    1.9564    1.0000 </r>
       <r>    2.0460    1.0000 </r>
       <r>    2.0721    1.0000 </r>
       <r>    2.0875    1.0000 </r>
       <r>    2.1664    1.0000 </r>
       <r>    2.2029    1.0000 </r>
       <r>    2.2491    1.0000 </r>
       <r>    2.2657    1.0000 </r>
       <r>    2.3146    1.0000 </r>
       <r>    2.3650    1.0000 </r>
       <r>    2.3788    1.0000 </r>
       <r>    2.4431    1.0000 </r>
       <r>    2.5040    1.0000 </r>
       <r>    2.5150    1.0000 </r>
       <r>    2.5721    1.0000 </r>
       <r>    2.5977    1.0000 </r>
       <r>    2.6196    1.0000 </r>
       <r>    2.6994    1.0000 </r>
       <r>    2.7078    1.0000 </r>
       <r>    2.7197    1.0000 </r>
       <r>    2.7533    1.0000 </r>
       <r>    2.7655    1.0000 </r>
       <r>    2.8308    1.0000 </r>
       <r>    2.8552    1.0000 </r>
       <r>    2.9198    1.0000 </r>
       <r>    2.9415    1.0000 </r>
       <r>    2.9519    1.0000 </r>
       <r>    3.0785    1.0000 </r>
       <r>    3.1090    1.0000 </r>
       <r>    3.1389    1.0000 </r>
       <r>    3.1602    1.0000 </r>
       <r>    3.1662    1.0000 </r>
       <r>    3.2312    1.0000 </r>
       <r>    3.2628    1.0000 </r>
       <r>    3.3022    1.0000 </r>
       <r>    3.3549    1.0000 </r>
       <r>    3.4358    1.0000 </r>
       <r>    3.5102    1.0000 </r>
       <r>    3.5438    1.0000 </r>
       <r>    3.6241    1.0000 </r>
       <r>    3.6460    1.0000 </r>
       <r>    3.7168    1.0000 </r>
       <r>    3.7577    1.0000 </r>
       <r>    3.7847    1.0000 </r>
       <r>    3.8401    1.0000 </r>
       <r>    5.5920    0.0000 </r>
       <r>    5.5945    0.0000 </r>
       <r>    5.7421    0.0000 </r>
       <r>    5.7512    0.0000 </r>
       <r>    5.7811    0.0000 </r>
       <r>    5.7879    0.0000 </r>
       <r>    5.9340    0.0000 </r>
       <r>    5.9413    0.0000 </r>
       <r>    7.1517    0.0000 </r>
       <r>    7.1917    0.0000 </r>
       <r>    7.2303    0.0000 </r>
       <r>    7.3079    0.0000 </r>
       <r>    7.3499    0.0000 </r>
       <r>    7.3765    0.0000 </r>
       <r>    7.4222    0.0000 </r>
       <r>    7.4842    0.0000 </r>
       <r>    7.4914    0.0000 </r>
       <r>    7.5487    0.0000 </r>
       <r>    7.5807    0.0000 </r>
       <r>    7.6311    0.0000 </r>
       <r>    7.8157    0.0000 </r>
       <r>    7.8503    0.0000 </r>
       <r>    7.8835    0.0000 </r>
       <r>    7.8980    0.0000 </r>
       <r>    7.9435    0.0000 </r>
       <r>    7.9699    0.0000 </r>
       <r>    7.9993    0.0000 </r>
       <r>    8.0116    0.0000 </r>
       <r>    8.0386    0.0000 </r>
       <r>    8.0800    0.0000 </r>
       <r>    8.1211    0.0000 </r>
       <r>    8.2118    0.0000 </r>
       <r>    8.3551    0.0000 </r>
       <r>    8.4225    0.0000 </r>
       <r>    8.5332    0.0000 </r>
       <r>    8.6765    0.0000 </r>
       <r>    8.6986    0.0000 </r>
       <r>    8.7691    0.0000 </r>
       <r>    8.7827    0.0000 </r>
       <r>    8.7998    0.0000 </r>
       <r>    8.8253    0.0000 </r>
       <r>    8.9271    0.0000 </r>
       <r>    8.9869    0.0000 </r>
       <r>    8.9911    0.0000 </r>
       <r>    9.1165    0.0000 </r>
       <r>    9.2608    0.0000 </r>
       <r>    9.3851    0.0000 </r>
       <r>    9.3986    0.0000 </r>
       <r>    9.6241    0.0000 </r>
       <r>    9.7122    0.0000 </r>
       <r>   10.2378    0.0000 </r>
       <r>   10.3407    0.0000 </r>
       <r>   10.3633    0.0000 </r>
       <r>   10.4888    0.0000 </r>
       <r>   10.5089    0.0000 </r>
       <r>   10.5763    0.0000 </r>
       <r>   10.6229    0.0000 </r>
       <r>   10.6827    0.0000 </r>
       <r>   10.8063    0.0000 </r>
       <r>   10.8242    0.0000 </r>
       <r>   10.8303    0.0000 </r>
       <r>   10.8777    0.0000 </r>
       <r>   11.0277    0.0000 </r>
       <r>   11.0676    0.0000 </r>
       <r>   11.1864    0.0000 </r>
       <r>   11.2964    0.0000 </r>
       <r>   11.3344    0.0000 </r>
       <r>   11.3712    0.0000 </r>
       <r>   11.4239    0.0000 </r>
       <r>   11.4779    0.0000 </r>
       <r>   11.4827    0.0000 </r>
       <r>   11.6002    0.0000 </r>
      </set>
      <set comment="kpoint 3">
       <r>  -40.5061    1.0000 </r>
       <r>  -40.2049    1.0000 </r>
       <r>  -40.0364    1.0000 </r>
       <r>  -39.9895    1.0000 </r>
       <r>  -39.8283    1.0000 </r>
       <r>  -39.7541    1.0000 </r>
       <r>  -39.7395    1.0000 </r>
       <r>  -39.5879    1.0000 </r>
       <r>  -39.5325    1.0000 </r>
       <r>  -39.3828    1.0000 </r>
       <r>  -39.3809    1.0000 </r>
       <r>  -39.1376    1.0000 </r>
       <r>  -18.9794    1.0000 </r>
       <r>  -18.9737    1.0000 </r>
       <r>  -18.9055    1.0000 </r>
       <r>  -18.9038    1.0000 </r>
       <r>  -18.9028    1.0000 </r>
       <r>  -18.8992    1.0000 </r>
       <r>  -18.8939    1.0000 </r>
       <r>  -18.8895    1.0000 </r>
       <r>  -18.8311    1.0000 </r>
       <r>  -18.8281    1.0000 </r>
       <r>  -18.8234    1.0000 </r>
       <r>  -18.8204    1.0000 </r>
       <r>  -18.8006    1.0000 </r>
       <r>  -18.7993    1.0000 </r>
       <r>  -18.7947    1.0000 </r>
       <r>  -18.7825    1.0000 </r>
       <r>  -18.7289    1.0000 </r>
       <r>  -18.7264    1.0000 </r>
       <r>  -18.7163    1.0000 </r>
       <r>  -18.7139    1.0000 </r>
       <r>  -18.6952    1.0000 </r>
       <r>  -18.6843    1.0000 </r>
       <r>  -18.6829    1.0000 </r>
       <r>  -18.6814    1.0000 </r>
       <r>  -18.6736    1.0000 </r>
       <r>  -18.6662    1.0000 </r>
       <r>  -18.6163    1.0000 </r>
       <r>  -18.6113    1.0000 </r>
       <r>  -18.6102    1.0000 </r>
       <r>  -18.6088    1.0000 </r>
       <r>  -18.5999    1.0000 </r>
       <r>  -18.5962    1.0000 </r>
       <r>  -18.5942    1.0000 </r>
       <r>  -18.5932    1.0000 </r>
       <r>  -18.5878    1.0000 </r>
       <r>  -18.5813    1.0000 </r>
       <r>  -18.5803    1.0000 </r>
       <r>  -18.5786    1.0000 </r>
       <r>  -18.5596    1.0000 </r>
       <r>  -18.5465    1.0000 </r>
       <r>  -18.5428    1.0000 </r>
       <r>  -18.5419    1.0000 </r>
       <r>  -18.5374    1.0000 </r>
       <r>  -18.5251    1.0000 </r>
       <r>  -18.5250    1.0000 </r>
       <r>  -18.5247    1.0000 </r>
       <r>  -18.5153    1.0000 </r>
       <r>  -18.5112    1.0000 </r>
       <r>  -18.4597    1.0000 </r>
       <r>  -18.4514    1.0000 </r>
       <r>  -18.4503    1.0000 </r>
       <r>  -18.4488    1.0000 </r>
       <r>  -18.4340    1.0000 </r>
       <r>  -18.4300    1.0000 </r>
       <r>  -18.4287    1.0000 </r>
       <r>  -18.4276    1.0000 </r>
       <r>  -18.4034    1.0000 </r>
       <r>  -18.3920    1.0000 </r>
       <r>  -18.3749    1.0000 </r>
       <r>  -18.3686    1.0000 </r>
       <r>  -18.3646    1.0000 </r>
       <r>  -18.3634    1.0000 </r>
       <r>  -18.3560    1.0000 </r>
       <r>  -18.3521    1.0000 </r>
       <r>  -18.2995    1.0000 </r>
       <r>  -18.2945    1.0000 </r>
       <r>  -18.2890    1.0000 </r>
       <r>  -18.2840    1.0000 </r>
       <r>  -18.2747    1.0000 </r>
       <r>  -18.2688    1.0000 </r>
       <r>  -18.2056    1.0000 </r>
       <r>  -18.2001    1.0000 </r>
       <r>  -18.1608    1.0000 </r>
       <r>  -18.1556    1.0000 </r>
       <r>  -18.1475    1.0000 </r>
       <r>  -18.1426    1.0000 </r>
       <r>  -18.0889    1.0000 </r>
       <r>  -18.0829    1.0000 </r>
       <r>  -18.0796    1.0000 </r>
       <r>  -18.0746    1.0000 </r>
       <r>  -13.6639    1.0000 </r>
       <r>  -13.5492    1.0000 </r>
       <r>  -13.4722    1.0000 </r>
       <r>  -13.4585    1.0000 </r>
       <r>  -12.8183    1.0000 </r>
       <r>  -12.7497    1.0000 </r>
       <r>  -12.7358    1.0000 </r>
       <r>  -12.6540    1.0000 </r>
       <r>  -12.6391    1.0000 </r>
       <r>  -12.6174    1.0000 </r>
       <r>  -12.5975    1.0000 </r>
       <r>  -12.5305    1.0000 </r>
       <r>  -11.9335    1.0000 </r>
       <r>  -11.9077    1.0000 </r>
       <r>  -11.8254    1.0000 </r>
       <r>  -11.8016    1.0000 </r>
       <r>   -9.3117    1.0000 </r>
       <r>   -9.0341    1.0000 </r>
       <r>   -8.5466    1.0000 </r>
       <r>   -8.4923    1.0000 </r>
       <r>   -8.4614    1.0000 </r>
       <r>   -8.4546    1.0000 </r>
       <r>   -8.2885    1.0000 </r>
       <r>   -8.2408    1.0000 </r>
       <r>   -8.2035    1.0000 </r>
       <r>   -8.1973    1.0000 </r>
       <r>   -7.9750    1.0000 </r>
       <r>   -7.9602    1.0000 </r>
       <r>   -7.9411    1.0000 </r>
       <r>   -7.9281    1.0000 </r>
       <r>   -7.3185    1.0000 </r>
       <r>   -7.3179    1.0000 </r>
       <r>   -6.3435    1.0000 </r>
       <r>   -6.3367    1.0000 </r>
       <r>   -6.3322    1.0000 </r>
       <r>   -6.3267    1.0000 </r>
       <r>   -5.5570    1.0000 </r>
       <r>   -5.5286    1.0000 </r>
       <r>   -5.3767    1.0000 </r>
       <r>   -5.3623    1.0000 </r>
       <r>   -5.2876    1.0000 </r>
       <r>   -5.2041    1.0000 </r>
       <r>   -5.0876    1.0000 </r>
       <r>   -5.0689    1.0000 </r>
       <r>   -5.0055    1.0000 </r>
       <r>   -4.9373    1.0000 </r>
       <r>   -3.8265    1.0000 </r>
       <r>   -3.5188    1.0000 </r>
       <r>   -1.3253    1.0000 </r>
       <r>   -1.2787    1.0000 </r>
       <r>   -1.2167    1.0000 </r>
       <r>   -1.0741    1.0000 </r>
       <r>   -0.4251    1.0000 </r>
       <r>   -0.4138    1.0000 </r>
       <r>   -0.3842    1.0000 </r>
       <r>   -0.3762    1.0000 </r>
       <r>   -0.3546    1.0000 </r>
       <r>   -0.3394    1.0000 </r>
       <r>   -0.2568    1.0000 </r>
       <r>   -0.2292    1.0000 </r>
       <r>   -0.1850    1.0000 </r>
       <r>   -0.0690    1.0000 </r>
       <r>   -0.0206    1.0000 </r>
       <r>    0.0038    1.0000 </r>
       <r>    0.2563    1.0000 </r>
       <r>    0.3425    1.0000 </r>
       <r>    0.3671    1.0000 </r>
       <r>    0.4677    1.0000 </r>
       <r>    0.5928    1.0000 </r>
       <r>    0.6831    1.0000 </r>
       <r>    0.7327    1.0000 </r>
       <r>    0.8045    1.0000 </r>
       <r>    0.8175    1.0000 </r>
       <r>    0.8365    1.0000 </r>
       <r>    0.8736    1.0000 </r>
       <r>    0.8999    1.0000 </r>
       <r>    0.9573    1.0000 </r>
       <r>    1.0759    1.0000 </r>
       <r>    1.0994    1.0000 </r>
       <r>    1.1815    1.0000 </r>
       <r>    1.2009    1.0000 </r>
       <r>    1.2556    1.0000 </r>
       <r>    1.3324    1.0000 </r>
       <r>    1.3739    1.0000 </r>
       <r>    1.4172    1.0000 </r>
       <r>    1.4700    1.0000 </r>
       <r>    1.4868    1.0000 </r>
       <r>    1.5813    1.0000 </r>
       <r>    1.6387    1.0000 </r>
       <r>    1.6952    1.0000 </r>
       <r>    1.7407    1.0000 </r>
       <r>    1.8326    1.0000 </r>
       <r>    1.9355    1.0000 </r>
       <r>    1.9400    1.0000 </r>
       <r>    1.9549    1.0000 </r>
       <r>    2.0160    1.0000 </r>
       <r>    2.0321    1.0000 </r>
       <r>    2.1006    1.0000 </r>
       <r>    2.1225    1.0000 </r>
       <r>    2.1854    1.0000 </r>
       <r>    2.2136    1.0000 </r>
       <r>    2.2697    1.0000 </r>
       <r>    2.3474    1.0000 </r>
       <r>    2.3641    1.0000 </r>
       <r>    2.4202    1.0000 </r>
       <r>    2.4658    1.0000 </r>
       <r>    2.5102    1.0000 </r>
       <r>    2.5404    1.0000 </r>
       <r>    2.5531    1.0000 </r>
       <r>    2.5763    1.0000 </r>
       <r>    2.5819    1.0000 </r>
       <r>    2.6061    1.0000 </r>
       <r>    2.6102    1.0000 </r>
       <r>    2.6128    1.0000 </r>
       <r>    2.6361    1.0000 </r>
       <r>    2.6790    1.0000 </r>
       <r>    2.7290    1.0000 </r>
       <r>    2.8015    1.0000 </r>
       <r>    2.8541    1.0000 </r>
       <r>    2.8711    1.0000 </r>
       <r>    2.9331    1.0000 </r>
       <r>    2.9614    1.0000 </r>
       <r>    2.9840    1.0000 </r>
       <r>    3.0190    1.0000 </r>
       <r>    3.0420    1.0000 </r>
       <r>    3.0899    1.0000 </r>
       <r>    3.1239    1.0000 </r>
       <r>    3.1462    1.0000 </r>
       <r>    3.1740    1.0000 </r>
       <r>    3.2729    1.0000 </r>
       <r>    3.3308    1.0000 </r>
       <r>    3.3827    1.0000 </r>
       <r>    3.4263    1.0000 </r>
       <r>    3.4491    1.0000 </r>
       <r>    3.4980    1.0000 </r>
       <r>    3.5077    1.0000 </r>
       <r>    3.5260    1.0000 </r>
       <r>    3.5759    1.0000 </r>
       <r>    3.6087    1.0000 </r>
       <r>    3.6435    1.0000 </r>
       <r>    4.2989    1.0000 </r>
       <r>    4.3043    1.0000 </r>
       <r>    4.3183    1.0000 </r>
       <r>    4.3272    1.0000 </r>
       <r>    5.1812    0.0000 </r>
       <r>    5.1859    0.0000 </r>
       <r>    5.2233    0.0000 </r>
       <r>    5.2254    0.0000 </r>
       <r>    5.7708    0.0000 </r>
       <r>    5.7769    0.0000 </r>
       <r>    5.8078    0.0000 </r>
       <r>    5.8123    0.0000 </r>
       <r>    6.2125    0.0000 </r>
       <r>    6.2158    0.0000 </r>
       <r>    6.2426    0.0000 </r>
       <r>    6.2518    0.0000 </r>
       <r>    6.2981    0.0000 </r>
       <r>    6.3072    0.0000 </r>
       <r>    6.3238    0.0000 </r>
       <r>    6.3419    0.0000 </r>
       <r>    6.6775    0.0000 </r>
       <r>    6.8114    0.0000 </r>
       <r>    6.9603    0.0000 </r>
       <r>    7.0105    0.0000 </r>
       <r>    7.3403    0.0000 </r>
       <r>    7.3820    0.0000 </r>
       <r>    7.4775    0.0000 </r>
       <r>    7.6299    0.0000 </r>
       <r>    7.8461    0.0000 </r>
       <r>    7.9183    0.0000 </r>
       <r>    7.9488    0.0000 </r>
       <r>    7.9805    0.0000 </r>
       <r>    8.0925    0.0000 </r>
       <r>    8.4104    0.0000 </r>
       <r>    8.4472    0.0000 </r>
       <r>    8.4785    0.0000 </r>
       <r>    8.7086    0.0000 </r>
       <r>    8.7687    0.0000 </r>
       <r>    8.9113    0.0000 </r>
       <r>    8.9275    0.0000 </r>
       <r>    9.0009    0.0000 </r>
       <r>    9.0940    0.0000 </r>
       <r>    9.1163    0.0000 </r>
       <r>    9.1216    0.0000 </r>
       <r>    9.1505    0.0000 </r>
       <r>    9.1894    0.0000 </r>
       <r>    9.1964    0.0000 </r>
       <r>    9.2623    0.0000 </r>
       <r>    9.5174    0.0000 </r>
       <r>    9.5523    0.0000 </r>
       <r>    9.7148    0.0000 </r>
       <r>    9.7512    0.0000 </r>
       <r>    9.7765    0.0000 </r>
       <r>    9.8138    0.0000 </r>
[...]
       <r>   11.3333    0.0000 </r>
       <r>   11.3857    0.0000 </r>
       <r>   11.4164    0.0000 </r>
       <r>   11.5228    0.0000 </r>
      </set>
     </set>
    </set>
   </array>
  </eigenvalues>
  <separator name="orbital magnetization" >
   <v name="MAGDIPOLOUT">      0.00000000      0.00000000      0.00000000</v>
  </separator>
  <dos>
   <i name="efermi">      4.44012434 </i>
   <total>
    <array>
     <dimension dim="1">gridpoints</dimension>
     <dimension dim="2">spin</dimension>
     <field>energy</field>
     <field>total</field>
     <field>integrated</field>
     <set>
      <set comment="spin 1">
       <r>   -43.1524     0.0000     0.0000 </r>
       <r>   -42.9583     0.0000     0.0000 </r>
       <r>   -42.7643     0.0000     0.0000 </r>
       <r>   -42.5702     0.0000     0.0000 </r>
       <r>   -42.3761     0.0000     0.0000 </r>
       <r>   -42.1821     0.0000     0.0000 </r>
       <r>   -41.9880     0.0000     0.0000 </r>
       <r>   -41.7940     0.0000     0.0000 </r>
       <r>   -41.5999     0.0000     0.0000 </r>
       <r>   -41.4059     0.0000     0.0000 </r>
       <r>   -41.2118     0.0000     0.0000 </r>
       <r>   -41.0177     0.0000     0.0000 </r>
       <r>   -40.8237     0.0000     0.0000 </r>
       <r>   -40.6296     0.0000     0.0000 </r>
       <r>   -40.4356     0.0000     2.0000 </r>
       <r>   -40.2415     0.0000     2.0000 </r>
       <r>   -40.0475     0.0000     4.0000 </r>
       <r>   -39.8534     0.0000     8.0000 </r>
       <r>   -39.6593     0.0000    14.0000 </r>
       <r>   -39.4653     0.0000    18.0000 </r>
       <r>   -39.2712     0.0000    22.0000 </r>
       <r>   -39.0772     0.0000    24.0000 </r>
       <r>   -38.8831     0.0000    24.0000 </r>
       <r>   -38.6891     0.0000    24.0000 </r>
       <r>   -38.4950     0.0000    24.0000 </r>
       <r>   -38.3009     0.0000    24.0000 </r>
       <r>   -38.1069     0.0000    24.0000 </r>
       <r>   -37.9128     0.0000    24.0000 </r>
       <r>   -37.7188     0.0000    24.0000 </r>
       <r>   -37.5247     0.0000    24.0000 </r>
       <r>   -37.3307     0.0000    24.0000 </r>
       <r>   -37.1366     0.0000    24.0000 </r>
       <r>   -36.9425     0.0000    24.0000 </r>
       <r>   -36.7485     0.0000    24.0000 </r>
       <r>   -36.5544     0.0000    24.0000 </r>
       <r>   -36.3604     0.0000    24.0000 </r>
       <r>   -36.1663     0.0000    24.0000 </r>
       <r>   -35.9723     0.0000    24.0000 </r>
       <r>   -35.7782     0.0000    24.0000 </r>
       <r>   -35.5841     0.0000    24.0000 </r>
       <r>   -35.3901     0.0000    24.0000 </r>
       <r>   -35.1960     0.0000    24.0000 </r>
       <r>   -35.0020     0.0000    24.0000 </r>
       <r>   -34.8079     0.0000    24.0000 </r>
       <r>   -34.6139     0.0000    24.0000 </r>
       <r>   -34.4198     0.0000    24.0000 </r>
       <r>   -34.2257     0.0000    24.0000 </r>
       <r>   -34.0317     0.0000    24.0000 </r>
       <r>   -33.8376     0.0000    24.0000 </r>
       <r>   -33.6436     0.0000    24.0000 </r>
       <r>   -33.4495     0.0000    24.0000 </r>
       <r>   -33.2555     0.0000    24.0000 </r>
       <r>   -33.0614     0.0000    24.0000 </r>
       <r>   -32.8673     0.0000    24.0000 </r>
       <r>   -32.6733     0.0000    24.0000 </r>
       <r>   -32.4792     0.0000    24.0000 </r>
       <r>   -32.2852     0.0000    24.0000 </r>
       <r>   -32.0911     0.0000    24.0000 </r>
       <r>   -31.8971     0.0000    24.0000 </r>
       <r>   -31.7030     0.0000    24.0000 </r>
       <r>   -31.5089     0.0000    24.0000 </r>
       <r>   -31.3149     0.0000    24.0000 </r>
       <r>   -31.1208     0.0000    24.0000 </r>
       <r>   -30.9268     0.0000    24.0000 </r>
       <r>   -30.7327     0.0000    24.0000 </r>
       <r>   -30.5387     0.0000    24.0000 </r>
       <r>   -30.3446     0.0000    24.0000 </r>
       <r>   -30.1505     0.0000    24.0000 </r>
       <r>   -29.9565     0.0000    24.0000 </r>
       <r>   -29.7624     0.0000    24.0000 </r>
       <r>   -29.5684     0.0000    24.0000 </r>
       <r>   -29.3743     0.0000    24.0000 </r>
       <r>   -29.1803     0.0000    24.0000 </r>
       <r>   -28.9862     0.0000    24.0000 </r>
       <r>   -28.7921     0.0000    24.0000 </r>
       <r>   -28.5981     0.0000    24.0000 </r>
       <r>   -28.4040     0.0000    24.0000 </r>
       <r>   -28.2100     0.0000    24.0000 </r>
       <r>   -28.0159     0.0000    24.0000 </r>
       <r>   -27.8219     0.0000    24.0000 </r>
       <r>   -27.6278     0.0000    24.0000 </r>
       <r>   -27.4337     0.0000    24.0000 </r>
       <r>   -27.2397     0.0000    24.0000 </r>
       <r>   -27.0456     0.0000    24.0000 </r>
       <r>   -26.8516     0.0000    24.0000 </r>
       <r>   -26.6575     0.0000    24.0000 </r>
       <r>   -26.4635     0.0000    24.0000 </r>
       <r>   -26.2694     0.0000    24.0000 </r>
       <r>   -26.0753     0.0000    24.0000 </r>
       <r>   -25.8813     0.0000    24.0000 </r>
       <r>   -25.6872     0.0000    24.0000 </r>
       <r>   -25.4932     0.0000    24.0000 </r>
       <r>   -25.2991     0.0000    24.0000 </r>
       <r>   -25.1051     0.0000    24.0000 </r>
       <r>   -24.9110     0.0000    24.0000 </r>
       <r>   -24.7169     0.0000    24.0000 </r>
       <r>   -24.5229     0.0000    24.0000 </r>
       <r>   -24.3288     0.0000    24.0000 </r>
       <r>   -24.1348     0.0000    24.0000 </r>
       <r>   -23.9407     0.0000    24.0000 </r>
       <r>   -23.7467     0.0000    24.0000 </r>
       <r>   -23.5526     0.0000    24.0000 </r>
       <r>   -23.3585     0.0000    24.0000 </r>
       <r>   -23.1645     0.0000    24.0000 </r>
       <r>   -22.9704     0.0000    24.0000 </r>
       <r>   -22.7764     0.0000    24.0000 </r>
       <r>   -22.5823     0.0000    24.0000 </r>
       <r>   -22.3883     0.0000    24.0000 </r>
       <r>   -22.1942     0.0000    24.0000 </r>
       <r>   -22.0001     0.0000    24.0000 </r>
       <r>   -21.8061     0.0000    24.0000 </r>
       <r>   -21.6120     0.0000    24.0000 </r>
       <r>   -21.4180     0.0000    24.0000 </r>
       <r>   -21.2239     0.0000    24.0000 </r>
       <r>   -21.0299     0.0000    24.0000 </r>
       <r>   -20.8358     0.0000    24.0000 </r>
       <r>   -20.6417     0.0000    24.0000 </r>
       <r>   -20.4477     0.0000    24.0000 </r>
       <r>   -20.2536     0.0000    24.0000 </r>
       <r>   -20.0596     0.0000    24.0000 </r>
       <r>   -19.8655     0.0000    24.0000 </r>
       <r>   -19.6715     0.0000    24.0000 </r>
       <r>   -19.4774     0.0000    24.0000 </r>
       <r>   -19.2833     0.0000    24.0000 </r>
       <r>   -19.0893     0.0000    24.0000 </r>
       <r>   -18.8952     0.0000    36.0000 </r>
       <r>   -18.7012     0.0000    64.0000 </r>
       <r>   -18.5071     0.0000   120.0000 </r>
       <r>   -18.3131     0.0000   152.0000 </r>
       <r>   -18.1190     0.0000   176.0000 </r>
       <r>   -17.9249     0.0000   184.0000 </r>
       <r>   -17.7309     0.0000   184.0000 </r>
       <r>   -17.5368     0.0000   184.0000 </r>
       <r>   -17.3428     0.0000   184.0000 </r>
       <r>   -17.1487     0.0000   184.0000 </r>
       <r>   -16.9547     0.0000   184.0000 </r>
       <r>   -16.7606     0.0000   184.0000 </r>
       <r>   -16.5666     0.0000   184.0000 </r>
       <r>   -16.3725     0.0000   184.0000 </r>
       <r>   -16.1784     0.0000   184.0000 </r>
       <r>   -15.9844     0.0000   184.0000 </r>
       <r>   -15.7903     0.0000   184.0000 </r>
       <r>   -15.5963     0.0000   184.0000 </r>
       <r>   -15.4022     0.0000   184.0000 </r>
       <r>   -15.2082     0.0000   184.0000 </r>
       <r>   -15.0141     0.0000   184.0000 </r>
       <r>   -14.8200     0.0000   184.0000 </r>
       <r>   -14.6260     0.0000   184.0000 </r>
       <r>   -14.4319     0.0000   184.0000 </r>
       <r>   -14.2379     0.0000   184.0000 </r>
       <r>   -14.0438     0.0000   184.0000 </r>
       <r>   -13.8498     0.0000   184.0000 </r>
       <r>   -13.6557     0.0000   186.0000 </r>
       <r>   -13.4616     0.0000   190.0000 </r>
       <r>   -13.2676     0.0000   192.0000 </r>
       <r>   -13.0735     0.0000   192.0000 </r>
       <r>   -12.8795     0.0000   192.0000 </r>
       <r>   -12.6854     0.0000   198.0000 </r>
       <r>   -12.4914     0.0000   208.0000 </r>
       <r>   -12.2973     0.0000   208.0000 </r>
       <r>   -12.1032     0.0000   208.0000 </r>
       <r>   -11.9092     0.0000   210.0000 </r>
       <r>   -11.7151     0.0000   216.0000 </r>
       <r>   -11.5211     0.0000   216.0000 </r>
       <r>   -11.3270     0.0000   216.0000 </r>
       <r>   -11.1330     0.0000   216.0000 </r>
       <r>   -10.9389     0.0000   216.0000 </r>
       <r>   -10.7448     0.0000   216.0000 </r>
       <r>   -10.5508     0.0000   216.0000 </r>
       <r>   -10.3567     0.0000   216.0000 </r>
       <r>   -10.1627     0.0000   216.0000 </r>
       <r>    -9.9686     0.0000   216.0000 </r>
       <r>    -9.7746     0.0000   216.0000 </r>
       <r>    -9.5805     0.0000   216.0000 </r>
       <r>    -9.3864     0.0000   216.0000 </r>
       <r>    -9.1924    14.6604   216.9573 </r>
       <r>    -8.9983    26.6165   218.7515 </r>
       <r>    -8.8043     6.6713   221.1115 </r>
       <r>    -8.6102    12.5951   223.7405 </r>
       <r>    -8.4162    36.4717   227.3872 </r>
       <r>    -8.2221    11.2546   231.9288 </r>
       <r>    -8.0280    14.1313   234.9758 </r>
       <r>    -7.8340    18.9669   239.8587 </r>
       <r>    -7.6399    15.3456   243.4502 </r>
       <r>    -7.4459    19.8266   246.7191 </r>
       <r>    -7.2518     0.0000   248.0000 </r>
       <r>    -7.0578     0.0000   248.0000 </r>
       <r>    -6.8637     0.0000   248.0000 </r>
       <r>    -6.6696     0.0000   248.0000 </r>
       <r>    -6.4756     0.0000   248.0000 </r>
       <r>    -6.2815     8.9001   248.2719 </r>
       <r>    -6.0875    29.3272   252.3583 </r>
       <r>    -5.8934     9.1712   255.9274 </r>
       <r>    -5.6994    28.3259   259.1062 </r>
       <r>    -5.5053    19.9385   263.9692 </r>
       <r>    -5.3112    22.6954   267.4927 </r>
       <r>    -5.1172    13.2339   270.9923 </r>
       <r>    -4.9231     3.5107   272.1541 </r>
       <r>    -4.7291     8.1910   273.4745 </r>
       <r>    -4.5350    10.0487   275.2437 </r>
       <r>    -4.3410     8.6715   276.8219 </r>
       <r>    -4.1469     6.6765   278.1244 </r>
       <r>    -3.9528     4.5434   279.2778 </r>
       <r>    -3.7588     1.5369   279.8447 </r>
       <r>    -3.5647     0.1001   279.9985 </r>
       <r>    -3.3707     0.0000   280.0000 </r>
       <r>    -3.1766     0.0000   280.0000 </r>
       <r>    -2.9826     0.0000   280.0000 </r>
       <r>    -2.7885     0.0000   280.0000 </r>
       <r>    -2.5944     0.0000   280.0000 </r>
       <r>    -2.4004     0.0000   280.0000 </r>
       <r>    -2.2063     0.0000   280.0000 </r>
       <r>    -2.0123     0.0000   280.0000 </r>
       <r>    -1.8182     0.0000   280.0000 </r>
       <r>    -1.6242     0.0000   280.0000 </r>
       <r>    -1.4301     0.0000   280.0000 </r>
       <r>    -1.2360     7.5366   280.5426 </r>
       <r>    -1.0420    11.5368   282.3082 </r>
       <r>    -0.8479    11.2629   284.6884 </r>
       <r>    -0.6539     7.8427   286.6342 </r>
       <r>    -0.4598    12.7713   288.6324 </r>
       <r>    -0.2658    23.9485   292.3447 </r>
       <r>    -0.0717    37.2616   298.2263 </r>
       <r>     0.1224    30.3159   305.4651 </r>
       <r>     0.3164    31.7041   311.4391 </r>
       <r>     0.5105    34.9922   318.5045 </r>
       <r>     0.7045    31.7842   325.3363 </r>
       <r>     0.8986    52.7886   333.4810 </r>
       <r>     1.0926    50.3177   342.0175 </r>
       <r>     1.2867    55.5991   350.3043 </r>
       <r>     1.4808    39.0682   359.3533 </r>
       <r>     1.6748    48.8440   367.9864 </r>
       <r>     1.8689    43.1165   375.8671 </r>
       <r>     2.0629    42.1847   384.1470 </r>
       <r>     2.2570    48.3098   393.2301 </r>
       <r>     2.4510    54.4346   403.1334 </r>
       <r>     2.6451    62.3483   416.0492 </r>
       <r>     2.8392    57.6711   426.3644 </r>
       <r>     3.0332    54.0663   437.1117 </r>
       <r>     3.2273    45.8349   447.3442 </r>
       <r>     3.4213    42.6110   455.6948 </r>
       <r>     3.6154    32.2034   463.0492 </r>
       <r>     3.8094    21.4434   467.2953 </r>
       <r>     4.0035    11.2273   470.3958 </r>
       <r>     4.1976     3.5705   471.8319 </r>
       <r>     4.3916     0.0000   472.0000 </r>
       <r>     4.5857     0.0000   472.0000 </r>
       <r>     4.7797     0.0000   472.0000 </r>
       <r>     4.9738     0.0000   472.0000 </r>
       <r>     5.1678     0.3176   472.0057 </r>
       <r>     5.3619     5.0753   472.5036 </r>
       <r>     5.5560    10.1649   473.9821 </r>
       <r>     5.7500     7.4844   475.7667 </r>
       <r>     5.9441    23.3663   479.4713 </r>
       <r>     6.1381    12.3219   482.3232 </r>
       <r>     6.3322    11.9539   484.6011 </r>
       <r>     6.5262    14.3902   487.1571 </r>
       <r>     6.7203    16.6113   490.1742 </r>
       <r>     6.9144    18.9199   493.6121 </r>
       <r>     7.1084    24.2724   497.6663 </r>
       <r>     7.3025    31.6609   503.2386 </r>
       <r>     7.4965    36.4637   509.7945 </r>
       <r>     7.6906    27.6336   515.1115 </r>
       <r>     7.8846    49.5033   522.5748 </r>
       <r>     8.0787    33.4161   531.3194 </r>
       <r>     8.2728    21.6736   536.3495 </r>
       <r>     8.4668    19.7674   540.2289 </r>
       <r>     8.6609    26.7220   544.5802 </r>
       <r>     8.8549    37.4512   550.6099 </r>
       <r>     9.0490    34.1676   558.8522 </r>
       <r>     9.2430    16.6578   563.2651 </r>
       <r>     9.4371    14.7093   566.1442 </r>
       <r>     9.6312    11.1679   568.6756 </r>
       <r>     9.8252     9.8846   571.2480 </r>
       <r>    10.0193     6.3054   572.5583 </r>
       <r>    10.2133    18.2106   574.5745 </r>
       <r>    10.4074    20.6922   579.8227 </r>
       <r>    10.6014    43.1542   585.7699 </r>
       <r>    10.7955    28.6963   593.0887 </r>
       <r>    10.9895    21.2024   597.8183 </r>
       <r>    11.1836    20.3340   600.9272 </r>
       <r>    11.3777    25.8157   606.1164 </r>
       <r>    11.5717    20.5731   610.6620 </r>
       <r>    11.7658    12.2954   613.8555 </r>
       <r>    11.9598     4.5561   615.4625 </r>
       <r>    12.1539     0.9318   615.9258 </r>
       <r>    12.3479     0.0576   615.9986 </r>
       <r>    12.5420     0.0000   616.0000 </r>
       <r>    12.7361     0.0000   616.0000 </r>
       <r>    12.9301     0.0000   616.0000 </r>
       <r>    13.1242     0.0000   616.0000 </r>
       <r>    13.3182     0.0000   616.0000 </r>
       <r>    13.5123     0.0000   616.0000 </r>
       <r>    13.7063     0.0000   616.0000 </r>
       <r>    13.9004     0.0000   616.0000 </r>
       <r>    14.0945     0.0000   616.0000 </r>
       <r>    14.2885     0.0000   616.0000 </r>
       <r>    14.4826     0.0000   616.0000 </r>
       <r>    14.6766     0.0000   616.0000 </r>
       <r>    14.8707     0.0000   616.0000 </r>
       <r>    15.0647     0.0000   616.0000 </r>
      </set>
     </set>
    </array>
   </total>
  </dos>
 </calculation>
 <structure name="finalpos" >
  <crystal>
   <varray name="basis" >
    <v>      11.17850000       0.00000000       0.00000000 </v>
    <v>       0.00000000       9.57460000       0.00000000 </v>
    <v>       0.00000000       0.00000000      11.18240000 </v>
   </varray>
   <i name="volume">   1196.84853820 </i>
   <varray name="rec_basis" >
    <v>       0.08945744       0.00000000       0.00000000 </v>
    <v>       0.00000000       0.10444301       0.00000000 </v>
    <v>       0.00000000       0.00000000       0.08942624 </v>
   </varray>
  </crystal>
  <varray name="positions" >
   <v>       0.37539000       0.00017000       0.43687000 </v>
   <v>       0.12461000       0.99984000       0.18687000 </v>
   <v>       0.37461000       0.00017000       0.18687000 </v>
   <v>       0.62539000       0.99984000       0.43687000 </v>
   <v>       0.87539000       0.00017000       0.43687000 </v>
   <v>       0.62461000       0.99984000       0.18687000 </v>
   <v>       0.87461000       0.00017000       0.18687000 </v>
   <v>       0.12539000       0.99984000       0.93687000 </v>
   <v>       0.37539000       0.00017000       0.93687000 </v>
   <v>       0.12461000       0.99984000       0.68687000 </v>
   <v>       0.87539000       0.00017000       0.93687000 </v>
   <v>       0.87461000       0.00017000       0.68687000 </v>
   <v>       0.37461000       0.00017000       0.68687000 </v>
   <v>       0.62539000       0.99984000       0.93687000 </v>
   <v>       0.00013000       0.29519000       0.06281000 </v>
   <v>       0.25013000       0.70481000       0.06281000 </v>
   <v>       0.24987000       0.29519000       0.31282000 </v>
   <v>       0.49987000       0.70481000       0.31282000 </v>
   <v>       0.50013000       0.29519000       0.06281000 </v>
   <v>       0.75013000       0.70481000       0.06281000 </v>
   <v>       0.74987000       0.29519000       0.31282000 </v>
   <v>       0.99987000       0.70481000       0.31282000 </v>
   <v>       0.00013000       0.29519000       0.56281000 </v>
   <v>       0.25013000       0.70481000       0.56281000 </v>
   <v>       0.24987000       0.29519000       0.81282000 </v>
   <v>       0.49987000       0.70481000       0.81282000 </v>
   <v>       0.50013000       0.29519000       0.56281000 </v>
   <v>       0.75013000       0.70481000       0.56281000 </v>
   <v>       0.74987000       0.29519000       0.81282000 </v>
   <v>       0.99987000       0.70481000       0.81282000 </v>
   <v>       0.25005000       0.32677000       0.06286000 </v>
   <v>       0.00005000       0.67323000       0.06286000 </v>
   <v>       0.49995000       0.32677000       0.31286000 </v>
   <v>       0.24995000       0.67323000       0.31286000 </v>
   <v>       0.75005000       0.32677000       0.06286000 </v>
   <v>       0.50005000       0.67323000       0.06286000 </v>
   <v>       0.99995000       0.32677000       0.31286000 </v>
   <v>       0.74995000       0.67323000       0.31286000 </v>
   <v>       0.25005000       0.32677000       0.56286000 </v>
   <v>       0.00005000       0.67323000       0.56286000 </v>
   <v>       0.49995000       0.32677000       0.81286000 </v>
   <v>       0.24995000       0.67323000       0.81286000 </v>
   <v>       0.75005000       0.32677000       0.56286000 </v>
   <v>       0.50005000       0.67323000       0.56286000 </v>
   <v>       0.99995000       0.32677000       0.81286000 </v>
   <v>       0.74995000       0.67323000       0.81286000 </v>
   <v>       0.49987000       0.07798000       0.06246000 </v>
   <v>       0.24987000       0.92202000       0.06246000 </v>
   <v>       0.25013000       0.07798000       0.31246000 </v>
   <v>       0.00013000       0.92202000       0.31246000 </v>
   <v>       0.99987000       0.07798000       0.06246000 </v>
   <v>       0.74987000       0.92202000       0.06246000 </v>
   <v>       0.75013000       0.07798000       0.31246000 </v>
   <v>       0.50013000       0.92202000       0.31246000 </v>
   <v>       0.49987000       0.07798000       0.56246000 </v>
   <v>       0.24987000       0.92202000       0.56246000 </v>
   <v>       0.25013000       0.07798000       0.81246000 </v>
   <v>       0.00013000       0.92202000       0.81246000 </v>
   <v>       0.99987000       0.07798000       0.56246000 </v>
   <v>       0.74987000       0.92202000       0.56246000 </v>
   <v>       0.75013000       0.07798000       0.81246000 </v>
   <v>       0.50013000       0.92202000       0.81246000 </v>
  </varray>
 </structure>
</modeling>
