<?xml version="1.0" encoding="ISO-8859-1"?>
<modeling>
 <generator>
  <i name="program" type="string">vasp </i>
  <i name="version" type="string">5.3.3  </i>
  <i name="subversion" type="string">18Dez12 (build Nov 19 2020 19:34:37) complex                          parallel </i>
  <i name="platform" type="string">LinuxIFC </i>
  <i name="date" type="string">2021 10 01 </i>
  <i name="time" type="string">14:56:27 </i>
 </generator>
 <incar>
  <i type="string" name="SYSTEM"> La2O2S</i>
  <i type="string" name="PREC">normal</i>
  <i type="int" name="NELMIN">     4</i>
  <i type="int" name="IBRION">     2</i>
  <i type="int" name="NFREE">    10</i>
  <i name="EDIFF">      0.00000100</i>
  <i name="EDIFFG">     -0.01000000</i>
  <i type="int" name="NSW">    10</i>
  <i type="int" name="ISIF">     2</i>
  <i name="ENCUT">    600.00000000</i>
  <i name="ENAUG">    900.00000000</i>
  <i type="int" name="ISMEAR">    -5</i>
  <i type="logical" name="LWAVE"> F  </i>
  <i type="logical" name="LCHARG"> F  </i>
 </incar>
 <kpoints>
  <generation param="Gamma">
   <v type="int" name="divisions">       2        2        2 </v>
   <v name="usershift">      0.00000000       0.00000000       0.00000000 </v>
   <v name="genvec1">      0.50000000       0.00000000       0.00000000 </v>
   <v name="genvec2">      0.00000000       0.50000000       0.00000000 </v>
   <v name="genvec3">      0.00000000       0.00000000       0.50000000 </v>
   <v name="shift">      0.00000000       0.00000000       0.00000000 </v>
  </generation>
  <varray name="kpointlist" >
   <v>       0.00000000       0.00000000       0.00000000 </v>
   <v>       0.50000000       0.00000000       0.00000000 </v>
   <v>       0.00000000       0.50000000       0.00000000 </v>
   <v>       0.50000000       0.50000000       0.00000000 </v>
   <v>       0.00000000       0.00000000       0.50000000 </v>
   <v>       0.50000000       0.00000000       0.50000000 </v>
   <v>       0.00000000       0.50000000       0.50000000 </v>
   <v>       0.50000000       0.50000000       0.50000000 </v>
  </varray>
  <varray name="weights" >
   <v>       0.12500000 </v>
   <v>       0.12500000 </v>
   <v>       0.12500000 </v>
   <v>       0.12500000 </v>
   <v>       0.12500000 </v>
   <v>       0.12500000 </v>
   <v>       0.12500000 </v>
   <v>       0.12500000 </v>
  </varray>
  <varray name="tetrahedronlist"  type="int" >
   <v type="int" >        2        1        2        4        5 </v>
   <v type="int" >        2        1        3        4        5 </v>
   <v type="int" >        2        3        4        5        7 </v>
   <v type="int" >        2        2        4        5        6 </v>
   <v type="int" >        2        4        5        6        8 </v>
   <v type="int" >        2        4        5        7        8 </v>
   <v type="int" >        2        1        2        3        6 </v>
   <v type="int" >        2        2        3        4        6 </v>
   <v type="int" >        2        3        4        6        8 </v>
   <v type="int" >        2        1        3        5        6 </v>
   <v type="int" >        2        3        5        6        7 </v>
   <v type="int" >        2        3        6        7        8 </v>
   <v type="int" >        2        2        3        4        7 </v>
   <v type="int" >        2        1        2        3        7 </v>
   <v type="int" >        2        1        2        5        7 </v>
   <v type="int" >        2        2        4        7        8 </v>
   <v type="int" >        2        2        6        7        8 </v>
   <v type="int" >        2        2        5        6        7 </v>
   <v type="int" >        2        1        3        4        8 </v>
   <v type="int" >        2        1        2        4        8 </v>
   <v type="int" >        2        1        2        6        8 </v>
   <v type="int" >        2        1        3        7        8 </v>
   <v type="int" >        2        1        5        7        8 </v>
   <v type="int" >        2        1        5        6        8 </v>
  </varray>
  <i name="volumeweight">      0.02083333 </i>
 </kpoints>
 <parameters>
  <separator name="general" >
   <i type="string" name="SYSTEM">La2O2S</i>
   <i type="logical" name="LCOMPAT"> F  </i>
  </separator>
  <separator name="electronic" >
   <i type="string" name="PREC">normal</i>
   <i name="ENMAX">    600.00000000</i>
   <i name="ENAUG">    900.00000000</i>
   <i name="EDIFF">      0.00000100</i>
   <i type="int" name="IALGO">    38</i>
   <i type="int" name="IWAVPR">    11</i>
   <i type="int" name="NBANDS">   280</i>
   <i name="NELECT">    464.00000000</i>
   <i type="int" name="TURBO">     0</i>
   <i type="int" name="IRESTART">     0</i>
   <i type="int" name="NREBOOT">     0</i>
   <i type="int" name="NMIN">     0</i>
   <i name="EREF">      0.00000000</i>
   <separator name="electronic smearing" >
    <i type="int" name="ISMEAR">    -5</i>
    <i name="SIGMA">      0.20000000</i>
    <i name="KSPACING">      0.50000000</i>
    <i type="logical" name="KGAMMA"> T  </i>
   </separator>
   <separator name="electronic projectors" >
    <i type="logical" name="LREAL"> F  </i>
    <v name="ROPT">      0.00000000      0.00000000      0.00000000      0.00000000      0.00000000</v>
    <i type="int" name="LMAXPAW">  -100</i>
    <i type="int" name="LMAXMIX">     2</i>
    <i type="logical" name="NLSPLINE"> F  </i>
   </separator>
   <separator name="electronic startup" >
    <i type="int" name="ISTART">     0</i>
    <i type="int" name="ICHARG">     2</i>
    <i type="int" name="INIWAV">     1</i>
   </separator>
   <separator name="electronic spin" >
    <i type="int" name="ISPIN">     1</i>
    <i type="logical" name="LNONCOLLINEAR"> F  </i>
    <v name="MAGMOM">      1.00000000      1.00000000      1.00000000      1.00000000      1.00000000      1.00000000      1.00000000      1.00000000      1.00000000      1.00000000      1.00000000      1.00000000      1.00000000      1.00000000      1.00000000      1.00000000      1.00000000      1.00000000      1.00000000      1.00000000
      1.00000000      1.00000000      1.00000000      1.00000000      1.00000000      1.00000000      1.00000000      1.00000000      1.00000000      1.00000000      1.00000000      1.00000000      1.00000000      1.00000000      1.00000000      1.00000000      1.00000000      1.00000000      1.00000000      1.00000000
      1.00000000      1.00000000      1.00000000      1.00000000      1.00000000      1.00000000      1.00000000      1.00000000      1.00000000      1.00000000      1.00000000      1.00000000      1.00000000      1.00000000      1.00000000      1.00000000      1.00000000      1.00000000      1.00000000      1.00000000
</v>
    <i name="NUPDOWN">     -1.00000000</i>
    <i type="logical" name="LSORBIT"> F  </i>
    <v name="SAXIS">      0.00000000      0.00000000      1.00000000</v>
    <i type="logical" name="LSPIRAL"> F  </i>
    <v name="QSPIRAL">      0.00000000      0.00000000      0.00000000</v>
    <i type="logical" name="LZEROZ"> F  </i>
   </separator>
   <separator name="electronic exchange-correlation" >
    <i type="logical" name="LASPH"> F  </i>
    <i type="logical" name="LMETAGGA"> F  </i>
   </separator>
   <separator name="electronic convergence" >
    <i type="int" name="NELM">    60</i>
    <i type="int" name="NELMDL">    -5</i>
    <i type="int" name="NELMIN">     4</i>
    <i name="ENINI">    600.00000000</i>
    <separator name="electronic convergence detail" >
     <i type="logical" name="LDIAG"> T  </i>
     <i type="logical" name="LSUBROT"> T  </i>
     <i name="WEIMIN">      0.00100000</i>
     <i name="EBREAK">      0.00000000</i>
     <i name="DEPER">      0.30000000</i>
     <i type="int" name="NRMM">     4</i>
     <i name="TIME">      0.40000000</i>
    </separator>
   </separator>
   <separator name="electronic mixer" >
    <i name="AMIX">      0.40000000</i>
    <i name="BMIX">      1.00000000</i>
    <i name="AMIN">      0.10000000</i>
    <i name="AMIX_MAG">      1.60000000</i>
    <i name="BMIX_MAG">      1.00000000</i>
    <separator name="electronic mixer details" >
     <i type="int" name="IMIX">     4</i>
     <i type="int" name="MAXMIX">   -45</i>
     <i name="WC">    100.00000000</i>
     <i type="int" name="INIMIX">     1</i>
     <i type="int" name="MIXPRE">     1</i>
     <i type="int" name="MREMOVE">     5</i>
    </separator>
   </separator>
   <separator name="electronic dipolcorrection" >
    <i type="logical" name="LDIPOL"> F  </i>
    <i type="logical" name="LMONO"> F  </i>
    <i type="int" name="IDIPOL">     0</i>
    <i name="EPSILON">      1.00000000</i>
    <v name="DIPOL">   -100.00000000   -100.00000000   -100.00000000</v>
    <i name="EFIELD">      0.00000000</i>
   </separator>
  </separator>
  <separator name="grids" >
   <i type="int" name="NGX">    70</i>
   <i type="int" name="NGY">    60</i>
   <i type="int" name="NGZ">    70</i>
   <i type="int" name="NGXF">   140</i>
   <i type="int" name="NGYF">   120</i>
   <i type="int" name="NGZF">   140</i>
   <i type="logical" name="ADDGRID"> F  </i>
  </separator>
  <separator name="ionic" >
   <i type="int" name="NSW">    10</i>
   <i type="int" name="IBRION">     2</i>
   <i type="int" name="ISIF">     2</i>
   <i name="PSTRESS">      0.00000000</i>
   <i name="EDIFFG">     -0.01000000</i>
   <i type="int" name="NFREE">    10</i>
   <i name="POTIM">      0.50000000</i>
   <i name="SMASS">     -3.00000000</i>
   <i name="SCALEE">      1.00000000</i>
  </separator>
  <separator name="ionic md" >
   <i name="TEBEG">      0.00010000</i>
   <i name="TEEND">      0.00010000</i>
   <i type="int" name="NBLOCK">     1</i>
   <i type="int" name="KBLOCK">    10</i>
   <i type="int" name="NPACO">   256</i>
   <i name="APACO">     16.00000000</i>
  </separator>
  <separator name="symmetry" >
   <i type="int" name="ISYM">     2</i>
   <i name="SYMPREC">      0.00001000</i>
  </separator>
  <separator name="dos" >
   <i type="logical" name="LORBIT"> F  </i>
   <v name="RWIGS">     -1.00000000     -1.00000000     -1.00000000     -1.00000000     -1.00000000</v>
   <i type="int" name="NEDOS">   301</i>
   <i name="EMIN">     10.00000000</i>
   <i name="EMAX">    -10.00000000</i>
   <i name="EFERMI">      0.00000000</i>
  </separator>
  <separator name="writing" >
   <i type="int" name="NWRITE">     2</i>
   <i type="logical" name="LWAVE"> F  </i>
   <i type="logical" name="LCHARG"> F  </i>
   <i type="logical" name="LPARD"> F  </i>
   <i type="logical" name="LVTOT"> F  </i>
   <i type="logical" name="LVHAR"> F  </i>
   <i type="logical" name="LELF"> F  </i>
   <i type="logical" name="LOPTICS"> F  </i>
   <v name="STM">      0.00000000      0.00000000      0.00000000      0.00000000      0.00000000      0.00000000      0.00000000</v>
  </separator>
  <separator name="performance" >
   <i type="int" name="NPAR">    40</i>
   <i type="int" name="NSIM">     4</i>
   <i type="int" name="NBLK">    -1</i>
   <i type="logical" name="LPLANE"> T  </i>
   <i type="logical" name="LSCALAPACK"> F  </i>
   <i type="logical" name="LSCAAWARE"> F  </i>
   <i type="logical" name="LSCALU"> F  </i>
   <i type="logical" name="LASYNC"> F  </i>
   <i type="logical" name="LORBITALREAL"> F  </i>
  </separator>
  <separator name="miscellaneous" >
   <i type="int" name="IDIOT">     3</i>
   <i type="logical" name="LMUSIC"> F  </i>
   <v name="POMASS">      7.01000000     24.30500000    208.98000000     32.06600000     16.00000000</v>
   <v name="DARWINR">      0.00000000      0.00000000      0.00000000      0.00000000      0.00000000</v>
   <v name="DARWINV">      1.00000000      1.00000000      1.00000000      1.00000000      1.00000000</v>
   <i type="logical" name="LCORR"> T  </i>
  </separator>
  <i type="logical" name="GGA_COMPAT"> T  </i>
  <i type="logical" name="LBERRY"> F  </i>
  <i type="int" name="ICORELEVEL">     0</i>
  <i type="logical" name="LDAU"> F  </i>
  <i type="int" name="I_CONSTRAINED_M">     0</i>
  <separator name="electronic exchange-correlation" >
   <i type="string" name="GGA">--</i>
   <i type="int" name="VOSKOWN">     0</i>
   <i type="logical" name="LHFCALC"> F  </i>
   <i type="string" name="PRECFOCK"></i>
   <i type="logical" name="LSYMGRAD"> F  </i>
   <i type="logical" name="LHFONE"> F  </i>
   <i type="logical" name="LRHFCALC"> F  </i>
   <i type="logical" name="LTHOMAS"> F  </i>
   <i type="logical" name="LMODELHF"> F  </i>
   <i name="ENCUT4O">     -1.00000000</i>
   <i type="int" name="EXXOEP">     0</i>
   <i type="int" name="FOURORBIT">     0</i>
   <i name="AEXX">      0.00000000</i>
   <i name="HFALPHA">      0.00000000</i>
   <i name="MCALPHA">      0.00000000</i>
   <i name="ALDAX">      1.00000000</i>
   <i name="AGGAX">      1.00000000</i>
   <i name="ALDAC">      1.00000000</i>
   <i name="AGGAC">      1.00000000</i>
   <i type="int" name="NKREDX">     1</i>
   <i type="int" name="NKREDY">     1</i>
   <i type="int" name="NKREDZ">     1</i>
   <i type="logical" name="SHIFTRED"> F  </i>
   <i type="logical" name="ODDONLY"> F  </i>
   <i type="logical" name="EVENONLY"> F  </i>
   <i type="int" name="LMAXFOCK">     0</i>
   <i type="int" name="NMAXFOCKAE">     0</i>
   <i type="logical" name="LFOCKAEDFT"> F  </i>
   <i name="HFSCREEN">      0.00000000</i>
   <i name="HFSCREENC">      0.00000000</i>
   <i type="int" name="NBANDSGWLOW">     0</i>
  </separator>
  <separator name="vdW DFT" >
   <i type="logical" name="LUSE_VDW"> F  </i>
   <i name="Zab_VDW">     -0.84910000</i>
   <i name="PARAM1">      0.12340000</i>
   <i name="PARAM2">      1.00000000</i>
   <i name="PARAM3">      0.00000000</i>
  </separator>
  <separator name="model GW" >
   <i type="int" name="MODEL_GW">     0</i>
   <i name="MODEL_EPS0">     11.96848538</i>
   <i name="MODEL_ALPHA">      1.00000000</i>
  </separator>
  <separator name="linear response parameters" >
   <i type="logical" name="LEPSILON"> F  </i>
   <i type="logical" name="LRPA"> F  </i>
   <i type="logical" name="LNABLA"> F  </i>
   <i type="logical" name="LVEL"> F  </i>
   <i type="int" name="KINTER">     0</i>
   <i name="CSHIFT">      0.10000000</i>
   <i name="OMEGAMAX">     -1.00000000</i>
   <i name="DEG_THRESHOLD">      0.00200000</i>
  </separator>
  <separator name="orbital magnetization" >
   <i type="logical" name="NUCIND"> F  </i>
   <v name="MAGPOS">      0.00000000      0.00000000      0.00000000</v>
   <i type="logical" name="LNICSALL"> T  </i>
   <i type="logical" name="ORBITALMAG"> F  </i>
   <i type="logical" name="LMAGBLOCH"> F  </i>
   <i type="logical" name="LCHIMAG"> F  </i>
   <i type="logical" name="LGAUGE"> T  </i>
   <i type="int" name="MAGATOM">     0</i>
   <v name="MAGDIPOL">      0.00000000      0.00000000      0.00000000</v>
   <v name="AVECCONST">      0.00000000      0.00000000      0.00000000</v>
  </separator>
  <separator name="response functions" >
   <i type="logical" name="LADDER"> F  </i>
   <i type="logical" name="LFXC"> F  </i>
   <i type="logical" name="LHARTREE"> T  </i>
   <i type="int" name="IBSE">     0</i>
   <i type="logical" name="LTCTE"> F  </i>
   <i type="logical" name="LTETE"> F  </i>
   <i type="logical" name="LTRIPLET"> F  </i>
   <i type="logical" name="LFXCEPS"> F  </i>
   <i type="logical" name="L2ORDER"> F  </i>
   <i type="logical" name="LUSEW"> F  </i>
   <i name="ENCUTGW">     -2.00000000</i>
   <i name="ENCUTGWSOFT">     -2.00000000</i>
   <i name="ENCUTLF">     -1.00000000</i>
   <i type="int" name="LMAXMP2">    -1</i>
   <i name="SCISSOR">      0.00000000</i>
   <i type="int" name="NOMEGA">     0</i>
   <i type="int" name="NOMEGAR">     0</i>
   <i type="int" name="NBANDSGW">    -1</i>
   <i type="int" name="NBANDSO">    -1</i>
   <i type="int" name="NBANDSV">    -1</i>
   <i type="int" name="NELM">     1</i>
   <i type="int" name="DIM">     3</i>
   <i type="int" name="ANTIRES">     0</i>
   <i name="OMEGAMAX">    -30.00000000</i>
   <i name="OMEGATL">   -200.00000000</i>
   <i type="int" name="OMEGAGRID">     0</i>
   <i name="CSHIFT">     -0.10000000</i>
   <i type="logical" name="SELFENERGY"> F  </i>
   <i type="logical" name="LSPECTRAL"> F  </i>
   <i type="logical" name="ODDONLYGW"> F  </i>
   <i type="logical" name="EVENONLYGW"> F  </i>
   <i type="int" name="NKREDLFX">     1</i>
   <i type="int" name="NKREDLFY">     1</i>
   <i type="int" name="NKREDLFZ">     1</i>
   <i type="int" name="MAXMEM">  1800</i>
   <i type="int" name="TELESCOPE">     0</i>
  </separator>
 </parameters>
 <atominfo>
  <atoms>      60 </atoms>
  <types>       5 </types>
  <array name="atoms" >
   <dimension dim="1">ion</dimension>
   <field type="string">element</field>
   <field type="int">atomtype</field>
   <set>
    <rc><c>Li</c><c>   1</c></rc>
    <rc><c>Li</c><c>   1</c></rc>
    <rc><c>Li</c><c>   1</c></rc>
    <rc><c>Li</c><c>   1</c></rc>
    <rc><c>Li</c><c>   1</c></rc>
    <rc><c>Li</c><c>   1</c></rc>
    <rc><c>Li</c><c>   1</c></rc>
    <rc><c>Li</c><c>   1</c></rc>
    <rc><c>Mg</c><c>   2</c></rc>
    <rc><c>Mg</c><c>   2</c></rc>
    <rc><c>Mg</c><c>   2</c></rc>
    <rc><c>Mg</c><c>   2</c></rc>
    <rc><c>Bi</c><c>   3</c></rc>
    <rc><c>Bi</c><c>   3</c></rc>
    <rc><c>Bi</c><c>   3</c></rc>
    <rc><c>Bi</c><c>   3</c></rc>
    <rc><c>Bi</c><c>   3</c></rc>
    <rc><c>Bi</c><c>   3</c></rc>
    <rc><c>Bi</c><c>   3</c></rc>
    <rc><c>Bi</c><c>   3</c></rc>
    <rc><c>Bi</c><c>   3</c></rc>
    <rc><c>Bi</c><c>   3</c></rc>
    <rc><c>Bi</c><c>   3</c></rc>
    <rc><c>Bi</c><c>   3</c></rc>
    <rc><c>Bi</c><c>   3</c></rc>
    <rc><c>Bi</c><c>   3</c></rc>
    <rc><c>Bi</c><c>   3</c></rc>
    <rc><c>Bi</c><c>   3</c></rc>
    <rc><c>S </c><c>   4</c></rc>
    <rc><c>S </c><c>   4</c></rc>
    <rc><c>S </c><c>   4</c></rc>
    <rc><c>S </c><c>   4</c></rc>
    <rc><c>S </c><c>   4</c></rc>
    <rc><c>S </c><c>   4</c></rc>
    <rc><c>S </c><c>   4</c></rc>
    <rc><c>S </c><c>   4</c></rc>
    <rc><c>S </c><c>   4</c></rc>
    <rc><c>S </c><c>   4</c></rc>
    <rc><c>S </c><c>   4</c></rc>
    <rc><c>S </c><c>   4</c></rc>
    <rc><c>S </c><c>   4</c></rc>
    <rc><c>S </c><c>   4</c></rc>
    <rc><c>S </c><c>   4</c></rc>
    <rc><c>S </c><c>   4</c></rc>
    <rc><c>O </c><c>   5</c></rc>
    <rc><c>O </c><c>   5</c></rc>
    <rc><c>O </c><c>   5</c></rc>
    <rc><c>O </c><c>   5</c></rc>
    <rc><c>O </c><c>   5</c></rc>
    <rc><c>O </c><c>   5</c></rc>
    <rc><c>O </c><c>   5</c></rc>
    <rc><c>O </c><c>   5</c></rc>
    <rc><c>O </c><c>   5</c></rc>
    <rc><c>O </c><c>   5</c></rc>
    <rc><c>O </c><c>   5</c></rc>
    <rc><c>O </c><c>   5</c></rc>
    <rc><c>O </c><c>   5</c></rc>
    <rc><c>O </c><c>   5</c></rc>
    <rc><c>O </c><c>   5</c></rc>
    <rc><c>O </c><c>   5</c></rc>
   </set>
  </array>
  <array name="atomtypes" >
   <dimension dim="1">type</dimension>
   <field type="int">atomspertype</field>
   <field type="string">element</field>
   <field>mass</field>
   <field>valence</field>
   <field type="string">pseudopotential</field>
   <set>
    <rc><c>   8</c><c>Li</c><c>      7.01000000</c><c>      3.00000000</c><c>  PAW_PBE Li_sv 10Sep2004               </c></rc>
    <rc><c>   4</c><c>Mg</c><c>     24.30500000</c><c>      2.00000000</c><c>  PAW_PBE Mg 13Apr2007                  </c></rc>
    <rc><c>  16</c><c>Bi</c><c>    208.98000000</c><c>     15.00000000</c><c>  PAW_PBE Bi_d 06Sep2000                </c></rc>
    <rc><c>  16</c><c>S </c><c>     32.06600000</c><c>      6.00000000</c><c>  PAW_PBE S 06Sep2000                   </c></rc>
    <rc><c>  16</c><c>O </c><c>     16.00000000</c><c>      6.00000000</c><c>  PAW_PBE O 08Apr2002                   </c></rc>
   </set>
  </array>
 </atominfo>
 <structure name="initialpos" >
  <crystal>
   <varray name="basis" >
    <v>      11.17850000       0.00000000       0.00000000 </v>
    <v>       0.00000000       9.57460000       0.00000000 </v>
    <v>       0.00000000       0.00000000      11.18240000 </v>
   </varray>
   <i name="volume">   1196.84853820 </i>
   <varray name="rec_basis" >
    <v>       0.08945744       0.00000000       0.00000000 </v>
    <v>       0.00000000       0.10444301       0.00000000 </v>
    <v>       0.00000000       0.00000000       0.08942624 </v>
   </varray>
  </crystal>
  <varray name="positions" >
   <v>       0.37539000       0.00017000       0.43687000 </v>
   <v>       0.12461000       0.99984000       0.18687000 </v>
   <v>       0.62539000       0.99984000       0.43687000 </v>
   <v>       0.87539000       0.00017000       0.43687000 </v>
   <v>       0.87461000       0.00017000       0.18687000 </v>
   <v>       0.12539000       0.99984000       0.93687000 </v>
   <v>       0.12461000       0.99984000       0.68687000 </v>
   <v>       0.87539000       0.00017000       0.93687000 </v>
   <v>       0.37461000       0.00017000       0.18687000 </v>
   <v>       0.37461000       0.00017000       0.68687000 </v>
   <v>       0.62539000       0.99984000       0.93687000 </v>
   <v>       0.87461000       0.00017000       0.68687000 </v>
   <v>       0.00013000       0.29519000       0.06281000 </v>
   <v>       0.25013000       0.70481000       0.06281000 </v>
   <v>       0.24987000       0.29519000       0.31282000 </v>
   <v>       0.49987000       0.70481000       0.31282000 </v>
   <v>       0.50013000       0.29519000       0.06281000 </v>
   <v>       0.75013000       0.70481000       0.06281000 </v>
   <v>       0.74987000       0.29519000       0.31282000 </v>
   <v>       0.99987000       0.70481000       0.31282000 </v>
   <v>       0.00013000       0.29519000       0.56281000 </v>
   <v>       0.25013000       0.70481000       0.56281000 </v>
   <v>       0.24987000       0.29519000       0.81282000 </v>
   <v>       0.49987000       0.70481000       0.81282000 </v>
   <v>       0.50013000       0.29519000       0.56281000 </v>
   <v>       0.75013000       0.70481000       0.56281000 </v>
   <v>       0.74987000       0.29519000       0.81282000 </v>
   <v>       0.99987000       0.70481000       0.81282000 </v>
   <v>       0.25005000       0.32677000       0.06286000 </v>
   <v>       0.00005000       0.67323000       0.06286000 </v>
   <v>       0.49995000       0.32677000       0.31286000 </v>
   <v>       0.24995000       0.67323000       0.31286000 </v>
   <v>       0.75005000       0.32677000       0.06286000 </v>
   <v>       0.50005000       0.67323000       0.06286000 </v>
   <v>       0.99995000       0.32677000       0.31286000 </v>
   <v>       0.74995000       0.67323000       0.31286000 </v>
   <v>       0.25005000       0.32677000       0.56286000 </v>
   <v>       0.00005000       0.67323000       0.56286000 </v>
   <v>       0.49995000       0.32677000       0.81286000 </v>
   <v>       0.24995000       0.67323000       0.81286000 </v>
   <v>       0.75005000       0.32677000       0.56286000 </v>
   <v>       0.50005000       0.67323000       0.56286000 </v>
   <v>       0.99995000       0.32677000       0.81286000 </v>
   <v>       0.74995000       0.67323000       0.81286000 </v>
   <v>       0.49987000       0.07798000       0.06246000 </v>
   <v>       0.24987000       0.92202000       0.06246000 </v>
   <v>       0.25013000       0.07798000       0.31246000 </v>
   <v>       0.00013000       0.92202000       0.31246000 </v>
   <v>       0.99987000       0.07798000       0.06246000 </v>
   <v>       0.74987000       0.92202000       0.06246000 </v>
   <v>       0.75013000       0.07798000       0.31246000 </v>
   <v>       0.50013000       0.92202000       0.31246000 </v>
   <v>       0.49987000       0.07798000       0.56246000 </v>
   <v>       0.24987000       0.92202000       0.56246000 </v>
   <v>       0.25013000       0.07798000       0.81246000 </v>
   <v>       0.00013000       0.92202000       0.81246000 </v>
   <v>       0.99987000       0.07798000       0.56246000 </v>
   <v>       0.74987000       0.92202000       0.56246000 </v>
   <v>       0.75013000       0.07798000       0.81246000 </v>
   <v>       0.50013000       0.92202000       0.81246000 </v>
  </varray>
 </structure>
 <calculation>
  <scstep>
   <time name="dav">   40.26   40.44</time>
   <time name="total">   40.41   40.68</time>
   <energy>
    <i name="alphaZ">   1067.11773629 </i>
    <i name="ewald"> -30650.69168870 </i>
    <i name="hartreedc"> -12703.48273875 </i>
    <i name="XCdc">   1321.05519274 </i>
    <i name="pawpsdc">  36729.48549953 </i>
    <i name="pawaedc"> -36149.63912807 </i>
    <i name="eentropy">      0.00000000 </i>
    <i name="bandstr">   1658.44676831 </i>
    <i name="atom">  44408.54722957 </i>
    <i name="e_fr_energy">   5680.83887091 </i>
    <i name="e_wo_entrp">   5680.83887091 </i>
    <i name="e_0_energy">   5680.83887091 </i>
   </energy>
  </scstep>
  <scstep>
   <time name="dav">   39.82   40.38</time>
   <time name="total">   39.83   42.42</time>
   <energy>
    <i name="e_fr_energy">    700.31295410 </i>
    <i name="e_wo_entrp">    700.31295410 </i>
    <i name="e_0_energy">    700.31295410 </i>
   </energy>
  </scstep>
  <scstep>
   <time name="dav">   50.32   50.56</time>
   <time name="total">   50.33   50.65</time>
   <energy>
    <i name="e_fr_energy">   -268.11097874 </i>
    <i name="e_wo_entrp">   -268.11097874 </i>
    <i name="e_0_energy">   -268.11097874 </i>
   </energy>
  </scstep>
  <scstep>
   <time name="dav">   49.88   50.63</time>
   <time name="total">   49.88   50.76</time>
   <energy>
    <i name="e_fr_energy">   -342.99684431 </i>
    <i name="e_wo_entrp">   -342.99684431 </i>
    <i name="e_0_energy">   -342.99684431 </i>
   </energy>
  </scstep>
  <scstep>
   <time name="dav">   65.31   65.60</time>
   <time name="total">   65.78   66.15</time>
   <energy>
    <i name="e_fr_energy">   -349.67992349 </i>
    <i name="e_wo_entrp">   -349.67992349 </i>
    <i name="e_0_energy">   -349.67992349 </i>
   </energy>
  </scstep>
  <scstep>
   <time name="dav">   60.42   60.55</time>
   <time name="total">   60.94   61.16</time>
   <energy>
    <i name="e_fr_energy">   -293.18287049 </i>
    <i name="e_wo_entrp">   -293.18287049 </i>
    <i name="e_0_energy">   -293.18287049 </i>
   </energy>
  </scstep>
  <scstep>
   <time name="dav">   45.09   45.56</time>
   <time name="total">   45.62   46.19</time>
   <energy>
    <i name="e_fr_energy">   -295.11711227 </i>
    <i name="e_wo_entrp">   -295.11711227 </i>
    <i name="e_0_energy">   -295.11711227 </i>
   </energy>
  </scstep>
  <scstep>
   <time name="dav">   49.20   49.34</time>
   <time name="total">   49.78   49.99</time>
   <energy>
    <i name="e_fr_energy">   -293.98189873 </i>
    <i name="e_wo_entrp">   -293.98189873 </i>
    <i name="e_0_energy">   -293.98189873 </i>
   </energy>
  </scstep>
  <scstep>
   <time name="dav">   58.03   58.59</time>
   <time name="total">   58.53   59.24</time>
   <energy>
    <i name="e_fr_energy">   -293.45282551 </i>
    <i name="e_wo_entrp">   -293.45282551 </i>
    <i name="e_0_energy">   -293.45282551 </i>
   </energy>
  </scstep>
  <scstep>
   <time name="dav">   48.33   48.73</time>
   <time name="total">   48.83   49.30</time>
   <energy>
    <i name="e_fr_energy">   -293.46855285 </i>
    <i name="e_wo_entrp">   -293.46855285 </i>
    <i name="e_0_energy">   -293.46855285 </i>
   </energy>
  </scstep>
  <scstep>
   <time name="dav">   51.85   52.29</time>
   <time name="total">   52.35   52.93</time>
   <energy>
    <i name="e_fr_energy">   -293.47734500 </i>
    <i name="e_wo_entrp">   -293.47734500 </i>
    <i name="e_0_energy">   -293.47734500 </i>
   </energy>
  </scstep>
  <scstep>
   <time name="dav">   54.55   54.72</time>
   <time name="total">   55.07   55.32</time>
   <energy>
    <i name="e_fr_energy">   -293.48103174 </i>
    <i name="e_wo_entrp">   -293.48103174 </i>
    <i name="e_0_energy">   -293.48103174 </i>
   </energy>
  </scstep>
  <scstep>
   <time name="dav">   49.70   50.08</time>
   <time name="total">   50.21   50.70</time>
   <energy>
    <i name="e_fr_energy">   -293.48199294 </i>
    <i name="e_wo_entrp">   -293.48199294 </i>
    <i name="e_0_energy">   -293.48199294 </i>
   </energy>
  </scstep>
  <scstep>
   <time name="dav">   47.72   48.12</time>
   <time name="total">   48.25   48.77</time>
   <energy>
    <i name="e_fr_energy">   -293.48213150 </i>
    <i name="e_wo_entrp">   -293.48213150 </i>
    <i name="e_0_energy">   -293.48213150 </i>
   </energy>
  </scstep>
  <scstep>
   <time name="dav">   60.30   60.96</time>
   <time name="total">   60.82   61.58</time>
   <energy>
    <i name="e_fr_energy">   -293.48216186 </i>
    <i name="e_wo_entrp">   -293.48216186 </i>
    <i name="e_0_energy">   -293.48216186 </i>
   </energy>
  </scstep>
  <scstep>
   <time name="dav">   47.40   47.48</time>
   <time name="total">   47.92   48.09</time>
   <energy>
    <i name="e_fr_energy">   -293.48217762 </i>
    <i name="e_wo_entrp">   -293.48217762 </i>
    <i name="e_0_energy">   -293.48217762 </i>
   </energy>
  </scstep>
  <scstep>
   <time name="dav">   42.21   42.73</time>
   <time name="total">   42.71   43.32</time>
   <energy>
    <i name="e_fr_energy">   -293.48217904 </i>
    <i name="e_wo_entrp">   -293.48217904 </i>
    <i name="e_0_energy">   -293.48217904 </i>
   </energy>
  </scstep>
  <scstep>
   <time name="dav">   38.76   39.43</time>
   <time name="total">   38.82   39.59</time>
   <energy>
    <i name="alphaZ">   1067.11773629 </i>
    <i name="ewald"> -30650.69168870 </i>
    <i name="hartreedc"> -12942.06845579 </i>
    <i name="XCdc">   1345.26644060 </i>
    <i name="pawpsdc">  43752.23944261 </i>
    <i name="pawaedc"> -43146.25365209 </i>
    <i name="eentropy">      0.00000000 </i>
    <i name="bandstr">  -4127.63923198 </i>
    <i name="atom">  44408.54722957 </i>
    <i name="e_fr_energy">   -293.48217948 </i>
    <i name="e_wo_entrp">   -293.48217948 </i>
    <i name="e_0_energy">   -293.48217948 </i>
   </energy>
  </scstep>
  <structure>
   <crystal>
    <varray name="basis" >
     <v>      11.17850000       0.00000000       0.00000000 </v>
     <v>       0.00000000       9.57460000       0.00000000 </v>
     <v>       0.00000000       0.00000000      11.18240000 </v>
    </varray>
    <i name="volume">   1196.84853820 </i>
    <varray name="rec_basis" >
     <v>       0.08945744       0.00000000       0.00000000 </v>
     <v>       0.00000000       0.10444301       0.00000000 </v>
     <v>       0.00000000       0.00000000       0.08942624 </v>
    </varray>
   </crystal>
   <varray name="positions" >
    <v>       0.37539000       0.00017000       0.43687000 </v>
    <v>       0.12461000       0.99984000       0.18687000 </v>
    <v>       0.62539000       0.99984000       0.43687000 </v>
    <v>       0.87539000       0.00017000       0.43687000 </v>
    <v>       0.87461000       0.00017000       0.18687000 </v>
    <v>       0.12539000       0.99984000       0.93687000 </v>
    <v>       0.12461000       0.99984000       0.68687000 </v>
    <v>       0.87539000       0.00017000       0.93687000 </v>
    <v>       0.37461000       0.00017000       0.18687000 </v>
    <v>       0.37461000       0.00017000       0.68687000 </v>
    <v>       0.62539000       0.99984000       0.93687000 </v>
    <v>       0.87461000       0.00017000       0.68687000 </v>
    <v>       0.00013000       0.29519000       0.06281000 </v>
    <v>       0.25013000       0.70481000       0.06281000 </v>
    <v>       0.24987000       0.29519000       0.31282000 </v>
    <v>       0.49987000       0.70481000       0.31282000 </v>
    <v>       0.50013000       0.29519000       0.06281000 </v>
    <v>       0.75013000       0.70481000       0.06281000 </v>
    <v>       0.74987000       0.29519000       0.31282000 </v>
    <v>       0.99987000       0.70481000       0.31282000 </v>
    <v>       0.00013000       0.29519000       0.56281000 </v>
    <v>       0.25013000       0.70481000       0.56281000 </v>
    <v>       0.24987000       0.29519000       0.81282000 </v>
    <v>       0.49987000       0.70481000       0.81282000 </v>
    <v>       0.50013000       0.29519000       0.56281000 </v>
    <v>       0.75013000       0.70481000       0.56281000 </v>
    <v>       0.74987000       0.29519000       0.81282000 </v>
    <v>       0.99987000       0.70481000       0.81282000 </v>
    <v>       0.25005000       0.32677000       0.06286000 </v>
    <v>       0.00005000       0.67323000       0.06286000 </v>
    <v>       0.49995000       0.32677000       0.31286000 </v>
    <v>       0.24995000       0.67323000       0.31286000 </v>
    <v>       0.75005000       0.32677000       0.06286000 </v>
    <v>       0.50005000       0.67323000       0.06286000 </v>
    <v>       0.99995000       0.32677000       0.31286000 </v>
    <v>       0.74995000       0.67323000       0.31286000 </v>
    <v>       0.25005000       0.32677000       0.56286000 </v>
    <v>       0.00005000       0.67323000       0.56286000 </v>
    <v>       0.49995000       0.32677000       0.81286000 </v>
    <v>       0.24995000       0.67323000       0.81286000 </v>
    <v>       0.75005000       0.32677000       0.56286000 </v>
    <v>       0.50005000       0.67323000       0.56286000 </v>
    <v>       0.99995000       0.32677000       0.81286000 </v>
    <v>       0.74995000       0.67323000       0.81286000 </v>
    <v>       0.49987000       0.07798000       0.06246000 </v>
    <v>       0.24987000       0.92202000       0.06246000 </v>
    <v>       0.25013000       0.07798000       0.31246000 </v>
    <v>       0.00013000       0.92202000       0.31246000 </v>
    <v>       0.99987000       0.07798000       0.06246000 </v>
    <v>       0.74987000       0.92202000       0.06246000 </v>
    <v>       0.75013000       0.07798000       0.31246000 </v>
    <v>       0.50013000       0.92202000       0.31246000 </v>
    <v>       0.49987000       0.07798000       0.56246000 </v>
    <v>       0.24987000       0.92202000       0.56246000 </v>
    <v>       0.25013000       0.07798000       0.81246000 </v>
    <v>       0.00013000       0.92202000       0.81246000 </v>
    <v>       0.99987000       0.07798000       0.56246000 </v>
    <v>       0.74987000       0.92202000       0.56246000 </v>
    <v>       0.75013000       0.07798000       0.81246000 </v>
    <v>       0.50013000       0.92202000       0.81246000 </v>
   </varray>
  </structure>
  <varray name="forces" >
   <v>      -0.18163351      -0.00057695      -0.03603878 </v>
   <v>      -0.30032341      -0.06378200       0.38461384 </v>
   <v>       0.07340334       0.06512353      -0.11066983 </v>
   <v>       0.17224686      -0.00547880      -0.50157257 </v>
   <v>      -0.23960546       0.00208345       0.28995335 </v>
   <v>       0.42650332       0.06790409       0.12810977 </v>
   <v>       0.17700141       0.06387744      -0.37745159 </v>
   <v>       0.13873654       0.00206021       0.52652289 </v>
   <v>       0.61190230      -0.00667801      -0.48920167 </v>
   <v>       0.61411736      -0.00343003       0.55607234 </v>
   <v>      -0.86031886      -0.11562673       0.28083982 </v>
   <v>      -0.57939828      -0.00995928      -0.45218254 </v>
   <v>      -0.01215066       0.04069440       0.25518601 </v>
   <v>       0.00367121       0.00433965      -0.04340496 </v>
   <v>      -0.24862775      -0.00449409       0.18376273 </v>
   <v>       0.24862712       0.01642566      -0.04075250 </v>
   <v>      -0.01084413      -0.12024260       0.16681703 </v>
   <v>      -0.00401272      -0.01241132       0.46669800 </v>
   <v>      -0.03257134      -1.00033307      -0.12006146 </v>
   <v>       0.05744291       1.02905617       0.08498644 </v>
   <v>       0.17361580       0.04175318      -0.45291734 </v>
   <v>      -0.19607457      -0.03050478      -0.34860012 </v>
   <v>       0.08665711       0.01514030       0.18898586 </v>
   <v>      -0.06958643       0.09218136      -0.02489713 </v>
   <v>       0.18054281      -0.00095084      -0.12061110 </v>
   <v>      -0.18425314      -0.00203726      -0.22652036 </v>
   <v>      -0.13173313       1.00549995      -0.13819240 </v>
   <v>       0.13791114      -1.06601511       0.09418118 </v>
   <v>       0.00019193       0.14611932      -0.01388610 </v>
   <v>       0.00017160      -0.19755572      -0.26424856 </v>
   <v>      -0.14865160       0.17850447      -0.01419763 </v>
   <v>       0.14641121      -0.17677329      -0.05804574 </v>
   <v>      -0.01031981       0.12357161      -0.31173460 </v>
   <v>       0.00590660      -0.08964548      -0.06281673 </v>
   <v>       0.08938350       0.21001075      -0.01935705 </v>
   <v>      -0.08447562      -0.21495964       0.02120311 </v>
   <v>       0.04763229       0.14556631       0.13299795 </v>
   <v>      -0.05656904      -0.12166329       0.31916572 </v>
   <v>       0.08099921       0.05491165      -0.01422994 </v>
   <v>      -0.07679390      -0.11233400      -0.06171215 </v>
   <v>       0.07355376       0.14438591       0.28180970 </v>
   <v>      -0.06478651      -0.15116864       0.08995870 </v>
   <v>      -0.12052719       0.11327964      -0.04139387 </v>
   <v>       0.11689328      -0.05893065       0.01049636 </v>
   <v>       0.04725431       0.29540581      -0.09975149 </v>
   <v>      -0.15284273      -0.06043187       1.00469919 </v>
   <v>       1.10376552       0.00296552      -1.07155552 </v>
   <v>      -0.54574815      -0.85766063      -0.61609540 </v>
   <v>      -0.00095528      -0.02820421      -0.23875120 </v>
   <v>       0.13462451       0.00834883      -1.32987096 </v>
   <v>       0.53504257       0.85455656       0.61432293 </v>
   <v>      -1.15884829      -0.08438428       0.12390148 </v>
   <v>      -1.10085313       0.05896361      -0.06988442 </v>
   <v>       1.04308444       0.04638010       1.13185266 </v>
   <v>      -0.23381624      -0.00504628      -1.08391376 </v>
   <v>      -0.57861210       0.85387844      -0.47987181 </v>
   <v>      -1.05147864      -0.09395785       1.29141123 </v>
   <v>       1.12635393      -0.04784645       0.08854202 </v>
   <v>       0.71469230      -0.70389750       0.60923860 </v>
   <v>       0.06807144      -0.23600728       0.00806238 </v>
  </varray>
  <varray name="stress" >
   <v>      -8.16797123       0.22438861      -0.17585602 </v>
   <v>       0.22438866     -13.84845122       0.05817794 </v>
   <v>      -0.17585589       0.05817805      -9.42413050 </v>
  </varray>
  <energy>
   <i name="e_fr_energy">   -307.03656505 </i>
   <i name="e_wo_entrp">   -307.03656505 </i>
   <i name="e_0_energy">      0.00000000 </i>
  </energy>
  <time name="totalsc">  990.54 1002.63</time>
 </calculation>
 <calculation>
  <scstep>
   <time name="dav">   40.11   40.29</time>
   <time name="total">   40.65   40.85</time>
   <energy>
    <i name="alphaZ">   1067.11773629 </i>
    <i name="ewald"> -30628.81912393 </i>
    <i name="hartreedc"> -12955.47867745 </i>
    <i name="XCdc">   1345.47141479 </i>
    <i name="pawpsdc">  43752.23428105 </i>
    <i name="pawaedc"> -43146.25088398 </i>
    <i name="eentropy">      0.00000000 </i>
    <i name="bandstr">  -4136.32215006 </i>
    <i name="atom">  44408.54722957 </i>
    <i name="e_fr_energy">   -293.50017371 </i>
    <i name="e_wo_entrp">   -293.50017371 </i>
    <i name="e_0_energy">   -293.50017371 </i>
   </energy>
  </scstep>
  <scstep>
   <time name="dav">   47.51   47.67</time>
   <time name="total">   48.03   48.28</time>
   <energy>
    <i name="e_fr_energy">   -294.57631219 </i>
    <i name="e_wo_entrp">   -294.57631219 </i>
    <i name="e_0_energy">   -294.57631219 </i>
   </energy>
  </scstep>
  <scstep>
   <time name="dav">   60.25   60.86</time>
   <time name="total">   60.76   61.52</time>
   <energy>
    <i name="e_fr_energy">   -294.55517946 </i>
    <i name="e_wo_entrp">   -294.55517946 </i>
    <i name="e_0_energy">   -294.55517946 </i>
   </energy>
  </scstep>
  <scstep>
   <time name="dav">   52.78   53.23</time>
   <time name="total">   53.29   53.85</time>
   <energy>
    <i name="e_fr_energy">   -294.52435951 </i>
    <i name="e_wo_entrp">   -294.52435951 </i>
    <i name="e_0_energy">   -294.52435951 </i>
   </energy>
  </scstep>
  <scstep>
   <time name="dav">   48.19   48.30</time>
   <time name="total">   48.77   48.99</time>
   <energy>
    <i name="e_fr_energy">   -294.51390846 </i>
    <i name="e_wo_entrp">   -294.51390846 </i>
    <i name="e_0_energy">   -294.51390846 </i>
   </energy>
  </scstep>
  <scstep>
   <time name="dav">   48.39   48.51</time>
   <time name="total">   48.92   49.20</time>
   <energy>
    <i name="e_fr_energy">   -294.51447454 </i>
    <i name="e_wo_entrp">   -294.51447454 </i>
    <i name="e_0_energy">   -294.51447454 </i>
   </energy>
  </scstep>
  <scstep>
   <time name="dav">   56.71   57.23</time>
   <time name="total">   57.26   57.88</time>
   <energy>
    <i name="e_fr_energy">   -294.51437577 </i>
    <i name="e_wo_entrp">   -294.51437577 </i>
    <i name="e_0_energy">   -294.51437577 </i>
   </energy>
  </scstep>
  <scstep>
   <time name="dav">   51.88   52.20</time>
   <time name="total">   52.35   52.83</time>
   <energy>
    <i name="e_fr_energy">   -294.51430246 </i>
    <i name="e_wo_entrp">   -294.51430246 </i>
    <i name="e_0_energy">   -294.51430246 </i>
   </energy>
  </scstep>
  <scstep>
   <time name="dav">   56.30   56.73</time>
   <time name="total">   56.81   57.36</time>
   <energy>
    <i name="e_fr_energy">   -294.51429777 </i>
    <i name="e_wo_entrp">   -294.51429777 </i>
    <i name="e_0_energy">   -294.51429777 </i>
   </energy>
  </scstep>
  <scstep>
   <time name="dav">   44.37   44.64</time>
   <time name="total">   44.90   45.28</time>
   <energy>
    <i name="e_fr_energy">   -294.51430329 </i>
    <i name="e_wo_entrp">   -294.51430329 </i>
    <i name="e_0_energy">   -294.51430329 </i>
   </energy>
  </scstep>
  <scstep>
   <time name="dav">   50.92   51.50</time>
   <time name="total">   50.99   51.69</time>
   <energy>
    <i name="alphaZ">   1067.11773629 </i>
    <i name="ewald"> -30628.81912393 </i>
    <i name="hartreedc"> -12961.92836285 </i>
    <i name="XCdc">   1345.87908289 </i>
    <i name="pawpsdc">  43795.06901884 </i>
    <i name="pawaedc"> -43189.35820039 </i>
    <i name="eentropy">      0.00000000 </i>
    <i name="bandstr">  -4131.02168450 </i>
    <i name="atom">  44408.54722957 </i>
    <i name="e_fr_energy">   -294.51430408 </i>
    <i name="e_wo_entrp">   -294.51430408 </i>
    <i name="e_0_energy">   -294.51430408 </i>
   </energy>
  </scstep>
  <structure>
   <crystal>
    <varray name="basis" >
     <v>      11.17850000       0.00000000       0.00000000 </v>
     <v>       0.00000000       9.57460000       0.00000000 </v>
     <v>       0.00000000       0.00000000      11.18240000 </v>
    </varray>
    <i name="volume">   1196.84853820 </i>
    <varray name="rec_basis" >
     <v>       0.08945744       0.00000000       0.00000000 </v>
     <v>       0.00000000       0.10444301       0.00000000 </v>
     <v>       0.00000000       0.00000000       0.08942624 </v>
    </varray>
   </crystal>
   <varray name="positions" >
    <v>       0.37460613       0.00016709       0.43671452 </v>
    <v>       0.12331390       0.99951863       0.18852929 </v>
    <v>       0.62570678       0.00016813       0.43639255 </v>
    <v>       0.87613336       0.00014239       0.43470614 </v>
    <v>       0.87357594       0.00018050       0.18812090 </v>
    <v>       0.12723065       0.00018214       0.93742269 </v>
    <v>       0.12537388       0.00016185       0.68524161 </v>
    <v>       0.87598874       0.00018038       0.93914150 </v>
    <v>       0.37725076       0.00013635       0.18475951 </v>
    <v>       0.37726032       0.00015272       0.68926898 </v>
    <v>       0.62167715       0.99925740       0.93808159 </v>
    <v>       0.87210951       0.00011982       0.68491921 </v>
    <v>       0.00007756       0.29539504       0.06391091 </v>
    <v>       0.25014584       0.70483187       0.06262274 </v>
    <v>       0.24879701       0.29516736       0.31361278 </v>
    <v>       0.50094299       0.70489276       0.31264419 </v>
    <v>       0.50008320       0.29458414       0.06352968 </v>
    <v>       0.75011268       0.70474746       0.06482341 </v>
    <v>       0.74972943       0.29014971       0.31230204 </v>
    <v>       0.00011790       0.70999501       0.31318665 </v>
    <v>       0.00087927       0.29540038       0.56085604 </v>
    <v>       0.24928381       0.70465630       0.56130608 </v>
    <v>       0.25024398       0.29526629       0.81363532 </v>
    <v>       0.49956969       0.70527447       0.81271259 </v>
    <v>       0.50090916       0.29518521       0.56228966 </v>
    <v>       0.74933483       0.70479974       0.56183276 </v>
    <v>       0.74930148       0.30025632       0.81222382 </v>
    <v>       0.00046518       0.69943877       0.81322631 </v>
    <v>       0.25005083       0.32750624       0.06280009 </v>
    <v>       0.00005074       0.67223459       0.06171999 </v>
    <v>       0.49930847       0.32766941       0.31279875 </v>
    <v>       0.25058186       0.67233931       0.31260958 </v>
    <v>       0.75000546       0.32739263       0.06151513 </v>
    <v>       0.50007549       0.67277831       0.06258900 </v>
    <v>       0.00033575       0.32782816       0.31277649 </v>
    <v>       0.74958543       0.67214690       0.31295147 </v>
    <v>       0.25025556       0.32750345       0.56343377 </v>
    <v>      -0.00019413       0.67261699       0.56423693 </v>
    <v>       0.50029957       0.32704668       0.81279861 </v>
    <v>       0.24961858       0.67266399       0.81259376 </v>
    <v>       0.75036743       0.32749750       0.56407577 </v>
    <v>       0.49977040       0.67246832       0.56324810 </v>
    <v>       0.99942985       0.32734077       0.81268142 </v>
    <v>       0.75045447       0.67293307       0.81290528 </v>
    <v>       0.50007393       0.07946843       0.06202966 </v>
    <v>       0.24921038       0.92171551       0.06679443 </v>
    <v>       0.25489348       0.07799494       0.30783714 </v>
    <v>      -0.00222527       0.91769858       0.30980207 </v>
    <v>       0.99986588       0.07783789       0.06142999 </v>
    <v>       0.75045099       0.92206207       0.05672272 </v>
    <v>       0.75243906       0.08228578       0.31511029 </v>
    <v>       0.49512880       0.92159482       0.31299453 </v>
    <v>       0.49511909       0.07827709       0.56215851 </v>
    <v>       0.25437160       0.92225369       0.56734299 </v>
    <v>       0.24912093       0.07795457       0.80778382 </v>
    <v>      -0.00236710       0.92632236       0.81038976 </v>
    <v>       0.99533217       0.07750658       0.56803135 </v>
    <v>       0.75473097       0.92177892       0.56284198 </v>
    <v>       0.75321437       0.07443334       0.81508835 </v>
    <v>       0.50042377       0.92083085       0.81249478 </v>
   </varray>
  </structure>
  <varray name="forces" >
   <v>      -0.20228743      -0.00079674      -0.00949057 </v>
   <v>      -0.13221411      -0.02952247       0.28222422 </v>
   <v>      -0.00630600       0.03444436      -0.02664036 </v>
   <v>       0.18056298      -0.00103011      -0.25749200 </v>
   <v>      -0.21586119      -0.00107832       0.08554126 </v>
   <v>       0.28725812       0.04038569       0.01576785 </v>
   <v>       0.04440705       0.03676012      -0.25847650 </v>
   <v>       0.08996223       0.00069144       0.22914132 </v>
   <v>       0.41300477      -0.01889153      -0.38185596 </v>
   <v>       0.43642639       0.00546347       0.44125220 </v>
   <v>      -0.37214665      -0.02597562       0.01542942 </v>
   <v>      -0.40895299      -0.00300062       0.18097321 </v>
   <v>      -0.01626764      -0.02501199       0.02917265 </v>
   <v>      -0.02331334      -0.04187438      -0.01620776 </v>
   <v>      -0.08225320      -0.06334659       0.09641394 </v>
   <v>       0.06693440      -0.07261489      -0.01640901 </v>
   <v>       0.00189228       0.31553363       0.09962586 </v>
   <v>       0.02027933       0.04783362       0.14711536 </v>
   <v>      -0.06864747       0.71979994      -0.10142249 </v>
   <v>       0.10432394      -0.70734326       0.07807423 </v>
   <v>       0.09706268      -0.13727297      -0.13108246 </v>
   <v>      -0.10775392       0.11257727      -0.17444612 </v>
   <v>      -0.01638642      -0.03552679       0.07562443 </v>
   <v>      -0.00163430      -0.23519172      -0.04422291 </v>
   <v>       0.06353593       0.02573551      -0.06001370 </v>
   <v>      -0.07361695      -0.05196459      -0.01654104 </v>
   <v>       0.03027215      -0.20943766      -0.05458810 </v>
   <v>       0.00060684       0.27696263       0.01327928 </v>
   <v>       0.00700062       0.14530824       0.01339073 </v>
   <v>       0.00214579      -0.19628097      -0.11435458 </v>
   <v>      -0.07942776       0.16409391      -0.01408007 </v>
   <v>       0.08822551      -0.18826511      -0.04841006 </v>
   <v>      -0.02545269       0.13422692      -0.15401030 </v>
   <v>       0.01403081      -0.05539781      -0.02629186 </v>
   <v>       0.03212593       0.13307446      -0.01994350 </v>
   <v>      -0.03877379      -0.13255937       0.02600117 </v>
   <v>       0.03554798       0.17272450       0.07738125 </v>
   <v>      -0.04638339      -0.15241658       0.15879904 </v>
   <v>       0.02787921       0.03984327      -0.00643830 </v>
   <v>      -0.01857214      -0.12904275      -0.04310355 </v>
   <v>       0.05274383       0.14772296       0.12567191 </v>
   <v>      -0.04277078      -0.14709565       0.04417646 </v>
   <v>      -0.04538161       0.23341245      -0.02548026 </v>
   <v>       0.03658135      -0.16888655      -0.00037866 </v>
   <v>       0.02703529      -0.07550774      -0.06079231 </v>
   <v>      -0.13487045      -0.05370366       0.73936322 </v>
   <v>       0.76134465       0.10556868      -0.79244032 </v>
   <v>      -0.51580616       0.85195481      -0.52188416 </v>
   <v>       0.02238204       0.04097151      -0.00492711 </v>
   <v>       0.08437114      -0.10368811      -0.81206772 </v>
   <v>       0.47226822      -0.83995193       0.50710571 </v>
   <v>      -0.74841292      -0.02839405       0.13076966 </v>
   <v>      -0.72567810       0.07697960      -0.13977638 </v>
   <v>       0.76949198      -0.15703153       0.77972610 </v>
   <v>      -0.13942802       0.10834558      -0.74235649 </v>
   <v>      -0.30577227      -0.49848982      -0.29537977 </v>
   <v>      -0.69447099       0.21625564       0.66877932 </v>
   <v>       0.66669089      -0.10666310      -0.26048965 </v>
   <v>       0.31764878       0.48945894       0.50980292 </v>
   <v>       0.03479957       0.01712584       0.06089135 </v>
  </varray>
  <varray name="stress" >
   <v>      -6.23323404       0.36547602      -0.13153082 </v>
   <v>       0.36547607      -9.63071019       0.08670920 </v>
   <v>      -0.13153087       0.08670900      -6.76458826 </v>
  </varray>
  <energy>
   <i name="e_fr_energy">   -308.05092785 </i>
   <i name="e_wo_entrp">   -308.05092785 </i>
   <i name="e_0_energy">      0.00000000 </i>
  </energy>
  <time name="totalsc">  639.53  645.61</time>
 </calculation>
 <calculation>
  <scstep>
   <time name="dav">   40.40   40.80</time>
   <time name="total">   40.91   41.32</time>
   <energy>
    <i name="alphaZ">   1067.11773629 </i>
    <i name="ewald"> -30610.92790578 </i>
    <i name="hartreedc"> -12974.33442800 </i>
    <i name="XCdc">   1346.05535297 </i>
    <i name="pawpsdc">  43794.93603739 </i>
    <i name="pawaedc"> -43189.22164169 </i>
    <i name="eentropy">      0.00000000 </i>
    <i name="bandstr">  -4136.47345828 </i>
    <i name="atom">  44408.54722957 </i>
    <i name="e_fr_energy">   -294.30107753 </i>
    <i name="e_wo_entrp">   -294.30107753 </i>
    <i name="e_0_energy">   -294.30107753 </i>
   </energy>
  </scstep>
  <scstep>
   <time name="dav">   48.71   49.25</time>
   <time name="total">   49.22   49.88</time>
   <energy>
    <i name="e_fr_energy">   -294.66897084 </i>
    <i name="e_wo_entrp">   -294.66897084 </i>
    <i name="e_0_energy">   -294.66897084 </i>
   </energy>
  </scstep>
  <scstep>
   <time name="dav">   58.14   58.60</time>
   <time name="total">   58.64   59.20</time>
   <energy>
    <i name="e_fr_energy">   -294.66058601 </i>
    <i name="e_wo_entrp">   -294.66058601 </i>
    <i name="e_0_energy">   -294.66058601 </i>
   </energy>
  </scstep>
  <scstep>
   <time name="dav">   48.47   48.65</time>
   <time name="total">   48.97   49.23</time>
   <energy>
    <i name="e_fr_energy">   -294.64827564 </i>
    <i name="e_wo_entrp">   -294.64827564 </i>
    <i name="e_0_energy">   -294.64827564 </i>
   </energy>
  </scstep>
  <scstep>
   <time name="dav">   47.19   48.11</time>
   <time name="total">   47.69   48.70</time>
   <energy>
    <i name="e_fr_energy">   -294.64569508 </i>
    <i name="e_wo_entrp">   -294.64569508 </i>
    <i name="e_0_energy">   -294.64569508 </i>
   </energy>
  </scstep>
  <scstep>
   <time name="dav">   54.21   54.88</time>
   <time name="total">   54.71   55.46</time>
   <energy>
    <i name="e_fr_energy">   -294.64577052 </i>
    <i name="e_wo_entrp">   -294.64577052 </i>
    <i name="e_0_energy">   -294.64577052 </i>
   </energy>
  </scstep>
  <scstep>
   <time name="dav">   51.48   51.84</time>
   <time name="total">   52.00   52.46</time>
   <energy>
    <i name="e_fr_energy">   -294.64573985 </i>
    <i name="e_wo_entrp">   -294.64573985 </i>
    <i name="e_0_energy">   -294.64573985 </i>
   </energy>
  </scstep>
  <scstep>
   <time name="dav">   56.73   56.84</time>
   <time name="total">   57.24   57.43</time>
   <energy>
    <i name="e_fr_energy">   -294.64572772 </i>
    <i name="e_wo_entrp">   -294.64572772 </i>
    <i name="e_0_energy">   -294.64572772 </i>
   </energy>
  </scstep>
  <scstep>
   <time name="dav">   58.02   58.87</time>
   <time name="total">   58.53   59.47</time>
   <energy>
    <i name="e_fr_energy">   -294.64571982 </i>
    <i name="e_wo_entrp">   -294.64571982 </i>
    <i name="e_0_energy">   -294.64571982 </i>
   </energy>
  </scstep>
  <scstep>
   <time name="dav">   42.98   43.52</time>
   <time name="total">   43.48   44.10</time>
   <energy>
    <i name="e_fr_energy">   -294.64572338 </i>
    <i name="e_wo_entrp">   -294.64572338 </i>
    <i name="e_0_energy">   -294.64572338 </i>
   </energy>
  </scstep>
  <scstep>
   <time name="dav">   43.37   43.47</time>
   <time name="total">   43.44   43.64</time>
   <energy>
    <i name="alphaZ">   1067.11773629 </i>
    <i name="ewald"> -30610.92790578 </i>
    <i name="hartreedc"> -12977.91263216 </i>
    <i name="XCdc">   1346.26648516 </i>
    <i name="pawpsdc">  43833.97422527 </i>
    <i name="pawaedc"> -43228.68821792 </i>
    <i name="eentropy">      0.00000000 </i>
    <i name="bandstr">  -4133.02264339 </i>
    <i name="atom">  44408.54722957 </i>
    <i name="e_fr_energy">   -294.64572297 </i>
    <i name="e_wo_entrp">   -294.64572297 </i>
    <i name="e_0_energy">   -294.64572297 </i>
   </energy>
  </scstep>
  <structure>
   <crystal>
    <varray name="basis" >
     <v>      11.17850000       0.00000000       0.00000000 </v>
     <v>       0.00000000       9.57460000       0.00000000 </v>
     <v>       0.00000000       0.00000000      11.18240000 </v>
    </varray>
    <i name="volume">   1196.84853820 </i>
    <varray name="rec_basis" >
     <v>       0.08945744       0.00000000       0.00000000 </v>
     <v>       0.00000000       0.10444301       0.00000000 </v>
     <v>       0.00000000       0.00000000       0.08942624 </v>
    </varray>
   </crystal>
   <varray name="positions" >
    <v>       0.37413621       0.00016535       0.43662132 </v>
    <v>       0.12253690       0.99932597       0.18952402 </v>
    <v>       0.62589669       0.00036485       0.43610633 </v>
    <v>       0.87657900       0.00012585       0.43340891 </v>
    <v>       0.87295603       0.00018679       0.18887082 </v>
    <v>       0.12833410       0.00038725       0.93775402 </v>
    <v>       0.12583182       0.00035480       0.68426541 </v>
    <v>       0.87634768       0.00018660       0.94050326 </v>
    <v>       0.37883389       0.00011618       0.18349428 </v>
    <v>       0.37884918       0.00014236       0.69070716 </v>
    <v>       0.61945132       0.99890814       0.93880793 </v>
    <v>       0.87061048       0.00008974       0.68374973 </v>
    <v>       0.00004613       0.29551797       0.06457090 </v>
    <v>       0.25015534       0.70484497       0.06251049 </v>
    <v>       0.24815375       0.29515378       0.31408805 </v>
    <v>       0.50158624       0.70494238       0.31253879 </v>
    <v>       0.50005514       0.29422094       0.06396112 </v>
    <v>       0.75010230       0.70470997       0.06603044 </v>
    <v>       0.74964516       0.28712809       0.31199152 </v>
    <v>       0.00026652       0.71310340       0.31340645 </v>
    <v>       0.00132845       0.29552650       0.55968466 </v>
    <v>       0.24877652       0.70456416       0.56040449 </v>
    <v>       0.25046818       0.29531202       0.81412409 </v>
    <v>       0.49938965       0.70555291       0.81264820 </v>
    <v>       0.50137627       0.29518234       0.56197773 </v>
    <v>       0.74885812       0.70479358       0.56124690 </v>
    <v>       0.74896066       0.30329355       0.81186641 </v>
    <v>       0.00082198       0.69621874       0.81346989 </v>
    <v>       0.25005132       0.32794761       0.06276418 </v>
    <v>       0.00005118       0.67163785       0.06103656 </v>
    <v>       0.49892388       0.32820861       0.31276203 </v>
    <v>       0.25096066       0.67180534       0.31245946 </v>
    <v>       0.74997876       0.32776589       0.06070888 </v>
    <v>       0.50009077       0.67250753       0.06242653 </v>
    <v>       0.00056700       0.32846252       0.31272643 </v>
    <v>       0.74936687       0.67149759       0.31300631 </v>
    <v>       0.25037880       0.32794315       0.56377775 </v>
    <v>      -0.00034049       0.67224949       0.56506239 </v>
    <v>       0.50050913       0.32721255       0.81276181 </v>
    <v>       0.24941990       0.67232468       0.81243416 </v>
    <v>       0.75055773       0.32793364       0.56480462 </v>
    <v>       0.49960279       0.67201170       0.56348076 </v>
    <v>       0.99911802       0.32768295       0.81257436 </v>
    <v>       0.75075690       0.67275506       0.81293243 </v>
    <v>       0.50019619       0.08036074       0.06177167 </v>
    <v>       0.24881494       0.92153297       0.06939290 </v>
    <v>       0.25774916       0.07800390       0.30506576 </v>
    <v>      -0.00363723       0.91510792       0.30820865 </v>
    <v>       0.99986341       0.07775270       0.06081250 </v>
    <v>       0.75079930       0.92208729       0.05328326 </v>
    <v>       0.75382334       0.08486706       0.31669912 </v>
    <v>       0.49213061       0.92133993       0.31331498 </v>
    <v>       0.49227094       0.07845520       0.56197776 </v>
    <v>       0.25707029       0.92239379       0.57027032 </v>
    <v>       0.24851599       0.07793933       0.80498048 </v>
    <v>      -0.00386409       0.92890160       0.80914866 </v>
    <v>       0.99261177       0.07722277       0.57137135 </v>
    <v>       0.75764509       0.92163439       0.56307098 </v>
    <v>       0.75506344       0.07230713       0.81666403 </v>
    <v>       0.50059989       0.92011796       0.81251563 </v>
   </varray>
  </structure>
  <varray name="forces" >
   <v>      -0.21591877      -0.00017642       0.00722888 </v>
   <v>      -0.03213865      -0.00492099       0.21645059 </v>
   <v>      -0.05500946       0.01510687       0.02286176 </v>
   <v>       0.18387245       0.00021833      -0.10601164 </v>
   <v>      -0.19765546      -0.00168176      -0.03826321 </v>
   <v>       0.20601098       0.02769679      -0.04570974 </v>
   <v>      -0.03334142       0.02113258      -0.18875604 </v>
   <v>       0.07561377       0.00237549       0.05040217 </v>
   <v>       0.29664911      -0.03268208      -0.32734346 </v>
   <v>       0.33192458       0.01844724       0.37992419 </v>
   <v>      -0.08790602       0.01438537      -0.13878159 </v>
   <v>      -0.31961021       0.00720886       0.63374000 </v>
   <v>      -0.01965326      -0.05955766      -0.10688683 </v>
   <v>      -0.04092004      -0.06577517      -0.00089328 </v>
   <v>       0.02718280      -0.11223838       0.04186030 </v>
   <v>      -0.04677957      -0.11722176      -0.00112948 </v>
   <v>       0.00994390       0.59660113       0.06103846 </v>
   <v>       0.03671976       0.09512301      -0.04843244 </v>
   <v>      -0.11808568       2.15875043      -0.12654429 </v>
   <v>       0.16077141      -2.17107366       0.10937179 </v>
   <v>       0.04413469      -0.25877635       0.07054743 </v>
   <v>      -0.05095969       0.21130311      -0.06346979 </v>
   <v>      -0.07640363      -0.07390070       0.00541930 </v>
   <v>       0.03632193      -0.44332382      -0.05661327 </v>
   <v>      -0.00568098       0.03346190      -0.02338515 </v>
   <v>      -0.00677122      -0.07608031       0.11048988 </v>
   <v>       0.13022962      -0.73583104       0.00172002 </v>
   <v>      -0.08268591       0.83635230      -0.04095312 </v>
   <v>       0.00996725       0.14509552       0.03096687 </v>
   <v>       0.00204916      -0.19365996      -0.02029466 </v>
   <v>      -0.03971126       0.15312606      -0.01270246 </v>
   <v>       0.05543362      -0.19371424      -0.04457935 </v>
   <v>      -0.03385249       0.13604474      -0.05873414 </v>
   <v>       0.02027757      -0.03342487      -0.00386584 </v>
   <v>      -0.00715849       0.08539421      -0.02305974 </v>
   <v>      -0.00548455      -0.08133670       0.03275966 </v>
   <v>       0.02695682       0.18990809       0.04381068 </v>
   <v>      -0.04058682      -0.16741549       0.06191924 </v>
   <v>      -0.00655586       0.03035536      -0.00223900 </v>
   <v>       0.01797024      -0.13931734      -0.03103008 </v>
   <v>       0.04166622       0.14934219       0.02806047 </v>
   <v>      -0.02985413      -0.14545152       0.01591692 </v>
   <v>       0.00007333       0.29950373      -0.01414340 </v>
   <v>      -0.01219584      -0.23000849      -0.01012506 </v>
   <v>       0.01329852      -0.30978315      -0.03604747 </v>
   <v>      -0.12848802      -0.05954230       0.57917169 </v>
   <v>       0.54189570       0.19635643      -0.61165519 </v>
   <v>      -0.52892380       2.28730007      -0.50136294 </v>
   <v>       0.03787069       0.07943469       0.13772524 </v>
   <v>       0.04018247      -0.19497761      -0.49142145 </v>
   <v>       0.46359928      -2.24989934       0.47491983 </v>
   <v>      -0.49510624      -0.01546222       0.13594419 </v>
   <v>      -0.49563456       0.10772162      -0.18484163 </v>
   <v>       0.59152065      -0.30939929       0.55483101 </v>
   <v>      -0.08280077       0.19093993      -0.53021054 </v>
   <v>      -0.13159707      -1.08364653      -0.17619550 </v>
   <v>      -0.41956209       0.45650227       0.24385877 </v>
   <v>       0.35443065      -0.18413764      -0.51865713 </v>
   <v>       0.06903627       1.02282409       0.43505530 </v>
   <v>       0.02142851       0.17640443       0.09834428 </v>
  </varray>
  <varray name="stress" >
   <v>      -4.87995934       0.41741257      -0.10155869 </v>
   <v>       0.41741259      -4.47008683      -0.04679971 </v>
   <v>      -0.10155905      -0.04679979      -4.87197621 </v>
  </varray>
  <energy>
   <i name="e_fr_energy">   -308.17255422 </i>
   <i name="e_wo_entrp">   -308.17255422 </i>
   <i name="e_0_energy">      0.00000000 </i>
  </energy>
  <time name="totalsc">  631.84  638.56</time>
 </calculation>
 <calculation>
  <scstep>
   <time name="dav">   39.74   40.01</time>
   <time name="total">   40.24   40.55</time>
   <energy>
    <i name="alphaZ">   1067.11773629 </i>
    <i name="ewald"> -30630.15225086 </i>
    <i name="hartreedc"> -12957.91442764 </i>
    <i name="XCdc">   1346.14667080 </i>
    <i name="pawpsdc">  43833.60073761 </i>
    <i name="pawaedc"> -43228.31299182 </i>
    <i name="eentropy">      0.00000000 </i>
    <i name="bandstr">  -4133.62633440 </i>
    <i name="atom">  44408.54722957 </i>
    <i name="e_fr_energy">   -294.59363045 </i>
    <i name="e_wo_entrp">   -294.59363045 </i>
    <i name="e_0_energy">   -294.59363045 </i>
   </energy>
  </scstep>
  <scstep>
   <time name="dav">   45.24   45.68</time>
   <time name="total">   45.74   46.28</time>
   <energy>
    <i name="e_fr_energy">   -295.22457075 </i>
    <i name="e_wo_entrp">   -295.22457075 </i>
    <i name="e_0_energy">   -295.22457075 </i>
   </energy>
  </scstep>
  <scstep>
   <time name="dav">   64.96   65.19</time>
   <time name="total">   65.48   65.83</time>
   <energy>
    <i name="e_fr_energy">   -295.21570403 </i>
    <i name="e_wo_entrp">   -295.21570403 </i>
    <i name="e_0_energy">   -295.21570403 </i>
   </energy>
  </scstep>
  <scstep>
   <time name="dav">   45.94   46.05</time>
   <time name="total">   46.45   46.64</time>
   <energy>
    <i name="e_fr_energy">   -295.20067175 </i>
    <i name="e_wo_entrp">   -295.20067175 </i>
    <i name="e_0_energy">   -295.20067175 </i>
   </energy>
  </scstep>
  <scstep>
   <time name="dav">   46.05   46.81</time>
   <time name="total">   46.58   47.43</time>
   <energy>
    <i name="e_fr_energy">   -295.19535518 </i>
    <i name="e_wo_entrp">   -295.19535518 </i>
    <i name="e_0_energy">   -295.19535518 </i>
   </energy>
  </scstep>
  <scstep>
   <time name="dav">   49.19   49.29</time>
   <time name="total">   49.72   49.91</time>
   <energy>
    <i name="e_fr_energy">   -295.19585220 </i>
    <i name="e_wo_entrp">   -295.19585220 </i>
    <i name="e_0_energy">   -295.19585220 </i>
   </energy>
  </scstep>
  <scstep>
   <time name="dav">   59.41   59.93</time>
   <time name="total">   59.91   60.51</time>
   <energy>
    <i name="e_fr_energy">   -295.19583206 </i>
    <i name="e_wo_entrp">   -295.19583206 </i>
    <i name="e_0_energy">   -295.19583206 </i>
   </energy>
  </scstep>
  <scstep>
   <time name="dav">   54.66   54.88</time>
   <time name="total">   55.17   55.48</time>
   <energy>
    <i name="e_fr_energy">   -295.19578262 </i>
    <i name="e_wo_entrp">   -295.19578262 </i>
    <i name="e_0_energy">   -295.19578262 </i>
   </energy>
  </scstep>
  <scstep>
   <time name="dav">   45.53   45.81</time>
   <time name="total">   46.03   46.39</time>
   <energy>
    <i name="e_fr_energy">   -295.19578960 </i>
    <i name="e_wo_entrp">   -295.19578960 </i>
    <i name="e_0_energy">   -295.19578960 </i>
   </energy>
  </scstep>
  <scstep>
   <time name="dav">   50.22   50.41</time>
   <time name="total">   50.72   51.01</time>
   <energy>
    <i name="e_fr_energy">   -295.19579059 </i>
    <i name="e_wo_entrp">   -295.19579059 </i>
    <i name="e_0_energy">   -295.19579059 </i>
   </energy>
  </scstep>
  <scstep>
   <time name="dav">   38.95   39.36</time>
   <time name="total">   39.02   39.52</time>
   <energy>
    <i name="alphaZ">   1067.11773629 </i>
    <i name="ewald"> -30630.15225086 </i>
    <i name="hartreedc"> -12959.79194872 </i>
    <i name="XCdc">   1346.21581076 </i>
    <i name="pawpsdc">  43780.81991352 </i>
    <i name="pawaedc"> -43174.46677457 </i>
    <i name="eentropy">      0.00000000 </i>
    <i name="bandstr">  -4133.48550749 </i>
    <i name="atom">  44408.54722957 </i>
    <i name="e_fr_energy">   -295.19579150 </i>
    <i name="e_wo_entrp">   -295.19579150 </i>
    <i name="e_0_energy">   -295.19579150 </i>
   </energy>
  </scstep>
  <structure>
   <crystal>
    <varray name="basis" >
     <v>      11.17850000       0.00000000       0.00000000 </v>
     <v>       0.00000000       9.57460000       0.00000000 </v>
     <v>       0.00000000       0.00000000      11.18240000 </v>
    </varray>
    <i name="volume">   1196.84853820 </i>
    <varray name="rec_basis" >
     <v>       0.08945744       0.00000000       0.00000000 </v>
     <v>       0.00000000       0.10444301       0.00000000 </v>
     <v>       0.00000000       0.00000000       0.08942624 </v>
    </varray>
   </crystal>
   <varray name="positions" >
    <v>       0.37312582       0.00016308       0.43654505 </v>
    <v>       0.12167200       0.99911702       0.19106588 </v>
    <v>       0.62595218       0.00060738       0.43587376 </v>
    <v>       0.87748537       0.00010975       0.43183517 </v>
    <v>       0.87183937       0.00018828       0.18953377 </v>
    <v>       0.12996013       0.00067473       0.93797552 </v>
    <v>       0.12621190       0.00061098       0.68281092 </v>
    <v>       0.87689794       0.00019977       0.94200434 </v>
    <v>       0.38116944       0.00000116       0.18140413 </v>
    <v>       0.38127801       0.00018530       0.69310245 </v>
    <v>       0.61698399       0.99859684       0.93919785 </v>
    <v>       0.86830296       0.00008021       0.68413912 </v>
    <v>      -0.00003439       0.29546973       0.06497286 </v>
    <v>       0.25006345       0.70466776       0.06239483 </v>
    <v>       0.24757113       0.29481507       0.31467211 </v>
    <v>       0.50212026       0.70465309       0.31242948 </v>
    <v>       0.50005145       0.29558142       0.06454844 </v>
    <v>       0.75018288       0.70494753       0.06713012 </v>
    <v>       0.74926714       0.29032546       0.31136399 </v>
    <v>       0.00081544       0.70995802       0.31389973 </v>
    <v>       0.00189183       0.29490464       0.55867582 </v>
    <v>       0.24813749       0.70508289       0.55933604 </v>
    <v>       0.25050526       0.29514425       0.81463146 </v>
    <v>       0.49929780       0.70455061       0.81244277 </v>
    <v>       0.50183421       0.29527633       0.56160452 </v>
    <v>       0.74835960       0.70456706       0.56092880 </v>
    <v>       0.74893923       0.30423215       0.81150949 </v>
    <v>       0.00097748       0.69538649       0.81361451 </v>
    <v>       0.25007655       0.32881377       0.06280466 </v>
    <v>       0.00005672       0.67047406       0.06029560 </v>
    <v>       0.49843674       0.32919688       0.31269343 </v>
    <v>       0.25148094       0.67070483       0.31219722 </v>
    <v>       0.74986782       0.32853702       0.05974852 </v>
    <v>       0.50015651       0.67213710       0.06225277 </v>
    <v>       0.00078294       0.32935084       0.31261866 </v>
    <v>       0.74913241       0.67060591       0.31314295 </v>
    <v>       0.25057019       0.32893739       0.56423397 </v>
    <v>      -0.00058905       0.67139335       0.56605008 </v>
    <v>       0.50070464       0.32746806       0.81271906 </v>
    <v>       0.24926369       0.67157837       0.81219593 </v>
    <v>       0.75085338       0.32880681       0.56561073 </v>
    <v>       0.49935936       0.67112909       0.56375534 </v>
    <v>       0.99880308       0.32889597       0.81243111 </v>
    <v>       0.75103227       0.67190917       0.81293476 </v>
    <v>       0.50035272       0.08036546       0.06142159 </v>
    <v>       0.24809667       0.92117609       0.07345470 </v>
    <v>       0.26197894       0.07858152       0.30074869 </v>
    <v>      -0.00637590       0.91911303       0.30535541 </v>
    <v>       0.99995483       0.07789661       0.06052996 </v>
    <v>       0.75125093       0.92154819       0.04858915 </v>
    <v>       0.75637200       0.08096078       0.31948217 </v>
    <v>       0.48787286       0.92103757       0.31397585 </v>
    <v>       0.48816351       0.07894710       0.56133684 </v>
    <v>       0.26126449       0.92163947       0.57460410 </v>
    <v>       0.24769932       0.07847681       0.80083303 </v>
    <v>      -0.00570326       0.92837024       0.80745763 </v>
    <v>       0.98882210       0.07825781       0.57535117 </v>
    <v>       0.76146899       0.92095516       0.56201650 </v>
    <v>       0.75710322       0.07312018       0.81933496 </v>
    <v>       0.50083101       0.91990835       0.81278053 </v>
   </varray>
  </structure>
  <varray name="forces" >
   <v>      -0.21365064       0.00206757       0.01530897 </v>
   <v>       0.00094833      -0.02333319       0.19175957 </v>
   <v>      -0.01891302       0.03423149       0.00304144 </v>
   <v>       0.17405087      -0.01547354      -0.05180851 </v>
   <v>      -0.16922163       0.00646353      -0.02784474 </v>
   <v>       0.14287523       0.02498461      -0.04850861 </v>
   <v>      -0.08114199       0.01267853      -0.14273283 </v>
   <v>       0.07470733       0.00997474      -0.05913609 </v>
   <v>       0.17724104      -0.05160951      -0.25481745 </v>
   <v>       0.21778254       0.04180656       0.27566814 </v>
   <v>       0.14173841       0.03872290      -0.20628169 </v>
   <v>      -0.25491517       0.00017125       0.87436455 </v>
   <v>      -0.00963188      -0.08911145      -0.22502079 </v>
   <v>      -0.06664186      -0.04012563       0.02566409 </v>
   <v>       0.14496902      -0.13636755      -0.04150314 </v>
   <v>      -0.16797092      -0.04505003       0.02572733 </v>
   <v>       0.00662944       0.44423509       0.00270723 </v>
   <v>       0.06279677       0.11120992      -0.24832860 </v>
   <v>      -0.04695275       0.46321696      -0.01873980 </v>
   <v>       0.09047043      -0.45676510       0.00366318 </v>
   <v>      -0.03794554      -0.19832481       0.26617552 </v>
   <v>       0.03724894       0.17514262       0.08406464 </v>
   <v>      -0.12630907      -0.00470069      -0.08208282 </v>
   <v>       0.06426184      -0.40887414      -0.06670277 </v>
   <v>      -0.08768148       0.02803365       0.01852513 </v>
   <v>       0.07280256      -0.06451046       0.20722356 </v>
   <v>       0.21139172      -0.80759054       0.04978713 </v>
   <v>      -0.15026081       0.94200317      -0.08004098 </v>
   <v>       0.01942300       0.15229783       0.05098013 </v>
   <v>       0.00452500      -0.20179149       0.10525371 </v>
   <v>       0.03707984       0.17352816      -0.01769136 </v>
   <v>      -0.01691088      -0.22110214      -0.03794638 </v>
   <v>      -0.04852104       0.14949268       0.08295682 </v>
   <v>       0.02241937      -0.02457437       0.02176852 </v>
   <v>      -0.07057687       0.10289319      -0.03581095 </v>
   <v>       0.05176474      -0.10298726       0.03517021 </v>
   <v>       0.02414931       0.20609831       0.00300141 </v>
   <v>      -0.02358888      -0.18168816      -0.08234199 </v>
   <v>      -0.04178807       0.01787838       0.00662425 </v>
   <v>       0.05877069      -0.13969229      -0.01577112 </v>
   <v>       0.01856668       0.16231263      -0.09770485 </v>
   <v>      -0.02007946      -0.15162499      -0.01630311 </v>
   <v>       0.04444626       0.32664834       0.00158892 </v>
   <v>      -0.06590252      -0.25914086      -0.01976718 </v>
   <v>       0.02174207      -0.11136368      -0.04250542 </v>
   <v>      -0.12307798      -0.12397016       0.29684744 </v>
   <v>       0.26476735       0.31182278      -0.31309186 </v>
   <v>      -0.32598948       0.50735210      -0.33397649 </v>
   <v>       0.06276947       0.12487193       0.12066469 </v>
   <v>      -0.02992816      -0.24798530      -0.21384023 </v>
   <v>       0.23023235      -0.48941933       0.29354051 </v>
   <v>      -0.20347501      -0.15845880       0.13657200 </v>
   <v>      -0.21143655       0.16273317      -0.19220166 </v>
   <v>       0.31333957      -0.34239499       0.26321970 </v>
   <v>      -0.07112071       0.17492050      -0.23865639 </v>
   <v>       0.01327855      -1.19791060      -0.03536014 </v>
   <v>      -0.06300793       0.49338999      -0.06995432 </v>
   <v>       0.01956356      -0.28854911      -0.56146757 </v>
   <v>      -0.12935872       1.09945988       0.28079847 </v>
   <v>       0.04924675       0.08384773       0.13527259 </v>
  </varray>
  <varray name="stress" >
   <v>      -3.14179073       0.76549122       0.09857787 </v>
   <v>       0.76549117     -12.79853178       0.24553848 </v>
   <v>       0.09857771       0.24553824      -2.32772690 </v>
  </varray>
  <energy>
   <i name="e_fr_energy">   -308.71168022 </i>
   <i name="e_wo_entrp">   -308.71168022 </i>
   <i name="e_0_energy">      0.00000000 </i>
  </energy>
  <time name="totalsc">  621.47  627.24</time>
 </calculation>
 <calculation>
  <scstep>
   <time name="dav">   39.90   40.16</time>
   <time name="total">   40.41   40.67</time>
   <energy>
    <i name="alphaZ">   1067.11773629 </i>
    <i name="ewald"> -30643.57581525 </i>
    <i name="hartreedc"> -12945.64141526 </i>
    <i name="XCdc">   1346.13088350 </i>
    <i name="pawpsdc">  43780.89589684 </i>
    <i name="pawaedc"> -43174.54173255 </i>
    <i name="eentropy">      0.00000000 </i>
    <i name="bandstr">  -4133.80832273 </i>
    <i name="atom">  44408.54722957 </i>
    <i name="e_fr_energy">   -294.87553958 </i>
    <i name="e_wo_entrp">   -294.87553958 </i>
    <i name="e_0_energy">   -294.87553958 </i>
   </energy>
  </scstep>
  <scstep>
   <time name="dav">   46.70   46.80</time>
   <time name="total">   47.20   47.38</time>
   <energy>
    <i name="e_fr_energy">   -295.32304515 </i>
    <i name="e_wo_entrp">   -295.32304515 </i>
    <i name="e_0_energy">   -295.32304515 </i>
   </energy>
  </scstep>
  <scstep>
   <time name="dav">   64.68   65.39</time>
   <time name="total">   65.20   66.04</time>
   <energy>
    <i name="e_fr_energy">   -295.31717147 </i>
    <i name="e_wo_entrp">   -295.31717147 </i>
    <i name="e_0_energy">   -295.31717147 </i>
   </energy>
  </scstep>
  <scstep>
   <time name="dav">   44.46   44.79</time>
   <time name="total">   44.97   45.39</time>
   <energy>
    <i name="e_fr_energy">   -295.30628704 </i>
    <i name="e_wo_entrp">   -295.30628704 </i>
    <i name="e_0_energy">   -295.30628704 </i>
   </energy>
  </scstep>
  <scstep>
   <time name="dav">   48.84   49.03</time>
   <time name="total">   49.43   49.71</time>
   <energy>
    <i name="e_fr_energy">   -295.30278679 </i>
    <i name="e_wo_entrp">   -295.30278679 </i>
    <i name="e_0_energy">   -295.30278679 </i>
   </energy>
  </scstep>
  <scstep>
   <time name="dav">   49.78   49.94</time>
   <time name="total">   50.31   50.56</time>
   <energy>
    <i name="e_fr_energy">   -295.30312660 </i>
    <i name="e_wo_entrp">   -295.30312660 </i>
    <i name="e_0_energy">   -295.30312660 </i>
   </energy>
  </scstep>
  <scstep>
   <time name="dav">   57.32   57.92</time>
   <time name="total">   57.83   58.52</time>
   <energy>
    <i name="e_fr_energy">   -295.30310360 </i>
    <i name="e_wo_entrp">   -295.30310360 </i>
    <i name="e_0_energy">   -295.30310360 </i>
   </energy>
  </scstep>
  <scstep>
   <time name="dav">   54.93   55.24</time>
   <time name="total">   55.44   55.84</time>
   <energy>
    <i name="e_fr_energy">   -295.30307594 </i>
    <i name="e_wo_entrp">   -295.30307594 </i>
    <i name="e_0_energy">   -295.30307594 </i>
   </energy>
  </scstep>
  <scstep>
   <time name="dav">   43.87   43.94</time>
   <time name="total">   44.40   44.56</time>
   <energy>
    <i name="e_fr_energy">   -295.30308060 </i>
    <i name="e_wo_entrp">   -295.30308060 </i>
    <i name="e_0_energy">   -295.30308060 </i>
   </energy>
  </scstep>
  <scstep>
   <time name="dav">   48.82   48.94</time>
   <time name="total">   49.34   49.53</time>
   <energy>
    <i name="e_fr_energy">   -295.30308195 </i>
    <i name="e_wo_entrp">   -295.30308195 </i>
    <i name="e_0_energy">   -295.30308195 </i>
   </energy>
  </scstep>
  <scstep>
   <time name="dav">   36.01   36.73</time>
   <time name="total">   36.08   36.91</time>
   <energy>
    <i name="alphaZ">   1067.11773629 </i>
    <i name="ewald"> -30643.57581525 </i>
    <i name="hartreedc"> -12947.18192825 </i>
    <i name="XCdc">   1346.17007331 </i>
    <i name="pawpsdc">  43742.29841036 </i>
[...]
       <r>    8.8675    0.0000 </r>
       <r>    8.8868    0.0000 </r>
       <r>    8.9047    0.0000 </r>
       <r>    8.9074    0.0000 </r>
       <r>    8.9325    0.0000 </r>
       <r>    8.9890    0.0000 </r>
       <r>    9.0098    0.0000 </r>
      </set>
     </set>
    </set>
   </array>
  </eigenvalues>
  <separator name="orbital magnetization" >
   <v name="MAGDIPOLOUT">      0.00000000      0.00000000      0.00000000</v>
  </separator>
  <dos>
   <i name="efermi">      4.32209775 </i>
   <total>
    <array>
     <dimension dim="1">gridpoints</dimension>
     <dimension dim="2">spin</dimension>
     <field>energy</field>
     <field>total</field>
     <field>integrated</field>
     <set>
      <set comment="spin 1">
       <r>   -42.7973     0.0000     0.0000 </r>
       <r>   -42.6141     0.0000     0.0000 </r>
       <r>   -42.4310     0.0000     0.0000 </r>
       <r>   -42.2478     0.0000     0.0000 </r>
       <r>   -42.0646     0.0000     0.0000 </r>
       <r>   -41.8815     0.0000     0.0000 </r>
       <r>   -41.6983     0.0000     0.0000 </r>
       <r>   -41.5151     0.0000     0.0000 </r>
       <r>   -41.3320     0.0000     0.0000 </r>
       <r>   -41.1488     0.0000     0.0000 </r>
       <r>   -40.9656     0.0000     0.0000 </r>
       <r>   -40.7825     0.0000     0.0000 </r>
       <r>   -40.5993     0.0000     0.0000 </r>
       <r>   -40.4161     0.0000     0.0000 </r>
       <r>   -40.2330     0.0000     2.0000 </r>
       <r>   -40.0498     0.0000     4.0000 </r>
       <r>   -39.8667     0.0000     4.0000 </r>
       <r>   -39.6835     0.0000     6.0000 </r>
       <r>   -39.5003     0.0000    12.0000 </r>
       <r>   -39.3172     0.0000    14.0000 </r>
       <r>   -39.1340     0.0000    16.0000 </r>
       <r>   -38.9508     0.0000    16.0000 </r>
       <r>   -38.7677     0.0000    16.0000 </r>
       <r>   -38.5845     0.0000    16.0000 </r>
       <r>   -38.4013     0.0000    16.0000 </r>
       <r>   -38.2182     0.0000    16.0000 </r>
       <r>   -38.0350     0.0000    16.0000 </r>
       <r>   -37.8518     0.0000    16.0000 </r>
       <r>   -37.6687     0.0000    16.0000 </r>
       <r>   -37.4855     0.0000    16.0000 </r>
       <r>   -37.3023     0.0000    16.0000 </r>
       <r>   -37.1192     0.0000    16.0000 </r>
       <r>   -36.9360     0.0000    16.0000 </r>
       <r>   -36.7528     0.0000    16.0000 </r>
       <r>   -36.5697     0.0000    16.0000 </r>
       <r>   -36.3865     0.0000    16.0000 </r>
       <r>   -36.2033     0.0000    16.0000 </r>
       <r>   -36.0202     0.0000    16.0000 </r>
       <r>   -35.8370     0.0000    16.0000 </r>
       <r>   -35.6538     0.0000    16.0000 </r>
       <r>   -35.4707     0.0000    16.0000 </r>
       <r>   -35.2875     0.0000    16.0000 </r>
       <r>   -35.1043     0.0000    16.0000 </r>
       <r>   -34.9212     0.0000    16.0000 </r>
       <r>   -34.7380     0.0000    16.0000 </r>
       <r>   -34.5548     0.0000    16.0000 </r>
       <r>   -34.3717     0.0000    16.0000 </r>
       <r>   -34.1885     0.0000    16.0000 </r>
       <r>   -34.0053     0.0000    16.0000 </r>
       <r>   -33.8222     0.0000    16.0000 </r>
       <r>   -33.6390     0.0000    16.0000 </r>
       <r>   -33.4558     0.0000    16.0000 </r>
       <r>   -33.2727     0.0000    16.0000 </r>
       <r>   -33.0895     0.0000    16.0000 </r>
       <r>   -32.9064     0.0000    16.0000 </r>
       <r>   -32.7232     0.0000    16.0000 </r>
       <r>   -32.5400     0.0000    16.0000 </r>
       <r>   -32.3569     0.0000    16.0000 </r>
       <r>   -32.1737     0.0000    16.0000 </r>
       <r>   -31.9905     0.0000    16.0000 </r>
       <r>   -31.8074     0.0000    16.0000 </r>
       <r>   -31.6242     0.0000    16.0000 </r>
       <r>   -31.4410     0.0000    16.0000 </r>
       <r>   -31.2579     0.0000    16.0000 </r>
       <r>   -31.0747     0.0000    16.0000 </r>
       <r>   -30.8915     0.0000    16.0000 </r>
       <r>   -30.7084     0.0000    16.0000 </r>
       <r>   -30.5252     0.0000    16.0000 </r>
       <r>   -30.3420     0.0000    16.0000 </r>
       <r>   -30.1589     0.0000    16.0000 </r>
       <r>   -29.9757     0.0000    16.0000 </r>
       <r>   -29.7925     0.0000    16.0000 </r>
       <r>   -29.6094     0.0000    16.0000 </r>
       <r>   -29.4262     0.0000    16.0000 </r>
       <r>   -29.2430     0.0000    16.0000 </r>
       <r>   -29.0599     0.0000    16.0000 </r>
       <r>   -28.8767     0.0000    16.0000 </r>
       <r>   -28.6935     0.0000    16.0000 </r>
       <r>   -28.5104     0.0000    16.0000 </r>
       <r>   -28.3272     0.0000    16.0000 </r>
       <r>   -28.1440     0.0000    16.0000 </r>
       <r>   -27.9609     0.0000    16.0000 </r>
       <r>   -27.7777     0.0000    16.0000 </r>
       <r>   -27.5945     0.0000    16.0000 </r>
       <r>   -27.4114     0.0000    16.0000 </r>
       <r>   -27.2282     0.0000    16.0000 </r>
       <r>   -27.0450     0.0000    16.0000 </r>
       <r>   -26.8619     0.0000    16.0000 </r>
       <r>   -26.6787     0.0000    16.0000 </r>
       <r>   -26.4955     0.0000    16.0000 </r>
       <r>   -26.3124     0.0000    16.0000 </r>
       <r>   -26.1292     0.0000    16.0000 </r>
       <r>   -25.9461     0.0000    16.0000 </r>
       <r>   -25.7629     0.0000    16.0000 </r>
       <r>   -25.5797     0.0000    16.0000 </r>
       <r>   -25.3966     0.0000    16.0000 </r>
       <r>   -25.2134     0.0000    16.0000 </r>
       <r>   -25.0302     0.0000    16.0000 </r>
       <r>   -24.8471     0.0000    16.0000 </r>
       <r>   -24.6639     0.0000    16.0000 </r>
       <r>   -24.4807     0.0000    16.0000 </r>
       <r>   -24.2976     0.0000    16.0000 </r>
       <r>   -24.1144     0.0000    16.0000 </r>
       <r>   -23.9312     0.0000    16.0000 </r>
       <r>   -23.7481     0.0000    16.0000 </r>
       <r>   -23.5649     0.0000    16.0000 </r>
       <r>   -23.3817     0.0000    16.0000 </r>
       <r>   -23.1986     0.0000    16.0000 </r>
       <r>   -23.0154     0.0000    16.0000 </r>
       <r>   -22.8322     0.0000    16.0000 </r>
       <r>   -22.6491     0.0000    16.0000 </r>
       <r>   -22.4659     0.0000    16.0000 </r>
       <r>   -22.2827     0.0000    16.0000 </r>
       <r>   -22.0996     0.0000    16.0000 </r>
       <r>   -21.9164     0.0000    16.0000 </r>
       <r>   -21.7332     0.0000    16.0000 </r>
       <r>   -21.5501     0.0000    16.0000 </r>
       <r>   -21.3669     0.0000    16.0000 </r>
       <r>   -21.1837     0.0000    16.0000 </r>
       <r>   -21.0006     0.0000    16.0000 </r>
       <r>   -20.8174     0.0000    16.0000 </r>
       <r>   -20.6342     0.0000    16.0000 </r>
       <r>   -20.4511     0.0000    16.0000 </r>
       <r>   -20.2679     0.0000    16.0000 </r>
       <r>   -20.0847     0.0000    16.0000 </r>
       <r>   -19.9016     0.0000    16.0000 </r>
       <r>   -19.7184     0.0000    16.0000 </r>
       <r>   -19.5352     0.0000    16.0000 </r>
       <r>   -19.3521     0.0000    16.0000 </r>
       <r>   -19.1689     0.0000    16.0000 </r>
       <r>   -18.9858     0.0000    16.0000 </r>
       <r>   -18.8026     0.0000    16.0000 </r>
       <r>   -18.6194     0.0000    88.0000 </r>
       <r>   -18.4363     0.0000   164.0000 </r>
       <r>   -18.2531     0.0000   176.0000 </r>
       <r>   -18.0699     0.0000   176.0000 </r>
       <r>   -17.8868     0.0000   176.0000 </r>
       <r>   -17.7036     0.0000   176.0000 </r>
       <r>   -17.5204     0.0000   176.0000 </r>
       <r>   -17.3373     0.0000   176.0000 </r>
       <r>   -17.1541     0.0000   176.0000 </r>
       <r>   -16.9709     0.0000   176.0000 </r>
       <r>   -16.7878     0.0000   176.0000 </r>
       <r>   -16.6046     0.0000   176.0000 </r>
       <r>   -16.4214     0.0000   176.0000 </r>
       <r>   -16.2383     0.0000   176.0000 </r>
       <r>   -16.0551     0.0000   176.0000 </r>
       <r>   -15.8719     0.0000   176.0000 </r>
       <r>   -15.6888     0.0000   176.0000 </r>
       <r>   -15.5056     0.0000   176.0000 </r>
       <r>   -15.3224     0.0000   176.0000 </r>
       <r>   -15.1393     0.0000   176.0000 </r>
       <r>   -14.9561     0.0000   176.0000 </r>
       <r>   -14.7729     0.0000   176.0000 </r>
       <r>   -14.5898     0.0000   176.0000 </r>
       <r>   -14.4066     0.0000   176.0000 </r>
       <r>   -14.2234     0.0000   176.0000 </r>
       <r>   -14.0403     0.0000   176.0000 </r>
       <r>   -13.8571     0.0000   176.0000 </r>
       <r>   -13.6739     0.0000   176.0000 </r>
       <r>   -13.4908     0.0000   176.0000 </r>
       <r>   -13.3076     0.0000   176.0000 </r>
       <r>   -13.1244     0.0000   178.0000 </r>
       <r>   -12.9413     0.0000   184.0000 </r>
       <r>   -12.7581     3.3253   189.9996 </r>
       <r>   -12.5749     0.0000   202.0000 </r>
       <r>   -12.3918     0.0000   208.0000 </r>
       <r>   -12.2086     0.0000   208.0000 </r>
       <r>   -12.0255     0.0000   208.0000 </r>
       <r>   -11.8423     0.0000   208.0000 </r>
       <r>   -11.6591     0.0000   208.0000 </r>
       <r>   -11.4760     0.0000   208.0000 </r>
       <r>   -11.2928     0.0000   208.0000 </r>
       <r>   -11.1096     0.0000   208.0000 </r>
       <r>   -10.9265     0.0000   208.0000 </r>
       <r>   -10.7433     0.0000   208.0000 </r>
       <r>   -10.5601     0.0000   208.0000 </r>
       <r>   -10.3770     0.0000   208.0000 </r>
       <r>   -10.1938     0.0000   208.0000 </r>
       <r>   -10.0106     0.0000   208.0000 </r>
       <r>    -9.8275     0.0000   208.0000 </r>
       <r>    -9.6443     0.0000   208.0000 </r>
       <r>    -9.4611     0.0000   208.0000 </r>
       <r>    -9.2780     4.0514   208.1315 </r>
       <r>    -9.0948    17.2643   209.7485 </r>
       <r>    -8.9116     0.0000   212.0000 </r>
       <r>    -8.7285    14.1507   214.6614 </r>
       <r>    -8.5453    14.6852   216.6762 </r>
       <r>    -8.3621    26.3816   221.7091 </r>
       <r>    -8.1790     9.7499   224.1896 </r>
       <r>    -7.9958    24.8339   229.0176 </r>
       <r>    -7.8126    20.3893   233.1594 </r>
       <r>    -7.6295    15.3203   236.5411 </r>
       <r>    -7.4463     8.4031   239.6810 </r>
       <r>    -7.2631     0.0000   240.0000 </r>
       <r>    -7.0800     0.0000   240.0000 </r>
       <r>    -6.8968     0.0000   240.0000 </r>
       <r>    -6.7136     0.0000   240.0000 </r>
       <r>    -6.5305     0.0000   240.0000 </r>
       <r>    -6.3473     0.8945   240.0115 </r>
       <r>    -6.1641    17.8833   241.6811 </r>
       <r>    -5.9810    22.0777   246.5512 </r>
       <r>    -5.7978    25.4512   249.7257 </r>
       <r>    -5.6146    25.7820   254.8256 </r>
       <r>    -5.4315    21.1397   259.1251 </r>
       <r>    -5.2483    14.1054   262.4516 </r>
       <r>    -5.0651     2.8963   264.0235 </r>
       <r>    -4.8820     7.7078   264.9174 </r>
       <r>    -4.6988     9.9120   266.5088 </r>
       <r>    -4.5157     7.7684   268.4439 </r>
       <r>    -4.3325     6.5394   269.5060 </r>
       <r>    -4.1493     6.5425   270.8566 </r>
       <r>    -3.9662     2.5384   271.6837 </r>
       <r>    -3.7830     0.7744   271.9501 </r>
       <r>    -3.5998     0.0000   272.0000 </r>
       <r>    -3.4167     0.0000   272.0000 </r>
       <r>    -3.2335     0.0000   272.0000 </r>
       <r>    -3.0503     0.0000   272.0000 </r>
       <r>    -2.8672     0.0000   272.0000 </r>
       <r>    -2.6840     0.0000   272.0000 </r>
       <r>    -2.5008     0.0000   272.0000 </r>
       <r>    -2.3177     0.0000   272.0000 </r>
       <r>    -2.1345     0.0000   272.0000 </r>
       <r>    -1.9513     0.0000   272.0000 </r>
       <r>    -1.7682     0.0000   272.0000 </r>
       <r>    -1.5850     0.0000   272.0000 </r>
       <r>    -1.4018     0.0278   272.0001 </r>
       <r>    -1.2187     5.9475   272.4045 </r>
       <r>    -1.0355     8.9735   273.9536 </r>
       <r>    -0.8523    13.1287   275.9523 </r>
       <r>    -0.6692     8.9612   278.0929 </r>
       <r>    -0.4860     5.7932   279.3633 </r>
       <r>    -0.3028    23.3291   281.9729 </r>
       <r>    -0.1197    31.9081   287.0079 </r>
       <r>     0.0635    40.4476   294.0907 </r>
       <r>     0.2467    34.1614   301.1393 </r>
       <r>     0.4298    34.6986   309.2148 </r>
       <r>     0.6130    50.1639   316.0346 </r>
       <r>     0.7962    38.8715   322.5230 </r>
       <r>     0.9793    46.7590   329.7512 </r>
       <r>     1.1625    36.2652   338.4477 </r>
       <r>     1.3457    46.2719   346.5013 </r>
       <r>     1.5288    43.9831   354.0602 </r>
       <r>     1.7120    46.2663   362.5185 </r>
       <r>     1.8952    54.0265   372.2262 </r>
       <r>     2.0783    43.3885   380.6177 </r>
       <r>     2.2615    34.2337   388.6853 </r>
       <r>     2.4446    65.5995   396.9078 </r>
       <r>     2.6278    54.8529   408.8911 </r>
       <r>     2.8110    58.7998   421.7596 </r>
       <r>     2.9941   155.2293   436.4026 </r>
       <r>     3.1773    29.5547   446.8806 </r>
       <r>     3.3605    28.6902   451.3030 </r>
       <r>     3.5436    22.6644   458.4807 </r>
       <r>     3.7268    11.5776   461.1259 </r>
       <r>     3.9100     7.2979   462.8547 </r>
       <r>     4.0931     3.0129   463.7991 </r>
       <r>     4.2763     0.0000   464.0000 </r>
       <r>     4.4595     0.0000   464.0000 </r>
       <r>     4.6426     0.0000   464.0000 </r>
       <r>     4.8258     0.0000   464.0000 </r>
       <r>     5.0090     0.0000   464.0000 </r>
       <r>     5.1921     0.8440   464.0319 </r>
       <r>     5.3753     5.0680   464.5568 </r>
       <r>     5.5585     9.5099   465.8919 </r>
       <r>     5.7416     9.2766   467.6542 </r>
       <r>     5.9248    14.7353   471.8299 </r>
       <r>     6.1080    12.5103   474.3100 </r>
       <r>     6.2911    12.2092   476.5295 </r>
       <r>     6.4743    13.8744   478.9162 </r>
       <r>     6.6575    15.5537   481.6115 </r>
       <r>     6.8406    17.3751   484.6170 </r>
       <r>     7.0238    20.8691   488.0827 </r>
       <r>     7.2070    27.2614   492.4582 </r>
       <r>     7.3901    40.8980   498.8315 </r>
       <r>     7.5733    28.0364   505.4256 </r>
       <r>     7.7565    36.6840   511.1768 </r>
       <r>     7.9396    46.8020   518.1172 </r>
       <r>     8.1228    32.1861   525.5520 </r>
       <r>     8.3060    19.5971   530.0776 </r>
       <r>     8.4891    19.0622   533.4726 </r>
       <r>     8.6723    27.1219   537.6067 </r>
       <r>     8.8555    44.4585   543.2654 </r>
       <r>     9.0386    36.2213   551.5867 </r>
       <r>     9.2218    13.5137   555.5186 </r>
       <r>     9.4049    12.3900   557.8913 </r>
       <r>     9.5881     3.0846   559.9111 </r>
       <r>     9.7713     0.0000   560.0000 </r>
       <r>     9.9544     0.0000   560.0000 </r>
       <r>    10.1376     0.0000   560.0000 </r>
       <r>    10.3208     0.0000   560.0000 </r>
       <r>    10.5039     0.0000   560.0000 </r>
       <r>    10.6871     0.0000   560.0000 </r>
       <r>    10.8703     0.0000   560.0000 </r>
       <r>    11.0534     0.0000   560.0000 </r>
       <r>    11.2366     0.0000   560.0000 </r>
       <r>    11.4198     0.0000   560.0000 </r>
       <r>    11.6029     0.0000   560.0000 </r>
       <r>    11.7861     0.0000   560.0000 </r>
       <r>    11.9693     0.0000   560.0000 </r>
       <r>    12.1524     0.0000   560.0000 </r>
      </set>
     </set>
    </array>
   </total>
  </dos>
 </calculation>
 <structure name="finalpos" >
  <crystal>
   <varray name="basis" >
    <v>      11.17850000       0.00000000       0.00000000 </v>
    <v>       0.00000000       9.57460000       0.00000000 </v>
    <v>       0.00000000       0.00000000      11.18240000 </v>
   </varray>
   <i name="volume">   1196.84853820 </i>
   <varray name="rec_basis" >
    <v>       0.08945744       0.00000000       0.00000000 </v>
    <v>       0.00000000       0.10444301       0.00000000 </v>
    <v>       0.00000000       0.00000000       0.08942624 </v>
   </varray>
  </crystal>
  <varray name="positions" >
   <v>       0.36913286       0.00022436       0.43664582 </v>
   <v>       0.12067906       0.99838387       0.19539324 </v>
   <v>       0.62624411       0.00148660       0.43528308 </v>
   <v>       0.88104352      -0.00058061       0.42970526 </v>
   <v>       0.86814131       0.00057915       0.19022281 </v>
   <v>       0.13418720       0.00160924       0.93843743 </v>
   <v>       0.12594161       0.00119036       0.67888532 </v>
   <v>       0.87887651       0.00054970       0.94366605 </v>
   <v>       0.38568467      -0.00144990       0.17625868 </v>
   <v>       0.38638195       0.00146682       0.69851621 </v>
   <v>       0.61592929       0.99893057       0.93779059 </v>
   <v>       0.86228841      -0.00045180       0.69251121 </v>
   <v>      -0.00004382       0.29630751       0.06284213 </v>
   <v>       0.24890552       0.70283954       0.06295620 </v>
   <v>       0.24904372       0.29551693       0.31423083 </v>
   <v>       0.50027044       0.70270599       0.31292640 </v>
   <v>       0.50000734       0.30072612       0.06486108 </v>
   <v>       0.75118386       0.70368489       0.06500116 </v>
   <v>       0.74941201       0.29010881       0.31157501 </v>
   <v>       0.00130493       0.71030896       0.31344652 </v>
   <v>       0.00167944       0.29758233       0.56083359 </v>
   <v>       0.24852251       0.70439916       0.56005567 </v>
   <v>       0.24900244       0.29723794       0.81350551 </v>
   <v>       0.49980239       0.69910820       0.81138335 </v>
   <v>       0.50066753       0.29732958       0.56148931 </v>
   <v>       0.74912806       0.70079823       0.56251485 </v>
   <v>       0.75137215       0.30206918       0.81184462 </v>
   <v>      -0.00054734       0.70004212       0.81266261 </v>
   <v>       0.25037302       0.33248742       0.06351713 </v>
   <v>       0.00010733       0.66581714       0.06137373 </v>
   <v>       0.49872912       0.33355647       0.31232226 </v>
   <v>       0.25146395       0.66550348       0.31134864 </v>
   <v>       0.74906800       0.33193085       0.06032800 </v>
   <v>       0.50050614       0.67134886       0.06236360 </v>
   <v>      -0.00024301       0.33223915       0.31177692 </v>
   <v>       0.74984980       0.66749324       0.31366350 </v>
   <v>       0.25123325       0.33362719       0.56480768 </v>
   <v>      -0.00107682       0.66756048       0.56549503 </v>
   <v>       0.50022672       0.32778794       0.81279684 </v>
   <v>       0.25006634       0.66851204       0.81176500 </v>
   <v>       0.75130230       0.33241317       0.56480647 </v>
   <v>       0.49877007       0.66739752       0.56384834 </v>
   <v>       0.99916544       0.33519075       0.81237176 </v>
   <v>       0.75025214       0.66709474       0.81271119 </v>
   <v>       0.50160961       0.08286160       0.05981156 </v>
   <v>       0.24543176       0.91901357       0.08024171 </v>
   <v>       0.26894261       0.08218450       0.29338489 </v>
   <v>      -0.01176942       0.91948093       0.29901249 </v>
   <v>       0.00087012       0.07798896       0.06038794 </v>
   <v>       0.75111187       0.91981043       0.04055793 </v>
   <v>       0.76003526       0.08109277       0.32484312 </v>
   <v>       0.48152711       0.91815276       0.31633066 </v>
   <v>       0.48198485       0.08144925       0.55844917 </v>
   <v>       0.26853254       0.91827330       0.58175632 </v>
   <v>       0.24517619       0.08019294       0.79458179 </v>
   <v>      -0.00832585       0.91830983       0.80546340 </v>
   <v>       0.98386479       0.08043322       0.58056005 </v>
   <v>       0.76617713       0.91836154       0.55617843 </v>
   <v>       0.75810728       0.08227827       0.82514930 </v>
   <v>       0.50268872       0.91784184       0.81515062 </v>
  </varray>
 </structure>
</modeling>
