<?xml version="1.0" encoding="ISO-8859-1"?>
<modeling>
 <generator>
  <i name="program" type="string">vasp </i>
  <i name="version" type="string">5.4.4.18Apr17-6-g9f103f2a35  </i>
  <i name="subversion" type="string">(build Jul 31 2017 11:33:29) complex            parallel </i>
  <i name="platform" type="string">LinuxIFC </i>
  <i name="date" type="string">2021 09 20 </i>
  <i name="time" type="string">19:41:24 </i>
 </generator>
 <incar>
  <i type="string" name="SYSTEM"> La2O2S</i>
  <i type="string" name="PREC">normal</i>
  <i type="int" name="NELMIN">     4</i>
  <i type="int" name="IBRION">     2</i>
  <i type="int" name="NFREE">    10</i>
  <i name="EDIFF">      0.00000100</i>
  <i name="EDIFFG">     -0.01000000</i>
  <i type="int" name="NSW">   200</i>
  <i type="int" name="ISIF">     3</i>
  <i name="ENCUT">    600.00000000</i>
  <i name="ENAUG">    900.00000000</i>
  <i type="int" name="ISMEAR">    -5</i>
  <i type="logical" name="LWAVE"> F  </i>
  <i type="logical" name="LCHARG"> F  </i>
  <v type="int" name="KPOINT_BSE">    -1     0     0     0</v>
 </incar>
 <structure name="primitive_cell" >
  <crystal>
   <varray name="basis" >
    <v>      11.17850000       0.00000000       0.00000000 </v>
    <v>       0.00000000       9.57460000       0.00000000 </v>
    <v>       0.00000000       0.00000000      11.18240000 </v>
   </varray>
   <i name="volume">   1196.84853820 </i>
   <varray name="rec_basis" >
    <v>       0.08945744       0.00000000       0.00000000 </v>
    <v>       0.00000000       0.10444301       0.00000000 </v>
    <v>       0.00000000       0.00000000       0.08942624 </v>
   </varray>
  </crystal>
  <varray name="positions" >
   <v>       0.37461000       0.00017000       0.18687000 </v>
   <v>       0.24987000      -0.07798000       0.06246000 </v>
   <v>       0.49987000       0.07798000       0.06246000 </v>
   <v>       0.25013000       0.07798000       0.31246000 </v>
   <v>      -0.49987000      -0.07798000       0.31246000 </v>
   <v>       0.12461000      -0.00016000       0.18687000 </v>
   <v>      -0.37539000      -0.00016000       0.18687000 </v>
   <v>       0.25013000      -0.29519000       0.06281000 </v>
   <v>      -0.49987000       0.29519000       0.06281000 </v>
   <v>       0.24987000       0.29519000       0.31282000 </v>
   <v>       0.49987000      -0.29519000       0.31282000 </v>
   <v>       0.25005000       0.32677000       0.06286000 </v>
   <v>      -0.49995000      -0.32677000       0.06286000 </v>
   <v>       0.24995000      -0.32677000       0.31286000 </v>
   <v>       0.49995000       0.32677000       0.31286000 </v>
   <v>       0.12539000      -0.00016000      -0.06313000 </v>
   <v>      -0.37461000      -0.00016000       0.43687000 </v>
   <v>      -0.37461000      -0.00016000      -0.06313000 </v>
   <v>       0.25013000       0.07798000      -0.18754000 </v>
   <v>      -0.00013000       0.07798000       0.06246000 </v>
   <v>       0.00013000      -0.07798000       0.31246000 </v>
   <v>      -0.49987000      -0.07798000      -0.18754000 </v>
   <v>      -0.25013000      -0.07798000       0.06246000 </v>
   <v>       0.24987000      -0.07798000      -0.43754000 </v>
   <v>      -0.24987000       0.07798000       0.31246000 </v>
   <v>       0.49987000       0.07798000      -0.43754000 </v>
   <v>       0.24987000       0.29519000      -0.18718000 </v>
   <v>       0.00013000       0.29519000       0.06281000 </v>
   <v>       0.49987000      -0.29519000      -0.18718000 </v>
   <v>      -0.00013000      -0.29519000       0.31282000 </v>
   <v>      -0.24987000      -0.29519000       0.06281000 </v>
   <v>      -0.25013000       0.29519000       0.31282000 </v>
   <v>       0.25013000      -0.29519000      -0.43719000 </v>
   <v>      -0.49987000       0.29519000      -0.43719000 </v>
   <v>       0.24995000      -0.32677000      -0.18714000 </v>
   <v>       0.49995000       0.32677000      -0.18714000 </v>
   <v>       0.00005000      -0.32677000       0.06286000 </v>
   <v>      -0.00005000       0.32677000       0.31286000 </v>
   <v>      -0.24995000       0.32677000       0.06286000 </v>
   <v>      -0.25005000      -0.32677000       0.31286000 </v>
   <v>       0.25005000       0.32677000      -0.43714000 </v>
   <v>      -0.49995000      -0.32677000      -0.43714000 </v>
   <v>       0.00013000      -0.07798000      -0.18754000 </v>
   <v>      -0.24987000       0.07798000      -0.18754000 </v>
   <v>      -0.00013000       0.07798000      -0.43754000 </v>
   <v>      -0.25013000      -0.07798000      -0.43754000 </v>
   <v>      -0.12461000       0.00017000       0.43687000 </v>
   <v>      -0.37539000      -0.00016000      -0.31313000 </v>
   <v>       0.12461000      -0.00016000      -0.31313000 </v>
   <v>      -0.00013000      -0.29519000      -0.18718000 </v>
   <v>      -0.25013000       0.29519000      -0.18718000 </v>
   <v>       0.00013000       0.29519000      -0.43719000 </v>
   <v>      -0.24987000      -0.29519000      -0.43719000 </v>
   <v>      -0.00005000       0.32677000      -0.18714000 </v>
   <v>      -0.25005000      -0.32677000      -0.18714000 </v>
   <v>       0.00005000      -0.32677000      -0.43714000 </v>
   <v>      -0.24995000       0.32677000      -0.43714000 </v>
   <v>      -0.12539000       0.00017000      -0.31313000 </v>
  </varray>
 </structure>
 <varray name="primitive_index" >
  <v type="int" >        1 </v>
  <v type="int" >       44 </v>
  <v type="int" >       43 </v>
  <v type="int" >       45 </v>
  <v type="int" >       50 </v>
  <v type="int" >        5 </v>
  <v type="int" >        7 </v>
  <v type="int" >       12 </v>
  <v type="int" >       15 </v>
  <v type="int" >       13 </v>
  <v type="int" >       14 </v>
  <v type="int" >       27 </v>
  <v type="int" >       32 </v>
  <v type="int" >       30 </v>
  <v type="int" >       29 </v>
  <v type="int" >        3 </v>
  <v type="int" >        6 </v>
  <v type="int" >        9 </v>
  <v type="int" >       53 </v>
  <v type="int" >       47 </v>
  <v type="int" >       46 </v>
  <v type="int" >       58 </v>
  <v type="int" >       48 </v>
  <v type="int" >       52 </v>
  <v type="int" >       49 </v>
  <v type="int" >       51 </v>
  <v type="int" >       21 </v>
  <v type="int" >       11 </v>
  <v type="int" >       22 </v>
  <v type="int" >       18 </v>
  <v type="int" >       16 </v>
  <v type="int" >       17 </v>
  <v type="int" >       20 </v>
  <v type="int" >       23 </v>
  <v type="int" >       38 </v>
  <v type="int" >       37 </v>
  <v type="int" >       28 </v>
  <v type="int" >       33 </v>
  <v type="int" >       31 </v>
  <v type="int" >       34 </v>
  <v type="int" >       35 </v>
  <v type="int" >       40 </v>
  <v type="int" >       54 </v>
  <v type="int" >       57 </v>
  <v type="int" >       55 </v>
  <v type="int" >       56 </v>
  <v type="int" >        2 </v>
  <v type="int" >        4 </v>
  <v type="int" >        8 </v>
  <v type="int" >       26 </v>
  <v type="int" >       25 </v>
  <v type="int" >       19 </v>
  <v type="int" >       24 </v>
  <v type="int" >       41 </v>
  <v type="int" >       42 </v>
  <v type="int" >       36 </v>
  <v type="int" >       39 </v>
  <v type="int" >       10 </v>
 </varray>
 <kpoints>
  <generation param="Gamma">
   <v type="int" name="divisions">       2        2        2 </v>
   <v name="usershift">      0.00000000       0.00000000       0.00000000 </v>
   <v name="genvec1">      0.50000000       0.00000000       0.00000000 </v>
   <v name="genvec2">      0.00000000       0.50000000       0.00000000 </v>
   <v name="genvec3">      0.00000000       0.00000000       0.50000000 </v>
   <v name="shift">      0.00000000       0.00000000       0.00000000 </v>
  </generation>
  <varray name="kpointlist" >
   <v>       0.00000000       0.00000000       0.00000000 </v>
   <v>       0.50000000       0.00000000       0.00000000 </v>
   <v>       0.00000000       0.50000000       0.00000000 </v>
   <v>       0.50000000       0.50000000       0.00000000 </v>
   <v>       0.00000000       0.00000000       0.50000000 </v>
   <v>       0.50000000       0.00000000       0.50000000 </v>
   <v>       0.00000000       0.50000000       0.50000000 </v>
   <v>       0.50000000       0.50000000       0.50000000 </v>
  </varray>
  <varray name="weights" >
   <v>       0.12500000 </v>
   <v>       0.12500000 </v>
   <v>       0.12500000 </v>
   <v>       0.12500000 </v>
   <v>       0.12500000 </v>
   <v>       0.12500000 </v>
   <v>       0.12500000 </v>
   <v>       0.12500000 </v>
  </varray>
  <varray name="tetrahedronlist"  type="int" >
   <v type="int" >        2        1        2        4        5 </v>
   <v type="int" >        2        1        3        4        5 </v>
   <v type="int" >        2        3        4        5        7 </v>
   <v type="int" >        2        2        4        5        6 </v>
   <v type="int" >        2        4        5        6        8 </v>
   <v type="int" >        2        4        5        7        8 </v>
   <v type="int" >        2        1        2        3        6 </v>
   <v type="int" >        2        2        3        4        6 </v>
   <v type="int" >        2        3        4        6        8 </v>
   <v type="int" >        2        1        3        5        6 </v>
   <v type="int" >        2        3        5        6        7 </v>
   <v type="int" >        2        3        6        7        8 </v>
   <v type="int" >        2        2        3        4        7 </v>
   <v type="int" >        2        1        2        3        7 </v>
   <v type="int" >        2        1        2        5        7 </v>
   <v type="int" >        2        2        4        7        8 </v>
   <v type="int" >        2        2        6        7        8 </v>
   <v type="int" >        2        2        5        6        7 </v>
   <v type="int" >        2        1        3        4        8 </v>
   <v type="int" >        2        1        2        4        8 </v>
   <v type="int" >        2        1        2        6        8 </v>
   <v type="int" >        2        1        3        7        8 </v>
   <v type="int" >        2        1        5        7        8 </v>
   <v type="int" >        2        1        5        6        8 </v>
  </varray>
  <i name="volumeweight">      0.02083333 </i>
 </kpoints>
 <parameters>
  <separator name="general" >
   <i type="string" name="SYSTEM">La2O2S</i>
   <i type="logical" name="LCOMPAT"> F  </i>
  </separator>
  <separator name="electronic" >
   <i type="string" name="PREC">normal</i>
   <i name="ENMAX">    600.00000000</i>
   <i name="ENAUG">    900.00000000</i>
   <i name="EDIFF">      0.00000100</i>
   <i type="int" name="IALGO">    38</i>
   <i type="int" name="IWAVPR">    11</i>
   <i type="int" name="NBANDS">   280</i>
   <i name="NELECT">    456.00000000</i>
   <i type="int" name="TURBO">     0</i>
   <i type="int" name="IRESTART">     0</i>
   <i type="int" name="NREBOOT">     0</i>
   <i type="int" name="NMIN">     0</i>
   <i name="EREF">      0.00000000</i>
   <separator name="electronic smearing" >
    <i type="int" name="ISMEAR">    -5</i>
    <i name="SIGMA">      0.20000000</i>
    <i name="KSPACING">      0.50000000</i>
    <i type="logical" name="KGAMMA"> T  </i>
   </separator>
   <separator name="electronic projectors" >
    <i type="logical" name="LREAL"> F  </i>
    <v name="ROPT">      0.00000000      0.00000000      0.00000000      0.00000000      0.00000000</v>
    <i type="int" name="LMAXPAW">  -100</i>
    <i type="int" name="LMAXMIX">     2</i>
    <i type="logical" name="NLSPLINE"> F  </i>
   </separator>
   <separator name="electronic startup" >
    <i type="int" name="ISTART">     0</i>
    <i type="int" name="ICHARG">     2</i>
    <i type="int" name="INIWAV">     1</i>
   </separator>
   <separator name="electronic spin" >
    <i type="int" name="ISPIN">     1</i>
    <i type="logical" name="LNONCOLLINEAR"> F  </i>
    <v name="MAGMOM">      1.00000000      1.00000000      1.00000000      1.00000000      1.00000000      1.00000000      1.00000000      1.00000000      1.00000000      1.00000000      1.00000000      1.00000000      1.00000000      1.00000000      1.00000000      1.00000000      1.00000000      1.00000000      1.00000000      1.00000000
      1.00000000      1.00000000      1.00000000      1.00000000      1.00000000      1.00000000      1.00000000      1.00000000      1.00000000      1.00000000      1.00000000      1.00000000      1.00000000      1.00000000      1.00000000      1.00000000      1.00000000      1.00000000      1.00000000      1.00000000
      1.00000000      1.00000000      1.00000000      1.00000000      1.00000000      1.00000000      1.00000000      1.00000000      1.00000000      1.00000000      1.00000000      1.00000000      1.00000000      1.00000000      1.00000000      1.00000000      1.00000000      1.00000000</v>
    <i name="NUPDOWN">     -1.00000000</i>
    <i type="logical" name="LSORBIT"> F  </i>
    <v name="SAXIS">      0.00000000      0.00000000      1.00000000</v>
    <i type="logical" name="LSPIRAL"> F  </i>
    <v name="QSPIRAL">      0.00000000      0.00000000      0.00000000</v>
    <i type="logical" name="LZEROZ"> F  </i>
   </separator>
   <separator name="electronic exchange-correlation" >
    <i type="logical" name="LASPH"> F  </i>
    <i type="logical" name="LMETAGGA"> F  </i>
   </separator>
   <separator name="electronic convergence" >
    <i type="int" name="NELM">    60</i>
    <i type="int" name="NELMDL">    -5</i>
    <i type="int" name="NELMIN">     4</i>
    <i name="ENINI">    600.00000000</i>
    <separator name="electronic convergence detail" >
     <i type="logical" name="LDIAG"> T  </i>
     <i type="logical" name="LSUBROT"> F  </i>
     <i name="WEIMIN">      0.00100000</i>
     <i name="EBREAK">      0.00000000</i>
     <i name="DEPER">      0.30000000</i>
     <i type="int" name="NRMM">     4</i>
     <i name="TIME">      0.40000000</i>
    </separator>
   </separator>
   <separator name="electronic mixer" >
    <i name="AMIX">      0.40000000</i>
    <i name="BMIX">      1.00000000</i>
    <i name="AMIN">      0.10000000</i>
    <i name="AMIX_MAG">      1.60000000</i>
    <i name="BMIX_MAG">      1.00000000</i>
    <separator name="electronic mixer details" >
     <i type="int" name="IMIX">     4</i>
     <i type="logical" name="MIXFIRST"> F  </i>
     <i type="int" name="MAXMIX">   -45</i>
     <i name="WC">    100.00000000</i>
     <i type="int" name="INIMIX">     1</i>
     <i type="int" name="MIXPRE">     1</i>
     <i type="int" name="MREMOVE">     5</i>
    </separator>
   </separator>
   <separator name="electronic dipolcorrection" >
    <i type="logical" name="LDIPOL"> F  </i>
    <i type="logical" name="LMONO"> F  </i>
    <i type="int" name="IDIPOL">     0</i>
    <i name="EPSILON">      1.00000000</i>
    <v name="DIPOL">   -100.00000000   -100.00000000   -100.00000000</v>
    <i name="EFIELD">      0.00000000</i>
   </separator>
  </separator>
  <separator name="grids" >
   <i type="int" name="NGX">    70</i>
   <i type="int" name="NGY">    60</i>
   <i type="int" name="NGZ">    70</i>
   <i type="int" name="NGXF">   140</i>
   <i type="int" name="NGYF">   120</i>
   <i type="int" name="NGZF">   140</i>
   <i type="logical" name="ADDGRID"> F  </i>
  </separator>
  <separator name="ionic" >
   <i type="int" name="NSW">   200</i>
   <i type="int" name="IBRION">     2</i>
   <i type="int" name="MDALGO">     0</i>
   <i type="int" name="ISIF">     3</i>
   <i name="PSTRESS">      0.00000000</i>
   <i name="EDIFFG">     -0.01000000</i>
   <i type="int" name="NFREE">    10</i>
   <i name="POTIM">      0.50000000</i>
   <i name="SMASS">     -3.00000000</i>
   <i name="SCALEE">      1.00000000</i>
  </separator>
  <separator name="ionic md" >
   <i name="TEBEG">      0.00010000</i>
   <i name="TEEND">      0.00010000</i>
   <i type="int" name="NBLOCK">     1</i>
   <i type="int" name="KBLOCK">   200</i>
   <i type="int" name="NPACO">   256</i>
   <i name="APACO">     16.00000000</i>
  </separator>
  <separator name="symmetry" >
   <i type="int" name="ISYM">     2</i>
   <i name="SYMPREC">      0.00001000</i>
  </separator>
  <separator name="dos" >
   <i type="int" name="LORBIT">     0</i>
   <v name="RWIGS">     -1.00000000     -1.00000000     -1.00000000     -1.00000000     -1.00000000</v>
   <i type="int" name="NEDOS">   301</i>
   <i name="EMIN">     10.00000000</i>
   <i name="EMAX">    -10.00000000</i>
   <i name="EFERMI">      0.00000000</i>
  </separator>
  <separator name="writing" >
   <i type="int" name="NWRITE">     2</i>
   <i type="logical" name="LWAVE"> F  </i>
   <i type="logical" name="LDOWNSAMPLE"> F  </i>
   <i type="logical" name="LCHARG"> F  </i>
   <i type="logical" name="LPARD"> F  </i>
   <i type="logical" name="LVTOT"> F  </i>
   <i type="logical" name="LVHAR"> F  </i>
   <i type="logical" name="LELF"> F  </i>
   <i type="logical" name="LOPTICS"> F  </i>
   <v name="STM">      0.00000000      0.00000000      0.00000000      0.00000000      0.00000000      0.00000000      0.00000000</v>
  </separator>
  <separator name="performance" >
   <i type="int" name="NPAR">    28</i>
   <i type="int" name="NSIM">     4</i>
   <i type="int" name="NBLK">    -1</i>
   <i type="logical" name="LPLANE"> T  </i>
   <i type="logical" name="LSCALAPACK"> T  </i>
   <i type="logical" name="LSCAAWARE"> F  </i>
   <i type="logical" name="LSCALU"> F  </i>
   <i type="logical" name="LASYNC"> F  </i>
   <i type="logical" name="LORBITALREAL"> F  </i>
  </separator>
  <separator name="miscellaneous" >
   <i type="int" name="IDIOT">     3</i>
   <i type="int" name="ISPECIAL">     0</i>
   <i type="logical" name="LMUSIC"> F  </i>
   <v name="POMASS">      7.01000000     24.30500000    208.98000000     32.06600000     16.00000000</v>
   <v name="DARWINR">      0.00000000      0.00000000      0.00000000      0.00000000      0.00000000</v>
   <v name="DARWINV">      1.00000000      1.00000000      1.00000000      1.00000000      1.00000000</v>
   <i type="logical" name="LCORR"> T  </i>
  </separator>
  <i type="logical" name="GGA_COMPAT"> T  </i>
  <i type="logical" name="LBERRY"> F  </i>
  <i type="int" name="ICORELEVEL">     0</i>
  <i type="logical" name="LDAU"> F  </i>
  <i type="int" name="I_CONSTRAINED_M">     0</i>
  <separator name="electronic exchange-correlation" >
   <i type="string" name="GGA">--</i>
   <i type="int" name="VOSKOWN">     0</i>
   <i type="logical" name="LHFCALC"> F  </i>
   <i type="string" name="PRECFOCK"></i>
   <i type="logical" name="LSYMGRAD"> F  </i>
   <i type="logical" name="LHFONE"> F  </i>
   <i type="logical" name="LRHFCALC"> F  </i>
   <i type="logical" name="LTHOMAS"> F  </i>
   <i type="logical" name="LMODELHF"> F  </i>
   <i name="ENCUT4O">     -1.00000000</i>
   <i type="int" name="EXXOEP">     0</i>
   <i type="int" name="FOURORBIT">     0</i>
   <i name="AEXX">      0.00000000</i>
   <i name="HFALPHA">      0.00000000</i>
   <i name="MCALPHA">      0.00000000</i>
   <i name="ALDAX">      1.00000000</i>
   <i name="AGGAX">      1.00000000</i>
   <i name="ALDAC">      1.00000000</i>
   <i name="AGGAC">      1.00000000</i>
   <i type="int" name="NKREDX">     1</i>
   <i type="int" name="NKREDY">     1</i>
   <i type="int" name="NKREDZ">     1</i>
   <i type="logical" name="SHIFTRED"> F  </i>
   <i type="logical" name="ODDONLY"> F  </i>
   <i type="logical" name="EVENONLY"> F  </i>
   <i type="int" name="LMAXFOCK">     0</i>
   <i type="int" name="NMAXFOCKAE">     0</i>
   <i type="logical" name="LFOCKAEDFT"> F  </i>
   <i name="HFSCREEN">      0.00000000</i>
   <i name="HFSCREENC">      0.00000000</i>
   <i type="int" name="NBANDSGWLOW">     0</i>
  </separator>
  <separator name="vdW DFT" >
   <i type="logical" name="LUSE_VDW"> F  </i>
   <i name="Zab_VDW">     -0.84910000</i>
   <i name="PARAM1">      0.12340000</i>
   <i name="PARAM2">      1.00000000</i>
   <i name="PARAM3">      0.00000000</i>
  </separator>
  <separator name="model GW" >
   <i type="int" name="MODEL_GW">     0</i>
   <i name="MODEL_EPS0">     12.38119177</i>
   <i name="MODEL_ALPHA">      1.00000000</i>
  </separator>
  <separator name="linear response parameters" >
   <i type="logical" name="LEPSILON"> F  </i>
   <i type="logical" name="LRPA"> F  </i>
   <i type="logical" name="LNABLA"> F  </i>
   <i type="logical" name="LVEL"> F  </i>
   <i type="int" name="KINTER">     0</i>
   <i name="CSHIFT">      0.10000000</i>
   <i name="OMEGAMAX">     -1.00000000</i>
   <i name="DEG_THRESHOLD">      0.00200000</i>
   <i name="RTIME">     -0.10000000</i>
   <i name="WPLASMAI">      0.00000000</i>
   <v name="DFIELD">      0.00000000      0.00000000      0.00000000</v>
   <v name="WPLASMA">      0.00000000      0.00000000      0.00000000      0.00000000      0.00000000      0.00000000      0.00000000      0.00000000      0.00000000</v>
  </separator>
  <separator name="orbital magnetization" >
   <i type="logical" name="NUCIND"> F  </i>
   <v name="MAGPOS">      0.00000000      0.00000000      0.00000000</v>
   <i type="logical" name="LNICSALL"> T  </i>
   <i type="logical" name="ORBITALMAG"> F  </i>
   <i type="logical" name="LMAGBLOCH"> F  </i>
   <i type="logical" name="LCHIMAG"> F  </i>
   <i type="logical" name="LGAUGE"> T  </i>
   <i type="int" name="MAGATOM">     0</i>
   <v name="MAGDIPOL">      0.00000000      0.00000000      0.00000000</v>
   <v name="AVECCONST">      0.00000000      0.00000000      0.00000000</v>
  </separator>
  <separator name="response functions" >
   <i type="logical" name="LADDER"> F  </i>
   <i type="logical" name="LRPAFORCE"> F  </i>
   <i type="logical" name="LFXC"> F  </i>
   <i type="logical" name="LHARTREE"> T  </i>
   <i type="int" name="IBSE">     0</i>
   <v type="int" name="KPOINT">    -1     0     0     0</v>
   <i type="logical" name="LTCTE"> F  </i>
   <i type="logical" name="LTETE"> F  </i>
   <i type="logical" name="LTRIPLET"> F  </i>
   <i type="logical" name="LFXCEPS"> F  </i>
   <i type="logical" name="LFXHEG"> F  </i>
   <i type="int" name="NATURALO">     2</i>
   <i type="logical" name="L2ORDER"> F  </i>
   <i type="logical" name="LMP2LT"> F  </i>
   <i type="logical" name="LUSEW"> F  </i>
   <i name="ENCUTGW">     -2.00000000</i>
   <i name="ENCUTGWSOFT">     -2.00000000</i>
   <i name="ENCUTLF">     -1.00000000</i>
   <i type="int" name="LMAXMP2">    -1</i>
   <i name="SCISSOR">      0.00000000</i>
   <i type="int" name="NOMEGA">     0</i>
   <i type="int" name="NOMEGAR">     0</i>
   <i type="int" name="NBANDSGW">    -1</i>
   <i type="int" name="NBANDSO">    -1</i>
   <i type="int" name="NBANDSV">    -1</i>
   <i type="int" name="NELM">     1</i>
   <i type="int" name="NELMHF">     1</i>
   <i type="int" name="DIM">     3</i>
   <i type="int" name="ANTIRES">     0</i>
   <i name="OMEGAMAX">    -30.00000000</i>
   <i name="OMEGAMIN">    -30.00000000</i>
   <i name="OMEGATL">   -200.00000000</i>
   <i type="int" name="OMEGAGRID">   140</i>
   <i name="CSHIFT">     -0.10000000</i>
   <i type="logical" name="SELFENERGY"> F  </i>
   <i type="logical" name="LSPECTRAL"> F  </i>
   <i type="logical" name="LSPECTRALGW"> F  </i>
   <i type="logical" name="LSINGLES"> F  </i>
   <i type="logical" name="LFERMIGW"> F  </i>
   <i type="logical" name="ODDONLYGW"> F  </i>
   <i type="logical" name="EVENONLYGW"> F  </i>
   <i type="int" name="NKREDLFX">     1</i>
   <i type="int" name="NKREDLFY">     1</i>
   <i type="int" name="NKREDLFZ">     1</i>
   <i type="int" name="MAXMEM">  2800</i>
   <i type="int" name="TELESCOPE">     0</i>
   <i type="int" name="TAUPAR">     1</i>
   <i type="int" name="OMEGAPAR">    -1</i>
   <i name="LAMBDA">      1.00000000</i>
  </separator>
  <separator name="External order field" >
   <i name="OFIELD_KAPPA">      0.00000000</i>
   <v name="OFIELD_K">      0.00000000      0.00000000      0.00000000</v>
   <i name="OFIELD_Q6_NEAR">      0.00000000</i>
   <i name="OFIELD_Q6_FAR">      0.00000000</i>
   <i name="OFIELD_A">      0.00000000</i>
  </separator>
 </parameters>
 <atominfo>
  <atoms>      58 </atoms>
  <types>       5 </types>
  <array name="atoms" >
   <dimension dim="1">ion</dimension>
   <field type="string">element</field>
   <field type="int">atomtype</field>
   <set>
    <rc><c>Li</c><c>   1</c></rc>
    <rc><c>Li</c><c>   1</c></rc>
    <rc><c>Li</c><c>   1</c></rc>
    <rc><c>Li</c><c>   1</c></rc>
    <rc><c>Mg</c><c>   2</c></rc>
    <rc><c>Mg</c><c>   2</c></rc>
    <rc><c>Mg</c><c>   2</c></rc>
    <rc><c>Mg</c><c>   2</c></rc>
    <rc><c>Mg</c><c>   2</c></rc>
    <rc><c>Mg</c><c>   2</c></rc>
    <rc><c>Bi</c><c>   3</c></rc>
    <rc><c>Bi</c><c>   3</c></rc>
    <rc><c>Bi</c><c>   3</c></rc>
    <rc><c>Bi</c><c>   3</c></rc>
    <rc><c>Bi</c><c>   3</c></rc>
    <rc><c>Bi</c><c>   3</c></rc>
    <rc><c>Bi</c><c>   3</c></rc>
    <rc><c>Bi</c><c>   3</c></rc>
    <rc><c>Bi</c><c>   3</c></rc>
    <rc><c>Bi</c><c>   3</c></rc>
    <rc><c>Bi</c><c>   3</c></rc>
    <rc><c>Bi</c><c>   3</c></rc>
    <rc><c>Bi</c><c>   3</c></rc>
    <rc><c>Bi</c><c>   3</c></rc>
    <rc><c>Bi</c><c>   3</c></rc>
    <rc><c>Bi</c><c>   3</c></rc>
    <rc><c>S </c><c>   4</c></rc>
    <rc><c>S </c><c>   4</c></rc>
    <rc><c>S </c><c>   4</c></rc>
    <rc><c>S </c><c>   4</c></rc>
    <rc><c>S </c><c>   4</c></rc>
    <rc><c>S </c><c>   4</c></rc>
    <rc><c>S </c><c>   4</c></rc>
    <rc><c>S </c><c>   4</c></rc>
    <rc><c>S </c><c>   4</c></rc>
    <rc><c>S </c><c>   4</c></rc>
    <rc><c>S </c><c>   4</c></rc>
    <rc><c>S </c><c>   4</c></rc>
    <rc><c>S </c><c>   4</c></rc>
    <rc><c>S </c><c>   4</c></rc>
    <rc><c>S </c><c>   4</c></rc>
    <rc><c>S </c><c>   4</c></rc>
    <rc><c>O </c><c>   5</c></rc>
    <rc><c>O </c><c>   5</c></rc>
    <rc><c>O </c><c>   5</c></rc>
    <rc><c>O </c><c>   5</c></rc>
    <rc><c>O </c><c>   5</c></rc>
    <rc><c>O </c><c>   5</c></rc>
    <rc><c>O </c><c>   5</c></rc>
    <rc><c>O </c><c>   5</c></rc>
    <rc><c>O </c><c>   5</c></rc>
    <rc><c>O </c><c>   5</c></rc>
    <rc><c>O </c><c>   5</c></rc>
    <rc><c>O </c><c>   5</c></rc>
    <rc><c>O </c><c>   5</c></rc>
    <rc><c>O </c><c>   5</c></rc>
    <rc><c>O </c><c>   5</c></rc>
    <rc><c>O </c><c>   5</c></rc>
   </set>
  </array>
  <array name="atomtypes" >
   <dimension dim="1">type</dimension>
   <field type="int">atomspertype</field>
   <field type="string">element</field>
   <field>mass</field>
   <field>valence</field>
   <field type="string">pseudopotential</field>
   <set>
    <rc><c>   4</c><c>Li</c><c>      7.01000000</c><c>      3.00000000</c><c>  PAW_PBE Li_sv 10Sep2004               </c></rc>
    <rc><c>   6</c><c>Mg</c><c>     24.30500000</c><c>      2.00000000</c><c>  PAW_PBE Mg 13Apr2007                  </c></rc>
    <rc><c>  16</c><c>Bi</c><c>    208.98000000</c><c>     15.00000000</c><c>  PAW_PBE Bi_d 06Sep2000                </c></rc>
    <rc><c>  16</c><c>S </c><c>     32.06600000</c><c>      6.00000000</c><c>  PAW_PBE S 06Sep2000                   </c></rc>
    <rc><c>  16</c><c>O </c><c>     16.00000000</c><c>      6.00000000</c><c>  PAW_PBE O 08Apr2002                   </c></rc>
   </set>
  </array>
 </atominfo>
 <structure name="initialpos" >
  <crystal>
   <varray name="basis" >
    <v>      11.17850000       0.00000000       0.00000000 </v>
    <v>       0.00000000       9.57460000       0.00000000 </v>
    <v>       0.00000000       0.00000000      11.18240000 </v>
   </varray>
   <i name="volume">   1196.84853820 </i>
   <varray name="rec_basis" >
    <v>       0.08945744       0.00000000       0.00000000 </v>
    <v>       0.00000000       0.10444301       0.00000000 </v>
    <v>       0.00000000       0.00000000       0.08942624 </v>
   </varray>
  </crystal>
  <varray name="positions" >
   <v>       0.37461000       0.00017000       0.18687000 </v>
   <v>       0.87539000       0.00017000       0.43687000 </v>
   <v>       0.12539000       0.99984000       0.93687000 </v>
   <v>       0.62461000       0.99984000       0.68687000 </v>
   <v>       0.12461000       0.99984000       0.18687000 </v>
   <v>       0.62539000       0.99984000       0.43687000 </v>
   <v>       0.62461000       0.99984000       0.18687000 </v>
   <v>       0.12461000       0.99984000       0.68687000 </v>
   <v>       0.62539000       0.99984000       0.93687000 </v>
   <v>       0.87461000       0.00017000       0.68687000 </v>
   <v>       0.00013000       0.29519000       0.06281000 </v>
   <v>       0.25013000       0.70481000       0.06281000 </v>
   <v>       0.24987000       0.29519000       0.31282000 </v>
   <v>       0.49987000       0.70481000       0.31282000 </v>
   <v>       0.50013000       0.29519000       0.06281000 </v>
   <v>       0.75013000       0.70481000       0.06281000 </v>
   <v>       0.74987000       0.29519000       0.31282000 </v>
   <v>       0.99987000       0.70481000       0.31282000 </v>
   <v>       0.00013000       0.29519000       0.56281000 </v>
   <v>       0.25013000       0.70481000       0.56281000 </v>
   <v>       0.24987000       0.29519000       0.81282000 </v>
   <v>       0.49987000       0.70481000       0.81282000 </v>
   <v>       0.50013000       0.29519000       0.56281000 </v>
   <v>       0.75013000       0.70481000       0.56281000 </v>
   <v>       0.74987000       0.29519000       0.81282000 </v>
   <v>       0.99987000       0.70481000       0.81282000 </v>
   <v>       0.25005000       0.32677000       0.06286000 </v>
   <v>       0.00005000       0.67323000       0.06286000 </v>
   <v>       0.49995000       0.32677000       0.31286000 </v>
   <v>       0.24995000       0.67323000       0.31286000 </v>
   <v>       0.75005000       0.32677000       0.06286000 </v>
   <v>       0.50005000       0.67323000       0.06286000 </v>
   <v>       0.99995000       0.32677000       0.31286000 </v>
   <v>       0.74995000       0.67323000       0.31286000 </v>
   <v>       0.25005000       0.32677000       0.56286000 </v>
   <v>       0.00005000       0.67323000       0.56286000 </v>
   <v>       0.49995000       0.32677000       0.81286000 </v>
   <v>       0.24995000       0.67323000       0.81286000 </v>
   <v>       0.75005000       0.32677000       0.56286000 </v>
   <v>       0.50005000       0.67323000       0.56286000 </v>
   <v>       0.99995000       0.32677000       0.81286000 </v>
   <v>       0.74995000       0.67323000       0.81286000 </v>
   <v>       0.49987000       0.07798000       0.06246000 </v>
   <v>       0.24987000       0.92202000       0.06246000 </v>
   <v>       0.25013000       0.07798000       0.31246000 </v>
   <v>       0.00013000       0.92202000       0.31246000 </v>
   <v>       0.99987000       0.07798000       0.06246000 </v>
   <v>       0.74987000       0.92202000       0.06246000 </v>
   <v>       0.75013000       0.07798000       0.31246000 </v>
   <v>       0.50013000       0.92202000       0.31246000 </v>
   <v>       0.49987000       0.07798000       0.56246000 </v>
   <v>       0.24987000       0.92202000       0.56246000 </v>
   <v>       0.25013000       0.07798000       0.81246000 </v>
   <v>       0.00013000       0.92202000       0.81246000 </v>
   <v>       0.99987000       0.07798000       0.56246000 </v>
   <v>       0.74987000       0.92202000       0.56246000 </v>
   <v>       0.75013000       0.07798000       0.81246000 </v>
   <v>       0.50013000       0.92202000       0.81246000 </v>
  </varray>
 </structure>
 <calculation>
  <scstep>
   <time name="dav">   59.95   60.25</time>
   <time name="total">   60.03   60.34</time>
   <energy>
    <i name="alphaZ">   1054.17224280 </i>
    <i name="ewald"> -30177.76188807 </i>
    <i name="hartreedc"> -12703.88350842 </i>
    <i name="XCdc">   1173.47526172 </i>
    <i name="pawpsdc">  36541.05238669 </i>
    <i name="pawaedc"> -35795.85877930 </i>
    <i name="eentropy">      0.00000000 </i>
    <i name="bandstr">   1917.85184419 </i>
    <i name="atom">  43643.51795008 </i>
    <i name="e_fr_energy">   5652.56550969 </i>
    <i name="e_wo_entrp">   5652.56550969 </i>
    <i name="e_0_energy">   5652.56550969 </i>
   </energy>
  </scstep>
  <scstep>
   <time name="dav">   60.97   61.05</time>
   <time name="total">   60.98   61.06</time>
   <energy>
    <i name="e_fr_energy">    739.50855392 </i>
    <i name="e_wo_entrp">    739.50855392 </i>
    <i name="e_0_energy">    739.50855392 </i>
   </energy>
  </scstep>
  <scstep>
   <time name="dav">   70.37   70.47</time>
   <time name="total">   70.38   70.47</time>
   <energy>
    <i name="e_fr_energy">   -243.22216868 </i>
    <i name="e_wo_entrp">   -243.22216868 </i>
    <i name="e_0_energy">   -243.22216868 </i>
   </energy>
  </scstep>
  <scstep>
   <time name="dav">   72.09   72.24</time>
   <time name="total">   72.09   72.24</time>
   <energy>
    <i name="e_fr_energy">   -329.34897416 </i>
    <i name="e_wo_entrp">   -329.34897416 </i>
    <i name="e_0_energy">   -329.34897416 </i>
   </energy>
  </scstep>
  <scstep>
   <time name="dav">   89.47   89.53</time>
   <time name="total">   90.18   90.24</time>
   <energy>
    <i name="e_fr_energy">   -335.52408011 </i>
    <i name="e_wo_entrp">   -335.52408011 </i>
    <i name="e_0_energy">   -335.52408011 </i>
   </energy>
  </scstep>
  <scstep>
   <time name="dav">   86.25   86.30</time>
   <time name="total">   87.02   87.08</time>
   <energy>
    <i name="e_fr_energy">   -282.19316523 </i>
    <i name="e_wo_entrp">   -282.19316523 </i>
    <i name="e_0_energy">   -282.19316523 </i>
   </energy>
  </scstep>
  <scstep>
   <time name="dav">   64.94   64.97</time>
   <time name="total">   65.72   65.75</time>
   <energy>
    <i name="e_fr_energy">   -284.10538128 </i>
    <i name="e_wo_entrp">   -284.10538128 </i>
    <i name="e_0_energy">   -284.10538128 </i>
   </energy>
  </scstep>
  <scstep>
   <time name="dav">   74.85   74.87</time>
   <time name="total">   75.63   75.67</time>
   <energy>
    <i name="e_fr_energy">   -283.20992562 </i>
    <i name="e_wo_entrp">   -283.20992562 </i>
    <i name="e_0_energy">   -283.20992562 </i>
   </energy>
  </scstep>
  <scstep>
   <time name="dav">   70.47   70.49</time>
   <time name="total">   71.25   71.28</time>
   <energy>
    <i name="e_fr_energy">   -282.74295800 </i>
    <i name="e_wo_entrp">   -282.74295800 </i>
    <i name="e_0_energy">   -282.74295800 </i>
   </energy>
  </scstep>
  <scstep>
   <time name="dav">   72.80   72.82</time>
   <time name="total">   73.58   73.60</time>
   <energy>
    <i name="e_fr_energy">   -282.77216054 </i>
    <i name="e_wo_entrp">   -282.77216054 </i>
    <i name="e_0_energy">   -282.77216054 </i>
   </energy>
  </scstep>
  <scstep>
   <time name="dav">   76.19   76.21</time>
   <time name="total">   76.97   76.99</time>
   <energy>
    <i name="e_fr_energy">   -282.77397696 </i>
    <i name="e_wo_entrp">   -282.77397696 </i>
    <i name="e_0_energy">   -282.77397696 </i>
   </energy>
  </scstep>
  <scstep>
   <time name="dav">   81.20   81.22</time>
   <time name="total">   81.98   82.00</time>
   <energy>
    <i name="e_fr_energy">   -282.77569026 </i>
    <i name="e_wo_entrp">   -282.77569026 </i>
    <i name="e_0_energy">   -282.77569026 </i>
   </energy>
  </scstep>
  <scstep>
   <time name="dav">   70.70   70.72</time>
   <time name="total">   71.48   71.50</time>
   <energy>
    <i name="e_fr_energy">   -282.77787515 </i>
    <i name="e_wo_entrp">   -282.77787515 </i>
    <i name="e_0_energy">   -282.77787515 </i>
   </energy>
  </scstep>
  <scstep>
   <time name="dav">   72.71   72.74</time>
   <time name="total">   73.48   73.52</time>
   <energy>
    <i name="e_fr_energy">   -282.77788613 </i>
    <i name="e_wo_entrp">   -282.77788613 </i>
    <i name="e_0_energy">   -282.77788613 </i>
   </energy>
  </scstep>
  <scstep>
   <time name="dav">   78.13   78.27</time>
   <time name="total">   78.91   79.05</time>
   <energy>
    <i name="e_fr_energy">   -282.77800180 </i>
    <i name="e_wo_entrp">   -282.77800180 </i>
    <i name="e_0_energy">   -282.77800180 </i>
   </energy>
  </scstep>
  <scstep>
   <time name="dav">   80.54   80.67</time>
   <time name="total">   81.31   81.45</time>
   <energy>
    <i name="e_fr_energy">   -282.77801543 </i>
    <i name="e_wo_entrp">   -282.77801543 </i>
    <i name="e_0_energy">   -282.77801543 </i>
   </energy>
  </scstep>
  <scstep>
   <time name="dav">   66.01   66.07</time>
   <time name="total">   66.79   66.85</time>
   <energy>
    <i name="e_fr_energy">   -282.77802479 </i>
    <i name="e_wo_entrp">   -282.77802479 </i>
    <i name="e_0_energy">   -282.77802479 </i>
   </energy>
  </scstep>
  <scstep>
   <time name="dav">   70.78   70.83</time>
   <time name="total">   70.85   70.90</time>
   <energy>
    <i name="alphaZ">   1054.17224280 </i>
    <i name="ewald"> -30177.76188807 </i>
    <i name="hartreedc"> -12930.53669387 </i>
    <i name="XCdc">   1198.30306268 </i>
    <i name="pawpsdc">  43538.47647768 </i>
    <i name="pawaedc"> -42765.62566159 </i>
    <i name="eentropy">      0.00000000 </i>
    <i name="bandstr">  -3843.32351497 </i>
    <i name="atom">  43643.51795008 </i>
    <i name="e_fr_energy">   -282.77802526 </i>
    <i name="e_wo_entrp">   -282.77802526 </i>
    <i name="e_0_energy">   -282.77802526 </i>
   </energy>
  </scstep>
  <structure>
   <crystal>
    <varray name="basis" >
     <v>      11.17850000       0.00000000       0.00000000 </v>
     <v>       0.00000000       9.57460000       0.00000000 </v>
     <v>       0.00000000       0.00000000      11.18240000 </v>
    </varray>
    <i name="volume">   1196.84853820 </i>
    <varray name="rec_basis" >
     <v>       0.08945744       0.00000000       0.00000000 </v>
     <v>       0.00000000       0.10444301       0.00000000 </v>
     <v>       0.00000000       0.00000000       0.08942624 </v>
    </varray>
   </crystal>
   <varray name="positions" >
    <v>       0.37461000       0.00017000       0.18687000 </v>
    <v>       0.87539000       0.00017000       0.43687000 </v>
    <v>       0.12539000       0.99984000       0.93687000 </v>
    <v>       0.62461000       0.99984000       0.68687000 </v>
    <v>       0.12461000       0.99984000       0.18687000 </v>
    <v>       0.62539000       0.99984000       0.43687000 </v>
    <v>       0.62461000       0.99984000       0.18687000 </v>
    <v>       0.12461000       0.99984000       0.68687000 </v>
    <v>       0.62539000       0.99984000       0.93687000 </v>
    <v>       0.87461000       0.00017000       0.68687000 </v>
    <v>       0.00013000       0.29519000       0.06281000 </v>
    <v>       0.25013000       0.70481000       0.06281000 </v>
    <v>       0.24987000       0.29519000       0.31282000 </v>
    <v>       0.49987000       0.70481000       0.31282000 </v>
    <v>       0.50013000       0.29519000       0.06281000 </v>
    <v>       0.75013000       0.70481000       0.06281000 </v>
    <v>       0.74987000       0.29519000       0.31282000 </v>
    <v>       0.99987000       0.70481000       0.31282000 </v>
    <v>       0.00013000       0.29519000       0.56281000 </v>
    <v>       0.25013000       0.70481000       0.56281000 </v>
    <v>       0.24987000       0.29519000       0.81282000 </v>
    <v>       0.49987000       0.70481000       0.81282000 </v>
    <v>       0.50013000       0.29519000       0.56281000 </v>
    <v>       0.75013000       0.70481000       0.56281000 </v>
    <v>       0.74987000       0.29519000       0.81282000 </v>
    <v>       0.99987000       0.70481000       0.81282000 </v>
    <v>       0.25005000       0.32677000       0.06286000 </v>
    <v>       0.00005000       0.67323000       0.06286000 </v>
    <v>       0.49995000       0.32677000       0.31286000 </v>
    <v>       0.24995000       0.67323000       0.31286000 </v>
    <v>       0.75005000       0.32677000       0.06286000 </v>
    <v>       0.50005000       0.67323000       0.06286000 </v>
    <v>       0.99995000       0.32677000       0.31286000 </v>
    <v>       0.74995000       0.67323000       0.31286000 </v>
    <v>       0.25005000       0.32677000       0.56286000 </v>
    <v>       0.00005000       0.67323000       0.56286000 </v>
    <v>       0.49995000       0.32677000       0.81286000 </v>
    <v>       0.24995000       0.67323000       0.81286000 </v>
    <v>       0.75005000       0.32677000       0.56286000 </v>
    <v>       0.50005000       0.67323000       0.56286000 </v>
    <v>       0.99995000       0.32677000       0.81286000 </v>
    <v>       0.74995000       0.67323000       0.81286000 </v>
    <v>       0.49987000       0.07798000       0.06246000 </v>
    <v>       0.24987000       0.92202000       0.06246000 </v>
    <v>       0.25013000       0.07798000       0.31246000 </v>
    <v>       0.00013000       0.92202000       0.31246000 </v>
    <v>       0.99987000       0.07798000       0.06246000 </v>
    <v>       0.74987000       0.92202000       0.06246000 </v>
    <v>       0.75013000       0.07798000       0.31246000 </v>
    <v>       0.50013000       0.92202000       0.31246000 </v>
    <v>       0.49987000       0.07798000       0.56246000 </v>
    <v>       0.24987000       0.92202000       0.56246000 </v>
    <v>       0.25013000       0.07798000       0.81246000 </v>
    <v>       0.00013000       0.92202000       0.81246000 </v>
    <v>       0.99987000       0.07798000       0.56246000 </v>
    <v>       0.74987000       0.92202000       0.56246000 </v>
    <v>       0.75013000       0.07798000       0.81246000 </v>
    <v>       0.50013000       0.92202000       0.81246000 </v>
   </varray>
  </structure>
  <varray name="forces" >
   <v>      -0.41631697       0.05938262       0.16349905 </v>
   <v>       0.99668337      -0.06996220      -0.92847559 </v>
   <v>       0.14314190       0.18957489       0.09904849 </v>
   <v>      -1.21203068       0.06405624       0.19382232 </v>
   <v>      -0.60969702       0.11648745       0.76613745 </v>
   <v>      -1.32345265       0.33917970       0.79966729 </v>
   <v>       0.67897375      -0.11293918      -0.21529175 </v>
   <v>       2.29975483      -0.09865750      -0.66803434 </v>
   <v>      -0.30018200      -0.34116150      -0.74033647 </v>
   <v>      -0.22894135       0.10047108       0.85384297 </v>
   <v>       0.02308557      -1.01555039       0.03815789 </v>
   <v>       0.05211957      -0.02406968      -0.19059894 </v>
   <v>      -0.05832273      -1.02144384       0.34367958 </v>
   <v>      -0.69271472      -1.08385000       0.22730641 </v>
   <v>      -0.61685059       1.06365014      -0.23369983 </v>
   <v>       0.50366188      -0.08334236      -0.00171147 </v>
   <v>       0.41406450       1.10201551      -0.23131405 </v>
   <v>       0.34411776       1.03270961      -0.05249360 </v>
   <v>       0.64529371       1.12392576      -0.39370184 </v>
   <v>       0.21753434       1.92469255      -0.16546409 </v>
   <v>       0.35815342      -0.99341567      -0.01394820 </v>
   <v>      -0.65139344       0.92532550      -0.17333181 </v>
   <v>      -0.73933623      -0.90411229       0.16052309 </v>
   <v>      -0.12365413      -2.10953622       0.01610171 </v>
   <v>       0.03337802       1.03870526       0.20163286 </v>
   <v>       0.30325773      -1.03468076       0.38568844 </v>
   <v>       0.15595265       0.26247314       0.03591266 </v>
   <v>      -0.08336504      -0.15428457      -0.14504985 </v>
   <v>       0.42426023       0.08122376      -0.17720095 </v>
   <v>       0.17855721      -0.18906962      -0.27130750 </v>
   <v>      -0.29530881      -0.00354971       0.00681585 </v>
   <v>       0.24096444      -0.11066742       0.18816538 </v>
   <v>      -0.30501713       0.15561501       0.15657540 </v>
   <v>      -0.27856726      -0.00232270       0.16341706 </v>
   <v>      -0.24304958       0.15682649       0.06041019 </v>
   <v>      -0.53584588      -0.06908865       0.27962518 </v>
   <v>       0.40566565       0.09554259       0.21511311 </v>
   <v>      -0.25133346      -0.19260085       0.17435600 </v>
   <v>       0.17315429       0.03412081      -0.00165621 </v>
   <v>       0.58218481      -0.07275472      -0.22858685 </v>
   <v>      -0.33295238       0.10847612      -0.29372426 </v>
   <v>       0.15719757      -0.04418683      -0.16784276 </v>
   <v>       1.64666099      -0.80885775       0.71451734 </v>
   <v>      -0.90597073      -0.09649437       1.01597261 </v>
   <v>      -0.31391416       0.81954036      -1.68112698 </v>
   <v>       0.15759993      -0.97721519      -0.27336934 </v>
   <v>       1.47302443       0.81447420       0.30390167 </v>
   <v>      -2.16258437       0.24417165       0.02950829 </v>
   <v>      -1.60828850      -0.97109378       0.72856089 </v>
   <v>       1.77910532       0.87824090      -0.70396281 </v>
   <v>       2.03893672       0.55061449      -0.58002613 </v>
   <v>      -1.12044230      -1.60584836       0.97456689 </v>
   <v>      -1.78109508       0.79128698      -0.35322013 </v>
   <v>       0.20414409       0.80794318      -1.69330943 </v>
   <v>      -1.07241383      -0.90589923       1.58436307 </v>
   <v>       0.18108493       1.59906659       0.00336416 </v>
   <v>      -0.43478342      -0.75960552      -0.84315350 </v>
   <v>       1.88611082      -0.62353173       0.53768539 </v>
  </varray>
  <varray name="stress" >
   <v>      -7.92404121       0.32238682       1.85290811 </v>
   <v>       0.32238674     -13.14733772      -0.77378863 </v>
   <v>       1.85290824      -0.77378851       1.27879685 </v>
  </varray>
  <energy>
   <i name="e_fr_energy">   -294.38169424 </i>
   <i name="e_wo_entrp">   -294.38169424 </i>
   <i name="e_0_energy">      0.00000000 </i>
  </energy>
  <time name="totalsc"> 1448.94 1450.30</time>
 </calculation>
 <calculation>
  <scstep>
   <time name="dav">   60.19   60.20</time>
   <time name="total">   60.97   60.98</time>
   <energy>
    <i name="alphaZ">   1067.26732383 </i>
    <i name="ewald"> -30267.61301104 </i>
    <i name="hartreedc"> -12998.91756388 </i>
    <i name="XCdc">   1205.60227052 </i>
    <i name="pawpsdc">  43537.80935466 </i>
    <i name="pawaedc"> -42764.95601586 </i>
    <i name="eentropy">      0.00000000 </i>
    <i name="bandstr">  -3704.58091368 </i>
    <i name="atom">  43643.51795008 </i>
    <i name="e_fr_energy">   -281.87060537 </i>
    <i name="e_wo_entrp">   -281.87060537 </i>
    <i name="e_0_energy">   -281.87060537 </i>
   </energy>
  </scstep>
  <scstep>
   <time name="dav">   71.91   71.92</time>
   <time name="total">   72.69   72.70</time>
   <energy>
    <i name="e_fr_energy">   -285.76903183 </i>
    <i name="e_wo_entrp">   -285.76903183 </i>
    <i name="e_0_energy">   -285.76903183 </i>
   </energy>
  </scstep>
  <scstep>
   <time name="dav">   85.69   85.71</time>
   <time name="total">   86.47   86.50</time>
   <energy>
    <i name="e_fr_energy">   -285.50463192 </i>
    <i name="e_wo_entrp">   -285.50463192 </i>
    <i name="e_0_energy">   -285.50463192 </i>
   </energy>
  </scstep>
  <scstep>
   <time name="dav">   73.32   73.34</time>
   <time name="total">   74.10   74.12</time>
   <energy>
    <i name="e_fr_energy">   -285.33482119 </i>
    <i name="e_wo_entrp">   -285.33482119 </i>
    <i name="e_0_energy">   -285.33482119 </i>
   </energy>
  </scstep>
  <scstep>
   <time name="dav">   78.58   78.60</time>
   <time name="total">   79.36   79.39</time>
   <energy>
    <i name="e_fr_energy">   -285.31910869 </i>
    <i name="e_wo_entrp">   -285.31910869 </i>
    <i name="e_0_energy">   -285.31910869 </i>
   </energy>
  </scstep>
  <scstep>
   <time name="dav">   69.60   69.62</time>
   <time name="total">   70.38   70.40</time>
   <energy>
    <i name="e_fr_energy">   -285.31774475 </i>
    <i name="e_wo_entrp">   -285.31774475 </i>
    <i name="e_0_energy">   -285.31774475 </i>
   </energy>
  </scstep>
  <scstep>
   <time name="dav">   73.08   73.09</time>
   <time name="total">   73.86   73.87</time>
   <energy>
    <i name="e_fr_energy">   -285.31709370 </i>
    <i name="e_wo_entrp">   -285.31709370 </i>
    <i name="e_0_energy">   -285.31709370 </i>
   </energy>
  </scstep>
  <scstep>
   <time name="dav">   86.66   86.68</time>
   <time name="total">   87.44   87.47</time>
   <energy>
    <i name="e_fr_energy">   -285.31696037 </i>
    <i name="e_wo_entrp">   -285.31696037 </i>
    <i name="e_0_energy">   -285.31696037 </i>
   </energy>
  </scstep>
  <scstep>
   <time name="dav">   66.07   66.09</time>
   <time name="total">   66.85   66.87</time>
   <energy>
    <i name="e_fr_energy">   -285.31699893 </i>
    <i name="e_wo_entrp">   -285.31699893 </i>
    <i name="e_0_energy">   -285.31699893 </i>
   </energy>
  </scstep>
  <scstep>
   <time name="dav">   79.25   79.28</time>
   <time name="total">   80.03   80.06</time>
   <energy>
    <i name="e_fr_energy">   -285.31700629 </i>
    <i name="e_wo_entrp">   -285.31700629 </i>
    <i name="e_0_energy">   -285.31700629 </i>
   </energy>
  </scstep>
  <scstep>
   <time name="dav">   66.60   66.66</time>
   <time name="total">   67.37   67.44</time>
   <energy>
    <i name="e_fr_energy">   -285.31700785 </i>
    <i name="e_wo_entrp">   -285.31700785 </i>
    <i name="e_0_energy">   -285.31700785 </i>
   </energy>
  </scstep>
  <scstep>
   <time name="dav">   71.55   71.67</time>
   <time name="total">   71.62   71.74</time>
   <energy>
    <i name="alphaZ">   1067.26732383 </i>
    <i name="ewald"> -30267.61301104 </i>
    <i name="hartreedc"> -12897.59511127 </i>
    <i name="XCdc">   1201.41177925 </i>
    <i name="pawpsdc">  43865.78153597 </i>
    <i name="pawaedc"> -43095.44894858 </i>
    <i name="eentropy">      0.00000000 </i>
    <i name="bandstr">  -3802.63852644 </i>
    <i name="atom">  43643.51795008 </i>
    <i name="e_fr_energy">   -285.31700820 </i>
    <i name="e_wo_entrp">   -285.31700820 </i>
    <i name="e_0_energy">   -285.31700820 </i>
   </energy>
  </scstep>
  <structure>
   <crystal>
    <varray name="basis" >
     <v>      11.12346207       0.00223920       0.01286972 </v>
     <v>       0.00191792       9.49638496      -0.00460336 </v>
     <v>       0.01287421      -0.00537637      11.19128522 </v>
    </varray>
    <i name="volume">   1182.16353076 </i>
    <varray name="rec_basis" >
     <v>       0.08990019      -0.00001821      -0.00010343 </v>
     <v>      -0.00002126       0.10530326       0.00005061 </v>
     <v>      -0.00010339       0.00004334       0.08935538 </v>
    </varray>
   </crystal>
   <varray name="positions" >
    <v>       0.37281332       0.00046921       0.18757536 </v>
    <v>       0.87969135      -0.00018251       0.43286441 </v>
    <v>       0.12600775       0.00079519       0.93729731 </v>
    <v>       0.61937928       0.00016275       0.68770618 </v>
    <v>       0.12197875       0.00042693       0.19017524 </v>
    <v>       0.61967842       0.00154899       0.44031989 </v>
    <v>       0.62754022       0.99927094       0.18594120 </v>
    <v>       0.13453497       0.99934290       0.68398799 </v>
    <v>       0.62409452       0.99812102       0.93367607 </v>
    <v>       0.87362197       0.00067623       0.69055361 </v>
    <v>       0.00022963       0.29007304       0.06297462 </v>
    <v>       0.25035493       0.70468872       0.06198773 </v>
    <v>       0.24961830       0.29004335       0.31430269 </v>
    <v>       0.49688048       0.69934890       0.31380064 </v>
    <v>       0.49746788       0.30054932       0.06180178 </v>
    <v>       0.75230364       0.70439007       0.06280262 </v>
    <v>       0.75165696       0.30074262       0.31182207 </v>
    <v>       0.00135510       0.71001342       0.31259353 </v>
    <v>       0.00291487       0.30085302       0.56111151 </v>
    <v>       0.25106881       0.71450777       0.56209616 </v>
    <v>       0.25141567       0.29018457       0.81275983 </v>
    <v>       0.49705880       0.70947235       0.81207222 </v>
    <v>       0.49693927       0.29063453       0.56350252 </v>
    <v>       0.74959635       0.69418087       0.56287947 </v>
    <v>       0.75001405       0.30042363       0.81368988 </v>
    <v>       0.00117876       0.69959665       0.81448392 </v>
    <v>       0.25072304       0.32809250       0.06301493 </v>
    <v>      -0.00030978       0.67245262       0.06223423 </v>
    <v>       0.50178096       0.32717925       0.31209553 </v>
    <v>       0.25072059       0.67227735       0.31168954 </v>
    <v>       0.74877555       0.32675211       0.06288940 </v>
    <v>       0.50108992       0.67267239       0.06367178 </v>
    <v>       0.99863365       0.32755408       0.31353549 </v>
    <v>       0.74874780       0.67321830       0.31356501 </v>
    <v>       0.24900108       0.32756019       0.56312062 </v>
    <v>      -0.00226253       0.67288189       0.56406635 </v>
    <v>       0.50170072       0.32725140       0.81378803 </v>
    <v>       0.24886533       0.67225956       0.81361220 </v>
    <v>       0.75079728       0.32694192       0.56285285 </v>
    <v>       0.50256251       0.67286342       0.56187384 </v>
    <v>       0.99851309       0.32731657       0.81159283 </v>
    <v>       0.75062841       0.67300736       0.81213590 </v>
    <v>       0.50697644       0.07390448       0.06554254 </v>
    <v>       0.24596013       0.92153380       0.06684307 </v>
    <v>       0.24877525       0.08210934       0.30520735 </v>
    <v>       0.00081015       0.91709620       0.31128064 </v>
    <v>       0.00622708       0.08208382       0.06377108 </v>
    <v>       0.74053701       0.92325029       0.06258730 </v>
    <v>       0.74318917       0.07308704       0.31560313 </v>
    <v>       0.50780802       0.92644511       0.30942299 </v>
    <v>       0.50866937       0.08075433       0.55995767 </v>
    <v>       0.24503455       0.91392876       0.56666444 </v>
    <v>       0.24244339       0.08196698       0.81093615 </v>
    <v>       0.00101102       0.92609091       0.80515479 </v>
    <v>       0.99524182       0.07341553       0.56929519 </v>
    <v>       0.75065150       0.93007707       0.56247451 </v>
    <v>       0.74825362       0.07415265       0.80882250 </v>
    <v>       0.50826982       0.91887827       0.81477966 </v>
   </varray>
  </structure>
  <varray name="forces" >
   <v>      -0.08030703       0.01895300       0.08466315 </v>
   <v>       0.51904156      -0.01219048      -0.46503914 </v>
   <v>       0.01055191       0.08567741       0.01131397 </v>
   <v>      -0.66452388       0.03966581       0.02522396 </v>
   <v>      -0.42886219       0.01088942       0.42044324 </v>
   <v>      -0.25210194      -0.06037718       0.17379787 </v>
   <v>       0.49686307       0.04452234       0.17227502 </v>
   <v>       0.52171533       0.10828867      -0.35544822 </v>
   <v>       0.04491663       0.00671062      -0.17014986 </v>
   <v>      -0.23468805      -0.01630917       0.36971852 </v>
   <v>      -0.11622009       0.98552093      -0.09911704 </v>
   <v>       0.09206120      -0.32229552      -0.09216458 </v>
   <v>       0.06740577       1.00373952       0.20974487 </v>
   <v>      -0.21758094       0.09170700       0.01392938 </v>
   <v>      -0.26324641      -0.06851224      -0.03830633 </v>
   <v>       0.23688661       0.02947732       0.01774650 </v>
   <v>       0.09383141      -0.18111998      -0.04453074 </v>
   <v>       0.06685114      -1.30928099       0.08718443 </v>
   <v>       0.13066878      -0.16713611      -0.06680914 </v>
   <v>       0.19273652      -2.44435642      -0.26843880 </v>
   <v>       0.20808556       0.98751364       0.11544774 </v>
   <v>      -0.37057719      -0.73545775      -0.04506021 </v>
   <v>      -0.31724227       0.65614547       0.04991303 </v>
   <v>       0.03763898       0.02304345      -0.02306166 </v>
   <v>       0.10651566       0.05612964       0.03028709 </v>
   <v>       0.08542036       0.10895935       0.07174936 </v>
   <v>       0.06936616       0.25083445       0.01660032 </v>
   <v>      -0.00136122      -0.10485458      -0.04727555 </v>
   <v>       0.17076364       0.19950816      -0.04439483 </v>
   <v>       0.07562699      -0.12838335      -0.16463953 </v>
   <v>      -0.15661256       0.06715213       0.00170936 </v>
   <v>       0.11553084      -0.22095298       0.06395979 </v>
   <v>      -0.09684963       0.07349922       0.04671354 </v>
   <v>      -0.12028812      -0.16042133       0.04785004 </v>
   <v>      -0.12973020       0.02491149       0.08626875 </v>
   <v>      -0.21702775      -0.22137479       0.13254906 </v>
   <v>       0.21247144       0.04944378       0.09693805 </v>
   <v>      -0.13748665      -0.11687790       0.05278499 </v>
   <v>       0.04407449       0.27966941      -0.00636893 </v>
   <v>       0.26775483      -0.04120035      -0.10725609 </v>
   <v>      -0.14724878       0.22498791      -0.14472472 </v>
   <v>       0.03927640      -0.15104707      -0.04533583 </v>
   <v>       0.86298832       0.46701346       0.29226589 </v>
   <v>      -0.74521720       0.20156876       0.78843142 </v>
   <v>      -0.28035885      -1.07397827      -1.26486227 </v>
   <v>       0.21900182       1.24104583      -0.27135140 </v>
   <v>       1.19636339      -1.06052194       0.29835386 </v>
   <v>      -1.19282685      -0.23979191      -0.24524806 </v>
   <v>      -0.85265375       0.51940886       0.50931831 </v>
   <v>       0.79373683      -0.50699528      -0.38889171 </v>
   <v>       1.01451830      -0.57230107      -0.01385140 </v>
   <v>      -0.59254668       2.43117689       0.57109841 </v>
   <v>      -1.14392617      -0.97987055      -0.18168051 </v>
   <v>       0.54737538      -0.45757657      -0.93584267 </v>
   <v>      -0.28702587       0.52426056       0.89483636 </v>
   <v>      -0.06037006      -0.55754391       0.01928674 </v>
   <v>      -0.57188999       0.36327516      -0.38904679 </v>
   <v>       1.13873100       0.73602801       0.14649299 </v>
  </varray>
  <varray name="stress" >
   <v>      11.55684902      -1.02388171      -1.33274411 </v>
   <v>      -1.02388164      10.76971771       2.08669944 </v>
   <v>      -1.33274407       2.08669932       7.31798738 </v>
  </varray>
  <energy>
   <i name="e_fr_energy">   -297.03976106 </i>
   <i name="e_wo_entrp">   -297.03976106 </i>
   <i name="e_0_energy">      0.00000000 </i>
  </energy>
  <time name="totalsc">  999.33  999.83</time>
 </calculation>
 <calculation>
  <scstep>
   <time name="dav">   66.23   66.33</time>
   <time name="total">   67.01   67.11</time>
   <energy>
    <i name="alphaZ">   1068.27578997 </i>
    <i name="ewald"> -30272.36032793 </i>
    <i name="hartreedc"> -12904.76038572 </i>
    <i name="XCdc">   1201.99937761 </i>
    <i name="pawpsdc">  43865.95300967 </i>
    <i name="pawaedc"> -43095.62140927 </i>
    <i name="eentropy">      0.00000000 </i>
    <i name="bandstr">  -3792.30189049 </i>
    <i name="atom">  43643.51795008 </i>
    <i name="e_fr_energy">   -285.29788609 </i>
    <i name="e_wo_entrp">   -285.29788609 </i>
    <i name="e_0_energy">   -285.29788609 </i>
   </energy>
  </scstep>
  <scstep>
   <time name="dav">   71.59   71.61</time>
   <time name="total">   72.37   72.39</time>
   <energy>
    <i name="e_fr_energy">   -285.31944833 </i>
    <i name="e_wo_entrp">   -285.31944833 </i>
    <i name="e_0_energy">   -285.31944833 </i>
   </energy>
  </scstep>
  <scstep>
   <time name="dav">   84.23   84.28</time>
   <time name="total">   85.01   85.06</time>
   <energy>
    <i name="e_fr_energy">   -285.31810325 </i>
    <i name="e_wo_entrp">   -285.31810325 </i>
    <i name="e_0_energy">   -285.31810325 </i>
   </energy>
  </scstep>
  <scstep>
   <time name="dav">   70.42   70.47</time>
   <time name="total">   71.19   71.25</time>
   <energy>
    <i name="e_fr_energy">   -285.31704655 </i>
    <i name="e_wo_entrp">   -285.31704655 </i>
    <i name="e_0_energy">   -285.31704655 </i>
   </energy>
  </scstep>
  <scstep>
   <time name="dav">   76.75   76.90</time>
   <time name="total">   77.53   77.68</time>
   <energy>
    <i name="e_fr_energy">   -285.31700214 </i>
    <i name="e_wo_entrp">   -285.31700214 </i>
    <i name="e_0_energy">   -285.31700214 </i>
   </energy>
  </scstep>
  <scstep>
   <time name="dav">   67.34   67.54</time>
   <time name="total">   68.12   68.32</time>
   <energy>
    <i name="e_fr_energy">   -285.31701044 </i>
    <i name="e_wo_entrp">   -285.31701044 </i>
    <i name="e_0_energy">   -285.31701044 </i>
   </energy>
  </scstep>
  <scstep>
   <time name="dav">   77.28   77.50</time>
   <time name="total">   78.06   78.29</time>
   <energy>
    <i name="e_fr_energy">   -285.31700908 </i>
    <i name="e_wo_entrp">   -285.31700908 </i>
    <i name="e_0_energy">   -285.31700908 </i>
   </energy>
  </scstep>
  <scstep>
   <time name="dav">   67.09   67.26</time>
   <time name="total">   67.88   68.05</time>
   <energy>
    <i name="e_fr_energy">   -285.31701161 </i>
    <i name="e_wo_entrp">   -285.31701161 </i>
    <i name="e_0_energy">   -285.31701161 </i>
   </energy>
  </scstep>
  <scstep>
   <time name="dav">   62.54   62.66</time>
   <time name="total">   62.61   62.73</time>
   <energy>
    <i name="alphaZ">   1068.27578997 </i>
    <i name="ewald"> -30272.36032793 </i>
    <i name="hartreedc"> -12896.85122802 </i>
    <i name="XCdc">   1201.66735813 </i>
    <i name="pawpsdc">  43898.67367198 </i>
    <i name="pawaedc"> -43128.66277492 </i>
    <i name="eentropy">      0.00000000 </i>
    <i name="bandstr">  -3799.57745057 </i>
    <i name="atom">  43643.51795008 </i>
    <i name="e_fr_energy">   -285.31701128 </i>
    <i name="e_wo_entrp">   -285.31701128 </i>
    <i name="e_0_energy">   -285.31701128 </i>
   </energy>
  </scstep>
  <structure>
   <crystal>
    <varray name="basis" >
     <v>      11.11926909       0.00240979       0.01385018 </v>
     <v>       0.00206403       9.49042626      -0.00495406 </v>
     <v>       0.01385502      -0.00578596      11.19196213 </v>
    </varray>
    <i name="volume">   1181.04755313 </i>
    <varray name="rec_basis" >
     <v>       0.08993411      -0.00001962      -0.00011134 </v>
     <v>      -0.00002290       0.10536938       0.00005450 </v>
     <v>      -0.00011130       0.00004667       0.08935000 </v>
    </varray>
   </crystal>
   <varray name="positions" >
    <v>       0.37267569       0.00049225       0.18762922 </v>
    <v>       0.88002102      -0.00020984       0.43255910 </v>
    <v>       0.12605500       0.00086857       0.93732982 </v>
    <v>       0.61897874       0.00018768       0.68777030 </v>
    <v>       0.12177700       0.00047221       0.19042709 </v>
    <v>       0.61924081       0.00168052       0.44058307 </v>
    <v>       0.62776465       0.99922714       0.18587022 </v>
    <v>       0.13529509       0.99930442       0.68376772 </v>
    <v>       0.62399564       0.99798887       0.93343300 </v>
    <v>       0.87354599       0.00071530       0.69083413 </v>
    <v>       0.00023731       0.28968001       0.06298698 </v>
    <v>       0.25037223       0.70467937       0.06192511 </v>
    <v>       0.24959897       0.28964809       0.31441541 </v>
    <v>       0.49665158       0.69892953       0.31387538 </v>
    <v>       0.49726408       0.30096098       0.06172544 </v>
    <v>       0.75247006       0.70435778       0.06280185 </v>
    <v>       0.75179379       0.30116905       0.31174613 </v>
    <v>       0.00146875       0.71041306       0.31257633 </v>
    <v>       0.00312816       0.30128788       0.56098215 </v>
    <v>       0.25114061       0.71525262       0.56204205 </v>
    <v>       0.25153408       0.28980007       0.81275495 </v>
    <v>       0.49684358       0.70983049       0.81201569 </v>
    <v>       0.49669499       0.29028471       0.56355538 </v>
    <v>       0.74955563       0.69336445       0.56288446 </v>
    <v>       0.75002493       0.30082566       0.81375625 </v>
    <v>       0.00127888       0.69919625       0.81461030 </v>
    <v>       0.25077454       0.32819408       0.06302671 </v>
    <v>      -0.00033725       0.67239289       0.06218660 </v>
    <v>       0.50192121       0.32721062       0.31203718 </v>
    <v>       0.25077971       0.67220411       0.31160034 </v>
    <v>       0.74867797       0.32675076       0.06289175 </v>
    <v>       0.50116947       0.67262958       0.06373346 </v>
    <v>       0.99853280       0.32761436       0.31358705 </v>
    <v>       0.74865569       0.67321745       0.31361878 </v>
    <v>       0.24892074       0.32762091       0.56314058 </v>
    <v>      -0.00243968       0.67285524       0.56415837 </v>
    <v>       0.50183466       0.32728839       0.81385854 </v>
    <v>       0.24878223       0.67218507       0.81366952 </v>
    <v>       0.75085449       0.32695511       0.56285225 </v>
    <v>       0.50275497       0.67283517       0.56179854 </v>
    <v>       0.99840318       0.32735852       0.81149651 </v>
    <v>       0.75068042       0.67299022       0.81208071 </v>
    <v>       0.50752029       0.07359144       0.06577644 </v>
    <v>       0.24566041       0.92149672       0.06717705 </v>
    <v>       0.24867212       0.08242623       0.30465551 </v>
    <v>       0.00086239       0.91671793       0.31119065 </v>
    <v>       0.00671361       0.08239898       0.06387045 </v>
    <v>       0.73982245       0.92334496       0.06259785 </v>
    <v>       0.74265756       0.07271147       0.31584285 </v>
    <v>       0.50839606       0.92678474       0.30919127 </v>
    <v>       0.50934323       0.08096716       0.55976650 </v>
    <v>       0.24466408       0.91330753       0.56698466 </v>
    <v>       0.24185498       0.08227330       0.81082095 </v>
    <v>       0.00107906       0.92640327       0.80459875 </v>
    <v>       0.99488694       0.07306531       0.56981577 </v>
    <v>       0.75071123       0.93069593       0.56247580 </v>
    <v>       0.74811034       0.07385854       0.80854565 </v>
    <v>       0.50889285       0.91863690       0.81495542 </v>
   </varray>
  </structure>
  <varray name="forces" >
   <v>      -0.05406190       0.01485735       0.07738620 </v>
   <v>       0.48265350      -0.00612266      -0.43000038 </v>
   <v>       0.00048771       0.07663705       0.00532203 </v>
   <v>      -0.62040428       0.03846787       0.01250521 </v>
   <v>      -0.41578815       0.00221252       0.39216565 </v>
   <v>      -0.15137610      -0.10568906       0.10566019 </v>
   <v>       0.48071316       0.06126945       0.20999324 </v>
   <v>       0.36963710       0.13613421      -0.31958019 </v>
   <v>       0.08069123       0.04027713      -0.11835971 </v>
   <v>      -0.24336755      -0.02655639       0.33130237 </v>
   <v>      -0.13425900       1.18261125      -0.11081212 </v>
   <v>       0.09556332      -0.34601235      -0.08445073 </v>
   <v>       0.07847902       1.20048249       0.20775675 </v>
   <v>      -0.17716674       0.16405970      -0.00322576 </v>
   <v>      -0.23244667      -0.13981139      -0.02237381 </v>
   <v>       0.21445870       0.04077548       0.01904158 </v>
   <v>       0.06624713      -0.26005894      -0.03007685 </v>
   <v>       0.04514146      -1.54756168       0.09923634 </v>
   <v>       0.08714151      -0.24599916      -0.03963604 </v>
   <v>       0.20973350      -2.96033938      -0.29247892 </v>
   <v>       0.20569413       1.17750992       0.12722335 </v>
   <v>      -0.35545641      -0.88792710      -0.03796679 </v>
   <v>      -0.29150562       0.79722224       0.04393203 </v>
   <v>       0.05083993       0.12997705      -0.02577408 </v>
   <v>       0.11180555      -0.00554531       0.01737821 </v>
   <v>       0.06714788       0.18097698       0.04584765 </v>
   <v>       0.06048955       0.24959055       0.01529946 </v>
   <v>       0.00608598      -0.10098795      -0.03919735 </v>
   <v>       0.15011502       0.20754815      -0.03405399 </v>
   <v>       0.06551125      -0.12255743      -0.15666901 </v>
   <v>      -0.14556616       0.07193151       0.00136055 </v>
   <v>       0.10526191      -0.22911751       0.05442150 </v>
   <v>      -0.07856032       0.06650180       0.03772743 </v>
   <v>      -0.10768473      -0.17131451       0.03870632 </v>
   <v>      -0.11933401       0.01331229       0.08905526 </v>
   <v>      -0.19031944      -0.23106172       0.12138620 </v>
   <v>       0.19655784       0.04510781       0.08719508 </v>
   <v>      -0.12813159      -0.10958098       0.04263149 </v>
   <v>       0.03445893       0.29736226      -0.00656457 </v>
   <v>       0.24038674      -0.03708443      -0.09740109 </v>
   <v>      -0.13200740       0.23306247      -0.13361057 </v>
   <v>       0.03034007      -0.15898803      -0.03555779 </v>
   <v>       0.79318910       0.55517354       0.25362671 </v>
   <v>      -0.73354969       0.22435804       0.77154750 </v>
   <v>      -0.27829776      -1.25670489      -1.23977311 </v>
   <v>       0.22236738       1.46710485      -0.27120236 </v>
   <v>       1.18146995      -1.24564463       0.29881221 </v>
   <v>      -1.10724335      -0.28749025      -0.27591977 </v>
   <v>      -0.78728831       0.61733659       0.49278150 </v>
   <v>       0.70742769      -0.60107386      -0.36025389 </v>
   <v>       0.92403836      -0.66308536       0.04835370 </v>
   <v>      -0.55749850       2.90324561       0.54067663 </v>
   <v>      -1.09882523      -1.14732968      -0.16452192 </v>
   <v>       0.57945813      -0.54407344      -0.87103162 </v>
   <v>      -0.21834512       0.61806885       0.83264069 </v>
   <v>      -0.07909364      -0.66925796       0.01995903 </v>
   <v>      -0.58548362       0.43771874      -0.35051492 </v>
   <v>       1.07946856       0.85608230       0.11007529 </v>
  </varray>
  <varray name="stress" >
   <v>      13.22048388      -1.21540752      -1.58624927 </v>
   <v>      -1.21540776      13.85156178       2.46972493 </v>
   <v>      -1.58624933       2.46972512       7.95696556 </v>
  </varray>
  <energy>
   <i name="e_fr_energy">   -297.04934170 </i>
   <i name="e_wo_entrp">   -297.04934170 </i>
   <i name="e_0_energy">      0.00000000 </i>
  </energy>
  <time name="totalsc">  757.79  759.22</time>
 </calculation>
 <calculation>
  <scstep>
   <time name="dav">   68.78   68.95</time>
   <time name="total">   69.56   69.73</time>
   <energy>
    <i name="alphaZ">   1052.82333759 </i>
    <i name="ewald"> -30228.67767165 </i>
    <i name="hartreedc"> -12731.63712117 </i>
    <i name="XCdc">   1192.90971200 </i>
    <i name="pawpsdc">  43898.69311034 </i>
    <i name="pawaedc"> -43128.68225949 </i>
    <i name="eentropy">      0.00000000 </i>
    <i name="bandstr">  -3982.66192164 </i>
    <i name="atom">  43643.51795008 </i>
    <i name="e_fr_energy">   -283.71486393 </i>
    <i name="e_wo_entrp">   -283.71486393 </i>
    <i name="e_0_energy">   -283.71486393 </i>
   </energy>
  </scstep>
  <scstep>
   <time name="dav">   69.16   69.30</time>
   <time name="total">   69.94   70.08</time>
   <energy>
    <i name="e_fr_energy">   -286.54797743 </i>
    <i name="e_wo_entrp">   -286.54797743 </i>
    <i name="e_0_energy">   -286.54797743 </i>
   </energy>
  </scstep>
  <scstep>
   <time name="dav">   80.58   80.78</time>
   <time name="total">   81.36   81.56</time>
   <energy>
    <i name="e_fr_energy">   -286.37697233 </i>
    <i name="e_wo_entrp">   -286.37697233 </i>
    <i name="e_0_energy">   -286.37697233 </i>
   </energy>
  </scstep>
  <scstep>
   <time name="dav">   75.30   75.42</time>
   <time name="total">   76.08   76.20</time>
   <energy>
    <i name="e_fr_energy">   -286.31027165 </i>
    <i name="e_wo_entrp">   -286.31027165 </i>
    <i name="e_0_energy">   -286.31027165 </i>
   </energy>
  </scstep>
  <scstep>
   <time name="dav">   75.01   75.18</time>
   <time name="total">   75.79   75.96</time>
   <energy>
    <i name="e_fr_energy">   -286.27414727 </i>
    <i name="e_wo_entrp">   -286.27414727 </i>
    <i name="e_0_energy">   -286.27414727 </i>
   </energy>
  </scstep>
  <scstep>
   <time name="dav">   72.84   73.07</time>
   <time name="total">   73.62   73.85</time>
   <energy>
    <i name="e_fr_energy">   -286.27254010 </i>
    <i name="e_wo_entrp">   -286.27254010 </i>
    <i name="e_0_energy">   -286.27254010 </i>
   </energy>
  </scstep>
  <scstep>
   <time name="dav">   72.32   72.55</time>
   <time name="total">   73.10   73.33</time>
   <energy>
    <i name="e_fr_energy">   -286.27247149 </i>
    <i name="e_wo_entrp">   -286.27247149 </i>
    <i name="e_0_energy">   -286.27247149 </i>
   </energy>
  </scstep>
  <scstep>
   <time name="dav">   88.24   88.45</time>
   <time name="total">   89.03   89.25</time>
   <energy>
    <i name="e_fr_energy">   -286.27232881 </i>
    <i name="e_wo_entrp">   -286.27232881 </i>
    <i name="e_0_energy">   -286.27232881 </i>
   </energy>
  </scstep>
  <scstep>
   <time name="dav">   69.38   69.58</time>
   <time name="total">   70.16   70.37</time>
   <energy>
    <i name="e_fr_energy">   -286.27232899 </i>
    <i name="e_wo_entrp">   -286.27232899 </i>
    <i name="e_0_energy">   -286.27232899 </i>
   </energy>
  </scstep>
  <scstep>
   <time name="dav">   83.47   83.67</time>
   <time name="total">   84.25   84.46</time>
   <energy>
    <i name="e_fr_energy">   -286.27233411 </i>
    <i name="e_wo_entrp">   -286.27233411 </i>
    <i name="e_0_energy">   -286.27233411 </i>
   </energy>
  </scstep>
  <scstep>
   <time name="dav">   64.75   64.92</time>
   <time name="total">   65.53   65.70</time>
   <energy>
    <i name="e_fr_energy">   -286.27234012 </i>
    <i name="e_wo_entrp">   -286.27234012 </i>
    <i name="e_0_energy">   -286.27234012 </i>
   </energy>
  </scstep>
  <scstep>
   <time name="dav">   64.56   64.73</time>
   <time name="total">   65.34   65.51</time>
   <energy>
    <i name="e_fr_energy">   -286.27234209 </i>
    <i name="e_wo_entrp">   -286.27234209 </i>
    <i name="e_0_energy">   -286.27234209 </i>
   </energy>
  </scstep>
  <scstep>
   <time name="dav">   57.29   57.36</time>
   <time name="total">   58.07   58.15</time>
   <energy>
    <i name="e_fr_energy">   -286.27234338 </i>
    <i name="e_wo_entrp">   -286.27234338 </i>
    <i name="e_0_energy">   -286.27234338 </i>
   </energy>
  </scstep>
  <scstep>
   <time name="dav">   44.04   44.10</time>
   <time name="total">   44.11   44.18</time>
   <energy>
    <i name="alphaZ">   1052.82333759 </i>
    <i name="ewald"> -30228.67767165 </i>
    <i name="hartreedc"> -12865.81969145 </i>
    <i name="XCdc">   1199.09712709 </i>
    <i name="pawpsdc">  43394.17050953 </i>
    <i name="pawaedc"> -42617.83857609 </i>
    <i name="eentropy">      0.00000000 </i>
    <i name="bandstr">  -3863.54532857 </i>
    <i name="atom">  43643.51795008 </i>
    <i name="e_fr_energy">   -286.27234347 </i>
    <i name="e_wo_entrp">   -286.27234347 </i>
    <i name="e_0_energy">   -286.27234347 </i>
   </energy>
  </scstep>
  <structure>
   <crystal>
    <varray name="basis" >
     <v>      11.17873473      -0.00467274       0.01043975 </v>
     <v>      -0.00399115       9.52688347       0.00693869 </v>
     <v>       0.01042151       0.00824037      11.25258876 </v>
    </varray>
    <i name="volume">   1198.38197232 </i>
    <varray name="rec_basis" >
     <v>       0.08945566       0.00003754      -0.00008288 </v>
     <v>       0.00004395       0.10496620      -0.00007691 </v>
     <v>      -0.00008302      -0.00006476       0.08886856 </v>
    </varray>
   </crystal>
   <varray name="positions" >
    <v>       0.37137965       0.00074635       0.18838198 </v>
    <v>       0.88468265      -0.00045330       0.42832961 </v>
    <v>       0.12642003       0.00182804       0.93760291 </v>
    <v>       0.61316819       0.00057854       0.68832126 </v>
    <v>       0.11839306       0.00083320       0.19408002 </v>
    <v>       0.61521093       0.00214650       0.44306762 </v>
    <v>       0.63160537       0.99920665       0.18624139 </v>
    <v>       0.14276556       0.99970973       0.68067516 </v>
    <v>       0.62359209       0.99718060       0.93104785 </v>
    <v>       0.87188826       0.00087971       0.69443970 </v>
    <v>      -0.00029555       0.29276232       0.06260032 </v>
    <v>       0.25092688       0.70282143       0.06107329 </v>
    <v>       0.24979378       0.29280625       0.31619260 </v>
    <v>       0.49411231       0.69655329       0.31443668 </v>
    <v>       0.49467457       0.30340350       0.06104236 </v>
    <v>       0.75469328       0.70431979       0.06287809 </v>
    <v>       0.75313733       0.30310411       0.31103026 </v>
    <v>       0.00254176       0.70549817       0.31287470 </v>
    <v>       0.00515131       0.30336022       0.55981408 </v>
    <v>       0.25262060       0.70569861       0.56033871 </v>
    <v>       0.25334815       0.29292185       0.81327565 </v>
    <v>       0.49362524       0.70800094       0.81141553 </v>
    <v>       0.49353296       0.29171087       0.56415706 </v>
    <v>       0.74946677       0.68776042       0.56280992 </v>
    <v>       0.75060085       0.30388687       0.81434151 </v>
    <v>       0.00234349       0.69705303       0.81578148 </v>
    <v>       0.25143632       0.33026280       0.06318434 </v>
    <v>      -0.00052124       0.67141252       0.06164901 </v>
    <v>       0.50366002       0.32852252       0.31143964 </v>
    <v>       0.25152351       0.67100822       0.31022897 </v>
    <v>       0.74728697       0.32711180       0.06291678 </v>
    <v>       0.50224427       0.67111814       0.06444422 </v>
    <v>       0.99741154       0.32842106       0.31414882 </v>
    <v>       0.74747359       0.67232709       0.31420142 </v>
    <v>       0.24777728       0.32815671       0.56368432 </v>
    <v>      -0.00463966       0.67145860       0.56539697 </v>
    <v>       0.50372910       0.32780545       0.81478057 </v>
    <v>       0.24757920       0.67104735       0.81429684 </v>
    <v>       0.75144560       0.32859105       0.56281934 </v>
    <v>       0.50529317       0.67242612       0.56079242 </v>
    <v>       0.99697780       0.32888352       0.81017340 </v>
    <v>       0.75121405       0.67203780       0.81150068 </v>
    <v>       0.51519087       0.07405044       0.06867926 </v>
    <v>       0.24012169       0.92237258       0.07312326 </v>
    <v>       0.24666212       0.07837302       0.29499051 </v>
    <v>       0.00224345       0.92138108       0.30931467 </v>
    <v>       0.01565553       0.07839214       0.06593178 </v>
    <v>       0.72945656       0.92258953       0.06147731 </v>
    <v>       0.73510164       0.07301324       0.31984645 </v>
    <v>       0.51603311       0.92629107       0.30582949 </v>
    <v>       0.51859168       0.07917982       0.55850289 </v>
    <v>       0.23935598       0.92351818       0.57181995 </v>
    <v>       0.23249580       0.07870729       0.80922007 </v>
    <v>       0.00415986       0.92599295       0.79651201 </v>
    <v>       0.99119297       0.07356602       0.57746052 </v>
    <v>       0.75082221       0.93199849       0.56257207 </v>
    <v>       0.74443217       0.07385676       0.80488963 </v>
    <v>       0.51843328       0.92119893       0.81678265 </v>
   </varray>
  </structure>
  <varray name="forces" >
   <v>       0.02347534       0.00045309      -0.00655019 </v>
   <v>       0.22453720      -0.01718872      -0.12798619 </v>
   <v>      -0.04059859       0.07160749       0.02747928 </v>
   <v>      -0.20124898       0.04141365      -0.09356003 </v>
   <v>      -0.16183817      -0.09913288       0.02279699 </v>
   <v>       0.86490958      -0.62300085      -0.71661196 </v>
   <v>       0.22713557       0.22910847       0.43468075 </v>
   <v>      -1.77158814       0.62297203       0.72970798 </v>
   <v>       0.47742316       0.44108495       0.52358281 </v>
   <v>      -0.28390547      -0.10619137      -0.00001830 </v>
[...]
       <r>    8.4266    0.0000 </r>
       <r>    8.4510    0.0000 </r>
       <r>    8.5383    0.0000 </r>
       <r>    8.6065    0.0000 </r>
       <r>    8.6569    0.0000 </r>
       <r>    8.7683    0.0000 </r>
       <r>    8.8102    0.0000 </r>
       <r>    9.8861    0.0000 </r>
       <r>    9.9517    0.0000 </r>
       <r>   10.0963    0.0000 </r>
       <r>   10.1509    0.0000 </r>
      </set>
     </set>
    </set>
   </array>
  </eigenvalues>
  <separator name="orbital magnetization" >
   <v name="MAGDIPOLOUT">      0.00000000      0.00000000      0.00000000</v>
  </separator>
  <dos>
   <i name="efermi">      3.88370758 </i>
   <total>
    <array>
     <dimension dim="1">gridpoints</dimension>
     <dimension dim="2">spin</dimension>
     <field>energy</field>
     <field>total</field>
     <field>integrated</field>
     <set>
      <set comment="spin 1">
       <r>   -42.8465     0.0000     0.0000 </r>
       <r>   -42.6614     0.0000     0.0000 </r>
       <r>   -42.4764     0.0000     0.0000 </r>
       <r>   -42.2913     0.0000     0.0000 </r>
       <r>   -42.1062     0.0000     0.0000 </r>
       <r>   -41.9212     0.0000     0.0000 </r>
       <r>   -41.7361     0.0000     0.0000 </r>
       <r>   -41.5510     0.0000     0.0000 </r>
       <r>   -41.3660     0.0000     0.0000 </r>
       <r>   -41.1809     0.0000     0.0000 </r>
       <r>   -40.9958     0.0000     0.0000 </r>
       <r>   -40.8107     0.0000     0.0000 </r>
       <r>   -40.6257     0.0000     0.0000 </r>
       <r>   -40.4406     0.0000     0.0000 </r>
       <r>   -40.2555     0.0000     2.0000 </r>
       <r>   -40.0705     0.0000     4.0000 </r>
       <r>   -39.8854     0.0000     4.0000 </r>
       <r>   -39.7003     0.0000     8.0000 </r>
       <r>   -39.5153     0.0000     8.0000 </r>
       <r>   -39.3302     0.0000     8.0000 </r>
       <r>   -39.1451     0.0000     8.0000 </r>
       <r>   -38.9600     0.0000     8.0000 </r>
       <r>   -38.7750     0.0000     8.0000 </r>
       <r>   -38.5899     0.0000     8.0000 </r>
       <r>   -38.4048     0.0000     8.0000 </r>
       <r>   -38.2198     0.0000     8.0000 </r>
       <r>   -38.0347     0.0000     8.0000 </r>
       <r>   -37.8496     0.0000     8.0000 </r>
       <r>   -37.6646     0.0000     8.0000 </r>
       <r>   -37.4795     0.0000     8.0000 </r>
       <r>   -37.2944     0.0000     8.0000 </r>
       <r>   -37.1093     0.0000     8.0000 </r>
       <r>   -36.9243     0.0000     8.0000 </r>
       <r>   -36.7392     0.0000     8.0000 </r>
       <r>   -36.5541     0.0000     8.0000 </r>
       <r>   -36.3691     0.0000     8.0000 </r>
       <r>   -36.1840     0.0000     8.0000 </r>
       <r>   -35.9989     0.0000     8.0000 </r>
       <r>   -35.8139     0.0000     8.0000 </r>
       <r>   -35.6288     0.0000     8.0000 </r>
       <r>   -35.4437     0.0000     8.0000 </r>
       <r>   -35.2586     0.0000     8.0000 </r>
       <r>   -35.0736     0.0000     8.0000 </r>
       <r>   -34.8885     0.0000     8.0000 </r>
       <r>   -34.7034     0.0000     8.0000 </r>
       <r>   -34.5184     0.0000     8.0000 </r>
       <r>   -34.3333     0.0000     8.0000 </r>
       <r>   -34.1482     0.0000     8.0000 </r>
       <r>   -33.9631     0.0000     8.0000 </r>
       <r>   -33.7781     0.0000     8.0000 </r>
       <r>   -33.5930     0.0000     8.0000 </r>
       <r>   -33.4079     0.0000     8.0000 </r>
       <r>   -33.2229     0.0000     8.0000 </r>
       <r>   -33.0378     0.0000     8.0000 </r>
       <r>   -32.8527     0.0000     8.0000 </r>
       <r>   -32.6677     0.0000     8.0000 </r>
       <r>   -32.4826     0.0000     8.0000 </r>
       <r>   -32.2975     0.0000     8.0000 </r>
       <r>   -32.1124     0.0000     8.0000 </r>
       <r>   -31.9274     0.0000     8.0000 </r>
       <r>   -31.7423     0.0000     8.0000 </r>
       <r>   -31.5572     0.0000     8.0000 </r>
       <r>   -31.3722     0.0000     8.0000 </r>
       <r>   -31.1871     0.0000     8.0000 </r>
       <r>   -31.0020     0.0000     8.0000 </r>
       <r>   -30.8170     0.0000     8.0000 </r>
       <r>   -30.6319     0.0000     8.0000 </r>
       <r>   -30.4468     0.0000     8.0000 </r>
       <r>   -30.2617     0.0000     8.0000 </r>
       <r>   -30.0767     0.0000     8.0000 </r>
       <r>   -29.8916     0.0000     8.0000 </r>
       <r>   -29.7065     0.0000     8.0000 </r>
       <r>   -29.5215     0.0000     8.0000 </r>
       <r>   -29.3364     0.0000     8.0000 </r>
       <r>   -29.1513     0.0000     8.0000 </r>
       <r>   -28.9663     0.0000     8.0000 </r>
       <r>   -28.7812     0.0000     8.0000 </r>
       <r>   -28.5961     0.0000     8.0000 </r>
       <r>   -28.4110     0.0000     8.0000 </r>
       <r>   -28.2260     0.0000     8.0000 </r>
       <r>   -28.0409     0.0000     8.0000 </r>
       <r>   -27.8558     0.0000     8.0000 </r>
       <r>   -27.6708     0.0000     8.0000 </r>
       <r>   -27.4857     0.0000     8.0000 </r>
       <r>   -27.3006     0.0000     8.0000 </r>
       <r>   -27.1156     0.0000     8.0000 </r>
       <r>   -26.9305     0.0000     8.0000 </r>
       <r>   -26.7454     0.0000     8.0000 </r>
       <r>   -26.5603     0.0000     8.0000 </r>
       <r>   -26.3753     0.0000     8.0000 </r>
       <r>   -26.1902     0.0000     8.0000 </r>
       <r>   -26.0051     0.0000     8.0000 </r>
       <r>   -25.8201     0.0000     8.0000 </r>
       <r>   -25.6350     0.0000     8.0000 </r>
       <r>   -25.4499     0.0000     8.0000 </r>
       <r>   -25.2648     0.0000     8.0000 </r>
       <r>   -25.0798     0.0000     8.0000 </r>
       <r>   -24.8947     0.0000     8.0000 </r>
       <r>   -24.7096     0.0000     8.0000 </r>
       <r>   -24.5246     0.0000     8.0000 </r>
       <r>   -24.3395     0.0000     8.0000 </r>
       <r>   -24.1544     0.0000     8.0000 </r>
       <r>   -23.9694     0.0000     8.0000 </r>
       <r>   -23.7843     0.0000     8.0000 </r>
       <r>   -23.5992     0.0000     8.0000 </r>
       <r>   -23.4141     0.0000     8.0000 </r>
       <r>   -23.2291     0.0000     8.0000 </r>
       <r>   -23.0440     0.0000     8.0000 </r>
       <r>   -22.8589     0.0000     8.0000 </r>
       <r>   -22.6739     0.0000     8.0000 </r>
       <r>   -22.4888     0.0000     8.0000 </r>
       <r>   -22.3037     0.0000     8.0000 </r>
       <r>   -22.1187     0.0000     8.0000 </r>
       <r>   -21.9336     0.0000     8.0000 </r>
       <r>   -21.7485     0.0000     8.0000 </r>
       <r>   -21.5634     0.0000     8.0000 </r>
       <r>   -21.3784     0.0000     8.0000 </r>
       <r>   -21.1933     0.0000     8.0000 </r>
       <r>   -21.0082     0.0000     8.0000 </r>
       <r>   -20.8232     0.0000     8.0000 </r>
       <r>   -20.6381     0.0000     8.0000 </r>
       <r>   -20.4530     0.0000     8.0000 </r>
       <r>   -20.2680     0.0000     8.0000 </r>
       <r>   -20.0829     0.0000     8.0000 </r>
       <r>   -19.8978     0.0000     8.0000 </r>
       <r>   -19.7127     0.0000     8.0000 </r>
       <r>   -19.5277     0.0000     8.0000 </r>
       <r>   -19.3426     0.0000     8.0000 </r>
       <r>   -19.1575     0.0000     8.0000 </r>
       <r>   -18.9725     0.0000    54.0000 </r>
       <r>   -18.7874     0.0000   140.0000 </r>
       <r>   -18.6023     0.0000   168.0000 </r>
       <r>   -18.4173     0.0000   168.0000 </r>
       <r>   -18.2322     0.0000   168.0000 </r>
       <r>   -18.0471     0.0000   168.0000 </r>
       <r>   -17.8620     0.0000   168.0000 </r>
       <r>   -17.6770     0.0000   168.0000 </r>
       <r>   -17.4919     0.0000   168.0000 </r>
       <r>   -17.3068     0.0000   168.0000 </r>
       <r>   -17.1218     0.0000   168.0000 </r>
       <r>   -16.9367     0.0000   168.0000 </r>
       <r>   -16.7516     0.0000   168.0000 </r>
       <r>   -16.5666     0.0000   168.0000 </r>
       <r>   -16.3815     0.0000   168.0000 </r>
       <r>   -16.1964     0.0000   168.0000 </r>
       <r>   -16.0113     0.0000   168.0000 </r>
       <r>   -15.8263     0.0000   168.0000 </r>
       <r>   -15.6412     0.0000   168.0000 </r>
       <r>   -15.4561     0.0000   168.0000 </r>
       <r>   -15.2711     0.0000   168.0000 </r>
       <r>   -15.0860     0.0000   168.0000 </r>
       <r>   -14.9009     0.0000   168.0000 </r>
       <r>   -14.7158     0.0000   168.0000 </r>
       <r>   -14.5308     0.0000   168.0000 </r>
       <r>   -14.3457     0.0000   168.0000 </r>
       <r>   -14.1606     0.0000   168.0000 </r>
       <r>   -13.9756     0.0000   168.0000 </r>
       <r>   -13.7905     0.0000   168.0000 </r>
       <r>   -13.6054     0.0000   168.0000 </r>
       <r>   -13.4204    91.4789   170.2672 </r>
       <r>   -13.2353     0.0000   174.0000 </r>
       <r>   -13.0502   256.9664   186.9861 </r>
       <r>   -12.8651     0.0000   196.0000 </r>
       <r>   -12.6801     0.0000   200.0000 </r>
       <r>   -12.4950     0.0000   200.0000 </r>
       <r>   -12.3099     0.0000   200.0000 </r>
       <r>   -12.1249     0.0000   200.0000 </r>
       <r>   -11.9398     0.0000   200.0000 </r>
       <r>   -11.7547     0.0000   200.0000 </r>
       <r>   -11.5697     0.0000   200.0000 </r>
       <r>   -11.3846     0.0000   200.0000 </r>
       <r>   -11.1995     0.0000   200.0000 </r>
       <r>   -11.0144     0.0000   200.0000 </r>
       <r>   -10.8294     0.0000   200.0000 </r>
       <r>   -10.6443     0.0000   200.0000 </r>
       <r>   -10.4592     0.0000   200.0000 </r>
       <r>   -10.2742     0.0000   200.0000 </r>
       <r>   -10.0891     0.0000   200.0000 </r>
       <r>    -9.9040     0.0000   200.0000 </r>
       <r>    -9.7190     0.0000   200.0000 </r>
       <r>    -9.5339     7.4983   200.3852 </r>
       <r>    -9.3488    15.9236   202.4750 </r>
       <r>    -9.1637     1.8659   203.9713 </r>
       <r>    -8.9787    25.7986   205.8300 </r>
       <r>    -8.7936    23.4498   208.6454 </r>
       <r>    -8.6085    22.0080   213.2011 </r>
       <r>    -8.4235     0.0000   216.0000 </r>
       <r>    -8.2384    39.4077   220.2354 </r>
       <r>    -8.0533    25.4927   225.8755 </r>
       <r>    -7.8683    19.9310   228.5323 </r>
       <r>    -7.6832     0.9386   231.9970 </r>
       <r>    -7.4981     0.0000   232.0000 </r>
       <r>    -7.3130     0.0000   232.0000 </r>
       <r>    -7.1280     0.0000   232.0000 </r>
       <r>    -6.9429     0.0000   232.0000 </r>
       <r>    -6.7578     0.0000   232.0000 </r>
       <r>    -6.5728     3.2197   232.0878 </r>
       <r>    -6.3877    30.9390   234.8671 </r>
       <r>    -6.2026     5.1343   239.9867 </r>
       <r>    -6.0175    32.8693   243.6689 </r>
       <r>    -5.8325    22.5319   248.3950 </r>
       <r>    -5.6474    23.7293   253.0969 </r>
       <r>    -5.4623     9.3092   255.6542 </r>
       <r>    -5.2773     3.8889   256.1939 </r>
       <r>    -5.0922    16.0376   258.1631 </r>
       <r>    -4.9071     3.0224   260.2088 </r>
       <r>    -4.7221     6.4493   261.0653 </r>
       <r>    -4.5370    11.8857   262.7198 </r>
       <r>    -4.3519     2.5494   263.6096 </r>
       <r>    -4.1668     0.9809   263.9359 </r>
       <r>    -3.9818     0.0001   264.0000 </r>
       <r>    -3.7967     0.0000   264.0000 </r>
       <r>    -3.6116     0.0000   264.0000 </r>
       <r>    -3.4266     0.0000   264.0000 </r>
       <r>    -3.2415     0.0000   264.0000 </r>
       <r>    -3.0564     0.0000   264.0000 </r>
       <r>    -2.8714     0.0000   264.0000 </r>
       <r>    -2.6863     0.0000   264.0000 </r>
       <r>    -2.5012     0.0000   264.0000 </r>
       <r>    -2.3161     0.0000   264.0000 </r>
       <r>    -2.1311     0.0000   264.0000 </r>
       <r>    -1.9460     0.0000   264.0000 </r>
       <r>    -1.7609     0.0000   264.0000 </r>
       <r>    -1.5759     0.0000   264.0000 </r>
       <r>    -1.3908     7.8706   264.5654 </r>
       <r>    -1.2057     6.7884   266.1145 </r>
       <r>    -1.0207    11.9928   267.6222 </r>
       <r>    -0.8356    13.0402   270.1178 </r>
       <r>    -0.6505    19.2221   272.5378 </r>
       <r>    -0.4654    42.8769   278.0059 </r>
       <r>    -0.2804    47.3498   285.1992 </r>
       <r>    -0.0953    36.7679   292.3832 </r>
       <r>     0.0898    40.0913   299.1041 </r>
       <r>     0.2748    27.1226   306.1058 </r>
       <r>     0.4599    31.8348   313.2363 </r>
       <r>     0.6450    42.3027   320.9925 </r>
       <r>     0.8300    46.4138   328.5331 </r>
       <r>     1.0151    40.3002   337.3264 </r>
       <r>     1.2002    46.4046   346.1585 </r>
       <r>     1.3853    41.0750   353.8917 </r>
       <r>     1.5703    47.1136   361.7153 </r>
       <r>     1.7554    44.2233   369.9936 </r>
       <r>     1.9405    49.2912   378.1953 </r>
       <r>     2.1255    63.6642   388.9438 </r>
       <r>     2.3106    53.3215   400.5340 </r>
       <r>     2.4957    72.4468   412.0981 </r>
       <r>     2.6808    81.2341   424.6096 </r>
       <r>     2.8658    53.1316   435.4608 </r>
       <r>     3.0509    35.1080   442.4337 </r>
       <r>     3.2360    28.1423   449.2597 </r>
       <r>     3.4210    16.5496   453.0978 </r>
       <r>     3.6061     7.5714   455.3135 </r>
       <r>     3.7912     0.5645   455.9888 </r>
       <r>     3.9762     0.0000   456.0000 </r>
       <r>     4.1613     0.0000   456.0000 </r>
       <r>     4.3464     0.0000   456.0000 </r>
       <r>     4.5315     0.0000   456.0000 </r>
       <r>     4.7165     0.0000   456.0000 </r>
       <r>     4.9016     0.3222   456.0065 </r>
       <r>     5.0867     6.0666   456.5192 </r>
       <r>     5.2717    11.3682   458.2538 </r>
       <r>     5.4568    23.3980   460.1950 </r>
       <r>     5.6419    21.5546   463.9637 </r>
       <r>     5.8269    14.4020   467.1270 </r>
       <r>     6.0120    13.6171   469.6907 </r>
       <r>     6.1971    14.3618   472.2734 </r>
       <r>     6.3822    16.0392   475.0751 </r>
       <r>     6.5672    19.9737   478.3532 </r>
       <r>     6.7523    22.2507   482.3725 </r>
       <r>     6.9374    22.7859   486.5303 </r>
       <r>     7.1224    40.4974   491.4570 </r>
       <r>     7.3075    31.8931   498.1763 </r>
       <r>     7.4926    36.7642   504.1628 </r>
       <r>     7.6776    31.6750   510.4690 </r>
       <r>     7.8627    31.8092   516.5314 </r>
       <r>     8.0478    26.1629   521.8304 </r>
       <r>     8.2329    26.5014   526.6919 </r>
       <r>     8.4179    37.2751   532.3158 </r>
       <r>     8.6030    32.6210   539.2710 </r>
       <r>     8.7881    23.4533   544.6047 </r>
       <r>     8.9731    19.0759   548.5392 </r>
       <r>     9.1582     7.8209   550.9935 </r>
       <r>     9.3433     8.1149   552.2099 </r>
       <r>     9.5283    10.3839   553.5411 </r>
       <r>     9.7134    11.2983   555.5178 </r>
       <r>     9.8985    14.7323   557.8850 </r>
       <r>    10.0836     2.4326   559.9462 </r>
       <r>    10.2686     0.0000   560.0000 </r>
       <r>    10.4537     0.0000   560.0000 </r>
       <r>    10.6388     0.0000   560.0000 </r>
       <r>    10.8238     0.0000   560.0000 </r>
       <r>    11.0089     0.0000   560.0000 </r>
       <r>    11.1940     0.0000   560.0000 </r>
       <r>    11.3791     0.0000   560.0000 </r>
       <r>    11.5641     0.0000   560.0000 </r>
       <r>    11.7492     0.0000   560.0000 </r>
       <r>    11.9343     0.0000   560.0000 </r>
       <r>    12.1193     0.0000   560.0000 </r>
       <r>    12.3044     0.0000   560.0000 </r>
       <r>    12.4895     0.0000   560.0000 </r>
       <r>    12.6745     0.0000   560.0000 </r>
      </set>
     </set>
    </array>
   </total>
  </dos>
 </calculation>
 <structure name="finalpos" >
  <crystal>
   <varray name="basis" >
    <v>      11.26818938      -0.09740050       0.01863955 </v>
    <v>      -0.08211109       9.68459258       0.00144268 </v>
    <v>       0.01743108       0.00539467      11.25418455 </v>
   </varray>
   <i name="volume">   1228.05141066 </i>
   <varray name="rec_basis" >
    <v>       0.08875213       0.00075251      -0.00013782 </v>
    <v>       0.00089269       0.10326437      -0.00005088 </v>
    <v>      -0.00014711      -0.00001448       0.08885607 </v>
   </varray>
  </crystal>
  <varray name="positions" >
   <v>       0.38515081      -0.00398349       0.20628475 </v>
   <v>       0.05707587      -0.01863726       0.47067775 </v>
   <v>       0.19560505       0.02864513       0.97072662 </v>
   <v>       0.46935903       0.02257472       0.70368642 </v>
   <v>       0.13595538      -0.00507119       0.20367669 </v>
   <v>       0.62846172      -0.00358193       0.44980174 </v>
   <v>       0.64294309      -0.00374174       0.18862582 </v>
   <v>       0.10608478       0.01227658       0.70571758 </v>
   <v>       0.62856939      -0.00160925       0.92902825 </v>
   <v>       0.84307157      -0.00217626       0.68867825 </v>
   <v>       0.01201731       0.28429866       0.06173122 </v>
   <v>       0.25026411       0.69651300       0.06583723 </v>
   <v>       0.25279271       0.31158724       0.30803502 </v>
   <v>       0.50377905       0.68733544       0.31093639 </v>
   <v>       0.50535867       0.30222334       0.05991845 </v>
   <v>       0.74748614       0.68508145       0.05782555 </v>
   <v>       0.75039434       0.31193742       0.31160044 </v>
   <v>       0.00531342       0.69068601       0.30731033 </v>
   <v>      -0.00385430       0.31199475       0.56384806 </v>
   <v>       0.23314076       0.72302723       0.56186974 </v>
   <v>       0.24213176       0.31825477       0.80748318 </v>
   <v>       0.49468063       0.69311203       0.81271757 </v>
   <v>       0.49760765       0.30144447       0.55516497 </v>
   <v>       0.74342317       0.68886230       0.55920495 </v>
   <v>       0.74486611       0.30837363       0.81035596 </v>
   <v>      -0.00822393       0.68874281       0.80912014 </v>
   <v>       0.24137932       0.36728323       0.05238720 </v>
   <v>       0.00126850       0.67729737       0.05592673 </v>
   <v>       0.50065046       0.35785463       0.30438287 </v>
   <v>       0.24926300       0.64665190       0.30588515 </v>
   <v>       0.74226737       0.34800609       0.05310575 </v>
   <v>       0.50068168       0.63575536       0.05311107 </v>
   <v>      -0.00073618       0.32787722       0.30327796 </v>
   <v>       0.74767379       0.65264415       0.30383446 </v>
   <v>       0.24351282       0.31966993       0.55700260 </v>
   <v>       0.00319646       0.63374295       0.55449697 </v>
   <v>       0.49162508       0.29403087       0.80566264 </v>
   <v>       0.24496908       0.68690211       0.80353066 </v>
   <v>       0.74419642       0.35107900       0.55387922 </v>
   <v>       0.50303974       0.66440617       0.55343358 </v>
   <v>       0.99080679       0.36022511       0.80326497 </v>
   <v>       0.74382894       0.64422347       0.80407401 </v>
   <v>       0.53703110       0.08761539       0.07065968 </v>
   <v>       0.26032220       0.90894876       0.09700146 </v>
   <v>       0.26383095       0.10332343       0.28092233 </v>
   <v>       0.03475400       0.90068683       0.32097818 </v>
   <v>       0.06164692       0.08420546       0.06772702 </v>
   <v>       0.71441732       0.89602465       0.05556261 </v>
   <v>       0.71570813       0.09973051       0.32052219 </v>
   <v>       0.53204916       0.90621490       0.30676036 </v>
   <v>       0.51670415       0.09095087       0.55429603 </v>
   <v>       0.18449048       0.92405077       0.57078163 </v>
   <v>       0.21040348       0.10726668       0.81775628 </v>
   <v>      -0.02669068       0.89764720       0.77171627 </v>
   <v>       0.97956474       0.09630354       0.59866854 </v>
   <v>       0.74360916       0.90643977       0.56230502 </v>
   <v>       0.74436459       0.09083361       0.81315195 </v>
   <v>       0.51593678       0.90332822       0.82293152 </v>
  </varray>
 </structure>
</modeling>
