<?xml version="1.0" encoding="ISO-8859-1"?>
<modeling>
 <generator>
  <i name="program" type="string">vasp </i>
  <i name="version" type="string">5.4.4.18Apr17-6-g9f103f2a35  </i>
  <i name="subversion" type="string">(build Jul 31 2017 11:33:29) complex            parallel </i>
  <i name="platform" type="string">LinuxIFC </i>
  <i name="date" type="string">2021 09 29 </i>
  <i name="time" type="string">08:49:47 </i>
 </generator>
 <incar>
  <i type="string" name="SYSTEM"> La2O2S</i>
  <i type="string" name="PREC">normal</i>
  <i type="int" name="NELMIN">     4</i>
  <i type="int" name="IBRION">     2</i>
  <i type="int" name="NFREE">    10</i>
  <i name="EDIFF">      0.00000100</i>
  <i name="EDIFFG">     -0.01000000</i>
  <i type="int" name="NSW">     1</i>
  <i type="int" name="ISIF">     2</i>
  <i name="ENCUT">    600.00000000</i>
  <i name="ENAUG">    900.00000000</i>
  <i type="int" name="ISMEAR">    -5</i>
  <i type="logical" name="LWAVE"> F  </i>
  <i type="logical" name="LCHARG"> F  </i>
  <v type="int" name="KPOINT_BSE">    -1     0     0     0</v>
 </incar>
 <structure name="primitive_cell" >
  <crystal>
   <varray name="basis" >
    <v>      11.17850000       0.00000000       0.00000000 </v>
    <v>       0.00000000       9.57460000       0.00000000 </v>
    <v>       0.00000000       0.00000000      11.18240000 </v>
   </varray>
   <i name="volume">   1196.84853820 </i>
   <varray name="rec_basis" >
    <v>       0.08945744       0.00000000       0.00000000 </v>
    <v>       0.00000000       0.10444301       0.00000000 </v>
    <v>       0.00000000       0.00000000       0.08942624 </v>
   </varray>
  </crystal>
  <varray name="positions" >
   <v>       0.37461000       0.00017000      -0.31313000 </v>
   <v>       0.24987000      -0.07798000      -0.43754000 </v>
   <v>       0.49987000       0.07798000      -0.43754000 </v>
   <v>       0.25013000       0.07798000      -0.18754000 </v>
   <v>      -0.49987000      -0.07798000      -0.18754000 </v>
   <v>      -0.37539000      -0.00016000      -0.31313000 </v>
   <v>       0.12461000      -0.00016000      -0.31313000 </v>
   <v>       0.37539000       0.00017000      -0.06313000 </v>
   <v>       0.25013000      -0.29519000      -0.43719000 </v>
   <v>      -0.49987000       0.29519000      -0.43719000 </v>
   <v>       0.24987000       0.29519000      -0.18718000 </v>
   <v>       0.49987000      -0.29519000      -0.18718000 </v>
   <v>       0.25005000       0.32677000      -0.43714000 </v>
   <v>      -0.49995000      -0.32677000      -0.43714000 </v>
   <v>       0.24995000      -0.32677000      -0.18714000 </v>
   <v>       0.49995000       0.32677000      -0.18714000 </v>
   <v>      -0.37461000      -0.00016000       0.43687000 </v>
   <v>       0.25013000       0.07798000       0.31246000 </v>
   <v>      -0.00013000       0.07798000      -0.43754000 </v>
   <v>       0.00013000      -0.07798000      -0.18754000 </v>
   <v>      -0.49987000      -0.07798000       0.31246000 </v>
   <v>      -0.25013000      -0.07798000      -0.43754000 </v>
   <v>       0.24987000      -0.07798000       0.06246000 </v>
   <v>      -0.24987000       0.07798000      -0.18754000 </v>
   <v>       0.49987000       0.07798000       0.06246000 </v>
   <v>       0.24987000       0.29519000       0.31282000 </v>
   <v>       0.00013000       0.29519000      -0.43719000 </v>
   <v>       0.49987000      -0.29519000       0.31282000 </v>
   <v>      -0.00013000      -0.29519000      -0.18718000 </v>
   <v>      -0.24987000      -0.29519000      -0.43719000 </v>
   <v>      -0.25013000       0.29519000      -0.18718000 </v>
   <v>       0.25013000      -0.29519000       0.06281000 </v>
   <v>      -0.49987000       0.29519000       0.06281000 </v>
   <v>       0.24995000      -0.32677000       0.31286000 </v>
   <v>       0.49995000       0.32677000       0.31286000 </v>
   <v>       0.00005000      -0.32677000      -0.43714000 </v>
   <v>      -0.00005000       0.32677000      -0.18714000 </v>
   <v>      -0.24995000       0.32677000      -0.43714000 </v>
   <v>      -0.25005000      -0.32677000      -0.18714000 </v>
   <v>       0.25005000       0.32677000       0.06286000 </v>
   <v>      -0.49995000      -0.32677000       0.06286000 </v>
   <v>       0.00013000      -0.07798000       0.31246000 </v>
   <v>      -0.24987000       0.07798000       0.31246000 </v>
   <v>      -0.00013000       0.07798000       0.06246000 </v>
   <v>      -0.25013000      -0.07798000       0.06246000 </v>
   <v>      -0.12461000       0.00017000       0.43687000 </v>
   <v>      -0.12461000       0.00017000      -0.06313000 </v>
   <v>       0.12461000      -0.00016000       0.18687000 </v>
   <v>      -0.37539000      -0.00016000       0.18687000 </v>
   <v>      -0.00013000      -0.29519000       0.31282000 </v>
   <v>      -0.25013000       0.29519000       0.31282000 </v>
   <v>       0.00013000       0.29519000       0.06281000 </v>
   <v>      -0.24987000      -0.29519000       0.06281000 </v>
   <v>      -0.00005000       0.32677000       0.31286000 </v>
   <v>      -0.25005000      -0.32677000       0.31286000 </v>
   <v>       0.00005000      -0.32677000       0.06286000 </v>
   <v>      -0.24995000       0.32677000       0.06286000 </v>
  </varray>
 </structure>
 <varray name="primitive_index" >
  <v type="int" >        1 </v>
  <v type="int" >       51 </v>
  <v type="int" >       50 </v>
  <v type="int" >       52 </v>
  <v type="int" >       57 </v>
  <v type="int" >        2 </v>
  <v type="int" >        8 </v>
  <v type="int" >        7 </v>
  <v type="int" >       19 </v>
  <v type="int" >       22 </v>
  <v type="int" >       20 </v>
  <v type="int" >       21 </v>
  <v type="int" >       34 </v>
  <v type="int" >       39 </v>
  <v type="int" >       37 </v>
  <v type="int" >       36 </v>
  <v type="int" >        4 </v>
  <v type="int" >       44 </v>
  <v type="int" >       54 </v>
  <v type="int" >       53 </v>
  <v type="int" >       49 </v>
  <v type="int" >       55 </v>
  <v type="int" >       43 </v>
  <v type="int" >       56 </v>
  <v type="int" >       42 </v>
  <v type="int" >       12 </v>
  <v type="int" >       18 </v>
  <v type="int" >       13 </v>
  <v type="int" >       25 </v>
  <v type="int" >       23 </v>
  <v type="int" >       24 </v>
  <v type="int" >       11 </v>
  <v type="int" >       14 </v>
  <v type="int" >       29 </v>
  <v type="int" >       28 </v>
  <v type="int" >       35 </v>
  <v type="int" >       40 </v>
  <v type="int" >       38 </v>
  <v type="int" >       41 </v>
  <v type="int" >       26 </v>
  <v type="int" >       31 </v>
  <v type="int" >       45 </v>
  <v type="int" >       48 </v>
  <v type="int" >       46 </v>
  <v type="int" >       47 </v>
  <v type="int" >        5 </v>
  <v type="int" >        9 </v>
  <v type="int" >        3 </v>
  <v type="int" >        6 </v>
  <v type="int" >       17 </v>
  <v type="int" >       16 </v>
  <v type="int" >       10 </v>
  <v type="int" >       15 </v>
  <v type="int" >       32 </v>
  <v type="int" >       33 </v>
  <v type="int" >       27 </v>
  <v type="int" >       30 </v>
 </varray>
 <kpoints>
  <generation param="Gamma">
   <v type="int" name="divisions">       2        2        2 </v>
   <v name="usershift">      0.00000000       0.00000000       0.00000000 </v>
   <v name="genvec1">      0.50000000       0.00000000       0.00000000 </v>
   <v name="genvec2">      0.00000000       0.50000000       0.00000000 </v>
   <v name="genvec3">      0.00000000       0.00000000       0.50000000 </v>
   <v name="shift">      0.00000000       0.00000000       0.00000000 </v>
  </generation>
  <varray name="kpointlist" >
   <v>       0.00000000       0.00000000       0.00000000 </v>
   <v>       0.50000000       0.00000000       0.00000000 </v>
   <v>       0.00000000       0.50000000       0.00000000 </v>
   <v>       0.50000000       0.50000000       0.00000000 </v>
   <v>       0.00000000       0.00000000       0.50000000 </v>
   <v>       0.50000000       0.00000000       0.50000000 </v>
   <v>       0.00000000       0.50000000       0.50000000 </v>
   <v>       0.50000000       0.50000000       0.50000000 </v>
  </varray>
  <varray name="weights" >
   <v>       0.12500000 </v>
   <v>       0.12500000 </v>
   <v>       0.12500000 </v>
   <v>       0.12500000 </v>
   <v>       0.12500000 </v>
   <v>       0.12500000 </v>
   <v>       0.12500000 </v>
   <v>       0.12500000 </v>
  </varray>
  <varray name="tetrahedronlist"  type="int" >
   <v type="int" >        2        1        2        4        5 </v>
   <v type="int" >        2        1        3        4        5 </v>
   <v type="int" >        2        3        4        5        7 </v>
   <v type="int" >        2        2        4        5        6 </v>
   <v type="int" >        2        4        5        6        8 </v>
   <v type="int" >        2        4        5        7        8 </v>
   <v type="int" >        2        1        2        3        6 </v>
   <v type="int" >        2        2        3        4        6 </v>
   <v type="int" >        2        3        4        6        8 </v>
   <v type="int" >        2        1        3        5        6 </v>
   <v type="int" >        2        3        5        6        7 </v>
   <v type="int" >        2        3        6        7        8 </v>
   <v type="int" >        2        2        3        4        7 </v>
   <v type="int" >        2        1        2        3        7 </v>
   <v type="int" >        2        1        2        5        7 </v>
   <v type="int" >        2        2        4        7        8 </v>
   <v type="int" >        2        2        6        7        8 </v>
   <v type="int" >        2        2        5        6        7 </v>
   <v type="int" >        2        1        3        4        8 </v>
   <v type="int" >        2        1        2        4        8 </v>
   <v type="int" >        2        1        2        6        8 </v>
   <v type="int" >        2        1        3        7        8 </v>
   <v type="int" >        2        1        5        7        8 </v>
   <v type="int" >        2        1        5        6        8 </v>
  </varray>
  <i name="volumeweight">      0.02083333 </i>
 </kpoints>
 <parameters>
  <separator name="general" >
   <i type="string" name="SYSTEM">La2O2S</i>
   <i type="logical" name="LCOMPAT"> F  </i>
  </separator>
  <separator name="electronic" >
   <i type="string" name="PREC">normal</i>
   <i name="ENMAX">    600.00000000</i>
   <i name="ENAUG">    900.00000000</i>
   <i name="EDIFF">      0.00000100</i>
   <i type="int" name="IALGO">    38</i>
   <i type="int" name="IWAVPR">    11</i>
   <i type="int" name="NBANDS">   280</i>
   <i name="NELECT">    452.00000000</i>
   <i type="int" name="TURBO">     0</i>
   <i type="int" name="IRESTART">     0</i>
   <i type="int" name="NREBOOT">     0</i>
   <i type="int" name="NMIN">     0</i>
   <i name="EREF">      0.00000000</i>
   <separator name="electronic smearing" >
    <i type="int" name="ISMEAR">    -5</i>
    <i name="SIGMA">      0.20000000</i>
    <i name="KSPACING">      0.50000000</i>
    <i type="logical" name="KGAMMA"> T  </i>
   </separator>
   <separator name="electronic projectors" >
    <i type="logical" name="LREAL"> F  </i>
    <v name="ROPT">      0.00000000      0.00000000      0.00000000      0.00000000      0.00000000</v>
    <i type="int" name="LMAXPAW">  -100</i>
    <i type="int" name="LMAXMIX">     2</i>
    <i type="logical" name="NLSPLINE"> F  </i>
   </separator>
   <separator name="electronic startup" >
    <i type="int" name="ISTART">     0</i>
    <i type="int" name="ICHARG">     2</i>
    <i type="int" name="INIWAV">     1</i>
   </separator>
   <separator name="electronic spin" >
    <i type="int" name="ISPIN">     1</i>
    <i type="logical" name="LNONCOLLINEAR"> F  </i>
    <v name="MAGMOM">      1.00000000      1.00000000      1.00000000      1.00000000      1.00000000      1.00000000      1.00000000      1.00000000      1.00000000      1.00000000      1.00000000      1.00000000      1.00000000      1.00000000      1.00000000      1.00000000      1.00000000      1.00000000      1.00000000      1.00000000
      1.00000000      1.00000000      1.00000000      1.00000000      1.00000000      1.00000000      1.00000000      1.00000000      1.00000000      1.00000000      1.00000000      1.00000000      1.00000000      1.00000000      1.00000000      1.00000000      1.00000000      1.00000000      1.00000000      1.00000000
      1.00000000      1.00000000      1.00000000      1.00000000      1.00000000      1.00000000      1.00000000      1.00000000      1.00000000      1.00000000      1.00000000      1.00000000      1.00000000      1.00000000      1.00000000      1.00000000      1.00000000</v>
    <i name="NUPDOWN">     -1.00000000</i>
    <i type="logical" name="LSORBIT"> F  </i>
    <v name="SAXIS">      0.00000000      0.00000000      1.00000000</v>
    <i type="logical" name="LSPIRAL"> F  </i>
    <v name="QSPIRAL">      0.00000000      0.00000000      0.00000000</v>
    <i type="logical" name="LZEROZ"> F  </i>
   </separator>
   <separator name="electronic exchange-correlation" >
    <i type="logical" name="LASPH"> F  </i>
    <i type="logical" name="LMETAGGA"> F  </i>
   </separator>
   <separator name="electronic convergence" >
    <i type="int" name="NELM">    60</i>
    <i type="int" name="NELMDL">    -5</i>
    <i type="int" name="NELMIN">     4</i>
    <i name="ENINI">    600.00000000</i>
    <separator name="electronic convergence detail" >
     <i type="logical" name="LDIAG"> T  </i>
     <i type="logical" name="LSUBROT"> F  </i>
     <i name="WEIMIN">      0.00100000</i>
     <i name="EBREAK">      0.00000000</i>
     <i name="DEPER">      0.30000000</i>
     <i type="int" name="NRMM">     4</i>
     <i name="TIME">      0.40000000</i>
    </separator>
   </separator>
   <separator name="electronic mixer" >
    <i name="AMIX">      0.40000000</i>
    <i name="BMIX">      1.00000000</i>
    <i name="AMIN">      0.10000000</i>
    <i name="AMIX_MAG">      1.60000000</i>
    <i name="BMIX_MAG">      1.00000000</i>
    <separator name="electronic mixer details" >
     <i type="int" name="IMIX">     4</i>
     <i type="logical" name="MIXFIRST"> F  </i>
     <i type="int" name="MAXMIX">   -45</i>
     <i name="WC">    100.00000000</i>
     <i type="int" name="INIMIX">     1</i>
     <i type="int" name="MIXPRE">     1</i>
     <i type="int" name="MREMOVE">     5</i>
    </separator>
   </separator>
   <separator name="electronic dipolcorrection" >
    <i type="logical" name="LDIPOL"> F  </i>
    <i type="logical" name="LMONO"> F  </i>
    <i type="int" name="IDIPOL">     0</i>
    <i name="EPSILON">      1.00000000</i>
    <v name="DIPOL">   -100.00000000   -100.00000000   -100.00000000</v>
    <i name="EFIELD">      0.00000000</i>
   </separator>
  </separator>
  <separator name="grids" >
   <i type="int" name="NGX">    70</i>
   <i type="int" name="NGY">    60</i>
   <i type="int" name="NGZ">    70</i>
   <i type="int" name="NGXF">   140</i>
   <i type="int" name="NGYF">   120</i>
   <i type="int" name="NGZF">   140</i>
   <i type="logical" name="ADDGRID"> F  </i>
  </separator>
  <separator name="ionic" >
   <i type="int" name="NSW">     1</i>
   <i type="int" name="IBRION">     2</i>
   <i type="int" name="MDALGO">     0</i>
   <i type="int" name="ISIF">     2</i>
   <i name="PSTRESS">      0.00000000</i>
   <i name="EDIFFG">     -0.01000000</i>
   <i type="int" name="NFREE">    10</i>
   <i name="POTIM">      0.50000000</i>
   <i name="SMASS">     -3.00000000</i>
   <i name="SCALEE">      1.00000000</i>
  </separator>
  <separator name="ionic md" >
   <i name="TEBEG">      0.00010000</i>
   <i name="TEEND">      0.00010000</i>
   <i type="int" name="NBLOCK">     1</i>
   <i type="int" name="KBLOCK">     1</i>
   <i type="int" name="NPACO">   256</i>
   <i name="APACO">     16.00000000</i>
  </separator>
  <separator name="symmetry" >
   <i type="int" name="ISYM">     2</i>
   <i name="SYMPREC">      0.00001000</i>
  </separator>
  <separator name="dos" >
   <i type="int" name="LORBIT">     0</i>
   <v name="RWIGS">     -1.00000000     -1.00000000     -1.00000000     -1.00000000     -1.00000000</v>
   <i type="int" name="NEDOS">   301</i>
   <i name="EMIN">     10.00000000</i>
   <i name="EMAX">    -10.00000000</i>
   <i name="EFERMI">      0.00000000</i>
  </separator>
  <separator name="writing" >
   <i type="int" name="NWRITE">     2</i>
   <i type="logical" name="LWAVE"> F  </i>
   <i type="logical" name="LDOWNSAMPLE"> F  </i>
   <i type="logical" name="LCHARG"> F  </i>
   <i type="logical" name="LPARD"> F  </i>
   <i type="logical" name="LVTOT"> F  </i>
   <i type="logical" name="LVHAR"> F  </i>
   <i type="logical" name="LELF"> F  </i>
   <i type="logical" name="LOPTICS"> F  </i>
   <v name="STM">      0.00000000      0.00000000      0.00000000      0.00000000      0.00000000      0.00000000      0.00000000</v>
  </separator>
  <separator name="performance" >
   <i type="int" name="NPAR">    28</i>
   <i type="int" name="NSIM">     4</i>
   <i type="int" name="NBLK">    -1</i>
   <i type="logical" name="LPLANE"> T  </i>
   <i type="logical" name="LSCALAPACK"> T  </i>
   <i type="logical" name="LSCAAWARE"> F  </i>
   <i type="logical" name="LSCALU"> F  </i>
   <i type="logical" name="LASYNC"> F  </i>
   <i type="logical" name="LORBITALREAL"> F  </i>
  </separator>
  <separator name="miscellaneous" >
   <i type="int" name="IDIOT">     3</i>
   <i type="int" name="ISPECIAL">     0</i>
   <i type="logical" name="LMUSIC"> F  </i>
   <v name="POMASS">      7.01000000     24.30500000    208.98000000     32.06600000     16.00000000</v>
   <v name="DARWINR">      0.00000000      0.00000000      0.00000000      0.00000000      0.00000000</v>
   <v name="DARWINV">      1.00000000      1.00000000      1.00000000      1.00000000      1.00000000</v>
   <i type="logical" name="LCORR"> T  </i>
  </separator>
  <i type="logical" name="GGA_COMPAT"> T  </i>
  <i type="logical" name="LBERRY"> F  </i>
  <i type="int" name="ICORELEVEL">     0</i>
  <i type="logical" name="LDAU"> F  </i>
  <i type="int" name="I_CONSTRAINED_M">     0</i>
  <separator name="electronic exchange-correlation" >
   <i type="string" name="GGA">--</i>
   <i type="int" name="VOSKOWN">     0</i>
   <i type="logical" name="LHFCALC"> F  </i>
   <i type="string" name="PRECFOCK"></i>
   <i type="logical" name="LSYMGRAD"> F  </i>
   <i type="logical" name="LHFONE"> F  </i>
   <i type="logical" name="LRHFCALC"> F  </i>
   <i type="logical" name="LTHOMAS"> F  </i>
   <i type="logical" name="LMODELHF"> F  </i>
   <i name="ENCUT4O">     -1.00000000</i>
   <i type="int" name="EXXOEP">     0</i>
   <i type="int" name="FOURORBIT">     0</i>
   <i name="AEXX">      0.00000000</i>
   <i name="HFALPHA">      0.00000000</i>
   <i name="MCALPHA">      0.00000000</i>
   <i name="ALDAX">      1.00000000</i>
   <i name="AGGAX">      1.00000000</i>
   <i name="ALDAC">      1.00000000</i>
   <i name="AGGAC">      1.00000000</i>
   <i type="int" name="NKREDX">     1</i>
   <i type="int" name="NKREDY">     1</i>
   <i type="int" name="NKREDZ">     1</i>
   <i type="logical" name="SHIFTRED"> F  </i>
   <i type="logical" name="ODDONLY"> F  </i>
   <i type="logical" name="EVENONLY"> F  </i>
   <i type="int" name="LMAXFOCK">     0</i>
   <i type="int" name="NMAXFOCKAE">     0</i>
   <i type="logical" name="LFOCKAEDFT"> F  </i>
   <i name="HFSCREEN">      0.00000000</i>
   <i name="HFSCREENC">      0.00000000</i>
   <i type="int" name="NBANDSGWLOW">     0</i>
  </separator>
  <separator name="vdW DFT" >
   <i type="logical" name="LUSE_VDW"> F  </i>
   <i name="Zab_VDW">     -0.84910000</i>
   <i name="PARAM1">      0.12340000</i>
   <i name="PARAM2">      1.00000000</i>
   <i name="PARAM3">      0.00000000</i>
  </separator>
  <separator name="model GW" >
   <i type="int" name="MODEL_GW">     0</i>
   <i name="MODEL_EPS0">     12.59840567</i>
   <i name="MODEL_ALPHA">      1.00000000</i>
  </separator>
  <separator name="linear response parameters" >
   <i type="logical" name="LEPSILON"> F  </i>
   <i type="logical" name="LRPA"> F  </i>
   <i type="logical" name="LNABLA"> F  </i>
   <i type="logical" name="LVEL"> F  </i>
   <i type="int" name="KINTER">     0</i>
   <i name="CSHIFT">      0.10000000</i>
   <i name="OMEGAMAX">     -1.00000000</i>
   <i name="DEG_THRESHOLD">      0.00200000</i>
   <i name="RTIME">     -0.10000000</i>
   <i name="WPLASMAI">      0.00000000</i>
   <v name="DFIELD">      0.00000000      0.00000000      0.00000000</v>
   <v name="WPLASMA">      0.00000000      0.00000000      0.00000000      0.00000000      0.00000000      0.00000000      0.00000000      0.00000000      0.00000000</v>
  </separator>
  <separator name="orbital magnetization" >
   <i type="logical" name="NUCIND"> F  </i>
   <v name="MAGPOS">      0.00000000      0.00000000      0.00000000</v>
   <i type="logical" name="LNICSALL"> T  </i>
   <i type="logical" name="ORBITALMAG"> F  </i>
   <i type="logical" name="LMAGBLOCH"> F  </i>
   <i type="logical" name="LCHIMAG"> F  </i>
   <i type="logical" name="LGAUGE"> T  </i>
   <i type="int" name="MAGATOM">     0</i>
   <v name="MAGDIPOL">      0.00000000      0.00000000      0.00000000</v>
   <v name="AVECCONST">      0.00000000      0.00000000      0.00000000</v>
  </separator>
  <separator name="response functions" >
   <i type="logical" name="LADDER"> F  </i>
   <i type="logical" name="LRPAFORCE"> F  </i>
   <i type="logical" name="LFXC"> F  </i>
   <i type="logical" name="LHARTREE"> T  </i>
   <i type="int" name="IBSE">     0</i>
   <v type="int" name="KPOINT">    -1     0     0     0</v>
   <i type="logical" name="LTCTE"> F  </i>
   <i type="logical" name="LTETE"> F  </i>
   <i type="logical" name="LTRIPLET"> F  </i>
   <i type="logical" name="LFXCEPS"> F  </i>
   <i type="logical" name="LFXHEG"> F  </i>
   <i type="int" name="NATURALO">     2</i>
   <i type="logical" name="L2ORDER"> F  </i>
   <i type="logical" name="LMP2LT"> F  </i>
   <i type="logical" name="LUSEW"> F  </i>
   <i name="ENCUTGW">     -2.00000000</i>
   <i name="ENCUTGWSOFT">     -2.00000000</i>
   <i name="ENCUTLF">     -1.00000000</i>
   <i type="int" name="LMAXMP2">    -1</i>
   <i name="SCISSOR">      0.00000000</i>
   <i type="int" name="NOMEGA">     0</i>
   <i type="int" name="NOMEGAR">     0</i>
   <i type="int" name="NBANDSGW">    -1</i>
   <i type="int" name="NBANDSO">    -1</i>
   <i type="int" name="NBANDSV">    -1</i>
   <i type="int" name="NELM">     1</i>
   <i type="int" name="NELMHF">     1</i>
   <i type="int" name="DIM">     3</i>
   <i type="int" name="ANTIRES">     0</i>
   <i name="OMEGAMAX">    -30.00000000</i>
   <i name="OMEGAMIN">    -30.00000000</i>
   <i name="OMEGATL">   -200.00000000</i>
   <i type="int" name="OMEGAGRID">   140</i>
   <i name="CSHIFT">     -0.10000000</i>
   <i type="logical" name="SELFENERGY"> F  </i>
   <i type="logical" name="LSPECTRAL"> F  </i>
   <i type="logical" name="LSPECTRALGW"> F  </i>
   <i type="logical" name="LSINGLES"> F  </i>
   <i type="logical" name="LFERMIGW"> F  </i>
   <i type="logical" name="ODDONLYGW"> F  </i>
   <i type="logical" name="EVENONLYGW"> F  </i>
   <i type="int" name="NKREDLFX">     1</i>
   <i type="int" name="NKREDLFY">     1</i>
   <i type="int" name="NKREDLFZ">     1</i>
   <i type="int" name="MAXMEM">  2800</i>
   <i type="int" name="TELESCOPE">     0</i>
   <i type="int" name="TAUPAR">     1</i>
   <i type="int" name="OMEGAPAR">    -1</i>
   <i name="LAMBDA">      1.00000000</i>
  </separator>
  <separator name="External order field" >
   <i name="OFIELD_KAPPA">      0.00000000</i>
   <v name="OFIELD_K">      0.00000000      0.00000000      0.00000000</v>
   <i name="OFIELD_Q6_NEAR">      0.00000000</i>
   <i name="OFIELD_Q6_FAR">      0.00000000</i>
   <i name="OFIELD_A">      0.00000000</i>
  </separator>
 </parameters>
 <atominfo>
  <atoms>      57 </atoms>
  <types>       5 </types>
  <array name="atoms" >
   <dimension dim="1">ion</dimension>
   <field type="string">element</field>
   <field type="int">atomtype</field>
   <set>
    <rc><c>Li</c><c>   1</c></rc>
    <rc><c>Li</c><c>   1</c></rc>
    <rc><c>Mg</c><c>   2</c></rc>
    <rc><c>Mg</c><c>   2</c></rc>
    <rc><c>Mg</c><c>   2</c></rc>
    <rc><c>Mg</c><c>   2</c></rc>
    <rc><c>Mg</c><c>   2</c></rc>
    <rc><c>Mg</c><c>   2</c></rc>
    <rc><c>Mg</c><c>   2</c></rc>
    <rc><c>Bi</c><c>   3</c></rc>
    <rc><c>Bi</c><c>   3</c></rc>
    <rc><c>Bi</c><c>   3</c></rc>
    <rc><c>Bi</c><c>   3</c></rc>
    <rc><c>Bi</c><c>   3</c></rc>
    <rc><c>Bi</c><c>   3</c></rc>
    <rc><c>Bi</c><c>   3</c></rc>
    <rc><c>Bi</c><c>   3</c></rc>
    <rc><c>Bi</c><c>   3</c></rc>
    <rc><c>Bi</c><c>   3</c></rc>
    <rc><c>Bi</c><c>   3</c></rc>
    <rc><c>Bi</c><c>   3</c></rc>
    <rc><c>Bi</c><c>   3</c></rc>
    <rc><c>Bi</c><c>   3</c></rc>
    <rc><c>Bi</c><c>   3</c></rc>
    <rc><c>Bi</c><c>   3</c></rc>
    <rc><c>S </c><c>   4</c></rc>
    <rc><c>S </c><c>   4</c></rc>
    <rc><c>S </c><c>   4</c></rc>
    <rc><c>S </c><c>   4</c></rc>
    <rc><c>S </c><c>   4</c></rc>
    <rc><c>S </c><c>   4</c></rc>
    <rc><c>S </c><c>   4</c></rc>
    <rc><c>S </c><c>   4</c></rc>
    <rc><c>S </c><c>   4</c></rc>
    <rc><c>S </c><c>   4</c></rc>
    <rc><c>S </c><c>   4</c></rc>
    <rc><c>S </c><c>   4</c></rc>
    <rc><c>S </c><c>   4</c></rc>
    <rc><c>S </c><c>   4</c></rc>
    <rc><c>S </c><c>   4</c></rc>
    <rc><c>S </c><c>   4</c></rc>
    <rc><c>O </c><c>   5</c></rc>
    <rc><c>O </c><c>   5</c></rc>
    <rc><c>O </c><c>   5</c></rc>
    <rc><c>O </c><c>   5</c></rc>
    <rc><c>O </c><c>   5</c></rc>
    <rc><c>O </c><c>   5</c></rc>
    <rc><c>O </c><c>   5</c></rc>
    <rc><c>O </c><c>   5</c></rc>
    <rc><c>O </c><c>   5</c></rc>
    <rc><c>O </c><c>   5</c></rc>
    <rc><c>O </c><c>   5</c></rc>
    <rc><c>O </c><c>   5</c></rc>
    <rc><c>O </c><c>   5</c></rc>
    <rc><c>O </c><c>   5</c></rc>
    <rc><c>O </c><c>   5</c></rc>
    <rc><c>O </c><c>   5</c></rc>
   </set>
  </array>
  <array name="atomtypes" >
   <dimension dim="1">type</dimension>
   <field type="int">atomspertype</field>
   <field type="string">element</field>
   <field>mass</field>
   <field>valence</field>
   <field type="string">pseudopotential</field>
   <set>
    <rc><c>   2</c><c>Li</c><c>      7.01000000</c><c>      3.00000000</c><c>  PAW_PBE Li_sv 10Sep2004               </c></rc>
    <rc><c>   7</c><c>Mg</c><c>     24.30500000</c><c>      2.00000000</c><c>  PAW_PBE Mg 13Apr2007                  </c></rc>
    <rc><c>  16</c><c>Bi</c><c>    208.98000000</c><c>     15.00000000</c><c>  PAW_PBE Bi_d 06Sep2000                </c></rc>
    <rc><c>  16</c><c>S </c><c>     32.06600000</c><c>      6.00000000</c><c>  PAW_PBE S 06Sep2000                   </c></rc>
    <rc><c>  16</c><c>O </c><c>     16.00000000</c><c>      6.00000000</c><c>  PAW_PBE O 08Apr2002                   </c></rc>
   </set>
  </array>
 </atominfo>
 <structure name="initialpos" >
  <crystal>
   <varray name="basis" >
    <v>      11.17850000       0.00000000       0.00000000 </v>
    <v>       0.00000000       9.57460000       0.00000000 </v>
    <v>       0.00000000       0.00000000      11.18240000 </v>
   </varray>
   <i name="volume">   1196.84853820 </i>
   <varray name="rec_basis" >
    <v>       0.08945744       0.00000000       0.00000000 </v>
    <v>       0.00000000       0.10444301       0.00000000 </v>
    <v>       0.00000000       0.00000000       0.08942624 </v>
   </varray>
  </crystal>
  <varray name="positions" >
   <v>       0.37461000       0.00017000       0.68687000 </v>
   <v>       0.62461000       0.99984000       0.68687000 </v>
   <v>       0.12461000       0.99984000       0.18687000 </v>
   <v>       0.62539000       0.99984000       0.43687000 </v>
   <v>       0.87539000       0.00017000       0.43687000 </v>
   <v>       0.62461000       0.99984000       0.18687000 </v>
   <v>       0.37539000       0.00017000       0.93687000 </v>
   <v>       0.12461000       0.99984000       0.68687000 </v>
   <v>       0.87539000       0.00017000       0.93687000 </v>
   <v>       0.00013000       0.29519000       0.06281000 </v>
   <v>       0.25013000       0.70481000       0.06281000 </v>
   <v>       0.24987000       0.29519000       0.31282000 </v>
   <v>       0.49987000       0.70481000       0.31282000 </v>
   <v>       0.50013000       0.29519000       0.06281000 </v>
   <v>       0.75013000       0.70481000       0.06281000 </v>
   <v>       0.74987000       0.29519000       0.31282000 </v>
   <v>       0.99987000       0.70481000       0.31282000 </v>
   <v>       0.00013000       0.29519000       0.56281000 </v>
   <v>       0.25013000       0.70481000       0.56281000 </v>
   <v>       0.24987000       0.29519000       0.81282000 </v>
   <v>       0.49987000       0.70481000       0.81282000 </v>
   <v>       0.50013000       0.29519000       0.56281000 </v>
   <v>       0.75013000       0.70481000       0.56281000 </v>
   <v>       0.74987000       0.29519000       0.81282000 </v>
   <v>       0.99987000       0.70481000       0.81282000 </v>
   <v>       0.25005000       0.32677000       0.06286000 </v>
   <v>       0.00005000       0.67323000       0.06286000 </v>
   <v>       0.49995000       0.32677000       0.31286000 </v>
   <v>       0.24995000       0.67323000       0.31286000 </v>
   <v>       0.75005000       0.32677000       0.06286000 </v>
   <v>       0.50005000       0.67323000       0.06286000 </v>
   <v>       0.99995000       0.32677000       0.31286000 </v>
   <v>       0.74995000       0.67323000       0.31286000 </v>
   <v>       0.25005000       0.32677000       0.56286000 </v>
   <v>       0.00005000       0.67323000       0.56286000 </v>
   <v>       0.49995000       0.32677000       0.81286000 </v>
   <v>       0.24995000       0.67323000       0.81286000 </v>
   <v>       0.75005000       0.32677000       0.56286000 </v>
   <v>       0.50005000       0.67323000       0.56286000 </v>
   <v>       0.99995000       0.32677000       0.81286000 </v>
   <v>       0.74995000       0.67323000       0.81286000 </v>
   <v>       0.49987000       0.07798000       0.06246000 </v>
   <v>       0.24987000       0.92202000       0.06246000 </v>
   <v>       0.25013000       0.07798000       0.31246000 </v>
   <v>       0.00013000       0.92202000       0.31246000 </v>
   <v>       0.99987000       0.07798000       0.06246000 </v>
   <v>       0.74987000       0.92202000       0.06246000 </v>
   <v>       0.75013000       0.07798000       0.31246000 </v>
   <v>       0.50013000       0.92202000       0.31246000 </v>
   <v>       0.49987000       0.07798000       0.56246000 </v>
   <v>       0.24987000       0.92202000       0.56246000 </v>
   <v>       0.25013000       0.07798000       0.81246000 </v>
   <v>       0.00013000       0.92202000       0.81246000 </v>
   <v>       0.99987000       0.07798000       0.56246000 </v>
   <v>       0.74987000       0.92202000       0.56246000 </v>
   <v>       0.75013000       0.07798000       0.81246000 </v>
   <v>       0.50013000       0.92202000       0.81246000 </v>
  </varray>
 </structure>
 <calculation>
  <scstep>
   <time name="dav">   60.75   60.83</time>
   <time name="total">   60.83   60.92</time>
   <energy>
    <i name="alphaZ">   1047.62774490 </i>
    <i name="ewald"> -29936.66106255 </i>
    <i name="hartreedc"> -12712.73110276 </i>
    <i name="XCdc">   1099.44693585 </i>
    <i name="pawpsdc">  36446.83583027 </i>
    <i name="pawaedc"> -35618.96860492 </i>
    <i name="eentropy">      0.00000000 </i>
    <i name="bandstr">   1949.11306824 </i>
    <i name="atom">  43261.00331033 </i>
    <i name="e_fr_energy">   5535.66611936 </i>
    <i name="e_wo_entrp">   5535.66611936 </i>
    <i name="e_0_energy">   5535.66611936 </i>
   </energy>
  </scstep>
  <scstep>
   <time name="dav">   61.11   61.43</time>
   <time name="total">   61.12   61.44</time>
   <energy>
    <i name="e_fr_energy">    718.79625924 </i>
    <i name="e_wo_entrp">    718.79625924 </i>
    <i name="e_0_energy">    718.79625924 </i>
   </energy>
  </scstep>
  <scstep>
   <time name="dav">   71.67   71.82</time>
   <time name="total">   71.68   71.82</time>
   <energy>
    <i name="e_fr_energy">   -246.86490372 </i>
    <i name="e_wo_entrp">   -246.86490372 </i>
    <i name="e_0_energy">   -246.86490372 </i>
   </energy>
  </scstep>
  <scstep>
   <time name="dav">   73.32   73.54</time>
   <time name="total">   73.32   73.55</time>
   <energy>
    <i name="e_fr_energy">   -327.48132144 </i>
    <i name="e_wo_entrp">   -327.48132144 </i>
    <i name="e_0_energy">   -327.48132144 </i>
   </energy>
  </scstep>
  <scstep>
   <time name="dav">   88.27   88.61</time>
   <time name="total">   88.99   89.32</time>
   <energy>
    <i name="e_fr_energy">   -332.28456622 </i>
    <i name="e_wo_entrp">   -332.28456622 </i>
    <i name="e_0_energy">   -332.28456622 </i>
   </energy>
  </scstep>
  <scstep>
   <time name="dav">   91.86   92.05</time>
   <time name="total">   92.66   92.84</time>
   <energy>
    <i name="e_fr_energy">   -280.01832877 </i>
    <i name="e_wo_entrp">   -280.01832877 </i>
    <i name="e_0_energy">   -280.01832877 </i>
   </energy>
  </scstep>
  <scstep>
   <time name="dav">   65.62   65.73</time>
   <time name="total">   66.41   66.52</time>
   <energy>
    <i name="e_fr_energy">   -281.79578831 </i>
    <i name="e_wo_entrp">   -281.79578831 </i>
    <i name="e_0_energy">   -281.79578831 </i>
   </energy>
  </scstep>
  <scstep>
   <time name="dav">   77.57   77.77</time>
   <time name="total">   78.33   78.57</time>
   <energy>
    <i name="e_fr_energy">   -281.05936578 </i>
    <i name="e_wo_entrp">   -281.05936578 </i>
    <i name="e_0_energy">   -281.05936578 </i>
   </energy>
  </scstep>
  <scstep>
   <time name="dav">   71.31   71.48</time>
   <time name="total">   72.10   72.27</time>
   <energy>
    <i name="e_fr_energy">   -280.68130449 </i>
    <i name="e_wo_entrp">   -280.68130449 </i>
    <i name="e_0_energy">   -280.68130449 </i>
   </energy>
  </scstep>
  <scstep>
   <time name="dav">   71.27   71.45</time>
   <time name="total">   72.06   72.24</time>
   <energy>
    <i name="e_fr_energy">   -280.71843639 </i>
    <i name="e_wo_entrp">   -280.71843639 </i>
    <i name="e_0_energy">   -280.71843639 </i>
   </energy>
  </scstep>
  <scstep>
   <time name="dav">   87.42   87.57</time>
   <time name="total">   88.21   88.36</time>
   <energy>
    <i name="e_fr_energy">   -280.71940168 </i>
    <i name="e_wo_entrp">   -280.71940168 </i>
    <i name="e_0_energy">   -280.71940168 </i>
   </energy>
  </scstep>
  <scstep>
   <time name="dav">   73.38   73.49</time>
   <time name="total">   74.17   74.28</time>
   <energy>
    <i name="e_fr_energy">   -280.72207530 </i>
    <i name="e_wo_entrp">   -280.72207530 </i>
    <i name="e_0_energy">   -280.72207530 </i>
   </energy>
  </scstep>
  <scstep>
   <time name="dav">   75.65   76.10</time>
   <time name="total">   76.44   76.89</time>
   <energy>
    <i name="e_fr_energy">   -280.72347842 </i>
    <i name="e_wo_entrp">   -280.72347842 </i>
    <i name="e_0_energy">   -280.72347842 </i>
   </energy>
  </scstep>
  <scstep>
   <time name="dav">   70.46   70.97</time>
   <time name="total">   71.24   71.76</time>
   <energy>
    <i name="e_fr_energy">   -280.72352564 </i>
    <i name="e_wo_entrp">   -280.72352564 </i>
    <i name="e_0_energy">   -280.72352564 </i>
   </energy>
  </scstep>
  <scstep>
   <time name="dav">   71.84   72.57</time>
   <time name="total">   72.63   73.37</time>
   <energy>
    <i name="e_fr_energy">   -280.72363283 </i>
    <i name="e_wo_entrp">   -280.72363283 </i>
    <i name="e_0_energy">   -280.72363283 </i>
   </energy>
  </scstep>
  <scstep>
   <time name="dav">   80.99   81.23</time>
   <time name="total">   81.78   82.02</time>
   <energy>
    <i name="e_fr_energy">   -280.72363743 </i>
    <i name="e_wo_entrp">   -280.72363743 </i>
    <i name="e_0_energy">   -280.72363743 </i>
   </energy>
  </scstep>
  <scstep>
   <time name="dav">   65.87   66.01</time>
   <time name="total">   66.66   66.80</time>
   <energy>
    <i name="e_fr_energy">   -280.72364244 </i>
    <i name="e_wo_entrp">   -280.72364244 </i>
    <i name="e_0_energy">   -280.72364244 </i>
   </energy>
  </scstep>
  <scstep>
   <time name="dav">   68.88   69.02</time>
   <time name="total">   68.96   69.09</time>
   <energy>
    <i name="alphaZ">   1047.62774490 </i>
    <i name="ewald"> -29936.66106255 </i>
    <i name="hartreedc"> -12952.53089989 </i>
    <i name="XCdc">   1125.33654579 </i>
    <i name="pawpsdc">  43474.34592787 </i>
    <i name="pawaedc"> -42618.36919331 </i>
    <i name="eentropy">      0.00000000 </i>
    <i name="bandstr">  -3681.47601639 </i>
    <i name="atom">  43261.00331033 </i>
    <i name="e_fr_energy">   -280.72364325 </i>
    <i name="e_wo_entrp">   -280.72364325 </i>
    <i name="e_0_energy">   -280.72364325 </i>
   </energy>
  </scstep>
  <structure>
   <crystal>
    <varray name="basis" >
     <v>      11.17850000       0.00000000       0.00000000 </v>
     <v>       0.00000000       9.57460000       0.00000000 </v>
     <v>       0.00000000       0.00000000      11.18240000 </v>
    </varray>
    <i name="volume">   1196.84853820 </i>
    <varray name="rec_basis" >
     <v>       0.08945744       0.00000000       0.00000000 </v>
     <v>       0.00000000       0.10444301       0.00000000 </v>
     <v>       0.00000000       0.00000000       0.08942624 </v>
    </varray>
   </crystal>
   <varray name="positions" >
    <v>       0.37461000       0.00017000       0.68687000 </v>
    <v>       0.62461000       0.99984000       0.68687000 </v>
    <v>       0.12461000       0.99984000       0.18687000 </v>
    <v>       0.62539000       0.99984000       0.43687000 </v>
    <v>       0.87539000       0.00017000       0.43687000 </v>
    <v>       0.62461000       0.99984000       0.18687000 </v>
    <v>       0.37539000       0.00017000       0.93687000 </v>
    <v>       0.12461000       0.99984000       0.68687000 </v>
    <v>       0.87539000       0.00017000       0.93687000 </v>
    <v>       0.00013000       0.29519000       0.06281000 </v>
    <v>       0.25013000       0.70481000       0.06281000 </v>
    <v>       0.24987000       0.29519000       0.31282000 </v>
    <v>       0.49987000       0.70481000       0.31282000 </v>
    <v>       0.50013000       0.29519000       0.06281000 </v>
    <v>       0.75013000       0.70481000       0.06281000 </v>
    <v>       0.74987000       0.29519000       0.31282000 </v>
    <v>       0.99987000       0.70481000       0.31282000 </v>
    <v>       0.00013000       0.29519000       0.56281000 </v>
    <v>       0.25013000       0.70481000       0.56281000 </v>
    <v>       0.24987000       0.29519000       0.81282000 </v>
    <v>       0.49987000       0.70481000       0.81282000 </v>
    <v>       0.50013000       0.29519000       0.56281000 </v>
    <v>       0.75013000       0.70481000       0.56281000 </v>
    <v>       0.74987000       0.29519000       0.81282000 </v>
    <v>       0.99987000       0.70481000       0.81282000 </v>
    <v>       0.25005000       0.32677000       0.06286000 </v>
    <v>       0.00005000       0.67323000       0.06286000 </v>
    <v>       0.49995000       0.32677000       0.31286000 </v>
    <v>       0.24995000       0.67323000       0.31286000 </v>
    <v>       0.75005000       0.32677000       0.06286000 </v>
    <v>       0.50005000       0.67323000       0.06286000 </v>
    <v>       0.99995000       0.32677000       0.31286000 </v>
    <v>       0.74995000       0.67323000       0.31286000 </v>
    <v>       0.25005000       0.32677000       0.56286000 </v>
    <v>       0.00005000       0.67323000       0.56286000 </v>
    <v>       0.49995000       0.32677000       0.81286000 </v>
    <v>       0.24995000       0.67323000       0.81286000 </v>
    <v>       0.75005000       0.32677000       0.56286000 </v>
    <v>       0.50005000       0.67323000       0.56286000 </v>
    <v>       0.99995000       0.32677000       0.81286000 </v>
    <v>       0.74995000       0.67323000       0.81286000 </v>
    <v>       0.49987000       0.07798000       0.06246000 </v>
    <v>       0.24987000       0.92202000       0.06246000 </v>
    <v>       0.25013000       0.07798000       0.31246000 </v>
    <v>       0.00013000       0.92202000       0.31246000 </v>
    <v>       0.99987000       0.07798000       0.06246000 </v>
    <v>       0.74987000       0.92202000       0.06246000 </v>
    <v>       0.75013000       0.07798000       0.31246000 </v>
    <v>       0.50013000       0.92202000       0.31246000 </v>
    <v>       0.49987000       0.07798000       0.56246000 </v>
    <v>       0.24987000       0.92202000       0.56246000 </v>
    <v>       0.25013000       0.07798000       0.81246000 </v>
    <v>       0.00013000       0.92202000       0.81246000 </v>
    <v>       0.99987000       0.07798000       0.56246000 </v>
    <v>       0.74987000       0.92202000       0.56246000 </v>
    <v>       0.75013000       0.07798000       0.81246000 </v>
    <v>       0.50013000       0.92202000       0.81246000 </v>
   </varray>
  </structure>
  <varray name="forces" >
   <v>       0.19592886      -0.11853627      -0.71165470 </v>
   <v>       0.22282934       0.13791502       0.75246498 </v>
   <v>       0.44736395       0.23209033       0.36393681 </v>
   <v>      -1.84019760      -0.08541003       0.80062670 </v>
   <v>       1.88499295      -0.10786333       0.21597435 </v>
   <v>      -0.44483074      -0.21333966      -1.58910980 </v>
   <v>       0.07687850      -0.11484782       0.84385665 </v>
   <v>      -0.51818961      -0.21596147      -0.33973662 </v>
   <v>      -0.12137299       0.12225848      -0.14403203 </v>
   <v>       0.14291226      -0.06186878       0.00257151 </v>
   <v>      -0.00654315       0.07411972       0.12906302 </v>
   <v>       0.15532947      -1.91225958       0.20584312 </v>
   <v>      -0.73768564      -0.11773553       0.00766101 </v>
   <v>      -0.15255895      -0.04998474      -0.02888548 </v>
   <v>      -0.00433253       0.04348009      -0.17365468 </v>
   <v>       0.23888475       2.07439249      -0.27905169 </v>
   <v>       0.36365149       0.02235519      -0.00086484 </v>
   <v>       0.23952265      -0.04216305      -0.01254218 </v>
   <v>       0.06331560       0.93471636      -0.42636046 </v>
   <v>      -0.11447172       1.00071514       0.07149363 </v>
   <v>       0.15967849      -0.03594987       0.03142154 </v>
   <v>      -0.43888951       0.03763887      -0.02987129 </v>
   <v>       0.11657739      -1.09477048       0.46291634 </v>
   <v>      -0.07587649      -0.97933118      -0.02139388 </v>
   <v>       0.06134047       0.06750025      -0.00857274 </v>
   <v>       0.01938033       0.14418392      -0.30125036 </v>
   <v>      -0.07762584      -0.09838850       0.00024619 </v>
   <v>       0.54232606       0.03327277       0.01918703 </v>
   <v>      -0.04400820      -0.13343356      -0.13421948 </v>
   <v>      -0.02038089       0.07219587       0.24680715 </v>
   <v>       0.07679481      -0.09493554       0.01241916 </v>
   <v>      -0.44376243       0.10805402       0.02855452 </v>
   <v>      -0.06760724      -0.01915733       0.16253890 </v>
   <v>      -0.03014757       0.13078041       0.35739092 </v>
   <v>      -0.25516472      -0.09661770      -0.01804595 </v>
   <v>      -0.16470101       0.13835967       0.01197781 </v>
   <v>       0.04089797      -0.16575200       0.07113875 </v>
   <v>      -0.02865889       0.04261079      -0.35248942 </v>
   <v>       0.31124151      -0.13401674      -0.04439673 </v>
   <v>       0.10307961       0.10178071      -0.01059483 </v>
   <v>       0.02298019      -0.10291792      -0.05434980 </v>
   <v>       0.08182158       0.26276943       0.01479564 </v>
   <v>       0.06063661      -0.32992388      -0.21890250 </v>
   <v>      -1.02547158       1.57842495      -1.03372355 </v>
   <v>      -0.36694264      -0.26010698       0.08059187 </v>
   <v>      -0.08604245       0.27441041      -0.03417637 </v>
   <v>      -0.02907114      -0.22624276       0.20248704 </v>
   <v>      -1.00697190      -1.51641441       1.11176364 </v>
   <v>       2.38428416       0.24281251       0.00079684 </v>
   <v>       1.32296785      -0.02176794       0.08898260 </v>
   <v>      -0.44971637      -0.70514879       1.78154592 </v>
   <v>       0.62952828      -0.58345613      -0.55356623 </v>
   <v>       0.05245606      -0.28843567      -0.00811550 </v>
   <v>      -0.22536347       0.25541340      -0.06123959 </v>
   <v>      -0.53970309       0.91883586      -1.77415355 </v>
   <v>       0.45746996       0.89215346       0.42035232 </v>
   <v>      -1.15878280      -0.01650248      -0.13445169 </v>
  </varray>
  <varray name="stress" >
   <v>      -8.65059813      -0.02229420      -0.08494089 </v>
   <v>      -0.02229396     -12.65386719      -0.49399953 </v>
   <v>      -0.08494084      -0.49399944      -7.58680249 </v>
  </varray>
  <energy>
   <i name="e_fr_energy">   -291.57883481 </i>
   <i name="e_wo_entrp">   -291.57883481 </i>
   <i name="e_0_energy">      0.00000000 </i>
  </energy>
  <time name="totalsc"> 1449.19 1453.78</time>
  <eigenvalues>
   <array>
    <dimension dim="1">band</dimension>
    <dimension dim="2">kpoint</dimension>
    <dimension dim="3">spin</dimension>
    <field>eigene</field>
    <field>occ</field>
    <set>
     <set comment="spin 1">
      <set comment="kpoint 1">
       <r>  -39.9187    1.0000 </r>
       <r>  -39.9023    1.0000 </r>
       <r>  -19.2026    1.0000 </r>
       <r>  -19.0404    1.0000 </r>
       <r>  -19.0338    1.0000 </r>
       <r>  -19.0279    1.0000 </r>
       <r>  -18.9880    1.0000 </r>
       <r>  -18.9690    1.0000 </r>
       <r>  -18.9603    1.0000 </r>
       <r>  -18.9530    1.0000 </r>
       <r>  -18.8611    1.0000 </r>
       <r>  -18.8482    1.0000 </r>
       <r>  -18.8217    1.0000 </r>
       <r>  -18.7863    1.0000 </r>
       <r>  -18.7833    1.0000 </r>
       <r>  -18.7725    1.0000 </r>
       <r>  -18.7681    1.0000 </r>
       <r>  -18.7625    1.0000 </r>
       <r>  -18.7607    1.0000 </r>
       <r>  -18.7569    1.0000 </r>
       <r>  -18.7561    1.0000 </r>
       <r>  -18.7358    1.0000 </r>
       <r>  -18.7286    1.0000 </r>
       <r>  -18.7216    1.0000 </r>
       <r>  -18.7190    1.0000 </r>
       <r>  -18.7184    1.0000 </r>
       <r>  -18.7128    1.0000 </r>
       <r>  -18.7116    1.0000 </r>
       <r>  -18.7113    1.0000 </r>
       <r>  -18.7092    1.0000 </r>
       <r>  -18.7019    1.0000 </r>
       <r>  -18.6993    1.0000 </r>
       <r>  -18.6978    1.0000 </r>
       <r>  -18.6967    1.0000 </r>
       <r>  -18.6931    1.0000 </r>
       <r>  -18.6894    1.0000 </r>
       <r>  -18.6891    1.0000 </r>
       <r>  -18.6851    1.0000 </r>
       <r>  -18.6819    1.0000 </r>
       <r>  -18.6795    1.0000 </r>
       <r>  -18.6792    1.0000 </r>
       <r>  -18.6644    1.0000 </r>
       <r>  -18.6552    1.0000 </r>
       <r>  -18.6363    1.0000 </r>
       <r>  -18.6315    1.0000 </r>
       <r>  -18.6304    1.0000 </r>
       <r>  -18.6250    1.0000 </r>
       <r>  -18.6204    1.0000 </r>
       <r>  -18.6180    1.0000 </r>
       <r>  -18.6081    1.0000 </r>
       <r>  -18.5992    1.0000 </r>
       <r>  -18.5860    1.0000 </r>
       <r>  -18.5818    1.0000 </r>
       <r>  -18.5724    1.0000 </r>
       <r>  -18.5690    1.0000 </r>
       <r>  -18.5682    1.0000 </r>
       <r>  -18.5655    1.0000 </r>
       <r>  -18.5589    1.0000 </r>
       <r>  -18.5556    1.0000 </r>
       <r>  -18.5517    1.0000 </r>
       <r>  -18.5502    1.0000 </r>
       <r>  -18.5396    1.0000 </r>
       <r>  -18.5354    1.0000 </r>
       <r>  -18.5307    1.0000 </r>
       <r>  -18.5216    1.0000 </r>
       <r>  -18.5203    1.0000 </r>
       <r>  -18.5095    1.0000 </r>
       <r>  -18.5080    1.0000 </r>
       <r>  -18.5051    1.0000 </r>
       <r>  -18.4962    1.0000 </r>
       <r>  -18.4831    1.0000 </r>
       <r>  -18.4522    1.0000 </r>
       <r>  -18.4290    1.0000 </r>
       <r>  -18.3941    1.0000 </r>
       <r>  -18.3671    1.0000 </r>
       <r>  -18.3093    1.0000 </r>
       <r>  -18.2950    1.0000 </r>
       <r>  -18.2731    1.0000 </r>
       <r>  -18.2580    1.0000 </r>
       <r>  -18.1362    1.0000 </r>
       <r>  -18.0358    1.0000 </r>
       <r>  -18.0145    1.0000 </r>
       <r>  -14.3973    1.0000 </r>
       <r>  -13.6958    1.0000 </r>
       <r>  -13.3789    1.0000 </r>
       <r>  -13.0383    1.0000 </r>
       <r>  -12.9147    1.0000 </r>
       <r>  -12.8511    1.0000 </r>
       <r>  -12.8269    1.0000 </r>
       <r>  -12.7870    1.0000 </r>
       <r>  -12.7694    1.0000 </r>
       <r>  -12.7495    1.0000 </r>
       <r>  -12.7352    1.0000 </r>
       <r>  -12.6809    1.0000 </r>
       <r>  -12.6281    1.0000 </r>
       <r>  -12.1917    1.0000 </r>
       <r>  -12.1536    1.0000 </r>
       <r>  -11.5363    1.0000 </r>
       <r>   -9.4112    1.0000 </r>
       <r>   -9.1145    1.0000 </r>
       <r>   -8.6612    1.0000 </r>
       <r>   -8.5750    1.0000 </r>
       <r>   -8.5631    1.0000 </r>
       <r>   -8.4702    1.0000 </r>
       <r>   -8.4364    1.0000 </r>
       <r>   -8.3549    1.0000 </r>
       <r>   -8.3343    1.0000 </r>
       <r>   -8.2437    1.0000 </r>
       <r>   -8.1178    1.0000 </r>
       <r>   -8.0918    1.0000 </r>
       <r>   -8.0796    1.0000 </r>
       <r>   -8.0541    1.0000 </r>
       <r>   -7.4351    1.0000 </r>
       <r>   -7.4188    1.0000 </r>
       <r>   -6.4928    1.0000 </r>
       <r>   -6.4649    1.0000 </r>
       <r>   -6.4326    1.0000 </r>
       <r>   -6.4004    1.0000 </r>
       <r>   -5.6270    1.0000 </r>
       <r>   -5.5772    1.0000 </r>
       <r>   -5.4550    1.0000 </r>
       <r>   -5.4192    1.0000 </r>
       <r>   -5.4123    1.0000 </r>
       <r>   -5.3377    1.0000 </r>
       <r>   -5.3011    1.0000 </r>
       <r>   -5.2476    1.0000 </r>
       <r>   -5.1959    1.0000 </r>
       <r>   -4.9865    1.0000 </r>
       <r>   -3.8856    1.0000 </r>
       <r>   -3.7393    1.0000 </r>
       <r>   -1.6245    1.0000 </r>
       <r>   -1.4101    1.0000 </r>
       <r>   -1.2261    1.0000 </r>
       <r>   -1.0589    1.0000 </r>
       <r>   -0.8612    1.0000 </r>
       <r>   -0.7023    1.0000 </r>
       <r>   -0.6507    1.0000 </r>
       <r>   -0.5348    1.0000 </r>
       <r>   -0.4733    1.0000 </r>
       <r>   -0.3610    1.0000 </r>
       <r>   -0.2774    1.0000 </r>
       <r>   -0.2536    1.0000 </r>
       <r>   -0.2075    1.0000 </r>
       <r>   -0.1858    1.0000 </r>
       <r>    0.0614    1.0000 </r>
       <r>    0.2168    1.0000 </r>
       <r>    0.2448    1.0000 </r>
       <r>    0.3535    1.0000 </r>
       <r>    0.3890    1.0000 </r>
       <r>    0.4207    1.0000 </r>
       <r>    0.5429    1.0000 </r>
       <r>    0.5728    1.0000 </r>
       <r>    0.6329    1.0000 </r>
       <r>    0.6361    1.0000 </r>
       <r>    0.6679    1.0000 </r>
       <r>    0.7015    1.0000 </r>
       <r>    0.7102    1.0000 </r>
       <r>    0.7639    1.0000 </r>
       <r>    0.7839    1.0000 </r>
       <r>    0.8619    1.0000 </r>
       <r>    0.8794    1.0000 </r>
       <r>    0.9487    1.0000 </r>
       <r>    0.9710    1.0000 </r>
       <r>    1.0112    1.0000 </r>
       <r>    1.0842    1.0000 </r>
       <r>    1.0926    1.0000 </r>
       <r>    1.1497    1.0000 </r>
       <r>    1.1902    1.0000 </r>
       <r>    1.2599    1.0000 </r>
       <r>    1.2909    1.0000 </r>
       <r>    1.3627    1.0000 </r>
       <r>    1.4743    1.0000 </r>
       <r>    1.5033    1.0000 </r>
       <r>    1.5086    1.0000 </r>
       <r>    1.5891    1.0000 </r>
       <r>    1.6130    1.0000 </r>
       <r>    1.6548    1.0000 </r>
       <r>    1.7239    1.0000 </r>
       <r>    1.7932    1.0000 </r>
       <r>    1.8362    1.0000 </r>
       <r>    1.8919    1.0000 </r>
       <r>    1.9152    1.0000 </r>
       <r>    1.9756    1.0000 </r>
       <r>    2.1165    1.0000 </r>
       <r>    2.1803    1.0000 </r>
       <r>    2.1823    1.0000 </r>
       <r>    2.2752    1.0000 </r>
       <r>    2.4336    1.0000 </r>
       <r>    2.4762    1.0000 </r>
       <r>    2.4876    1.0000 </r>
       <r>    2.4912    1.0000 </r>
       <r>    2.5087    1.0000 </r>
       <r>    2.5238    1.0000 </r>
       <r>    2.5509    1.0000 </r>
       <r>    2.5569    1.0000 </r>
       <r>    2.6052    1.0000 </r>
       <r>    2.6571    1.0000 </r>
       <r>    2.6981    1.0000 </r>
       <r>    2.7221    1.0000 </r>
       <r>    2.7378    1.0000 </r>
       <r>    2.7808    1.0000 </r>
       <r>    2.8182    1.0000 </r>
       <r>    2.8661    1.0000 </r>
       <r>    2.9161    1.0000 </r>
       <r>    2.9406    1.0000 </r>
       <r>    2.9870    1.0000 </r>
       <r>    3.0129    1.0000 </r>
       <r>    3.0193    1.0000 </r>
       <r>    3.0309    1.0000 </r>
       <r>    3.0780    1.0000 </r>
       <r>    3.0897    1.0000 </r>
       <r>    3.0962    1.0000 </r>
       <r>    3.1309    1.0000 </r>
       <r>    3.1415    1.0000 </r>
       <r>    3.1774    1.0000 </r>
       <r>    3.2430    1.0000 </r>
       <r>    3.3088    1.0000 </r>
       <r>    3.3432    1.0000 </r>
       <r>    3.4616    1.0000 </r>
       <r>    3.4834    1.0000 </r>
       <r>    3.5540    1.0000 </r>
       <r>    3.9570    1.0000 </r>
       <r>    4.0893    1.0000 </r>
       <r>    4.1197    1.0000 </r>
       <r>    4.1543    1.0000 </r>
       <r>    4.1973    1.0000 </r>
       <r>    4.9152    0.0000 </r>
       <r>    4.9516    0.0000 </r>
       <r>    5.1031    0.0000 </r>
       <r>    5.1443    0.0000 </r>
       <r>    5.6470    0.0000 </r>
       <r>    5.6824    0.0000 </r>
       <r>    5.7628    0.0000 </r>
       <r>    5.8062    0.0000 </r>
       <r>    6.0125    0.0000 </r>
       <r>    6.0543    0.0000 </r>
       <r>    6.0714    0.0000 </r>
       <r>    6.0974    0.0000 </r>
       <r>    6.1504    0.0000 </r>
       <r>    6.1697    0.0000 </r>
       <r>    6.1997    0.0000 </r>
       <r>    6.2068    0.0000 </r>
       <r>    6.8563    0.0000 </r>
       <r>    6.9792    0.0000 </r>
       <r>    7.1509    0.0000 </r>
       <r>    7.2318    0.0000 </r>
       <r>    7.5582    0.0000 </r>
       <r>    7.7072    0.0000 </r>
       <r>    7.8310    0.0000 </r>
       <r>    7.8548    0.0000 </r>
       <r>    7.8668    0.0000 </r>
       <r>    7.8707    0.0000 </r>
       <r>    7.9433    0.0000 </r>
       <r>    8.0917    0.0000 </r>
       <r>    8.2975    0.0000 </r>
       <r>    8.4689    0.0000 </r>
       <r>    8.5718    0.0000 </r>
       <r>    8.7000    0.0000 </r>
       <r>    8.7250    0.0000 </r>
       <r>    8.8001    0.0000 </r>
       <r>    8.8024    0.0000 </r>
       <r>    8.8976    0.0000 </r>
       <r>    8.9177    0.0000 </r>
       <r>    8.9729    0.0000 </r>
       <r>    8.9938    0.0000 </r>
       <r>    9.0153    0.0000 </r>
       <r>    9.0588    0.0000 </r>
       <r>    9.0793    0.0000 </r>
       <r>    9.1321    0.0000 </r>
       <r>    9.1911    0.0000 </r>
       <r>    9.2721    0.0000 </r>
       <r>    9.3436    0.0000 </r>
       <r>    9.4290    0.0000 </r>
       <r>    9.4489    0.0000 </r>
       <r>    9.5534    0.0000 </r>
       <r>    9.6184    0.0000 </r>
       <r>    9.6402    0.0000 </r>
       <r>    9.7071    0.0000 </r>
       <r>    9.7563    0.0000 </r>
       <r>    9.9114    0.0000 </r>
      </set>
      <set comment="kpoint 2">
       <r>  -39.9187    1.0000 </r>
       <r>  -39.9023    1.0000 </r>
       <r>  -19.2026    1.0000 </r>
       <r>  -19.0404    1.0000 </r>
       <r>  -19.0338    1.0000 </r>
       <r>  -19.0279    1.0000 </r>
       <r>  -18.9880    1.0000 </r>
       <r>  -18.9690    1.0000 </r>
       <r>  -18.9602    1.0000 </r>
       <r>  -18.9530    1.0000 </r>
       <r>  -18.8611    1.0000 </r>
       <r>  -18.8482    1.0000 </r>
       <r>  -18.8217    1.0000 </r>
       <r>  -18.7858    1.0000 </r>
       <r>  -18.7830    1.0000 </r>
       <r>  -18.7723    1.0000 </r>
       <r>  -18.7685    1.0000 </r>
       <r>  -18.7622    1.0000 </r>
       <r>  -18.7607    1.0000 </r>
       <r>  -18.7570    1.0000 </r>
       <r>  -18.7564    1.0000 </r>
       <r>  -18.7362    1.0000 </r>
       <r>  -18.7290    1.0000 </r>
       <r>  -18.7217    1.0000 </r>
       <r>  -18.7188    1.0000 </r>
       <r>  -18.7185    1.0000 </r>
       <r>  -18.7123    1.0000 </r>
       <r>  -18.7114    1.0000 </r>
       <r>  -18.7113    1.0000 </r>
       <r>  -18.7094    1.0000 </r>
       <r>  -18.7018    1.0000 </r>
       <r>  -18.6997    1.0000 </r>
       <r>  -18.6974    1.0000 </r>
       <r>  -18.6966    1.0000 </r>
       <r>  -18.6926    1.0000 </r>
       <r>  -18.6895    1.0000 </r>
       <r>  -18.6894    1.0000 </r>
       <r>  -18.6852    1.0000 </r>
       <r>  -18.6817    1.0000 </r>
       <r>  -18.6797    1.0000 </r>
       <r>  -18.6794    1.0000 </r>
       <r>  -18.6645    1.0000 </r>
       <r>  -18.6552    1.0000 </r>
       <r>  -18.6363    1.0000 </r>
       <r>  -18.6315    1.0000 </r>
       <r>  -18.6304    1.0000 </r>
       <r>  -18.6251    1.0000 </r>
       <r>  -18.6204    1.0000 </r>
       <r>  -18.6180    1.0000 </r>
       <r>  -18.6081    1.0000 </r>
       <r>  -18.5992    1.0000 </r>
       <r>  -18.5860    1.0000 </r>
       <r>  -18.5818    1.0000 </r>
       <r>  -18.5724    1.0000 </r>
       <r>  -18.5690    1.0000 </r>
       <r>  -18.5682    1.0000 </r>
       <r>  -18.5655    1.0000 </r>
       <r>  -18.5589    1.0000 </r>
       <r>  -18.5556    1.0000 </r>
       <r>  -18.5517    1.0000 </r>
       <r>  -18.5502    1.0000 </r>
       <r>  -18.5396    1.0000 </r>
       <r>  -18.5354    1.0000 </r>
       <r>  -18.5307    1.0000 </r>
       <r>  -18.5216    1.0000 </r>
       <r>  -18.5203    1.0000 </r>
       <r>  -18.5094    1.0000 </r>
       <r>  -18.5080    1.0000 </r>
       <r>  -18.5052    1.0000 </r>
       <r>  -18.4963    1.0000 </r>
       <r>  -18.4831    1.0000 </r>
       <r>  -18.4522    1.0000 </r>
       <r>  -18.4290    1.0000 </r>
       <r>  -18.3941    1.0000 </r>
       <r>  -18.3671    1.0000 </r>
       <r>  -18.3093    1.0000 </r>
       <r>  -18.2950    1.0000 </r>
       <r>  -18.2731    1.0000 </r>
       <r>  -18.2580    1.0000 </r>
       <r>  -18.1362    1.0000 </r>
       <r>  -18.0358    1.0000 </r>
       <r>  -18.0145    1.0000 </r>
       <r>  -14.3973    1.0000 </r>
       <r>  -13.6957    1.0000 </r>
       <r>  -13.3787    1.0000 </r>
       <r>  -13.0373    1.0000 </r>
       <r>  -12.9135    1.0000 </r>
       <r>  -12.8585    1.0000 </r>
       <r>  -12.8234    1.0000 </r>
       <r>  -12.7942    1.0000 </r>
       <r>  -12.7697    1.0000 </r>
       <r>  -12.7486    1.0000 </r>
       <r>  -12.7250    1.0000 </r>
       <r>  -12.6820    1.0000 </r>
       <r>  -12.6296    1.0000 </r>
       <r>  -12.1911    1.0000 </r>
       <r>  -12.1542    1.0000 </r>
       <r>  -11.5362    1.0000 </r>
       <r>   -9.2684    1.0000 </r>
       <r>   -9.1088    1.0000 </r>
       <r>   -8.9924    1.0000 </r>
       <r>   -8.8292    1.0000 </r>
       <r>   -8.4756    1.0000 </r>
       <r>   -8.4664    1.0000 </r>
       <r>   -8.3431    1.0000 </r>
       <r>   -8.3325    1.0000 </r>
       <r>   -8.2735    1.0000 </r>
       <r>   -8.2626    1.0000 </r>
       <r>   -8.1398    1.0000 </r>
       <r>   -8.1271    1.0000 </r>
       <r>   -7.8224    1.0000 </r>
       <r>   -7.7084    1.0000 </r>
       <r>   -7.7062    1.0000 </r>
       <r>   -7.5917    1.0000 </r>
       <r>   -6.1915    1.0000 </r>
       <r>   -6.1104    1.0000 </r>
       <r>   -5.9593    1.0000 </r>
       <r>   -5.9046    1.0000 </r>
       <r>   -5.9014    1.0000 </r>
       <r>   -5.8657    1.0000 </r>
       <r>   -5.8263    1.0000 </r>
       <r>   -5.7791    1.0000 </r>
       <r>   -5.7294    1.0000 </r>
       <r>   -5.6222    1.0000 </r>
       <r>   -5.6069    1.0000 </r>
       <r>   -5.4357    1.0000 </r>
       <r>   -4.5787    1.0000 </r>
       <r>   -4.4208    1.0000 </r>
       <r>   -4.4151    1.0000 </r>
       <r>   -4.2443    1.0000 </r>
       <r>   -1.4229    1.0000 </r>
       <r>   -1.1696    1.0000 </r>
       <r>   -1.0073    1.0000 </r>
       <r>   -0.8325    1.0000 </r>
       <r>   -0.8096    1.0000 </r>
       <r>   -0.6485    1.0000 </r>
       <r>   -0.3726    1.0000 </r>
       <r>   -0.3325    1.0000 </r>
       <r>   -0.1328    1.0000 </r>
       <r>   -0.0729    1.0000 </r>
       <r>    0.0110    1.0000 </r>
       <r>    0.0265    1.0000 </r>
       <r>    0.0692    1.0000 </r>
       <r>    0.1519    1.0000 </r>
       <r>    0.2187    1.0000 </r>
       <r>    0.2313    1.0000 </r>
       <r>    0.2554    1.0000 </r>
       <r>    0.3458    1.0000 </r>
       <r>    0.4035    1.0000 </r>
       <r>    0.4178    1.0000 </r>
       <r>    0.4410    1.0000 </r>
       <r>    0.4841    1.0000 </r>
       <r>    0.5292    1.0000 </r>
       <r>    0.5407    1.0000 </r>
       <r>    0.6158    1.0000 </r>
       <r>    0.6419    1.0000 </r>
       <r>    0.7683    1.0000 </r>
       <r>    0.8125    1.0000 </r>
       <r>    0.8486    1.0000 </r>
       <r>    0.9110    1.0000 </r>
       <r>    0.9773    1.0000 </r>
       <r>    1.0186    1.0000 </r>
       <r>    1.0592    1.0000 </r>
       <r>    1.0750    1.0000 </r>
       <r>    1.0882    1.0000 </r>
       <r>    1.1079    1.0000 </r>
       <r>    1.1219    1.0000 </r>
       <r>    1.2309    1.0000 </r>
       <r>    1.2556    1.0000 </r>
       <r>    1.2862    1.0000 </r>
       <r>    1.3062    1.0000 </r>
       <r>    1.3445    1.0000 </r>
       <r>    1.3664    1.0000 </r>
       <r>    1.4048    1.0000 </r>
       <r>    1.4343    1.0000 </r>
       <r>    1.5360    1.0000 </r>
       <r>    1.5824    1.0000 </r>
       <r>    1.6031    1.0000 </r>
       <r>    1.6464    1.0000 </r>
       <r>    1.7009    1.0000 </r>
       <r>    1.7448    1.0000 </r>
       <r>    1.8434    1.0000 </r>
       <r>    1.9232    1.0000 </r>
       <r>    1.9590    1.0000 </r>
       <r>    1.9726    1.0000 </r>
       <r>    2.0237    1.0000 </r>
       <r>    2.0948    1.0000 </r>
       <r>    2.1562    1.0000 </r>
       <r>    2.1678    1.0000 </r>
       <r>    2.1951    1.0000 </r>
       <r>    2.2498    1.0000 </r>
       <r>    2.3310    1.0000 </r>
       <r>    2.3875    1.0000 </r>
       <r>    2.4273    1.0000 </r>
       <r>    2.4467    1.0000 </r>
       <r>    2.4803    1.0000 </r>
       <r>    2.5111    1.0000 </r>
       <r>    2.5877    1.0000 </r>
       <r>    2.6238    1.0000 </r>
       <r>    2.6463    1.0000 </r>
       <r>    2.6893    1.0000 </r>
       <r>    2.7080    1.0000 </r>
       <r>    2.7248    1.0000 </r>
       <r>    2.7896    1.0000 </r>
       <r>    2.8036    1.0000 </r>
       <r>    2.8508    1.0000 </r>
       <r>    2.8567    1.0000 </r>
       <r>    2.8965    1.0000 </r>
       <r>    2.9537    1.0000 </r>
       <r>    2.9927    1.0000 </r>
       <r>    3.0423    1.0000 </r>
       <r>    3.1086    1.0000 </r>
       <r>    3.1198    1.0000 </r>
       <r>    3.1617    1.0000 </r>
       <r>    3.2836    1.0000 </r>
       <r>    3.3031    1.0000 </r>
       <r>    3.3129    1.0000 </r>
       <r>    3.3615    1.0000 </r>
       <r>    3.3901    1.0000 </r>
       <r>    3.4490    1.0000 </r>
       <r>    3.4917    1.0000 </r>
       <r>    3.5571    1.0000 </r>
       <r>    3.5797    1.0000 </r>
       <r>    3.6197    1.0000 </r>
       <r>    3.7361    1.0000 </r>
       <r>    4.0401    1.0000 </r>
       <r>    5.4784    0.0000 </r>
       <r>    5.5104    0.0000 </r>
       <r>    5.6191    0.0000 </r>
       <r>    5.6464    0.0000 </r>
       <r>    5.6648    0.0000 </r>
       <r>    5.6880    0.0000 </r>
       <r>    5.8167    0.0000 </r>
       <r>    5.8588    0.0000 </r>
       <r>    6.9177    0.0000 </r>
       <r>    7.0938    0.0000 </r>
       <r>    7.1704    0.0000 </r>
       <r>    7.2543    0.0000 </r>
       <r>    7.2619    0.0000 </r>
       <r>    7.2979    0.0000 </r>
       <r>    7.3141    0.0000 </r>
       <r>    7.3483    0.0000 </r>
       <r>    7.3821    0.0000 </r>
       <r>    7.4511    0.0000 </r>
       <r>    7.5055    0.0000 </r>
       <r>    7.5538    0.0000 </r>
       <r>    7.6932    0.0000 </r>
       <r>    7.7359    0.0000 </r>
       <r>    7.7492    0.0000 </r>
       <r>    7.7719    0.0000 </r>
       <r>    7.8032    0.0000 </r>
       <r>    7.8275    0.0000 </r>
       <r>    7.8557    0.0000 </r>
       <r>    7.8866    0.0000 </r>
       <r>    7.9059    0.0000 </r>
       <r>    7.9450    0.0000 </r>
       <r>    7.9594    0.0000 </r>
       <r>    7.9975    0.0000 </r>
       <r>    8.0691    0.0000 </r>
       <r>    8.2056    0.0000 </r>
       <r>    8.3146    0.0000 </r>
       <r>    8.4592    0.0000 </r>
       <r>    8.5545    0.0000 </r>
       <r>    8.6472    0.0000 </r>
       <r>    8.6736    0.0000 </r>
       <r>    8.6945    0.0000 </r>
       <r>    8.7092    0.0000 </r>
       <r>    8.7722    0.0000 </r>
       <r>    8.8570    0.0000 </r>
       <r>    8.8824    0.0000 </r>
       <r>    8.9582    0.0000 </r>
       <r>    9.1194    0.0000 </r>
       <r>    9.2300    0.0000 </r>
       <r>    9.2582    0.0000 </r>
       <r>    9.4122    0.0000 </r>
       <r>    9.4992    0.0000 </r>
       <r>    9.8581    0.0000 </r>
       <r>   10.1035    0.0000 </r>
       <r>   10.1912    0.0000 </r>
       <r>   10.2328    0.0000 </r>
      </set>
      <set comment="kpoint 3">
       <r>  -39.9187    1.0000 </r>
       <r>  -39.9023    1.0000 </r>
       <r>  -19.2026    1.0000 </r>
       <r>  -19.0404    1.0000 </r>
       <r>  -19.0338    1.0000 </r>
       <r>  -19.0279    1.0000 </r>
       <r>  -18.9880    1.0000 </r>
       <r>  -18.9690    1.0000 </r>
       <r>  -18.9603    1.0000 </r>
       <r>  -18.9530    1.0000 </r>
       <r>  -18.8611    1.0000 </r>
       <r>  -18.8482    1.0000 </r>
       <r>  -18.8217    1.0000 </r>
       <r>  -18.7863    1.0000 </r>
       <r>  -18.7833    1.0000 </r>
       <r>  -18.7725    1.0000 </r>
       <r>  -18.7681    1.0000 </r>
       <r>  -18.7625    1.0000 </r>
       <r>  -18.7607    1.0000 </r>
       <r>  -18.7569    1.0000 </r>
       <r>  -18.7561    1.0000 </r>
       <r>  -18.7358    1.0000 </r>
       <r>  -18.7286    1.0000 </r>
       <r>  -18.7216    1.0000 </r>
       <r>  -18.7190    1.0000 </r>
       <r>  -18.7184    1.0000 </r>
       <r>  -18.7128    1.0000 </r>
       <r>  -18.7116    1.0000 </r>
       <r>  -18.7113    1.0000 </r>
       <r>  -18.7091    1.0000 </r>
       <r>  -18.7019    1.0000 </r>
       <r>  -18.6993    1.0000 </r>
       <r>  -18.6978    1.0000 </r>
       <r>  -18.6968    1.0000 </r>
       <r>  -18.6931    1.0000 </r>
       <r>  -18.6895    1.0000 </r>
       <r>  -18.6890    1.0000 </r>
       <r>  -18.6851    1.0000 </r>
       <r>  -18.6819    1.0000 </r>
       <r>  -18.6795    1.0000 </r>
       <r>  -18.6792    1.0000 </r>
       <r>  -18.6644    1.0000 </r>
       <r>  -18.6552    1.0000 </r>
       <r>  -18.6363    1.0000 </r>
       <r>  -18.6315    1.0000 </r>
       <r>  -18.6304    1.0000 </r>
       <r>  -18.6250    1.0000 </r>
       <r>  -18.6204    1.0000 </r>
       <r>  -18.6180    1.0000 </r>
       <r>  -18.6081    1.0000 </r>
       <r>  -18.5992    1.0000 </r>
       <r>  -18.5860    1.0000 </r>
       <r>  -18.5818    1.0000 </r>
       <r>  -18.5724    1.0000 </r>
       <r>  -18.5690    1.0000 </r>
       <r>  -18.5682    1.0000 </r>
       <r>  -18.5655    1.0000 </r>
       <r>  -18.5589    1.0000 </r>
       <r>  -18.5556    1.0000 </r>
       <r>  -18.5517    1.0000 </r>
       <r>  -18.5502    1.0000 </r>
       <r>  -18.5396    1.0000 </r>
       <r>  -18.5354    1.0000 </r>
       <r>  -18.5307    1.0000 </r>
       <r>  -18.5216    1.0000 </r>
       <r>  -18.5203    1.0000 </r>
       <r>  -18.5095    1.0000 </r>
       <r>  -18.5080    1.0000 </r>
       <r>  -18.5051    1.0000 </r>
       <r>  -18.4962    1.0000 </r>
       <r>  -18.4831    1.0000 </r>
       <r>  -18.4522    1.0000 </r>
       <r>  -18.4290    1.0000 </r>
       <r>  -18.3941    1.0000 </r>
       <r>  -18.3671    1.0000 </r>
       <r>  -18.3093    1.0000 </r>
       <r>  -18.2950    1.0000 </r>
       <r>  -18.2731    1.0000 </r>
       <r>  -18.2580    1.0000 </r>
       <r>  -18.1362    1.0000 </r>
       <r>  -18.0358    1.0000 </r>
       <r>  -18.0145    1.0000 </r>
       <r>  -14.3973    1.0000 </r>
       <r>  -13.6958    1.0000 </r>
       <r>  -13.3788    1.0000 </r>
       <r>  -13.0379    1.0000 </r>
       <r>  -12.9138    1.0000 </r>
       <r>  -12.8507    1.0000 </r>
       <r>  -12.8266    1.0000 </r>
       <r>  -12.7871    1.0000 </r>
       <r>  -12.7694    1.0000 </r>
       <r>  -12.7495    1.0000 </r>
       <r>  -12.7363    1.0000 </r>
       <r>  -12.6821    1.0000 </r>
       <r>  -12.6288    1.0000 </r>
       <r>  -12.1922    1.0000 </r>
       <r>  -12.1537    1.0000 </r>
       <r>  -11.5368    1.0000 </r>
       <r>   -9.3995    1.0000 </r>
       <r>   -9.1230    1.0000 </r>
       <r>   -8.6793    1.0000 </r>
       <r>   -8.5925    1.0000 </r>
       <r>   -8.5805    1.0000 </r>
       <r>   -8.4854    1.0000 </r>
       <r>   -8.4162    1.0000 </r>
       <r>   -8.3357    1.0000 </r>
       <r>   -8.3143    1.0000 </r>
       <r>   -8.2267    1.0000 </r>
       <r>   -8.1217    1.0000 </r>
       <r>   -8.0960    1.0000 </r>
       <r>   -8.0824    1.0000 </r>
       <r>   -8.0574    1.0000 </r>
       <r>   -7.4377    1.0000 </r>
       <r>   -7.4216    1.0000 </r>
       <r>   -6.4824    1.0000 </r>
       <r>   -6.4546    1.0000 </r>
       <r>   -6.4228    1.0000 </r>
       <r>   -6.3906    1.0000 </r>
       <r>   -5.6638    1.0000 </r>
       <r>   -5.5670    1.0000 </r>
       <r>   -5.4726    1.0000 </r>
       <r>   -5.4558    1.0000 </r>
       <r>   -5.4504    1.0000 </r>
       <r>   -5.3244    1.0000 </r>
       <r>   -5.2754    1.0000 </r>
       <r>   -5.1892    1.0000 </r>
       <r>   -5.1506    1.0000 </r>
       <r>   -4.9538    1.0000 </r>
       <r>   -3.9650    1.0000 </r>
       <r>   -3.6471    1.0000 </r>
       <r>   -1.4803    1.0000 </r>
       <r>   -1.4295    1.0000 </r>
       <r>   -1.3269    1.0000 </r>
       <r>   -1.1897    1.0000 </r>
       <r>   -0.8071    1.0000 </r>
       <r>   -0.7184    1.0000 </r>
       <r>   -0.5221    1.0000 </r>
       <r>   -0.5023    1.0000 </r>
       <r>   -0.4828    1.0000 </r>
       <r>   -0.4617    1.0000 </r>
       <r>   -0.4518    1.0000 </r>
       <r>   -0.3994    1.0000 </r>
       <r>   -0.3185    1.0000 </r>
       <r>   -0.2561    1.0000 </r>
       <r>   -0.0929    1.0000 </r>
       <r>    0.0353    1.0000 </r>
       <r>    0.1327    1.0000 </r>
       <r>    0.2079    1.0000 </r>
       <r>    0.2750    1.0000 </r>
       <r>    0.3180    1.0000 </r>
       <r>    0.3829    1.0000 </r>
       <r>    0.4196    1.0000 </r>
       <r>    0.4661    1.0000 </r>
       <r>    0.5644    1.0000 </r>
       <r>    0.6263    1.0000 </r>
       <r>    0.6643    1.0000 </r>
       <r>    0.6865    1.0000 </r>
       <r>    0.7295    1.0000 </r>
       <r>    0.7540    1.0000 </r>
       <r>    0.8319    1.0000 </r>
       <r>    0.9223    1.0000 </r>
       <r>    1.0006    1.0000 </r>
       <r>    1.0811    1.0000 </r>
       <r>    1.1265    1.0000 </r>
       <r>    1.1678    1.0000 </r>
       <r>    1.1978    1.0000 </r>
       <r>    1.2741    1.0000 </r>
       <r>    1.3342    1.0000 </r>
       <r>    1.3643    1.0000 </r>
       <r>    1.3973    1.0000 </r>
       <r>    1.4638    1.0000 </r>
       <r>    1.4844    1.0000 </r>
       <r>    1.5937    1.0000 </r>
       <r>    1.6429    1.0000 </r>
       <r>    1.6736    1.0000 </r>
       <r>    1.7274    1.0000 </r>
       <r>    1.7581    1.0000 </r>
       <r>    1.8148    1.0000 </r>
       <r>    1.8512    1.0000 </r>
       <r>    1.9836    1.0000 </r>
       <r>    2.0477    1.0000 </r>
       <r>    2.0825    1.0000 </r>
       <r>    2.1759    1.0000 </r>
       <r>    2.2485    1.0000 </r>
       <r>    2.2714    1.0000 </r>
       <r>    2.3108    1.0000 </r>
       <r>    2.3782    1.0000 </r>
       <r>    2.4113    1.0000 </r>
       <r>    2.4229    1.0000 </r>
       <r>    2.4662    1.0000 </r>
       <r>    2.4847    1.0000 </r>
       <r>    2.5012    1.0000 </r>
       <r>    2.5129    1.0000 </r>
       <r>    2.5246    1.0000 </r>
       <r>    2.5370    1.0000 </r>
       <r>    2.5659    1.0000 </r>
       <r>    2.6190    1.0000 </r>
       <r>    2.6657    1.0000 </r>
       <r>    2.7276    1.0000 </r>
       <r>    2.7785    1.0000 </r>
       <r>    2.7934    1.0000 </r>
       <r>    2.8419    1.0000 </r>
       <r>    2.8681    1.0000 </r>
       <r>    2.8769    1.0000 </r>
       <r>    2.9235    1.0000 </r>
       <r>    2.9411    1.0000 </r>
       <r>    2.9560    1.0000 </r>
       <r>    3.0100    1.0000 </r>
       <r>    3.0373    1.0000 </r>
       <r>    3.0693    1.0000 </r>
       <r>    3.1127    1.0000 </r>
       <r>    3.1536    1.0000 </r>
       <r>    3.2106    1.0000 </r>
       <r>    3.2223    1.0000 </r>
       <r>    3.2835    1.0000 </r>
       <r>    3.3259    1.0000 </r>
       <r>    3.3707    1.0000 </r>
       <r>    3.3928    1.0000 </r>
       <r>    3.4347    1.0000 </r>
       <r>    3.4734    1.0000 </r>
       <r>    3.6302    1.0000 </r>
       <r>    3.9201    1.0000 </r>
       <r>    4.1373    1.0000 </r>
       <r>    4.1695    1.0000 </r>
       <r>    4.2001    1.0000 </r>
       <r>    4.2536    1.0000 </r>
       <r>    4.9976    0.0000 </r>
       <r>    5.0348    0.0000 </r>
       <r>    5.1662    0.0000 </r>
       <r>    5.2099    0.0000 </r>
       <r>    5.6548    0.0000 </r>
       <r>    5.6901    0.0000 </r>
       <r>    5.7703    0.0000 </r>
       <r>    5.8141    0.0000 </r>
       <r>    6.0668    0.0000 </r>
       <r>    6.0960    0.0000 </r>
       <r>    6.1071    0.0000 </r>
       <r>    6.1307    0.0000 </r>
       <r>    6.1689    0.0000 </r>
       <r>    6.1924    0.0000 </r>
       <r>    6.2246    0.0000 </r>
       <r>    6.2325    0.0000 </r>
       <r>    6.4106    0.0000 </r>
       <r>    6.7189    0.0000 </r>
       <r>    6.8127    0.0000 </r>
       <r>    6.9954    0.0000 </r>
       <r>    7.0746    0.0000 </r>
       <r>    7.1868    0.0000 </r>
       <r>    7.2493    0.0000 </r>
       <r>    7.3520    0.0000 </r>
       <r>    7.5718    0.0000 </r>
       <r>    7.7285    0.0000 </r>
       <r>    7.8548    0.0000 </r>
       <r>    7.9163    0.0000 </r>
       <r>    8.0497    0.0000 </r>
       <r>    8.2536    0.0000 </r>
       <r>    8.3632    0.0000 </r>
       <r>    8.3770    0.0000 </r>
       <r>    8.5463    0.0000 </r>
       <r>    8.6100    0.0000 </r>
       <r>    8.7893    0.0000 </r>
       <r>    8.8404    0.0000 </r>
       <r>    8.9461    0.0000 </r>
       <r>    8.9602    0.0000 </r>
       <r>    8.9677    0.0000 </r>
       <r>    9.0018    0.0000 </r>
       <r>    9.0172    0.0000 </r>
       <r>    9.0701    0.0000 </r>
       <r>    9.1042    0.0000 </r>
       <r>    9.1705    0.0000 </r>
       <r>    9.4001    0.0000 </r>
       <r>    9.4134    0.0000 </r>
       <r>    9.5007    0.0000 </r>
       <r>    9.6093    0.0000 </r>
       <r>    9.6528    0.0000 </r>
       <r>    9.6663    0.0000 </r>
       <r>    9.8319    0.0000 </r>
       <r>    9.9164    0.0000 </r>
       <r>    9.9433    0.0000 </r>
       <r>   10.0714    0.0000 </r>
      </set>
      <set comment="kpoint 4">
       <r>  -39.9187    1.0000 </r>
       <r>  -39.9023    1.0000 </r>
       <r>  -19.2026    1.0000 </r>
       <r>  -19.0404    1.0000 </r>
       <r>  -19.0338    1.0000 </r>
       <r>  -19.0279    1.0000 </r>
       <r>  -18.9880    1.0000 </r>
       <r>  -18.9690    1.0000 </r>
       <r>  -18.9602    1.0000 </r>
       <r>  -18.9530    1.0000 </r>
       <r>  -18.8611    1.0000 </r>
       <r>  -18.8482    1.0000 </r>
       <r>  -18.8217    1.0000 </r>
       <r>  -18.7858    1.0000 </r>
       <r>  -18.7831    1.0000 </r>
       <r>  -18.7723    1.0000 </r>
       <r>  -18.7685    1.0000 </r>
       <r>  -18.7622    1.0000 </r>
       <r>  -18.7607    1.0000 </r>
       <r>  -18.7570    1.0000 </r>
       <r>  -18.7564    1.0000 </r>
       <r>  -18.7362    1.0000 </r>
       <r>  -18.7290    1.0000 </r>
       <r>  -18.7217    1.0000 </r>
       <r>  -18.7188    1.0000 </r>
       <r>  -18.7185    1.0000 </r>
       <r>  -18.7123    1.0000 </r>
       <r>  -18.7114    1.0000 </r>
       <r>  -18.7113    1.0000 </r>
       <r>  -18.7094    1.0000 </r>
       <r>  -18.7018    1.0000 </r>
       <r>  -18.6997    1.0000 </r>
       <r>  -18.6974    1.0000 </r>
       <r>  -18.6967    1.0000 </r>
       <r>  -18.6926    1.0000 </r>
       <r>  -18.6897    1.0000 </r>
       <r>  -18.6892    1.0000 </r>
       <r>  -18.6852    1.0000 </r>
       <r>  -18.6817    1.0000 </r>
       <r>  -18.6797    1.0000 </r>
       <r>  -18.6793    1.0000 </r>
       <r>  -18.6645    1.0000 </r>
       <r>  -18.6551    1.0000 </r>
       <r>  -18.6363    1.0000 </r>
       <r>  -18.6315    1.0000 </r>
       <r>  -18.6304    1.0000 </r>
       <r>  -18.6251    1.0000 </r>
       <r>  -18.6204    1.0000 </r>
       <r>  -18.6180    1.0000 </r>
       <r>  -18.6081    1.0000 </r>
       <r>  -18.5992    1.0000 </r>
       <r>  -18.5860    1.0000 </r>
       <r>  -18.5818    1.0000 </r>
       <r>  -18.5724    1.0000 </r>
       <r>  -18.5690    1.0000 </r>
       <r>  -18.5682    1.0000 </r>
       <r>  -18.5655    1.0000 </r>
       <r>  -18.5589    1.0000 </r>
       <r>  -18.5556    1.0000 </r>
       <r>  -18.5517    1.0000 </r>
       <r>  -18.5502    1.0000 </r>
       <r>  -18.5396    1.0000 </r>
       <r>  -18.5354    1.0000 </r>
       <r>  -18.5307    1.0000 </r>
       <r>  -18.5216    1.0000 </r>
       <r>  -18.5203    1.0000 </r>
       <r>  -18.5094    1.0000 </r>
       <r>  -18.5080    1.0000 </r>
       <r>  -18.5051    1.0000 </r>
       <r>  -18.4963    1.0000 </r>
       <r>  -18.4831    1.0000 </r>
       <r>  -18.4522    1.0000 </r>
       <r>  -18.4290    1.0000 </r>
       <r>  -18.3941    1.0000 </r>
       <r>  -18.3671    1.0000 </r>
       <r>  -18.3093    1.0000 </r>
       <r>  -18.2950    1.0000 </r>
       <r>  -18.2731    1.0000 </r>
       <r>  -18.2580    1.0000 </r>
       <r>  -18.1362    1.0000 </r>
       <r>  -18.0358    1.0000 </r>
       <r>  -18.0145    1.0000 </r>
       <r>  -14.3973    1.0000 </r>
       <r>  -13.6957    1.0000 </r>
       <r>  -13.3785    1.0000 </r>
       <r>  -13.0369    1.0000 </r>
       <r>  -12.9125    1.0000 </r>
       <r>  -12.8579    1.0000 </r>
       <r>  -12.8233    1.0000 </r>
       <r>  -12.7942    1.0000 </r>
       <r>  -12.7697    1.0000 </r>
       <r>  -12.7489    1.0000 </r>
       <r>  -12.7258    1.0000 </r>
       <r>  -12.6833    1.0000 </r>
       <r>  -12.6301    1.0000 </r>
       <r>  -12.1914    1.0000 </r>
       <r>  -12.1544    1.0000 </r>
       <r>  -11.5367    1.0000 </r>
       <r>   -9.2691    1.0000 </r>
       <r>   -9.1079    1.0000 </r>
       <r>   -8.9886    1.0000 </r>
       <r>   -8.8268    1.0000 </r>
       <r>   -8.4951    1.0000 </r>
       <r>   -8.4874    1.0000 </r>
       <r>   -8.3610    1.0000 </r>
       <r>   -8.3520    1.0000 </r>
       <r>   -8.2519    1.0000 </r>
[...]
       <r>    8.7809    0.0000 </r>
       <r>    8.8163    0.0000 </r>
       <r>    8.8407    0.0000 </r>
       <r>    8.8450    0.0000 </r>
       <r>    8.8702    0.0000 </r>
       <r>    8.9415    0.0000 </r>
       <r>    9.2519    0.0000 </r>
       <r>    9.6767    0.0000 </r>
       <r>    9.9099    0.0000 </r>
       <r>    9.9555    0.0000 </r>
       <r>   10.1061    0.0000 </r>
       <r>   10.1361    0.0000 </r>
      </set>
     </set>
    </set>
   </array>
  </eigenvalues>
  <separator name="orbital magnetization" >
   <v name="MAGDIPOLOUT">      0.00000000      0.00000000      0.00000000</v>
  </separator>
  <dos>
   <i name="efermi">      4.26049785 </i>
   <total>
    <array>
     <dimension dim="1">gridpoints</dimension>
     <dimension dim="2">spin</dimension>
     <field>energy</field>
     <field>total</field>
     <field>integrated</field>
     <set>
      <set comment="spin 1">
       <r>   -42.4303     0.0000     0.0000 </r>
       <r>   -42.2462     0.0000     0.0000 </r>
       <r>   -42.0620     0.0000     0.0000 </r>
       <r>   -41.8778     0.0000     0.0000 </r>
       <r>   -41.6936     0.0000     0.0000 </r>
       <r>   -41.5094     0.0000     0.0000 </r>
       <r>   -41.3252     0.0000     0.0000 </r>
       <r>   -41.1410     0.0000     0.0000 </r>
       <r>   -40.9569     0.0000     0.0000 </r>
       <r>   -40.7727     0.0000     0.0000 </r>
       <r>   -40.5885     0.0000     0.0000 </r>
       <r>   -40.4043     0.0000     0.0000 </r>
       <r>   -40.2201     0.0000     0.0000 </r>
       <r>   -40.0359     0.0000     0.0000 </r>
       <r>   -39.8518     0.0000     4.0000 </r>
       <r>   -39.6676     0.0000     4.0000 </r>
       <r>   -39.4834     0.0000     4.0000 </r>
       <r>   -39.2992     0.0000     4.0000 </r>
       <r>   -39.1150     0.0000     4.0000 </r>
       <r>   -38.9308     0.0000     4.0000 </r>
       <r>   -38.7466     0.0000     4.0000 </r>
       <r>   -38.5625     0.0000     4.0000 </r>
       <r>   -38.3783     0.0000     4.0000 </r>
       <r>   -38.1941     0.0000     4.0000 </r>
       <r>   -38.0099     0.0000     4.0000 </r>
       <r>   -37.8257     0.0000     4.0000 </r>
       <r>   -37.6415     0.0000     4.0000 </r>
       <r>   -37.4574     0.0000     4.0000 </r>
       <r>   -37.2732     0.0000     4.0000 </r>
       <r>   -37.0890     0.0000     4.0000 </r>
       <r>   -36.9048     0.0000     4.0000 </r>
       <r>   -36.7206     0.0000     4.0000 </r>
       <r>   -36.5364     0.0000     4.0000 </r>
       <r>   -36.3522     0.0000     4.0000 </r>
       <r>   -36.1681     0.0000     4.0000 </r>
       <r>   -35.9839     0.0000     4.0000 </r>
       <r>   -35.7997     0.0000     4.0000 </r>
       <r>   -35.6155     0.0000     4.0000 </r>
       <r>   -35.4313     0.0000     4.0000 </r>
       <r>   -35.2471     0.0000     4.0000 </r>
       <r>   -35.0630     0.0000     4.0000 </r>
       <r>   -34.8788     0.0000     4.0000 </r>
       <r>   -34.6946     0.0000     4.0000 </r>
       <r>   -34.5104     0.0000     4.0000 </r>
       <r>   -34.3262     0.0000     4.0000 </r>
       <r>   -34.1420     0.0000     4.0000 </r>
       <r>   -33.9578     0.0000     4.0000 </r>
       <r>   -33.7737     0.0000     4.0000 </r>
       <r>   -33.5895     0.0000     4.0000 </r>
       <r>   -33.4053     0.0000     4.0000 </r>
       <r>   -33.2211     0.0000     4.0000 </r>
       <r>   -33.0369     0.0000     4.0000 </r>
       <r>   -32.8527     0.0000     4.0000 </r>
       <r>   -32.6685     0.0000     4.0000 </r>
       <r>   -32.4844     0.0000     4.0000 </r>
       <r>   -32.3002     0.0000     4.0000 </r>
       <r>   -32.1160     0.0000     4.0000 </r>
       <r>   -31.9318     0.0000     4.0000 </r>
       <r>   -31.7476     0.0000     4.0000 </r>
       <r>   -31.5634     0.0000     4.0000 </r>
       <r>   -31.3793     0.0000     4.0000 </r>
       <r>   -31.1951     0.0000     4.0000 </r>
       <r>   -31.0109     0.0000     4.0000 </r>
       <r>   -30.8267     0.0000     4.0000 </r>
       <r>   -30.6425     0.0000     4.0000 </r>
       <r>   -30.4583     0.0000     4.0000 </r>
       <r>   -30.2741     0.0000     4.0000 </r>
       <r>   -30.0900     0.0000     4.0000 </r>
       <r>   -29.9058     0.0000     4.0000 </r>
       <r>   -29.7216     0.0000     4.0000 </r>
       <r>   -29.5374     0.0000     4.0000 </r>
       <r>   -29.3532     0.0000     4.0000 </r>
       <r>   -29.1690     0.0000     4.0000 </r>
       <r>   -28.9849     0.0000     4.0000 </r>
       <r>   -28.8007     0.0000     4.0000 </r>
       <r>   -28.6165     0.0000     4.0000 </r>
       <r>   -28.4323     0.0000     4.0000 </r>
       <r>   -28.2481     0.0000     4.0000 </r>
       <r>   -28.0639     0.0000     4.0000 </r>
       <r>   -27.8797     0.0000     4.0000 </r>
       <r>   -27.6956     0.0000     4.0000 </r>
       <r>   -27.5114     0.0000     4.0000 </r>
       <r>   -27.3272     0.0000     4.0000 </r>
       <r>   -27.1430     0.0000     4.0000 </r>
       <r>   -26.9588     0.0000     4.0000 </r>
       <r>   -26.7746     0.0000     4.0000 </r>
       <r>   -26.5905     0.0000     4.0000 </r>
       <r>   -26.4063     0.0000     4.0000 </r>
       <r>   -26.2221     0.0000     4.0000 </r>
       <r>   -26.0379     0.0000     4.0000 </r>
       <r>   -25.8537     0.0000     4.0000 </r>
       <r>   -25.6695     0.0000     4.0000 </r>
       <r>   -25.4853     0.0000     4.0000 </r>
       <r>   -25.3012     0.0000     4.0000 </r>
       <r>   -25.1170     0.0000     4.0000 </r>
       <r>   -24.9328     0.0000     4.0000 </r>
       <r>   -24.7486     0.0000     4.0000 </r>
       <r>   -24.5644     0.0000     4.0000 </r>
       <r>   -24.3802     0.0000     4.0000 </r>
       <r>   -24.1960     0.0000     4.0000 </r>
       <r>   -24.0119     0.0000     4.0000 </r>
       <r>   -23.8277     0.0000     4.0000 </r>
       <r>   -23.6435     0.0000     4.0000 </r>
       <r>   -23.4593     0.0000     4.0000 </r>
       <r>   -23.2751     0.0000     4.0000 </r>
       <r>   -23.0909     0.0000     4.0000 </r>
       <r>   -22.9068     0.0000     4.0000 </r>
       <r>   -22.7226     0.0000     4.0000 </r>
       <r>   -22.5384     0.0000     4.0000 </r>
       <r>   -22.3542     0.0000     4.0000 </r>
       <r>   -22.1700     0.0000     4.0000 </r>
       <r>   -21.9858     0.0000     4.0000 </r>
       <r>   -21.8016     0.0000     4.0000 </r>
       <r>   -21.6175     0.0000     4.0000 </r>
       <r>   -21.4333     0.0000     4.0000 </r>
       <r>   -21.2491     0.0000     4.0000 </r>
       <r>   -21.0649     0.0000     4.0000 </r>
       <r>   -20.8807     0.0000     4.0000 </r>
       <r>   -20.6965     0.0000     4.0000 </r>
       <r>   -20.5124     0.0000     4.0000 </r>
       <r>   -20.3282     0.0000     4.0000 </r>
       <r>   -20.1440     0.0000     4.0000 </r>
       <r>   -19.9598     0.0000     4.0000 </r>
       <r>   -19.7756     0.0000     4.0000 </r>
       <r>   -19.5914     0.0000     4.0000 </r>
       <r>   -19.4072     0.0000     4.0000 </r>
       <r>   -19.2231     0.0000     4.0000 </r>
       <r>   -19.0389     0.0000     8.0000 </r>
       <r>   -18.8547     0.0000    22.0000 </r>
       <r>   -18.6705     0.0000    82.0000 </r>
       <r>   -18.4863     0.0000   140.0000 </r>
       <r>   -18.3021     0.0000   152.0000 </r>
       <r>   -18.1180     0.0000   160.0000 </r>
       <r>   -17.9338     0.0000   164.0000 </r>
       <r>   -17.7496     0.0000   164.0000 </r>
       <r>   -17.5654     0.0000   164.0000 </r>
       <r>   -17.3812     0.0000   164.0000 </r>
       <r>   -17.1970     0.0000   164.0000 </r>
       <r>   -17.0128     0.0000   164.0000 </r>
       <r>   -16.8287     0.0000   164.0000 </r>
       <r>   -16.6445     0.0000   164.0000 </r>
       <r>   -16.4603     0.0000   164.0000 </r>
       <r>   -16.2761     0.0000   164.0000 </r>
       <r>   -16.0919     0.0000   164.0000 </r>
       <r>   -15.9077     0.0000   164.0000 </r>
       <r>   -15.7235     0.0000   164.0000 </r>
       <r>   -15.5394     0.0000   164.0000 </r>
       <r>   -15.3552     0.0000   164.0000 </r>
       <r>   -15.1710     0.0000   164.0000 </r>
       <r>   -14.9868     0.0000   164.0000 </r>
       <r>   -14.8026     0.0000   164.0000 </r>
       <r>   -14.6184     0.0000   164.0000 </r>
       <r>   -14.4343     0.0000   164.0000 </r>
       <r>   -14.2501     0.0000   166.0000 </r>
       <r>   -14.0659     0.0000   166.0000 </r>
       <r>   -13.8817     0.0000   166.0000 </r>
       <r>   -13.6975     0.0000   166.0000 </r>
       <r>   -13.5133     0.0000   168.0000 </r>
       <r>   -13.3291     0.0000   170.0000 </r>
       <r>   -13.1450     0.0000   170.0000 </r>
       <r>   -12.9608     0.0000   172.0000 </r>
       <r>   -12.7766   125.2442   180.2736 </r>
       <r>   -12.5924     0.0000   190.0000 </r>
       <r>   -12.4082     0.0000   190.0000 </r>
       <r>   -12.2240     0.0000   190.0000 </r>
       <r>   -12.0399     0.0000   194.0000 </r>
       <r>   -11.8557     0.0000   194.0000 </r>
       <r>   -11.6715     0.0000   194.0000 </r>
       <r>   -11.4873     0.0000   196.0000 </r>
       <r>   -11.3031     0.0000   196.0000 </r>
       <r>   -11.1189     0.0000   196.0000 </r>
       <r>   -10.9347     0.0000   196.0000 </r>
       <r>   -10.7506     0.0000   196.0000 </r>
       <r>   -10.5664     0.0000   196.0000 </r>
       <r>   -10.3822     0.0000   196.0000 </r>
       <r>   -10.1980     0.0000   196.0000 </r>
       <r>   -10.0138     0.0000   196.0000 </r>
       <r>    -9.8296     0.0000   196.0000 </r>
       <r>    -9.6455     0.0000   196.0000 </r>
       <r>    -9.4613     0.0000   196.0000 </r>
       <r>    -9.2771    10.9596   196.7027 </r>
       <r>    -9.0929    16.0817   199.1937 </r>
       <r>    -8.9087     8.4588   200.9924 </r>
       <r>    -8.7245    10.5502   203.7570 </r>
       <r>    -8.5403    23.5772   206.3132 </r>
       <r>    -8.3562    24.1266   211.7200 </r>
       <r>    -8.1720    21.8340   214.1689 </r>
       <r>    -7.9878    20.3372   219.1485 </r>
       <r>    -7.8036    29.5415   222.6016 </r>
       <r>    -7.6194    22.3399   225.8633 </r>
       <r>    -7.4352     0.9957   227.9925 </r>
       <r>    -7.2511     0.0000   228.0000 </r>
       <r>    -7.0669     0.0000   228.0000 </r>
       <r>    -6.8827     0.0000   228.0000 </r>
       <r>    -6.6985     0.0000   228.0000 </r>
       <r>    -6.5143     0.0000   228.0000 </r>
       <r>    -6.3301    15.7712   229.0729 </r>
       <r>    -6.1459    19.2828   232.8970 </r>
       <r>    -5.9618    14.7350   236.0716 </r>
       <r>    -5.7776    35.3314   240.4285 </r>
       <r>    -5.5934    19.5766   244.3841 </r>
       <r>    -5.4092    22.6388   247.9786 </r>
       <r>    -5.2250    11.1233   251.2262 </r>
       <r>    -5.0408     2.9044   252.1912 </r>
       <r>    -4.8566     8.5609   253.2135 </r>
       <r>    -4.6725    10.3139   254.9240 </r>
       <r>    -4.4883     7.1007   256.7135 </r>
       <r>    -4.3041     7.5700   257.9183 </r>
       <r>    -4.1199     5.1508   259.1516 </r>
       <r>    -3.9357     1.8574   259.7908 </r>
       <r>    -3.7515     0.4039   259.9858 </r>
       <r>    -3.5674     0.0000   260.0000 </r>
       <r>    -3.3832     0.0000   260.0000 </r>
       <r>    -3.1990     0.0000   260.0000 </r>
       <r>    -3.0148     0.0000   260.0000 </r>
       <r>    -2.8306     0.0000   260.0000 </r>
       <r>    -2.6464     0.0000   260.0000 </r>
       <r>    -2.4622     0.0000   260.0000 </r>
       <r>    -2.2781     0.0000   260.0000 </r>
       <r>    -2.0939     0.0000   260.0000 </r>
       <r>    -1.9097     0.0000   260.0000 </r>
       <r>    -1.7255     0.0000   260.0000 </r>
       <r>    -1.5413     0.8587   260.0238 </r>
       <r>    -1.3571     8.6751   260.7768 </r>
       <r>    -1.1730    13.2839   262.9693 </r>
       <r>    -0.9888    12.3556   265.3213 </r>
       <r>    -0.8046    11.7095   267.8420 </r>
       <r>    -0.6204    12.7562   270.2405 </r>
       <r>    -0.4362    16.1998   272.3573 </r>
       <r>    -0.2520    33.7405   277.0126 </r>
       <r>    -0.0678    35.4342   283.8845 </r>
       <r>     0.1163    27.5676   289.3409 </r>
       <r>     0.3005    40.4130   295.7117 </r>
       <r>     0.4847    49.6564   303.4120 </r>
       <r>     0.6689    31.1701   310.5790 </r>
       <r>     0.8531    45.1576   317.6216 </r>
       <r>     1.0373    44.4867   325.3245 </r>
       <r>     1.2214    39.5302   334.6507 </r>
       <r>     1.4056    46.4157   343.7519 </r>
       <r>     1.5898    49.5497   351.7964 </r>
       <r>     1.7740    35.4935   359.6682 </r>
       <r>     1.9582    38.6597   364.8680 </r>
       <r>     2.1424    43.8227   372.4794 </r>
       <r>     2.3266    48.8986   380.7363 </r>
       <r>     2.5107    56.2225   391.6010 </r>
       <r>     2.6949    52.8484   401.0058 </r>
       <r>     2.8791    71.0454   412.2146 </r>
       <r>     3.0633    53.6618   423.6364 </r>
       <r>     3.2475    35.2909   431.5800 </r>
       <r>     3.4317    49.3205   439.4481 </r>
       <r>     3.6159    19.6521   444.7776 </r>
       <r>     3.8000    13.2239   447.8899 </r>
       <r>     3.9842     5.2840   449.5478 </r>
       <r>     4.1684     5.2357   451.8422 </r>
       <r>     4.3526     0.0000   452.0000 </r>
       <r>     4.5368     0.0000   452.0000 </r>
       <r>     4.7210     0.0000   452.0000 </r>
       <r>     4.9051     0.0000   452.0000 </r>
       <r>     5.0893     1.1131   452.0683 </r>
       <r>     5.2735     4.4006   452.5306 </r>
       <r>     5.4577     8.5621   453.7242 </r>
       <r>     5.6419     9.2969   455.5078 </r>
       <r>     5.8261    22.6045   459.3623 </r>
       <r>     6.0103    12.6384   462.1074 </r>
       <r>     6.1944    12.3068   464.3390 </r>
       <r>     6.3786    14.5789   466.8159 </r>
       <r>     6.5628    16.3668   469.6641 </r>
       <r>     6.7470    18.3189   472.8537 </r>
       <r>     6.9312    22.0302   476.5267 </r>
       <r>     7.1154    27.5576   481.0277 </r>
       <r>     7.2995    37.7393   487.2438 </r>
       <r>     7.4837    29.4534   493.4299 </r>
       <r>     7.6679    39.1433   499.0630 </r>
       <r>     7.8521    44.1227   507.9772 </r>
       <r>     8.0363    26.4343   514.1058 </r>
       <r>     8.2205    19.0723   518.1253 </r>
       <r>     8.4047    21.2156   521.8186 </r>
       <r>     8.5888    26.2735   526.1969 </r>
       <r>     8.7730    43.3702   532.5365 </r>
       <r>     8.9572    28.6287   539.7399 </r>
       <r>     9.1414    18.1023   543.7308 </r>
       <r>     9.3256    16.6045   546.8259 </r>
       <r>     9.5098    13.3816   549.7289 </r>
       <r>     9.6939     8.7638   551.4991 </r>
       <r>     9.8781    13.3574   553.4345 </r>
       <r>    10.0623    16.9010   556.2056 </r>
       <r>    10.2465    16.2805   559.5072 </r>
       <r>    10.4307     0.0000   560.0000 </r>
       <r>    10.6149     0.0000   560.0000 </r>
       <r>    10.7991     0.0000   560.0000 </r>
       <r>    10.9832     0.0000   560.0000 </r>
       <r>    11.1674     0.0000   560.0000 </r>
       <r>    11.3516     0.0000   560.0000 </r>
       <r>    11.5358     0.0000   560.0000 </r>
       <r>    11.7200     0.0000   560.0000 </r>
       <r>    11.9042     0.0000   560.0000 </r>
       <r>    12.0884     0.0000   560.0000 </r>
       <r>    12.2725     0.0000   560.0000 </r>
       <r>    12.4567     0.0000   560.0000 </r>
       <r>    12.6409     0.0000   560.0000 </r>
       <r>    12.8251     0.0000   560.0000 </r>
      </set>
     </set>
    </array>
   </total>
  </dos>
 </calculation>
 <structure name="finalpos" >
  <crystal>
   <varray name="basis" >
    <v>      11.17850000       0.00000000       0.00000000 </v>
    <v>       0.00000000       9.57460000       0.00000000 </v>
    <v>       0.00000000       0.00000000      11.18240000 </v>
   </varray>
   <i name="volume">   1196.84853820 </i>
   <varray name="rec_basis" >
    <v>       0.08945744       0.00000000       0.00000000 </v>
    <v>       0.00000000       0.10444301       0.00000000 </v>
    <v>       0.00000000       0.00000000       0.08942624 </v>
   </varray>
  </crystal>
  <varray name="positions" >
   <v>       0.37461000       0.00017000       0.68687000 </v>
   <v>       0.62461000       0.99984000       0.68687000 </v>
   <v>       0.12461000       0.99984000       0.18687000 </v>
   <v>       0.62539000       0.99984000       0.43687000 </v>
   <v>       0.87539000       0.00017000       0.43687000 </v>
   <v>       0.62461000       0.99984000       0.18687000 </v>
   <v>       0.37539000       0.00017000       0.93687000 </v>
   <v>       0.12461000       0.99984000       0.68687000 </v>
   <v>       0.87539000       0.00017000       0.93687000 </v>
   <v>       0.00013000       0.29519000       0.06281000 </v>
   <v>       0.25013000       0.70481000       0.06281000 </v>
   <v>       0.24987000       0.29519000       0.31282000 </v>
   <v>       0.49987000       0.70481000       0.31282000 </v>
   <v>       0.50013000       0.29519000       0.06281000 </v>
   <v>       0.75013000       0.70481000       0.06281000 </v>
   <v>       0.74987000       0.29519000       0.31282000 </v>
   <v>       0.99987000       0.70481000       0.31282000 </v>
   <v>       0.00013000       0.29519000       0.56281000 </v>
   <v>       0.25013000       0.70481000       0.56281000 </v>
   <v>       0.24987000       0.29519000       0.81282000 </v>
   <v>       0.49987000       0.70481000       0.81282000 </v>
   <v>       0.50013000       0.29519000       0.56281000 </v>
   <v>       0.75013000       0.70481000       0.56281000 </v>
   <v>       0.74987000       0.29519000       0.81282000 </v>
   <v>       0.99987000       0.70481000       0.81282000 </v>
   <v>       0.25005000       0.32677000       0.06286000 </v>
   <v>       0.00005000       0.67323000       0.06286000 </v>
   <v>       0.49995000       0.32677000       0.31286000 </v>
   <v>       0.24995000       0.67323000       0.31286000 </v>
   <v>       0.75005000       0.32677000       0.06286000 </v>
   <v>       0.50005000       0.67323000       0.06286000 </v>
   <v>       0.99995000       0.32677000       0.31286000 </v>
   <v>       0.74995000       0.67323000       0.31286000 </v>
   <v>       0.25005000       0.32677000       0.56286000 </v>
   <v>       0.00005000       0.67323000       0.56286000 </v>
   <v>       0.49995000       0.32677000       0.81286000 </v>
   <v>       0.24995000       0.67323000       0.81286000 </v>
   <v>       0.75005000       0.32677000       0.56286000 </v>
   <v>       0.50005000       0.67323000       0.56286000 </v>
   <v>       0.99995000       0.32677000       0.81286000 </v>
   <v>       0.74995000       0.67323000       0.81286000 </v>
   <v>       0.49987000       0.07798000       0.06246000 </v>
   <v>       0.24987000       0.92202000       0.06246000 </v>
   <v>       0.25013000       0.07798000       0.31246000 </v>
   <v>       0.00013000       0.92202000       0.31246000 </v>
   <v>       0.99987000       0.07798000       0.06246000 </v>
   <v>       0.74987000       0.92202000       0.06246000 </v>
   <v>       0.75013000       0.07798000       0.31246000 </v>
   <v>       0.50013000       0.92202000       0.31246000 </v>
   <v>       0.49987000       0.07798000       0.56246000 </v>
   <v>       0.24987000       0.92202000       0.56246000 </v>
   <v>       0.25013000       0.07798000       0.81246000 </v>
   <v>       0.00013000       0.92202000       0.81246000 </v>
   <v>       0.99987000       0.07798000       0.56246000 </v>
   <v>       0.74987000       0.92202000       0.56246000 </v>
   <v>       0.75013000       0.07798000       0.81246000 </v>
   <v>       0.50013000       0.92202000       0.81246000 </v>
  </varray>
 </structure>
</modeling>
