<?xml version="1.0" encoding="ISO-8859-1"?>
<modeling>
 <generator>
  <i name="program" type="string">vasp </i>
  <i name="version" type="string">5.4.4.18Apr17-6-g9f103f2a35  </i>
  <i name="subversion" type="string">(build Jul 31 2017 11:33:29) complex            parallel </i>
  <i name="platform" type="string">LinuxIFC </i>
  <i name="date" type="string">2021 09 21 </i>
  <i name="time" type="string">17:45:35 </i>
 </generator>
 <incar>
  <i type="string" name="SYSTEM"> La2O2S</i>
  <i type="string" name="PREC">normal</i>
  <i type="int" name="NELMIN">     4</i>
  <i type="int" name="IBRION">     2</i>
  <i type="int" name="NFREE">    10</i>
  <i name="EDIFF">      0.00000100</i>
  <i name="EDIFFG">     -0.01000000</i>
  <i type="int" name="NSW">   200</i>
  <i type="int" name="ISIF">     3</i>
  <i name="ENCUT">    600.00000000</i>
  <i name="ENAUG">    900.00000000</i>
  <i type="int" name="ISMEAR">    -5</i>
  <i type="logical" name="LWAVE"> F  </i>
  <i type="logical" name="LCHARG"> F  </i>
  <v type="int" name="KPOINT_BSE">    -1     0     0     0</v>
 </incar>
 <structure name="primitive_cell" >
  <crystal>
   <varray name="basis" >
    <v>      11.17850000       0.00000000       0.00000000 </v>
    <v>       0.00000000       9.57460000       0.00000000 </v>
    <v>       0.00000000       0.00000000      11.18240000 </v>
   </varray>
   <i name="volume">   1196.84853820 </i>
   <varray name="rec_basis" >
    <v>       0.08945744       0.00000000       0.00000000 </v>
    <v>       0.00000000       0.10444301       0.00000000 </v>
    <v>       0.00000000       0.00000000       0.08942624 </v>
   </varray>
  </crystal>
  <varray name="positions" >
   <v>      -0.12461000       0.00017000       0.43687000 </v>
   <v>       0.00013000      -0.07798000       0.31246000 </v>
   <v>      -0.24987000       0.07798000       0.31246000 </v>
   <v>      -0.00013000       0.07798000      -0.43754000 </v>
   <v>      -0.25013000      -0.07798000      -0.43754000 </v>
   <v>      -0.37461000      -0.00016000       0.43687000 </v>
   <v>      -0.12539000       0.00017000       0.18687000 </v>
   <v>      -0.12539000       0.00017000      -0.31313000 </v>
   <v>      -0.00013000      -0.29519000       0.31282000 </v>
   <v>      -0.25013000       0.29519000       0.31282000 </v>
   <v>       0.00013000       0.29519000      -0.43719000 </v>
   <v>      -0.24987000      -0.29519000      -0.43719000 </v>
   <v>      -0.00005000       0.32677000       0.31286000 </v>
   <v>      -0.25005000      -0.32677000       0.31286000 </v>
   <v>       0.00005000      -0.32677000      -0.43714000 </v>
   <v>      -0.24995000       0.32677000      -0.43714000 </v>
   <v>      -0.37539000      -0.00016000      -0.31313000 </v>
   <v>      -0.00013000       0.07798000       0.06246000 </v>
   <v>       0.25013000       0.07798000       0.31246000 </v>
   <v>       0.24987000      -0.07798000      -0.43754000 </v>
   <v>      -0.25013000      -0.07798000       0.06246000 </v>
   <v>      -0.49987000      -0.07798000       0.31246000 </v>
   <v>       0.00013000      -0.07798000      -0.18754000 </v>
   <v>       0.49987000       0.07798000      -0.43754000 </v>
   <v>      -0.24987000       0.07798000      -0.18754000 </v>
   <v>       0.00013000       0.29519000       0.06281000 </v>
   <v>       0.24987000       0.29519000       0.31282000 </v>
   <v>      -0.24987000      -0.29519000       0.06281000 </v>
   <v>       0.25013000      -0.29519000      -0.43719000 </v>
   <v>       0.49987000      -0.29519000       0.31282000 </v>
   <v>      -0.49987000       0.29519000      -0.43719000 </v>
   <v>      -0.00013000      -0.29519000      -0.18718000 </v>
   <v>      -0.25013000       0.29519000      -0.18718000 </v>
   <v>       0.00005000      -0.32677000       0.06286000 </v>
   <v>      -0.24995000       0.32677000       0.06286000 </v>
   <v>       0.24995000      -0.32677000       0.31286000 </v>
   <v>       0.25005000       0.32677000      -0.43714000 </v>
   <v>       0.49995000       0.32677000       0.31286000 </v>
   <v>      -0.49995000      -0.32677000      -0.43714000 </v>
   <v>      -0.00005000       0.32677000      -0.18714000 </v>
   <v>      -0.25005000      -0.32677000      -0.18714000 </v>
   <v>      -0.12461000       0.00017000      -0.06313000 </v>
   <v>       0.24987000      -0.07798000       0.06246000 </v>
   <v>       0.49987000       0.07798000       0.06246000 </v>
   <v>       0.25013000       0.07798000      -0.18754000 </v>
   <v>      -0.49987000      -0.07798000      -0.18754000 </v>
   <v>       0.37461000       0.00017000      -0.31313000 </v>
   <v>       0.37461000       0.00017000       0.18687000 </v>
   <v>      -0.37461000      -0.00016000      -0.06313000 </v>
   <v>       0.12539000      -0.00016000      -0.06313000 </v>
   <v>       0.25013000      -0.29519000       0.06281000 </v>
   <v>      -0.49987000       0.29519000       0.06281000 </v>
   <v>       0.24987000       0.29519000      -0.18718000 </v>
   <v>       0.49987000      -0.29519000      -0.18718000 </v>
   <v>       0.25005000       0.32677000       0.06286000 </v>
   <v>      -0.49995000      -0.32677000       0.06286000 </v>
   <v>       0.24995000      -0.32677000      -0.18714000 </v>
   <v>       0.49995000       0.32677000      -0.18714000 </v>
   <v>       0.37539000       0.00017000      -0.06313000 </v>
  </varray>
 </structure>
 <varray name="primitive_index" >
  <v type="int" >        1 </v>
  <v type="int" >       47 </v>
  <v type="int" >       50 </v>
  <v type="int" >       56 </v>
  <v type="int" >       57 </v>
  <v type="int" >        8 </v>
  <v type="int" >        2 </v>
  <v type="int" >        6 </v>
  <v type="int" >       19 </v>
  <v type="int" >       18 </v>
  <v type="int" >       20 </v>
  <v type="int" >       25 </v>
  <v type="int" >       34 </v>
  <v type="int" >       35 </v>
  <v type="int" >       37 </v>
  <v type="int" >       40 </v>
  <v type="int" >       11 </v>
  <v type="int" >       48 </v>
  <v type="int" >       46 </v>
  <v type="int" >       53 </v>
  <v type="int" >       49 </v>
  <v type="int" >       51 </v>
  <v type="int" >       55 </v>
  <v type="int" >       52 </v>
  <v type="int" >       58 </v>
  <v type="int" >       12 </v>
  <v type="int" >       14 </v>
  <v type="int" >       17 </v>
  <v type="int" >       21 </v>
  <v type="int" >       15 </v>
  <v type="int" >       24 </v>
  <v type="int" >       27 </v>
  <v type="int" >       26 </v>
  <v type="int" >       29 </v>
  <v type="int" >       32 </v>
  <v type="int" >       31 </v>
  <v type="int" >       36 </v>
  <v type="int" >       30 </v>
  <v type="int" >       41 </v>
  <v type="int" >       42 </v>
  <v type="int" >       43 </v>
  <v type="int" >        5 </v>
  <v type="int" >       45 </v>
  <v type="int" >       44 </v>
  <v type="int" >       54 </v>
  <v type="int" >       59 </v>
  <v type="int" >        3 </v>
  <v type="int" >        7 </v>
  <v type="int" >        4 </v>
  <v type="int" >        9 </v>
  <v type="int" >       13 </v>
  <v type="int" >       16 </v>
  <v type="int" >       22 </v>
  <v type="int" >       23 </v>
  <v type="int" >       28 </v>
  <v type="int" >       33 </v>
  <v type="int" >       39 </v>
  <v type="int" >       38 </v>
  <v type="int" >       10 </v>
 </varray>
 <kpoints>
  <generation param="Gamma">
   <v type="int" name="divisions">       2        2        2 </v>
   <v name="usershift">      0.00000000       0.00000000       0.00000000 </v>
   <v name="genvec1">      0.50000000       0.00000000       0.00000000 </v>
   <v name="genvec2">      0.00000000       0.50000000       0.00000000 </v>
   <v name="genvec3">      0.00000000       0.00000000       0.50000000 </v>
   <v name="shift">      0.00000000       0.00000000       0.00000000 </v>
  </generation>
  <varray name="kpointlist" >
   <v>       0.00000000       0.00000000       0.00000000 </v>
   <v>       0.50000000       0.00000000       0.00000000 </v>
   <v>       0.00000000       0.50000000       0.00000000 </v>
   <v>       0.50000000       0.50000000       0.00000000 </v>
   <v>       0.00000000       0.00000000       0.50000000 </v>
   <v>       0.50000000       0.00000000       0.50000000 </v>
   <v>       0.00000000       0.50000000       0.50000000 </v>
   <v>       0.50000000       0.50000000       0.50000000 </v>
  </varray>
  <varray name="weights" >
   <v>       0.12500000 </v>
   <v>       0.12500000 </v>
   <v>       0.12500000 </v>
   <v>       0.12500000 </v>
   <v>       0.12500000 </v>
   <v>       0.12500000 </v>
   <v>       0.12500000 </v>
   <v>       0.12500000 </v>
  </varray>
  <varray name="tetrahedronlist"  type="int" >
   <v type="int" >        2        1        2        4        5 </v>
   <v type="int" >        2        1        3        4        5 </v>
   <v type="int" >        2        3        4        5        7 </v>
   <v type="int" >        2        2        4        5        6 </v>
   <v type="int" >        2        4        5        6        8 </v>
   <v type="int" >        2        4        5        7        8 </v>
   <v type="int" >        2        1        2        3        6 </v>
   <v type="int" >        2        2        3        4        6 </v>
   <v type="int" >        2        3        4        6        8 </v>
   <v type="int" >        2        1        3        5        6 </v>
   <v type="int" >        2        3        5        6        7 </v>
   <v type="int" >        2        3        6        7        8 </v>
   <v type="int" >        2        2        3        4        7 </v>
   <v type="int" >        2        1        2        3        7 </v>
   <v type="int" >        2        1        2        5        7 </v>
   <v type="int" >        2        2        4        7        8 </v>
   <v type="int" >        2        2        6        7        8 </v>
   <v type="int" >        2        2        5        6        7 </v>
   <v type="int" >        2        1        3        4        8 </v>
   <v type="int" >        2        1        2        4        8 </v>
   <v type="int" >        2        1        2        6        8 </v>
   <v type="int" >        2        1        3        7        8 </v>
   <v type="int" >        2        1        5        7        8 </v>
   <v type="int" >        2        1        5        6        8 </v>
  </varray>
  <i name="volumeweight">      0.02083333 </i>
 </kpoints>
 <parameters>
  <separator name="general" >
   <i type="string" name="SYSTEM">La2O2S</i>
   <i type="logical" name="LCOMPAT"> F  </i>
  </separator>
  <separator name="electronic" >
   <i type="string" name="PREC">normal</i>
   <i name="ENMAX">    600.00000000</i>
   <i name="ENAUG">    900.00000000</i>
   <i name="EDIFF">      0.00000100</i>
   <i type="int" name="IALGO">    38</i>
   <i type="int" name="IWAVPR">    11</i>
   <i type="int" name="NBANDS">   280</i>
   <i name="NELECT">    460.00000000</i>
   <i type="int" name="TURBO">     0</i>
   <i type="int" name="IRESTART">     0</i>
   <i type="int" name="NREBOOT">     0</i>
   <i type="int" name="NMIN">     0</i>
   <i name="EREF">      0.00000000</i>
   <separator name="electronic smearing" >
    <i type="int" name="ISMEAR">    -5</i>
    <i name="SIGMA">      0.20000000</i>
    <i name="KSPACING">      0.50000000</i>
    <i type="logical" name="KGAMMA"> T  </i>
   </separator>
   <separator name="electronic projectors" >
    <i type="logical" name="LREAL"> F  </i>
    <v name="ROPT">      0.00000000      0.00000000      0.00000000      0.00000000      0.00000000</v>
    <i type="int" name="LMAXPAW">  -100</i>
    <i type="int" name="LMAXMIX">     2</i>
    <i type="logical" name="NLSPLINE"> F  </i>
   </separator>
   <separator name="electronic startup" >
    <i type="int" name="ISTART">     0</i>
    <i type="int" name="ICHARG">     2</i>
    <i type="int" name="INIWAV">     1</i>
   </separator>
   <separator name="electronic spin" >
    <i type="int" name="ISPIN">     1</i>
    <i type="logical" name="LNONCOLLINEAR"> F  </i>
    <v name="MAGMOM">      1.00000000      1.00000000      1.00000000      1.00000000      1.00000000      1.00000000      1.00000000      1.00000000      1.00000000      1.00000000      1.00000000      1.00000000      1.00000000      1.00000000      1.00000000      1.00000000      1.00000000      1.00000000      1.00000000      1.00000000
      1.00000000      1.00000000      1.00000000      1.00000000      1.00000000      1.00000000      1.00000000      1.00000000      1.00000000      1.00000000      1.00000000      1.00000000      1.00000000      1.00000000      1.00000000      1.00000000      1.00000000      1.00000000      1.00000000      1.00000000
      1.00000000      1.00000000      1.00000000      1.00000000      1.00000000      1.00000000      1.00000000      1.00000000      1.00000000      1.00000000      1.00000000      1.00000000      1.00000000      1.00000000      1.00000000      1.00000000      1.00000000      1.00000000      1.00000000</v>
    <i name="NUPDOWN">     -1.00000000</i>
    <i type="logical" name="LSORBIT"> F  </i>
    <v name="SAXIS">      0.00000000      0.00000000      1.00000000</v>
    <i type="logical" name="LSPIRAL"> F  </i>
    <v name="QSPIRAL">      0.00000000      0.00000000      0.00000000</v>
    <i type="logical" name="LZEROZ"> F  </i>
   </separator>
   <separator name="electronic exchange-correlation" >
    <i type="logical" name="LASPH"> F  </i>
    <i type="logical" name="LMETAGGA"> F  </i>
   </separator>
   <separator name="electronic convergence" >
    <i type="int" name="NELM">    60</i>
    <i type="int" name="NELMDL">    -5</i>
    <i type="int" name="NELMIN">     4</i>
    <i name="ENINI">    600.00000000</i>
    <separator name="electronic convergence detail" >
     <i type="logical" name="LDIAG"> T  </i>
     <i type="logical" name="LSUBROT"> F  </i>
     <i name="WEIMIN">      0.00100000</i>
     <i name="EBREAK">      0.00000000</i>
     <i name="DEPER">      0.30000000</i>
     <i type="int" name="NRMM">     4</i>
     <i name="TIME">      0.40000000</i>
    </separator>
   </separator>
   <separator name="electronic mixer" >
    <i name="AMIX">      0.40000000</i>
    <i name="BMIX">      1.00000000</i>
    <i name="AMIN">      0.10000000</i>
    <i name="AMIX_MAG">      1.60000000</i>
    <i name="BMIX_MAG">      1.00000000</i>
    <separator name="electronic mixer details" >
     <i type="int" name="IMIX">     4</i>
     <i type="logical" name="MIXFIRST"> F  </i>
     <i type="int" name="MAXMIX">   -45</i>
     <i name="WC">    100.00000000</i>
     <i type="int" name="INIMIX">     1</i>
     <i type="int" name="MIXPRE">     1</i>
     <i type="int" name="MREMOVE">     5</i>
    </separator>
   </separator>
   <separator name="electronic dipolcorrection" >
    <i type="logical" name="LDIPOL"> F  </i>
    <i type="logical" name="LMONO"> F  </i>
    <i type="int" name="IDIPOL">     0</i>
    <i name="EPSILON">      1.00000000</i>
    <v name="DIPOL">   -100.00000000   -100.00000000   -100.00000000</v>
    <i name="EFIELD">      0.00000000</i>
   </separator>
  </separator>
  <separator name="grids" >
   <i type="int" name="NGX">    70</i>
   <i type="int" name="NGY">    60</i>
   <i type="int" name="NGZ">    70</i>
   <i type="int" name="NGXF">   140</i>
   <i type="int" name="NGYF">   120</i>
   <i type="int" name="NGZF">   140</i>
   <i type="logical" name="ADDGRID"> F  </i>
  </separator>
  <separator name="ionic" >
   <i type="int" name="NSW">   200</i>
   <i type="int" name="IBRION">     2</i>
   <i type="int" name="MDALGO">     0</i>
   <i type="int" name="ISIF">     3</i>
   <i name="PSTRESS">      0.00000000</i>
   <i name="EDIFFG">     -0.01000000</i>
   <i type="int" name="NFREE">    10</i>
   <i name="POTIM">      0.50000000</i>
   <i name="SMASS">     -3.00000000</i>
   <i name="SCALEE">      1.00000000</i>
  </separator>
  <separator name="ionic md" >
   <i name="TEBEG">      0.00010000</i>
   <i name="TEEND">      0.00010000</i>
   <i type="int" name="NBLOCK">     1</i>
   <i type="int" name="KBLOCK">   200</i>
   <i type="int" name="NPACO">   256</i>
   <i name="APACO">     16.00000000</i>
  </separator>
  <separator name="symmetry" >
   <i type="int" name="ISYM">     2</i>
   <i name="SYMPREC">      0.00001000</i>
  </separator>
  <separator name="dos" >
   <i type="int" name="LORBIT">     0</i>
   <v name="RWIGS">     -1.00000000     -1.00000000     -1.00000000     -1.00000000     -1.00000000</v>
   <i type="int" name="NEDOS">   301</i>
   <i name="EMIN">     10.00000000</i>
   <i name="EMAX">    -10.00000000</i>
   <i name="EFERMI">      0.00000000</i>
  </separator>
  <separator name="writing" >
   <i type="int" name="NWRITE">     2</i>
   <i type="logical" name="LWAVE"> F  </i>
   <i type="logical" name="LDOWNSAMPLE"> F  </i>
   <i type="logical" name="LCHARG"> F  </i>
   <i type="logical" name="LPARD"> F  </i>
   <i type="logical" name="LVTOT"> F  </i>
   <i type="logical" name="LVHAR"> F  </i>
   <i type="logical" name="LELF"> F  </i>
   <i type="logical" name="LOPTICS"> F  </i>
   <v name="STM">      0.00000000      0.00000000      0.00000000      0.00000000      0.00000000      0.00000000      0.00000000</v>
  </separator>
  <separator name="performance" >
   <i type="int" name="NPAR">    28</i>
   <i type="int" name="NSIM">     4</i>
   <i type="int" name="NBLK">    -1</i>
   <i type="logical" name="LPLANE"> T  </i>
   <i type="logical" name="LSCALAPACK"> T  </i>
   <i type="logical" name="LSCAAWARE"> F  </i>
   <i type="logical" name="LSCALU"> F  </i>
   <i type="logical" name="LASYNC"> F  </i>
   <i type="logical" name="LORBITALREAL"> F  </i>
  </separator>
  <separator name="miscellaneous" >
   <i type="int" name="IDIOT">     3</i>
   <i type="int" name="ISPECIAL">     0</i>
   <i type="logical" name="LMUSIC"> F  </i>
   <v name="POMASS">      7.01000000     24.30500000    208.98000000     32.06600000     16.00000000</v>
   <v name="DARWINR">      0.00000000      0.00000000      0.00000000      0.00000000      0.00000000</v>
   <v name="DARWINV">      1.00000000      1.00000000      1.00000000      1.00000000      1.00000000</v>
   <i type="logical" name="LCORR"> T  </i>
  </separator>
  <i type="logical" name="GGA_COMPAT"> T  </i>
  <i type="logical" name="LBERRY"> F  </i>
  <i type="int" name="ICORELEVEL">     0</i>
  <i type="logical" name="LDAU"> F  </i>
  <i type="int" name="I_CONSTRAINED_M">     0</i>
  <separator name="electronic exchange-correlation" >
   <i type="string" name="GGA">--</i>
   <i type="int" name="VOSKOWN">     0</i>
   <i type="logical" name="LHFCALC"> F  </i>
   <i type="string" name="PRECFOCK"></i>
   <i type="logical" name="LSYMGRAD"> F  </i>
   <i type="logical" name="LHFONE"> F  </i>
   <i type="logical" name="LRHFCALC"> F  </i>
   <i type="logical" name="LTHOMAS"> F  </i>
   <i type="logical" name="LMODELHF"> F  </i>
   <i name="ENCUT4O">     -1.00000000</i>
   <i type="int" name="EXXOEP">     0</i>
   <i type="int" name="FOURORBIT">     0</i>
   <i name="AEXX">      0.00000000</i>
   <i name="HFALPHA">      0.00000000</i>
   <i name="MCALPHA">      0.00000000</i>
   <i name="ALDAX">      1.00000000</i>
   <i name="AGGAX">      1.00000000</i>
   <i name="ALDAC">      1.00000000</i>
   <i name="AGGAC">      1.00000000</i>
   <i type="int" name="NKREDX">     1</i>
   <i type="int" name="NKREDY">     1</i>
   <i type="int" name="NKREDZ">     1</i>
   <i type="logical" name="SHIFTRED"> F  </i>
   <i type="logical" name="ODDONLY"> F  </i>
   <i type="logical" name="EVENONLY"> F  </i>
   <i type="int" name="LMAXFOCK">     0</i>
   <i type="int" name="NMAXFOCKAE">     0</i>
   <i type="logical" name="LFOCKAEDFT"> F  </i>
   <i name="HFSCREEN">      0.00000000</i>
   <i name="HFSCREENC">      0.00000000</i>
   <i type="int" name="NBANDSGWLOW">     0</i>
  </separator>
  <separator name="vdW DFT" >
   <i type="logical" name="LUSE_VDW"> F  </i>
   <i name="Zab_VDW">     -0.84910000</i>
   <i name="PARAM1">      0.12340000</i>
   <i name="PARAM2">      1.00000000</i>
   <i name="PARAM3">      0.00000000</i>
  </separator>
  <separator name="model GW" >
   <i type="int" name="MODEL_GW">     0</i>
   <i name="MODEL_EPS0">     12.17134107</i>
   <i name="MODEL_ALPHA">      1.00000000</i>
  </separator>
  <separator name="linear response parameters" >
   <i type="logical" name="LEPSILON"> F  </i>
   <i type="logical" name="LRPA"> F  </i>
   <i type="logical" name="LNABLA"> F  </i>
   <i type="logical" name="LVEL"> F  </i>
   <i type="int" name="KINTER">     0</i>
   <i name="CSHIFT">      0.10000000</i>
   <i name="OMEGAMAX">     -1.00000000</i>
   <i name="DEG_THRESHOLD">      0.00200000</i>
   <i name="RTIME">     -0.10000000</i>
   <i name="WPLASMAI">      0.00000000</i>
   <v name="DFIELD">      0.00000000      0.00000000      0.00000000</v>
   <v name="WPLASMA">      0.00000000      0.00000000      0.00000000      0.00000000      0.00000000      0.00000000      0.00000000      0.00000000      0.00000000</v>
  </separator>
  <separator name="orbital magnetization" >
   <i type="logical" name="NUCIND"> F  </i>
   <v name="MAGPOS">      0.00000000      0.00000000      0.00000000</v>
   <i type="logical" name="LNICSALL"> T  </i>
   <i type="logical" name="ORBITALMAG"> F  </i>
   <i type="logical" name="LMAGBLOCH"> F  </i>
   <i type="logical" name="LCHIMAG"> F  </i>
   <i type="logical" name="LGAUGE"> T  </i>
   <i type="int" name="MAGATOM">     0</i>
   <v name="MAGDIPOL">      0.00000000      0.00000000      0.00000000</v>
   <v name="AVECCONST">      0.00000000      0.00000000      0.00000000</v>
  </separator>
  <separator name="response functions" >
   <i type="logical" name="LADDER"> F  </i>
   <i type="logical" name="LRPAFORCE"> F  </i>
   <i type="logical" name="LFXC"> F  </i>
   <i type="logical" name="LHARTREE"> T  </i>
   <i type="int" name="IBSE">     0</i>
   <v type="int" name="KPOINT">    -1     0     0     0</v>
   <i type="logical" name="LTCTE"> F  </i>
   <i type="logical" name="LTETE"> F  </i>
   <i type="logical" name="LTRIPLET"> F  </i>
   <i type="logical" name="LFXCEPS"> F  </i>
   <i type="logical" name="LFXHEG"> F  </i>
   <i type="int" name="NATURALO">     2</i>
   <i type="logical" name="L2ORDER"> F  </i>
   <i type="logical" name="LMP2LT"> F  </i>
   <i type="logical" name="LUSEW"> F  </i>
   <i name="ENCUTGW">     -2.00000000</i>
   <i name="ENCUTGWSOFT">     -2.00000000</i>
   <i name="ENCUTLF">     -1.00000000</i>
   <i type="int" name="LMAXMP2">    -1</i>
   <i name="SCISSOR">      0.00000000</i>
   <i type="int" name="NOMEGA">     0</i>
   <i type="int" name="NOMEGAR">     0</i>
   <i type="int" name="NBANDSGW">    -1</i>
   <i type="int" name="NBANDSO">    -1</i>
   <i type="int" name="NBANDSV">    -1</i>
   <i type="int" name="NELM">     1</i>
   <i type="int" name="NELMHF">     1</i>
   <i type="int" name="DIM">     3</i>
   <i type="int" name="ANTIRES">     0</i>
   <i name="OMEGAMAX">    -30.00000000</i>
   <i name="OMEGAMIN">    -30.00000000</i>
   <i name="OMEGATL">   -200.00000000</i>
   <i type="int" name="OMEGAGRID">   140</i>
   <i name="CSHIFT">     -0.10000000</i>
   <i type="logical" name="SELFENERGY"> F  </i>
   <i type="logical" name="LSPECTRAL"> F  </i>
   <i type="logical" name="LSPECTRALGW"> F  </i>
   <i type="logical" name="LSINGLES"> F  </i>
   <i type="logical" name="LFERMIGW"> F  </i>
   <i type="logical" name="ODDONLYGW"> F  </i>
   <i type="logical" name="EVENONLYGW"> F  </i>
   <i type="int" name="NKREDLFX">     1</i>
   <i type="int" name="NKREDLFY">     1</i>
   <i type="int" name="NKREDLFZ">     1</i>
   <i type="int" name="MAXMEM">  2800</i>
   <i type="int" name="TELESCOPE">     0</i>
   <i type="int" name="TAUPAR">     1</i>
   <i type="int" name="OMEGAPAR">    -1</i>
   <i name="LAMBDA">      1.00000000</i>
  </separator>
  <separator name="External order field" >
   <i name="OFIELD_KAPPA">      0.00000000</i>
   <v name="OFIELD_K">      0.00000000      0.00000000      0.00000000</v>
   <i name="OFIELD_Q6_NEAR">      0.00000000</i>
   <i name="OFIELD_Q6_FAR">      0.00000000</i>
   <i name="OFIELD_A">      0.00000000</i>
  </separator>
 </parameters>
 <atominfo>
  <atoms>      59 </atoms>
  <types>       5 </types>
  <array name="atoms" >
   <dimension dim="1">ion</dimension>
   <field type="string">element</field>
   <field type="int">atomtype</field>
   <set>
    <rc><c>Li</c><c>   1</c></rc>
    <rc><c>Li</c><c>   1</c></rc>
    <rc><c>Li</c><c>   1</c></rc>
    <rc><c>Li</c><c>   1</c></rc>
    <rc><c>Li</c><c>   1</c></rc>
    <rc><c>Li</c><c>   1</c></rc>
    <rc><c>Mg</c><c>   2</c></rc>
    <rc><c>Mg</c><c>   2</c></rc>
    <rc><c>Mg</c><c>   2</c></rc>
    <rc><c>Mg</c><c>   2</c></rc>
    <rc><c>Mg</c><c>   2</c></rc>
    <rc><c>Bi</c><c>   3</c></rc>
    <rc><c>Bi</c><c>   3</c></rc>
    <rc><c>Bi</c><c>   3</c></rc>
    <rc><c>Bi</c><c>   3</c></rc>
    <rc><c>Bi</c><c>   3</c></rc>
    <rc><c>Bi</c><c>   3</c></rc>
    <rc><c>Bi</c><c>   3</c></rc>
    <rc><c>Bi</c><c>   3</c></rc>
    <rc><c>Bi</c><c>   3</c></rc>
    <rc><c>Bi</c><c>   3</c></rc>
    <rc><c>Bi</c><c>   3</c></rc>
    <rc><c>Bi</c><c>   3</c></rc>
    <rc><c>Bi</c><c>   3</c></rc>
    <rc><c>Bi</c><c>   3</c></rc>
    <rc><c>Bi</c><c>   3</c></rc>
    <rc><c>Bi</c><c>   3</c></rc>
    <rc><c>S </c><c>   4</c></rc>
    <rc><c>S </c><c>   4</c></rc>
    <rc><c>S </c><c>   4</c></rc>
    <rc><c>S </c><c>   4</c></rc>
    <rc><c>S </c><c>   4</c></rc>
    <rc><c>S </c><c>   4</c></rc>
    <rc><c>S </c><c>   4</c></rc>
    <rc><c>S </c><c>   4</c></rc>
    <rc><c>S </c><c>   4</c></rc>
    <rc><c>S </c><c>   4</c></rc>
    <rc><c>S </c><c>   4</c></rc>
    <rc><c>S </c><c>   4</c></rc>
    <rc><c>S </c><c>   4</c></rc>
    <rc><c>S </c><c>   4</c></rc>
    <rc><c>S </c><c>   4</c></rc>
    <rc><c>S </c><c>   4</c></rc>
    <rc><c>O </c><c>   5</c></rc>
    <rc><c>O </c><c>   5</c></rc>
    <rc><c>O </c><c>   5</c></rc>
    <rc><c>O </c><c>   5</c></rc>
    <rc><c>O </c><c>   5</c></rc>
    <rc><c>O </c><c>   5</c></rc>
    <rc><c>O </c><c>   5</c></rc>
    <rc><c>O </c><c>   5</c></rc>
    <rc><c>O </c><c>   5</c></rc>
    <rc><c>O </c><c>   5</c></rc>
    <rc><c>O </c><c>   5</c></rc>
    <rc><c>O </c><c>   5</c></rc>
    <rc><c>O </c><c>   5</c></rc>
    <rc><c>O </c><c>   5</c></rc>
    <rc><c>O </c><c>   5</c></rc>
    <rc><c>O </c><c>   5</c></rc>
   </set>
  </array>
  <array name="atomtypes" >
   <dimension dim="1">type</dimension>
   <field type="int">atomspertype</field>
   <field type="string">element</field>
   <field>mass</field>
   <field>valence</field>
   <field type="string">pseudopotential</field>
   <set>
    <rc><c>   6</c><c>Li</c><c>      7.01000000</c><c>      3.00000000</c><c>  PAW_PBE Li_sv 10Sep2004               </c></rc>
    <rc><c>   5</c><c>Mg</c><c>     24.30500000</c><c>      2.00000000</c><c>  PAW_PBE Mg 13Apr2007                  </c></rc>
    <rc><c>  16</c><c>Bi</c><c>    208.98000000</c><c>     15.00000000</c><c>  PAW_PBE Bi_d 06Sep2000                </c></rc>
    <rc><c>  16</c><c>S </c><c>     32.06600000</c><c>      6.00000000</c><c>  PAW_PBE S 06Sep2000                   </c></rc>
    <rc><c>  16</c><c>O </c><c>     16.00000000</c><c>      6.00000000</c><c>  PAW_PBE O 08Apr2002                   </c></rc>
   </set>
  </array>
 </atominfo>
 <structure name="initialpos" >
  <crystal>
   <varray name="basis" >
    <v>      11.17850000       0.00000000       0.00000000 </v>
    <v>       0.00000000       9.57460000       0.00000000 </v>
    <v>       0.00000000       0.00000000      11.18240000 </v>
   </varray>
   <i name="volume">   1196.84853820 </i>
   <varray name="rec_basis" >
    <v>       0.08945744       0.00000000       0.00000000 </v>
    <v>       0.00000000       0.10444301       0.00000000 </v>
    <v>       0.00000000       0.00000000       0.08942624 </v>
   </varray>
  </crystal>
  <varray name="positions" >
   <v>       0.87539000       0.00017000       0.43687000 </v>
   <v>       0.87461000       0.00017000       0.18687000 </v>
   <v>       0.37461000       0.00017000       0.68687000 </v>
   <v>       0.62539000       0.99984000       0.93687000 </v>
   <v>       0.87539000       0.00017000       0.93687000 </v>
   <v>       0.87461000       0.00017000       0.68687000 </v>
   <v>       0.37461000       0.00017000       0.18687000 </v>
   <v>       0.62539000       0.99984000       0.43687000 </v>
   <v>       0.12539000       0.99984000       0.93687000 </v>
   <v>       0.37539000       0.00017000       0.93687000 </v>
   <v>       0.62461000       0.99984000       0.68687000 </v>
   <v>       0.00013000       0.29519000       0.06281000 </v>
   <v>       0.25013000       0.70481000       0.06281000 </v>
   <v>       0.24987000       0.29519000       0.31282000 </v>
   <v>       0.49987000       0.70481000       0.31282000 </v>
   <v>       0.50013000       0.29519000       0.06281000 </v>
   <v>       0.75013000       0.70481000       0.06281000 </v>
   <v>       0.74987000       0.29519000       0.31282000 </v>
   <v>       0.99987000       0.70481000       0.31282000 </v>
   <v>       0.00013000       0.29519000       0.56281000 </v>
   <v>       0.25013000       0.70481000       0.56281000 </v>
   <v>       0.24987000       0.29519000       0.81282000 </v>
   <v>       0.49987000       0.70481000       0.81282000 </v>
   <v>       0.50013000       0.29519000       0.56281000 </v>
   <v>       0.75013000       0.70481000       0.56281000 </v>
   <v>       0.74987000       0.29519000       0.81282000 </v>
   <v>       0.99987000       0.70481000       0.81282000 </v>
   <v>       0.25005000       0.32677000       0.06286000 </v>
   <v>       0.00005000       0.67323000       0.06286000 </v>
   <v>       0.49995000       0.32677000       0.31286000 </v>
   <v>       0.24995000       0.67323000       0.31286000 </v>
   <v>       0.75005000       0.32677000       0.06286000 </v>
   <v>       0.50005000       0.67323000       0.06286000 </v>
   <v>       0.99995000       0.32677000       0.31286000 </v>
   <v>       0.74995000       0.67323000       0.31286000 </v>
   <v>       0.25005000       0.32677000       0.56286000 </v>
   <v>       0.00005000       0.67323000       0.56286000 </v>
   <v>       0.49995000       0.32677000       0.81286000 </v>
   <v>       0.24995000       0.67323000       0.81286000 </v>
   <v>       0.75005000       0.32677000       0.56286000 </v>
   <v>       0.50005000       0.67323000       0.56286000 </v>
   <v>       0.99995000       0.32677000       0.81286000 </v>
   <v>       0.74995000       0.67323000       0.81286000 </v>
   <v>       0.49987000       0.07798000       0.06246000 </v>
   <v>       0.24987000       0.92202000       0.06246000 </v>
   <v>       0.25013000       0.07798000       0.31246000 </v>
   <v>       0.00013000       0.92202000       0.31246000 </v>
   <v>       0.99987000       0.07798000       0.06246000 </v>
   <v>       0.74987000       0.92202000       0.06246000 </v>
   <v>       0.75013000       0.07798000       0.31246000 </v>
   <v>       0.50013000       0.92202000       0.31246000 </v>
   <v>       0.49987000       0.07798000       0.56246000 </v>
   <v>       0.24987000       0.92202000       0.56246000 </v>
   <v>       0.25013000       0.07798000       0.81246000 </v>
   <v>       0.00013000       0.92202000       0.81246000 </v>
   <v>       0.99987000       0.07798000       0.56246000 </v>
   <v>       0.74987000       0.92202000       0.56246000 </v>
   <v>       0.75013000       0.07798000       0.81246000 </v>
   <v>       0.50013000       0.92202000       0.81246000 </v>
  </varray>
 </structure>
 <calculation>
  <scstep>
   <time name="dav">   60.49   60.81</time>
   <time name="total">   60.58   60.91</time>
   <energy>
    <i name="alphaZ">   1060.66890660 </i>
    <i name="ewald"> -30392.46512657 </i>
    <i name="hartreedc"> -12723.53793523 </i>
    <i name="XCdc">   1247.36692681 </i>
    <i name="pawpsdc">  36635.26894311 </i>
    <i name="pawaedc"> -35972.74895369 </i>
    <i name="eentropy">      0.00000000 </i>
    <i name="bandstr">   1866.13152838 </i>
    <i name="atom">  44026.03258983 </i>
    <i name="e_fr_energy">   5746.71687923 </i>
    <i name="e_wo_entrp">   5746.71687923 </i>
    <i name="e_0_energy">   5746.71687923 </i>
   </energy>
  </scstep>
  <scstep>
   <time name="dav">   61.59   61.89</time>
   <time name="total">   61.60   61.90</time>
   <energy>
    <i name="e_fr_energy">    751.96061139 </i>
    <i name="e_wo_entrp">    751.96061139 </i>
    <i name="e_0_energy">    751.96061139 </i>
   </energy>
  </scstep>
  <scstep>
   <time name="dav">   70.14   70.40</time>
   <time name="total">   70.15   70.41</time>
   <energy>
    <i name="e_fr_energy">   -242.97199946 </i>
    <i name="e_wo_entrp">   -242.97199946 </i>
    <i name="e_0_energy">   -242.97199946 </i>
   </energy>
  </scstep>
  <scstep>
   <time name="dav">   72.33   72.66</time>
   <time name="total">   72.33   72.66</time>
   <energy>
    <i name="e_fr_energy">   -333.53892784 </i>
    <i name="e_wo_entrp">   -333.53892784 </i>
    <i name="e_0_energy">   -333.53892784 </i>
   </energy>
  </scstep>
  <scstep>
   <time name="dav">   96.00   96.32</time>
   <time name="total">   96.73   97.05</time>
   <energy>
    <i name="e_fr_energy">   -341.07305244 </i>
    <i name="e_wo_entrp">   -341.07305244 </i>
    <i name="e_0_energy">   -341.07305244 </i>
   </energy>
  </scstep>
  <scstep>
   <time name="dav">   84.59   84.92</time>
   <time name="total">   85.38   85.73</time>
   <energy>
    <i name="e_fr_energy">   -285.53726438 </i>
    <i name="e_wo_entrp">   -285.53726438 </i>
    <i name="e_0_energy">   -285.53726438 </i>
   </energy>
  </scstep>
  <scstep>
   <time name="dav">   64.98   65.72</time>
   <time name="total">   65.78   66.52</time>
   <energy>
    <i name="e_fr_energy">   -287.50433251 </i>
    <i name="e_wo_entrp">   -287.50433251 </i>
    <i name="e_0_energy">   -287.50433251 </i>
   </energy>
  </scstep>
  <scstep>
   <time name="dav">   82.49   82.91</time>
   <time name="total">   83.29   83.71</time>
   <energy>
    <i name="e_fr_energy">   -286.20740077 </i>
    <i name="e_wo_entrp">   -286.20740077 </i>
    <i name="e_0_energy">   -286.20740077 </i>
   </energy>
  </scstep>
  <scstep>
   <time name="dav">   70.04   70.32</time>
   <time name="total">   70.84   71.12</time>
   <energy>
    <i name="e_fr_energy">   -285.55880296 </i>
    <i name="e_wo_entrp">   -285.55880296 </i>
    <i name="e_0_energy">   -285.55880296 </i>
   </energy>
  </scstep>
  <scstep>
   <time name="dav">   82.00   82.28</time>
   <time name="total">   82.80   83.08</time>
   <energy>
    <i name="e_fr_energy">   -285.53254614 </i>
    <i name="e_wo_entrp">   -285.53254614 </i>
    <i name="e_0_energy">   -285.53254614 </i>
   </energy>
  </scstep>
  <scstep>
   <time name="dav">   73.08   73.31</time>
   <time name="total">   73.88   74.12</time>
   <energy>
    <i name="e_fr_energy">   -285.51237230 </i>
    <i name="e_wo_entrp">   -285.51237230 </i>
    <i name="e_0_energy">   -285.51237230 </i>
   </energy>
  </scstep>
  <scstep>
   <time name="dav">   71.37   71.77</time>
   <time name="total">   72.17   72.57</time>
   <energy>
    <i name="e_fr_energy">   -285.51510848 </i>
    <i name="e_wo_entrp">   -285.51510848 </i>
    <i name="e_0_energy">   -285.51510848 </i>
   </energy>
  </scstep>
  <scstep>
   <time name="dav">   81.49   81.97</time>
   <time name="total">   82.29   82.78</time>
   <energy>
    <i name="e_fr_energy">   -285.51792015 </i>
    <i name="e_wo_entrp">   -285.51792015 </i>
    <i name="e_0_energy">   -285.51792015 </i>
   </energy>
  </scstep>
  <scstep>
   <time name="dav">   75.53   75.93</time>
   <time name="total">   76.33   76.74</time>
   <energy>
    <i name="e_fr_energy">   -285.51827060 </i>
    <i name="e_wo_entrp">   -285.51827060 </i>
    <i name="e_0_energy">   -285.51827060 </i>
   </energy>
  </scstep>
  <scstep>
   <time name="dav">   72.39   72.78</time>
   <time name="total">   73.18   73.58</time>
   <energy>
    <i name="e_fr_energy">   -285.51831700 </i>
    <i name="e_wo_entrp">   -285.51831700 </i>
    <i name="e_0_energy">   -285.51831700 </i>
   </energy>
  </scstep>
  <scstep>
   <time name="dav">   70.98   71.54</time>
   <time name="total">   71.77   72.34</time>
   <energy>
    <i name="e_fr_energy">   -285.51835470 </i>
    <i name="e_wo_entrp">   -285.51835470 </i>
    <i name="e_0_energy">   -285.51835470 </i>
   </energy>
  </scstep>
  <scstep>
   <time name="dav">   74.00   74.30</time>
   <time name="total">   74.80   75.10</time>
   <energy>
    <i name="e_fr_energy">   -285.51839052 </i>
    <i name="e_wo_entrp">   -285.51839052 </i>
    <i name="e_0_energy">   -285.51839052 </i>
   </energy>
  </scstep>
  <scstep>
   <time name="dav">   70.68   70.94</time>
   <time name="total">   71.47   71.74</time>
   <energy>
    <i name="e_fr_energy">   -285.51838392 </i>
    <i name="e_wo_entrp">   -285.51838392 </i>
    <i name="e_0_energy">   -285.51838392 </i>
   </energy>
  </scstep>
  <scstep>
   <time name="dav">   63.55   63.81</time>
   <time name="total">   64.35   64.62</time>
   <energy>
    <i name="e_fr_energy">   -285.51838651 </i>
    <i name="e_wo_entrp">   -285.51838651 </i>
    <i name="e_0_energy">   -285.51838651 </i>
   </energy>
  </scstep>
  <scstep>
   <time name="dav">   52.23   52.32</time>
   <time name="total">   53.02   53.12</time>
   <energy>
    <i name="e_fr_energy">   -285.51838770 </i>
    <i name="e_wo_entrp">   -285.51838770 </i>
    <i name="e_0_energy">   -285.51838770 </i>
   </energy>
  </scstep>
  <scstep>
   <time name="dav">   45.89   45.91</time>
   <time name="total">   45.96   45.99</time>
   <energy>
    <i name="alphaZ">   1060.66890660 </i>
    <i name="ewald"> -30392.46512657 </i>
    <i name="hartreedc"> -12950.62639820 </i>
    <i name="XCdc">   1271.47781683 </i>
    <i name="pawpsdc">  43665.98790810 </i>
    <i name="pawaedc"> -42977.52048517 </i>
    <i name="eentropy">      0.00000000 </i>
    <i name="bandstr">  -3989.07359963 </i>
    <i name="atom">  44026.03258983 </i>
    <i name="e_fr_energy">   -285.51838821 </i>
    <i name="e_wo_entrp">   -285.51838821 </i>
    <i name="e_0_energy">   -285.51838821 </i>
   </energy>
  </scstep>
  <structure>
   <crystal>
    <varray name="basis" >
     <v>      11.17850000       0.00000000       0.00000000 </v>
     <v>       0.00000000       9.57460000       0.00000000 </v>
     <v>       0.00000000       0.00000000      11.18240000 </v>
    </varray>
    <i name="volume">   1196.84853820 </i>
    <varray name="rec_basis" >
     <v>       0.08945744       0.00000000       0.00000000 </v>
     <v>       0.00000000       0.10444301       0.00000000 </v>
     <v>       0.00000000       0.00000000       0.08942624 </v>
    </varray>
   </crystal>
   <varray name="positions" >
    <v>       0.87539000       0.00017000       0.43687000 </v>
    <v>       0.87461000       0.00017000       0.18687000 </v>
    <v>       0.37461000       0.00017000       0.68687000 </v>
    <v>       0.62539000       0.99984000       0.93687000 </v>
    <v>       0.87539000       0.00017000       0.93687000 </v>
    <v>       0.87461000       0.00017000       0.68687000 </v>
    <v>       0.37461000       0.00017000       0.18687000 </v>
    <v>       0.62539000       0.99984000       0.43687000 </v>
    <v>       0.12539000       0.99984000       0.93687000 </v>
    <v>       0.37539000       0.00017000       0.93687000 </v>
    <v>       0.62461000       0.99984000       0.68687000 </v>
    <v>       0.00013000       0.29519000       0.06281000 </v>
    <v>       0.25013000       0.70481000       0.06281000 </v>
    <v>       0.24987000       0.29519000       0.31282000 </v>
    <v>       0.49987000       0.70481000       0.31282000 </v>
    <v>       0.50013000       0.29519000       0.06281000 </v>
    <v>       0.75013000       0.70481000       0.06281000 </v>
    <v>       0.74987000       0.29519000       0.31282000 </v>
    <v>       0.99987000       0.70481000       0.31282000 </v>
    <v>       0.00013000       0.29519000       0.56281000 </v>
    <v>       0.25013000       0.70481000       0.56281000 </v>
    <v>       0.24987000       0.29519000       0.81282000 </v>
    <v>       0.49987000       0.70481000       0.81282000 </v>
    <v>       0.50013000       0.29519000       0.56281000 </v>
    <v>       0.75013000       0.70481000       0.56281000 </v>
    <v>       0.74987000       0.29519000       0.81282000 </v>
    <v>       0.99987000       0.70481000       0.81282000 </v>
    <v>       0.25005000       0.32677000       0.06286000 </v>
    <v>       0.00005000       0.67323000       0.06286000 </v>
    <v>       0.49995000       0.32677000       0.31286000 </v>
    <v>       0.24995000       0.67323000       0.31286000 </v>
    <v>       0.75005000       0.32677000       0.06286000 </v>
    <v>       0.50005000       0.67323000       0.06286000 </v>
    <v>       0.99995000       0.32677000       0.31286000 </v>
    <v>       0.74995000       0.67323000       0.31286000 </v>
    <v>       0.25005000       0.32677000       0.56286000 </v>
    <v>       0.00005000       0.67323000       0.56286000 </v>
    <v>       0.49995000       0.32677000       0.81286000 </v>
    <v>       0.24995000       0.67323000       0.81286000 </v>
    <v>       0.75005000       0.32677000       0.56286000 </v>
    <v>       0.50005000       0.67323000       0.56286000 </v>
    <v>       0.99995000       0.32677000       0.81286000 </v>
    <v>       0.74995000       0.67323000       0.81286000 </v>
    <v>       0.49987000       0.07798000       0.06246000 </v>
    <v>       0.24987000       0.92202000       0.06246000 </v>
    <v>       0.25013000       0.07798000       0.31246000 </v>
    <v>       0.00013000       0.92202000       0.31246000 </v>
    <v>       0.99987000       0.07798000       0.06246000 </v>
    <v>       0.74987000       0.92202000       0.06246000 </v>
    <v>       0.75013000       0.07798000       0.31246000 </v>
    <v>       0.50013000       0.92202000       0.31246000 </v>
    <v>       0.49987000       0.07798000       0.56246000 </v>
    <v>       0.24987000       0.92202000       0.56246000 </v>
    <v>       0.25013000       0.07798000       0.81246000 </v>
    <v>       0.00013000       0.92202000       0.81246000 </v>
    <v>       0.99987000       0.07798000       0.56246000 </v>
    <v>       0.74987000       0.92202000       0.56246000 </v>
    <v>       0.75013000       0.07798000       0.81246000 </v>
    <v>       0.50013000       0.92202000       0.81246000 </v>
   </varray>
  </structure>
  <varray name="forces" >
   <v>       1.27683463       0.12449042      -0.28864789 </v>
   <v>       0.24059837      -0.19209605       0.24115604 </v>
   <v>      -1.19561740      -0.16295777      -1.19570604 </v>
   <v>       0.62222617      -0.07618251       0.96587129 </v>
   <v>      -0.12246345      -0.14266066       0.29432764 </v>
   <v>       1.25032036       0.16511957      -0.22247278 </v>
   <v>      -0.30505120       0.28093783       2.39870150 </v>
   <v>      -0.76365976       0.09336805      -1.89441876 </v>
   <v>      -1.32582826       0.09283501      -0.08032582 </v>
   <v>       0.37165425       0.19492518      -0.44701895 </v>
   <v>       0.07514084       0.20571946       0.41622217 </v>
   <v>      -0.01705087       0.04747221       0.59561249 </v>
   <v>      -0.58800404      -2.10869692       0.70777475 </v>
   <v>      -0.52203657      -1.85828221       0.51365210 </v>
   <v>      -0.23817296       0.01740183       0.12631579 </v>
   <v>       0.32653194       1.13124577       0.52430012 </v>
   <v>       0.23071258       0.90968287       0.42097169 </v>
   <v>       0.39934917       0.06928254      -0.21429570 </v>
   <v>       0.40103882       1.92004451       0.21262938 </v>
   <v>       0.52088037      -1.87716481      -0.35671914 </v>
   <v>      -0.49766533       2.61715331      -0.47599358 </v>
   <v>      -0.51376918       1.21849255      -0.74608836 </v>
   <v>      -0.12771343      -2.12845525      -0.16281680 </v>
   <v>      -0.72286671       1.20951946      -0.50988472 </v>
   <v>       0.69768759      -2.14969380      -0.34795458 </v>
   <v>       0.50629705       1.14160333       0.09849664 </v>
   <v>       0.14569287      -0.09141756      -0.45835694 </v>
   <v>       0.29670307       0.01809185      -0.45926133 </v>
   <v>       0.20007329      -0.17206502      -0.37962393 </v>
   <v>       0.26052737       0.09588428      -0.07769695 </v>
   <v>       0.40783219      -0.12427584      -0.63153710 </v>
   <v>      -0.21209702       0.10566942      -0.25554146 </v>
   <v>      -0.24854863       0.05368308      -0.32821048 </v>
   <v>      -0.31927359       0.24687876      -0.29343233 </v>
   <v>      -0.36301847      -0.16305828       0.23853594 </v>
   <v>       0.47222211       0.14553781       0.48353448 </v>
   <v>      -0.59889341      -0.19376170       0.37012349 </v>
   <v>       0.06732421      -0.08545867       0.06220211 </v>
   <v>       0.33194525       0.01520400       0.57176187 </v>
   <v>      -0.49580953       0.06972711       0.25393058 </v>
   <v>       0.58195519       0.01787939       0.35645453 </v>
   <v>      -0.04568164       0.12330790       0.29073528 </v>
   <v>      -0.34212062      -0.01510181      -0.21192466 </v>
   <v>      -1.60667017      -1.06931335      -0.96522935 </v>
   <v>       1.25643840       1.59906314      -1.40106923 </v>
   <v>       1.19594896       1.48630835      -1.31843767 </v>
   <v>      -1.29128403      -1.61176775      -0.12295755 </v>
   <v>       0.06322547       0.01618319      -1.36862569 </v>
   <v>       0.37539851      -0.64427568      -0.87675589 </v>
   <v>      -0.17031295       0.00863545       1.30801749 </v>
   <v>       0.17398058      -0.20883888      -0.02600505 </v>
   <v>       1.85872086      -1.08395144       0.88724023 </v>
   <v>       0.81659143      -2.15048345       0.82053917 </v>
   <v>       0.89572918      -1.07875539       1.83320446 </v>
   <v>      -0.16667552       0.07123782       1.23489852 </v>
   <v>      -1.46954885       1.50830118       0.23517353 </v>
   <v>      -1.28040522       1.64835635       0.25705474 </v>
   <v>      -0.85088099      -1.03885397      -0.65986796 </v>
   <v>       0.08153874       1.75832578       0.05743865 </v>
  </varray>
  <varray name="stress" >
   <v>      -3.09767978      -0.05763021      -0.69500035 </v>
   <v>      -0.05763012     -11.75596113      -0.48491786 </v>
   <v>      -0.69500038      -0.48491807      -2.20362513 </v>
  </varray>
  <energy>
   <i name="e_fr_energy">   -298.08113707 </i>
   <i name="e_wo_entrp">   -298.08113707 </i>
   <i name="e_0_energy">      0.00000000 </i>
  </energy>
  <time name="totalsc"> 1626.79 1635.34</time>
 </calculation>
 <calculation>
  <scstep>
   <time name="dav">   64.73   65.38</time>
   <time name="total">   65.51   66.17</time>
   <energy>
    <i name="alphaZ">   1071.80850803 </i>
    <i name="ewald"> -30480.11249827 </i>
    <i name="hartreedc"> -12997.20282924 </i>
    <i name="XCdc">   1277.72789261 </i>
    <i name="pawpsdc">  43666.15395587 </i>
    <i name="pawaedc"> -42977.68714886 </i>
    <i name="eentropy">      0.00000000 </i>
    <i name="bandstr">  -3870.34590072 </i>
    <i name="atom">  44026.03258983 </i>
    <i name="e_fr_energy">   -283.62543076 </i>
    <i name="e_wo_entrp">   -283.62543076 </i>
    <i name="e_0_energy">   -283.62543076 </i>
   </energy>
  </scstep>
  <scstep>
   <time name="dav">   72.36   72.37</time>
   <time name="total">   73.15   73.16</time>
   <energy>
    <i name="e_fr_energy">   -288.42528005 </i>
    <i name="e_wo_entrp">   -288.42528005 </i>
    <i name="e_0_energy">   -288.42528005 </i>
   </energy>
  </scstep>
  <scstep>
   <time name="dav">   84.12   84.29</time>
   <time name="total">   84.91   85.08</time>
   <energy>
    <i name="e_fr_energy">   -288.25256650 </i>
    <i name="e_wo_entrp">   -288.25256650 </i>
    <i name="e_0_energy">   -288.25256650 </i>
   </energy>
  </scstep>
  <scstep>
   <time name="dav">   77.65   77.70</time>
   <time name="total">   78.44   78.49</time>
   <energy>
    <i name="e_fr_energy">   -288.12107125 </i>
    <i name="e_wo_entrp">   -288.12107125 </i>
    <i name="e_0_energy">   -288.12107125 </i>
   </energy>
  </scstep>
  <scstep>
   <time name="dav">   73.70   73.71</time>
   <time name="total">   74.49   74.50</time>
   <energy>
    <i name="e_fr_energy">   -288.08805203 </i>
    <i name="e_wo_entrp">   -288.08805203 </i>
    <i name="e_0_energy">   -288.08805203 </i>
   </energy>
  </scstep>
  <scstep>
   <time name="dav">   76.03   76.14</time>
   <time name="total">   76.83   76.94</time>
   <energy>
    <i name="e_fr_energy">   -288.08446035 </i>
    <i name="e_wo_entrp">   -288.08446035 </i>
    <i name="e_0_energy">   -288.08446035 </i>
   </energy>
  </scstep>
  <scstep>
   <time name="dav">   88.94   89.03</time>
   <time name="total">   89.78   89.87</time>
   <energy>
    <i name="e_fr_energy">   -288.08387114 </i>
    <i name="e_wo_entrp">   -288.08387114 </i>
    <i name="e_0_energy">   -288.08387114 </i>
   </energy>
  </scstep>
  <scstep>
   <time name="dav">   69.42   69.41</time>
   <time name="total">   70.21   70.20</time>
   <energy>
    <i name="e_fr_energy">   -288.08339768 </i>
    <i name="e_wo_entrp">   -288.08339768 </i>
    <i name="e_0_energy">   -288.08339768 </i>
   </energy>
  </scstep>
  <scstep>
   <time name="dav">   87.97   88.16</time>
   <time name="total">   88.76   88.95</time>
   <energy>
    <i name="e_fr_energy">   -288.08341517 </i>
    <i name="e_wo_entrp">   -288.08341517 </i>
    <i name="e_0_energy">   -288.08341517 </i>
   </energy>
  </scstep>
  <scstep>
   <time name="dav">   66.38   66.54</time>
   <time name="total">   67.17   67.34</time>
   <energy>
    <i name="e_fr_energy">   -288.08343182 </i>
    <i name="e_wo_entrp">   -288.08343182 </i>
    <i name="e_0_energy">   -288.08343182 </i>
   </energy>
  </scstep>
  <scstep>
   <time name="dav">   67.74   67.77</time>
   <time name="total">   68.53   68.56</time>
   <energy>
    <i name="e_fr_energy">   -288.08344226 </i>
    <i name="e_wo_entrp">   -288.08344226 </i>
    <i name="e_0_energy">   -288.08344226 </i>
   </energy>
  </scstep>
  <scstep>
   <time name="dav">   81.06   82.08</time>
   <time name="total">   81.86   82.88</time>
   <energy>
    <i name="e_fr_energy">   -288.08344154 </i>
    <i name="e_wo_entrp">   -288.08344154 </i>
    <i name="e_0_energy">   -288.08344154 </i>
   </energy>
  </scstep>
  <scstep>
   <time name="dav">   57.79   59.23</time>
   <time name="total">   57.86   59.30</time>
   <energy>
    <i name="alphaZ">   1071.80850803 </i>
    <i name="ewald"> -30480.11249827 </i>
    <i name="hartreedc"> -12913.19523705 </i>
    <i name="XCdc">   1274.31949212 </i>
    <i name="pawpsdc">  44000.83722352 </i>
    <i name="pawaedc"> -43315.60313993 </i>
    <i name="eentropy">      0.00000000 </i>
    <i name="bandstr">  -3952.17037943 </i>
    <i name="atom">  44026.03258983 </i>
    <i name="e_fr_energy">   -288.08344120 </i>
    <i name="e_wo_entrp">   -288.08344120 </i>
    <i name="e_0_energy">   -288.08344120 </i>
   </energy>
  </scstep>
  <structure>
   <crystal>
    <varray name="basis" >
     <v>      11.15734915      -0.00039350      -0.00474544 </v>
     <v>      -0.00033704       9.50584780      -0.00283594 </v>
     <v>      -0.00474709      -0.00331216      11.16734847 </v>
    </varray>
    <i name="volume">   1184.40936125 </i>
    <varray name="rec_basis" >
     <v>       0.08962704       0.00000319       0.00003810 </v>
     <v>       0.00000372       0.10519841       0.00003120 </v>
     <v>       0.00003809       0.00002672       0.08954680 </v>
    </varray>
   </crystal>
   <varray name="positions" >
    <v>       0.88090039       0.00079726       0.43562473 </v>
    <v>       0.87564834      -0.00079790       0.18791039 </v>
    <v>       0.36945012      -0.00065108       0.68171153 </v>
    <v>       0.62807532       0.99945615       0.94103692 </v>
    <v>       0.87486149      -0.00054881       0.93813978 </v>
    <v>       0.88000596       0.00100197       0.68591022 </v>
    <v>       0.37329350       0.00158554       0.19721838 </v>
    <v>       0.62209430       0.00031044       0.42869718 </v>
    <v>       0.11966817       0.00030776       0.93652346 </v>
    <v>       0.37699393       0.00115215       0.93494149 </v>
    <v>       0.62493428       0.00087654       0.68866565 </v>
    <v>       0.00005641       0.29542919       0.06537957 </v>
    <v>       0.24759237       0.69418510       0.06586345 </v>
    <v>       0.24761707       0.28582684       0.31503598 </v>
    <v>       0.49884213       0.70489768       0.31336495 </v>
    <v>       0.50153920       0.30088990       0.06507191 </v>
    <v>       0.75112568       0.70939354       0.06462614 </v>
    <v>       0.75159346       0.29553909       0.31189549 </v>
    <v>       0.00160075       0.71448435       0.31373732 </v>
    <v>       0.00237794       0.28573170       0.56127106 </v>
    <v>       0.24798224       0.71799681       0.56075649 </v>
    <v>       0.24765274       0.30132951       0.80960126 </v>
    <v>       0.49931883       0.69408555       0.81211758 </v>
    <v>       0.49701035       0.30128429       0.56061028 </v>
    <v>       0.75314099       0.69397854       0.56130887 </v>
    <v>       0.75205501       0.30094209       0.81324493 </v>
    <v>       0.00049876       0.70434938       0.81084258 </v>
    <v>       0.25133047       0.32686116       0.06087867 </v>
    <v>       0.00091345       0.67236303       0.06122224 </v>
    <v>       0.50107435       0.32725312       0.31252480 </v>
    <v>       0.25171007       0.67260382       0.31013545 </v>
    <v>       0.74913466       0.32730243       0.06175755 </v>
    <v>       0.49897735       0.67350049       0.06144405 </v>
    <v>       0.99857212       0.32801393       0.31159409 </v>
    <v>       0.74838333       0.67240841       0.31388908 </v>
    <v>       0.25208795       0.32750331       0.56494604 </v>
    <v>      -0.00253462       0.67225371       0.56445677 </v>
    <v>       0.50024055       0.32633941       0.81312835 </v>
    <v>       0.25138256       0.67330661       0.81532667 </v>
    <v>       0.74791025       0.32712133       0.56395550 </v>
    <v>       0.50256152       0.67332009       0.56439780 </v>
    <v>       0.99975285       0.32739130       0.81411428 </v>
    <v>       0.74847352       0.67315391       0.81194572 </v>
    <v>       0.49293615       0.07259215       0.05829585 </v>
    <v>       0.25529237       0.93007705       0.05641556 </v>
    <v>       0.25529131       0.08546892       0.30677205 </v>
    <v>      -0.00544275       0.91389893       0.31192954 </v>
    <v>       0.00014286       0.07806154       0.05655553 </v>
    <v>       0.75149009       0.91877375       0.05867754 </v>
    <v>       0.74939499       0.07802351       0.31810300 </v>
    <v>       0.50088084       0.92096774       0.31234781 </v>
    <v>       0.50789162       0.07251839       0.56628770 </v>
    <v>       0.25339413       0.91118456       0.56599994 </v>
    <v>       0.25399567       0.07254457       0.82036874 </v>
    <v>      -0.00058932       0.92237894       0.81778755 </v>
    <v>       0.99352792       0.08557974       0.56347458 </v>
    <v>       0.74434420       0.93032542       0.56356898 </v>
    <v>       0.74645788       0.07274562       0.80961322 </v>
    <v>       0.50048189       0.93087951       0.81270780 </v>
   </varray>
  </structure>
  <varray name="forces" >
   <v>       0.66934965       0.06810149      -0.05063660 </v>
   <v>       0.15833614      -0.10594663       0.14048985 </v>
   <v>      -0.68968519      -0.05127154      -0.70906153 </v>
   <v>       0.23125203      -0.03085904       0.58186708 </v>
   <v>      -0.22882286      -0.08949623       0.09423840 </v>
   <v>       0.66219873       0.06297741      -0.14395993 </v>
   <v>       0.02771871      -0.11279489       0.45468620 </v>
   <v>      -0.35801490       0.04107155      -0.44227851 </v>
   <v>       0.00172038       0.01876042       0.06003946 </v>
   <v>       0.28425752      -0.03847591      -0.16959230 </v>
   <v>       0.03265999      -0.00926831       0.25511860 </v>
   <v>       0.12117943       0.27874988       0.26187869 </v>
   <v>      -0.19195642       0.13862969       0.20063627 </v>
   <v>      -0.42171019       2.00850676       0.28013906 </v>
   <v>      -0.07792135      -0.59343285       0.05091697 </v>
   <v>       0.01273291      -0.29884073       0.10228804 </v>
   <v>       0.01416212      -0.73828816       0.17828327 </v>
   <v>       0.18551227       0.26602328       0.00670336 </v>
   <v>       0.32329346      -2.33464326       0.07591206 </v>
   <v>       0.27344950       2.05151723      -0.13900666 </v>
   <v>      -0.32617430      -3.64279083      -0.29797281 </v>
   <v>      -0.13362779      -0.24659681      -0.17351003 </v>
   <v>      -0.06791077       0.05284577      -0.08641062 </v>
   <v>      -0.15492817      -0.24629022      -0.09733613 </v>
   <v>       0.19234306       0.08523219      -0.11400577 </v>
   <v>       0.13020312      -0.16161343      -0.10035026 </v>
   <v>       0.07790680      -0.21570775      -0.20479778 </v>
   <v>       0.11771507       0.27325860      -0.16703447 </v>
   <v>       0.08365051      -0.17675632      -0.17715455 </v>
   <v>       0.09619456       0.05563237      -0.04199697 </v>
   <v>       0.27089990      -0.02949652      -0.38476888 </v>
   <v>      -0.06677909       0.05940708      -0.11414174 </v>
   <v>      -0.09223405      -0.12793404      -0.11813831 </v>
   <v>      -0.20645044       0.10552393      -0.17312545 </v>
   <v>      -0.17653877      -0.15685950       0.12194895 </v>
   <v>       0.26799088       0.02771194       0.25625655 </v>
   <v>      -0.35382406      -0.10404907       0.19647347 </v>
   <v>       0.03012964       0.19300503       0.01940395 </v>
   <v>       0.13684586      -0.18032981       0.24071322 </v>
   <v>      -0.21460950       0.32756683       0.12397624 </v>
   <v>       0.24543629      -0.17882482       0.15646260 </v>
   <v>      -0.01757794       0.13121027       0.13494818 </v>
   <v>      -0.13389491      -0.17142271      -0.08031288 </v>
   <v>      -0.77185087       0.62596245      -0.10666925 </v>
   <v>       0.55794907      -0.70632732      -0.49298117 </v>
   <v>       0.69950237      -2.03165054      -0.69055699 </v>
   <v>      -1.15018044       2.63022137      -0.10106228 </v>
   <v>      -0.29151120      -0.06604171      -0.72229499 </v>
   <v>       0.47776387       0.89143640      -0.51971390 </v>
   <v>       0.21375696      -0.03943756       0.62952214 </v>
   <v>      -0.07957375       0.18641199      -0.10954014 </v>
   <v>       0.80426503       0.64210429       0.19205254 </v>
   <v>       0.68901091       4.07779979       0.68262978 </v>
   <v>       0.16278300       0.66992753       0.74302210 </v>
   <v>      -0.32126389       0.04060952       0.69150722 </v>
   <v>      -1.15235081      -2.34267743       0.09729392 </v>
   <v>      -0.48327918      -0.65063611      -0.14859550 </v>
   <v>      -0.17149540       0.47503658      -0.11663312 </v>
   <v>       0.08199650      -0.60648161      -0.03576864 </v>
  </varray>
  <varray name="stress" >
   <v>       8.13671710       0.02986874       0.50176150 </v>
   <v>       0.02986900      15.26982287       1.33023260 </v>
   <v>       0.50176150       1.33023290       6.31823085 </v>
  </varray>
  <energy>
   <i name="e_fr_energy">   -300.76620657 </i>
   <i name="e_wo_entrp">   -300.76620657 </i>
   <i name="e_0_energy">      0.00000000 </i>
  </energy>
  <time name="totalsc"> 1083.63 1088.74</time>
 </calculation>
 <calculation>
  <scstep>
   <time name="dav">   65.51   65.67</time>
   <time name="total">   66.30   66.46</time>
   <energy>
    <i name="alphaZ">   1070.21008105 </i>
    <i name="ewald"> -30473.48080407 </i>
    <i name="hartreedc"> -12901.59042490 </i>
    <i name="XCdc">   1273.34503563 </i>
    <i name="pawpsdc">  44000.89859562 </i>
    <i name="pawaedc"> -43315.66469266 </i>
    <i name="eentropy">      0.00000000 </i>
    <i name="bandstr">  -3967.84841021 </i>
    <i name="atom">  44026.03258983 </i>
    <i name="e_fr_energy">   -288.09802972 </i>
    <i name="e_wo_entrp">   -288.09802972 </i>
    <i name="e_0_energy">   -288.09802972 </i>
   </energy>
  </scstep>
  <scstep>
   <time name="dav">   71.89   71.88</time>
   <time name="total">   72.68   72.68</time>
   <energy>
    <i name="e_fr_energy">   -288.19656461 </i>
    <i name="e_wo_entrp">   -288.19656461 </i>
    <i name="e_0_energy">   -288.19656461 </i>
   </energy>
  </scstep>
  <scstep>
   <time name="dav">   84.53   84.68</time>
   <time name="total">   85.33   85.48</time>
   <energy>
    <i name="e_fr_energy">   -288.19246953 </i>
    <i name="e_wo_entrp">   -288.19246953 </i>
    <i name="e_0_energy">   -288.19246953 </i>
   </energy>
  </scstep>
  <scstep>
   <time name="dav">   70.06   70.20</time>
   <time name="total">   70.88   71.02</time>
   <energy>
    <i name="e_fr_energy">   -288.18823794 </i>
    <i name="e_wo_entrp">   -288.18823794 </i>
    <i name="e_0_energy">   -288.18823794 </i>
   </energy>
  </scstep>
  <scstep>
   <time name="dav">   72.52   72.54</time>
   <time name="total">   73.30   73.33</time>
   <energy>
    <i name="e_fr_energy">   -288.18766722 </i>
    <i name="e_wo_entrp">   -288.18766722 </i>
    <i name="e_0_energy">   -288.18766722 </i>
   </energy>
  </scstep>
  <scstep>
   <time name="dav">   74.44   74.86</time>
   <time name="total">   75.23   75.66</time>
   <energy>
    <i name="e_fr_energy">   -288.18761907 </i>
    <i name="e_wo_entrp">   -288.18761907 </i>
    <i name="e_0_energy">   -288.18761907 </i>
   </energy>
  </scstep>
  <scstep>
   <time name="dav">   82.71   82.85</time>
   <time name="total">   83.50   83.64</time>
   <energy>
    <i name="e_fr_energy">   -288.18759330 </i>
    <i name="e_wo_entrp">   -288.18759330 </i>
    <i name="e_0_energy">   -288.18759330 </i>
   </energy>
  </scstep>
  <scstep>
   <time name="dav">   71.94   72.16</time>
   <time name="total">   72.73   72.95</time>
   <energy>
    <i name="e_fr_energy">   -288.18758081 </i>
    <i name="e_wo_entrp">   -288.18758081 </i>
    <i name="e_0_energy">   -288.18758081 </i>
   </energy>
  </scstep>
  <scstep>
   <time name="dav">   76.58   76.78</time>
   <time name="total">   77.38   77.58</time>
   <energy>
    <i name="e_fr_energy">   -288.18757789 </i>
    <i name="e_wo_entrp">   -288.18757789 </i>
    <i name="e_0_energy">   -288.18757789 </i>
   </energy>
  </scstep>
  <scstep>
   <time name="dav">   58.26   58.32</time>
   <time name="total">   59.06   59.12</time>
   <energy>
    <i name="e_fr_energy">   -288.18757917 </i>
    <i name="e_wo_entrp">   -288.18757917 </i>
    <i name="e_0_energy">   -288.18757917 </i>
   </energy>
  </scstep>
  <scstep>
   <time name="dav">   50.71   50.90</time>
   <time name="total">   50.78   50.98</time>
   <energy>
    <i name="alphaZ">   1070.21008105 </i>
    <i name="ewald"> -30473.48080407 </i>
    <i name="hartreedc"> -12913.88147041 </i>
    <i name="XCdc">   1273.85409253 </i>
    <i name="pawpsdc">  43930.27818394 </i>
    <i name="pawaedc"> -43244.20182241 </i>
    <i name="eentropy">      0.00000000 </i>
    <i name="bandstr">  -3956.99842990 </i>
    <i name="atom">  44026.03258983 </i>
    <i name="e_fr_energy">   -288.18757944 </i>
    <i name="e_wo_entrp">   -288.18757944 </i>
    <i name="e_0_energy">   -288.18757944 </i>
   </energy>
  </scstep>
  <structure>
   <crystal>
    <varray name="basis" >
     <v>      11.16036338      -0.00033742      -0.00406916 </v>
     <v>      -0.00028901       9.51564575      -0.00243178 </v>
     <v>      -0.00407058      -0.00284014      11.16949348 </v>
    </varray>
    <i name="volume">   1186.17835213 </i>
    <varray name="rec_basis" >
     <v>       0.08960283       0.00000273       0.00003266 </v>
     <v>       0.00000319       0.10509009       0.00002672 </v>
     <v>       0.00003264       0.00002288       0.08952959 </v>
    </varray>
   </crystal>
   <varray name="positions" >
    <v>       0.88011368       0.00070725       0.43580207 </v>
    <v>       0.87550003      -0.00065902       0.18776189 </v>
    <v>       0.37018717      -0.00053293       0.68244801 </v>
    <v>       0.62769165       0.99951102       0.94044214 </v>
    <v>       0.87493688      -0.00044569       0.93795863 </v>
    <v>       0.87923558       0.00088257       0.68604682 </v>
    <v>       0.37348084       0.00138184       0.19574166 </v>
    <v>       0.62256536       0.00024334       0.42986365 </v>
    <v>       0.12048516       0.00024067       0.93657324 </v>
    <v>       0.37676504       0.00101126       0.93521656 </v>
    <v>       0.62488787       0.00072766       0.68840935 </v>
    <v>       0.00006676       0.29539473       0.06501288 </v>
    <v>       0.24795456       0.69571008       0.06542826 </v>
    <v>       0.24793865       0.28717075       0.31472023 </v>
    <v>       0.49898885       0.70488507       0.31328724 </v>
    <v>       0.50133783       0.30007161       0.06474884 </v>
    <v>       0.75098338       0.70873551       0.06436674 </v>
    <v>       0.75134743       0.29548901       0.31202731 </v>
    <v>       0.00135353       0.71309562       0.31360596 </v>
    <v>       0.00205712       0.28708943       0.56149088 </v>
    <v>       0.24828897       0.71610407       0.56104918 </v>
    <v>       0.24796950       0.30044840       0.81006049 </v>
    <v>       0.49939762       0.69562499       0.81221824 </v>
    <v>       0.49745588       0.30040964       0.56092415 </v>
    <v>       0.75271121       0.69553336       0.56152330 </v>
    <v>       0.75174298       0.30011639       0.81318395 </v>
    <v>       0.00040911       0.70441560       0.81112474 </v>
    <v>       0.25114776       0.32684816       0.06116133 </v>
    <v>       0.00079027       0.67248755       0.06145593 </v>
    <v>       0.50091383       0.32718378       0.31257255 </v>
    <v>       0.25145893       0.67269383       0.31052417 </v>
    <v>       0.74926542       0.32722606       0.06191491 </v>
    <v>       0.49913059       0.67346174       0.06164616 </v>
    <v>       0.99876893       0.32783544       0.31177477 </v>
    <v>       0.74860697       0.67252630       0.31374235 </v>
    <v>       0.25179684       0.32739793       0.56464821 </v>
    <v>      -0.00216568       0.67239379       0.56422910 </v>
    <v>       0.50019905       0.32640120       0.81309005 </v>
    <v>       0.25117787       0.67329548       0.81497458 </v>
    <v>       0.74821570       0.32707086       0.56379928 </v>
    <v>       0.50220283       0.67330706       0.56417820 </v>
    <v>       0.99978092       0.32730206       0.81393528 </v>
    <v>       0.74868439       0.67316488       0.81207629 </v>
    <v>       0.49392645       0.07336578       0.05889070 </v>
    <v>       0.25451849       0.92892080       0.05727750 </v>
    <v>       0.25455469       0.08439420       0.30758315 </v>
    <v>      -0.00464700       0.91506471       0.31200587 </v>
    <v>       0.00010426       0.07805013       0.05739810 </v>
    <v>       0.75125902       0.91923990       0.05921733 </v>
    <v>       0.74949959       0.07801699       0.31729777 </v>
    <v>       0.50077365       0.92111879       0.31236381 </v>
    <v>       0.50674607       0.07330212       0.56574118 </v>
    <v>       0.25289079       0.91273970       0.56549496 </v>
    <v>       0.25344327       0.07332437       0.81924010 </v>
    <v>      -0.00048694       0.92232716       0.81702732 </v>
    <v>       0.99443336       0.08448885       0.56332990 </v>
    <v>       0.74513308       0.92913322       0.56341075 </v>
    <v>       0.74698239       0.07349714       0.81001988 </v>
    <v>       0.50043160       0.92960779       0.81267209 </v>
   </varray>
  </structure>
  <varray name="forces" >
   <v>       0.75853329       0.07450687      -0.08255529 </v>
   <v>       0.17186437      -0.12017502       0.15680097 </v>
   <v>      -0.76736488      -0.07531421      -0.78477821 </v>
   <v>       0.28830650      -0.03932373       0.63761959 </v>
   <v>      -0.21336465      -0.09700707       0.12366751 </v>
   <v>       0.74819596       0.08104406      -0.16051528 </v>
   <v>      -0.04954576      -0.03493760       0.74754425 </v>
   <v>      -0.41546025       0.04376762      -0.65634385 </v>
   <v>      -0.20018366       0.02896628       0.04238155 </v>
   <v>       0.28357943       0.00367634      -0.19822683 </v>
   <v>       0.04044520       0.02835809       0.26623176 </v>
   <v>       0.10240862       0.24578379       0.31238305 </v>
   <v>      -0.25256915      -0.08923054       0.28067721 </v>
   <v>      -0.40983326       1.24698203       0.28460781 </v>
   <v>      -0.10236421      -0.49853366       0.06228122 </v>
   <v>       0.06002643      -0.13003204       0.16539031 </v>
   <v>       0.04614823      -0.45523588       0.20729609 </v>
   <v>       0.21803760       0.23731095      -0.02260884 </v>
   <v>       0.30592993      -1.47077367       0.08987882 </v>
   <v>       0.27731422       1.26574772      -0.16337200 </v>
   <v>      -0.31033262      -2.23403073      -0.28416533 </v>
   <v>      -0.19025320      -0.07796166      -0.26358513 </v>
   <v>      -0.07751344      -0.16183658      -0.09892550 </v>
   <v>      -0.24410971      -0.07919327      -0.15913098 </v>
   <v>       0.27147993      -0.13885569      -0.15052850 </v>
   <v>       0.18567701      -0.00941135      -0.07146662 </v>
   <v>       0.08789669      -0.19648650      -0.24417038 </v>
   <v>       0.14413788       0.24011720      -0.20896491 </v>
   <v>       0.10308586      -0.17711386      -0.20668811 </v>
   <v>       0.12046490       0.06291063      -0.04781059 </v>
   <v>       0.29121411      -0.04674798      -0.42825913 </v>
   <v>      -0.08855435       0.06649298      -0.13472920 </v>
   <v>      -0.11492769      -0.10477375      -0.14843488 </v>
   <v>      -0.22374274       0.12924398      -0.19350596 </v>
   <v>      -0.20406357      -0.15909875       0.14027319 </v>
   <v>       0.30105989       0.04657945       0.29301991 </v>
   <v>      -0.39669627      -0.12059353       0.22357479 </v>
   <v>       0.03565198       0.15625562       0.02591963 </v>
   <v>       0.16590125      -0.15656894       0.28990214 </v>
   <v>      -0.25483925       0.29382339       0.14279696 </v>
   <v>       0.29556141      -0.15500548       0.18612920 </v>
   <v>      -0.02201235       0.13119131       0.15761170 </v>
   <v>      -0.16427613      -0.15076106      -0.09874396 </v>
   <v>      -0.91344085       0.40936947      -0.24809255 </v>
   <v>       0.67744892      -0.45757138      -0.64072563 </v>
   <v>       0.76960661      -1.34666848      -0.77480051 </v>
   <v>      -1.14379277       1.77796899      -0.09882583 </v>
   <v>      -0.23379383      -0.06115495      -0.82460852 </v>
   <v>       0.46259417       0.62814250      -0.56501444 </v>
   <v>       0.14951727      -0.03639741       0.73033677 </v>
   <v>      -0.03590588       0.12944495      -0.09240805 </v>
   <v>       0.97769759       0.42718872       0.31045967 </v>
   <v>       0.67000800       2.68531091       0.66657592 </v>
   <v>       0.29161999       0.44928715       0.92607507 </v>
   <v>      -0.29184468       0.04946107       0.77930535 </v>
   <v>      -1.16955149      -1.57726390       0.11124974 </v>
   <v>      -0.61010728      -0.40755468      -0.08322379 </v>
   <v>      -0.28121498       0.28678627      -0.20542535 </v>
   <v>       0.08024567      -0.36010496      -0.01935604 </v>
  </varray>
  <varray name="stress" >
   <v>       6.17855519      -0.01864598       0.33326069 </v>
   <v>      -0.01864604       7.78856115       0.89205641 </v>
   <v>       0.33326078       0.89205639       4.79789930 </v>
  </varray>
  <energy>
   <i name="e_fr_energy">   -300.85233324 </i>
   <i name="e_wo_entrp">   -300.85233324 </i>
   <i name="e_0_energy">      0.00000000 </i>
  </energy>
  <time name="totalsc">  894.26  896.53</time>
 </calculation>
 <calculation>
  <scstep>
   <time name="dav">   67.48   67.67</time>
   <time name="total">   68.27   68.46</time>
   <energy>
    <i name="alphaZ">   1062.35351218 </i>
    <i name="ewald"> -30514.97883972 </i>
    <i name="hartreedc"> -12773.04282105 </i>
    <i name="XCdc">   1268.94936502 </i>
    <i name="pawpsdc">  43930.43670191 </i>
    <i name="pawaedc"> -43244.35942576 </i>
    <i name="eentropy">      0.00000000 </i>
    <i name="bandstr">  -4042.64828117 </i>
    <i name="atom">  44026.03258983 </i>
    <i name="e_fr_energy">   -287.25719876 </i>
    <i name="e_wo_entrp">   -287.25719876 </i>
    <i name="e_0_energy">   -287.25719876 </i>
   </energy>
  </scstep>
  <scstep>
   <time name="dav">   69.70   69.93</time>
   <time name="total">   70.50   70.72</time>
   <energy>
    <i name="e_fr_energy">   -289.19703555 </i>
    <i name="e_wo_entrp">   -289.19703555 </i>
    <i name="e_0_energy">   -289.19703555 </i>
   </energy>
  </scstep>
  <scstep>
   <time name="dav">   82.48   83.06</time>
   <time name="total">   83.29   83.87</time>
   <energy>
    <i name="e_fr_energy">   -289.16860949 </i>
    <i name="e_wo_entrp">   -289.16860949 </i>
    <i name="e_0_energy">   -289.16860949 </i>
   </energy>
  </scstep>
  <scstep>
   <time name="dav">   71.33   72.73</time>
   <time name="total">   72.12   73.53</time>
   <energy>
    <i name="e_fr_energy">   -289.13003875 </i>
    <i name="e_wo_entrp">   -289.13003875 </i>
    <i name="e_0_energy">   -289.13003875 </i>
   </energy>
  </scstep>
  <scstep>
   <time name="dav">   73.03   74.77</time>
   <time name="total">   73.82   75.56</time>
   <energy>
    <i name="e_fr_energy">   -289.10569050 </i>
    <i name="e_wo_entrp">   -289.10569050 </i>
    <i name="e_0_energy">   -289.10569050 </i>
   </energy>
  </scstep>
  <scstep>
   <time name="dav">   79.21   79.22</time>
   <time name="total">   80.00   80.01</time>
   <energy>
    <i name="e_fr_energy">   -289.10326965 </i>
    <i name="e_wo_entrp">   -289.10326965 </i>
    <i name="e_0_energy">   -289.10326965 </i>
   </energy>
  </scstep>
  <scstep>
   <time name="dav">   78.77   78.92</time>
   <time name="total">   79.56   79.71</time>
   <energy>
    <i name="e_fr_energy">   -289.10346955 </i>
    <i name="e_wo_entrp">   -289.10346955 </i>
    <i name="e_0_energy">   -289.10346955 </i>
   </energy>
  </scstep>
  <scstep>
   <time name="dav">   84.27   84.75</time>
   <time name="total">   85.05   85.54</time>
   <energy>
    <i name="e_fr_energy">   -289.10331669 </i>
    <i name="e_wo_entrp">   -289.10331669 </i>
    <i name="e_0_energy">   -289.10331669 </i>
   </energy>
  </scstep>
  <scstep>
   <time name="dav">   74.42   74.56</time>
   <time name="total">   75.21   75.36</time>
   <energy>
    <i name="e_fr_energy">   -289.10324233 </i>
    <i name="e_wo_entrp">   -289.10324233 </i>
    <i name="e_0_energy">   -289.10324233 </i>
   </energy>
  </scstep>
  <scstep>
   <time name="dav">   78.06   78.18</time>
   <time name="total">   78.86   78.98</time>
   <energy>
    <i name="e_fr_energy">   -289.10324781 </i>
    <i name="e_wo_entrp">   -289.10324781 </i>
    <i name="e_0_energy">   -289.10324781 </i>
   </energy>
  </scstep>
  <scstep>
   <time name="dav">   71.23   71.41</time>
   <time name="total">   72.02   72.21</time>
   <energy>
    <i name="e_fr_energy">   -289.10324987 </i>
    <i name="e_wo_entrp">   -289.10324987 </i>
    <i name="e_0_energy">   -289.10324987 </i>
   </energy>
  </scstep>
  <scstep>
   <time name="dav">   62.96   63.38</time>
   <time name="total">   63.75   64.17</time>
   <energy>
    <i name="e_fr_energy">   -289.10325183 </i>
    <i name="e_wo_entrp">   -289.10325183 </i>
    <i name="e_0_energy">   -289.10325183 </i>
   </energy>
  </scstep>
  <scstep>
   <time name="dav">   60.28   60.95</time>
   <time name="total">   61.08   61.74</time>
   <energy>
    <i name="e_fr_energy">   -289.10325370 </i>
    <i name="e_wo_entrp">   -289.10325370 </i>
    <i name="e_0_energy">   -289.10325370 </i>
   </energy>
  </scstep>
  <scstep>
   <time name="dav">   52.12   52.52</time>
   <time name="total">   52.19   52.59</time>
   <energy>
    <i name="alphaZ">   1062.35351218 </i>
    <i name="ewald"> -30514.97883972 </i>
    <i name="hartreedc"> -12837.49197547 </i>
    <i name="XCdc">   1271.96775189 </i>
    <i name="pawpsdc">  43588.59233458 </i>
    <i name="pawaedc"> -42897.37331043 </i>
    <i name="eentropy">      0.00000000 </i>
    <i name="bandstr">  -3988.20531710 </i>
    <i name="atom">  44026.03258983 </i>
    <i name="e_fr_energy">   -289.10325425 </i>
    <i name="e_wo_entrp">   -289.10325425 </i>
    <i name="e_0_energy">   -289.10325425 </i>
   </energy>
  </scstep>
  <structure>
   <crystal>
    <varray name="basis" >
     <v>      11.19350197      -0.00060015      -0.00355501 </v>
     <v>      -0.00051194       9.53523987       0.00156505 </v>
     <v>      -0.00355832       0.00185232      11.19573029 </v>
    </varray>
    <i name="volume">   1194.95065984 </i>
    <varray name="rec_basis" >
     <v>       0.08933756       0.00000479       0.00002839 </v>
     <v>       0.00000562       0.10487413      -0.00001735 </v>
     <v>       0.00002837      -0.00001466       0.08931978 </v>
    </varray>
   </crystal>
   <varray name="positions" >
    <v>       0.88523681       0.00129578       0.43501992 </v>
    <v>       0.87658729      -0.00159253       0.18878575 </v>
    <v>       0.36514807      -0.00119567       0.67733972 </v>
    <v>       0.62984830       0.99918304       0.94458312 </v>
    <v>       0.87385532      -0.00117719       0.93892336 </v>
    <v>       0.88427497       0.00157554       0.68503789 </v>
    <v>       0.37281225       0.00171186       0.20251596 </v>
    <v>       0.61965953       0.00062334       0.42423565 </v>
    <v>       0.11763220       0.00054851       0.93662829 </v>
    <v>       0.37851947       0.00137597       0.93370759 </v>
    <v>       0.62517241       0.00123407       0.69015790 </v>
    <v>       0.00047179       0.29669048       0.06722735 </v>
    <v>       0.24600215       0.69151745       0.06767774 </v>
    <v>       0.24542602       0.29000506       0.31669313 </v>
    <v>       0.49819758       0.70246072       0.31373932 </v>
    <v>       0.50208610       0.30144539       0.06623852 </v>
    <v>       0.75152789       0.70811315       0.06587505 </v>
    <v>       0.75286908       0.29678111       0.31160829 </v>
    <v>       0.00324712       0.70926978       0.31430541 </v>
    <v>       0.00401190       0.28998176       0.56026572 </v>
    <v>       0.24622952       0.70975896       0.55913281 </v>
    <v>       0.24638997       0.30223276       0.80782281 </v>
    <v>       0.49887790       0.69103876       0.81155504 </v>
    <v>       0.49533312       0.30217218       0.55948278 </v>
    <v>       0.75490968       0.69102246       0.56036380 </v>
    <v>       0.75329117       0.30210225       0.81303444 </v>
    <v>       0.00099870       0.70328461       0.80940504 </v>
    <v>       0.25220286       0.32806259       0.05958867 </v>
    <v>       0.00152629       0.67130851       0.06001296 </v>
    <v>       0.50181504       0.32766426       0.31225454 </v>
    <v>       0.25329986       0.67224160       0.30776999 </v>
    <v>       0.74857128       0.32774136       0.06096190 </v>
    <v>       0.49827029       0.67304089       0.06052517 </v>
    <v>       0.99734431       0.32891106       0.31051753 </v>
[...]
       <r>    8.6431    0.0000 </r>
       <r>    8.6671    0.0000 </r>
       <r>    8.7208    0.0000 </r>
       <r>    8.7602    0.0000 </r>
       <r>    8.8468    0.0000 </r>
       <r>    8.8903    0.0000 </r>
       <r>    8.9696    0.0000 </r>
       <r>    9.7823    0.0000 </r>
       <r>   10.0595    0.0000 </r>
      </set>
     </set>
    </set>
   </array>
  </eigenvalues>
  <separator name="orbital magnetization" >
   <v name="MAGDIPOLOUT">      0.00000000      0.00000000      0.00000000</v>
  </separator>
  <dos>
   <i name="efermi">      4.16133468 </i>
   <total>
    <array>
     <dimension dim="1">gridpoints</dimension>
     <dimension dim="2">spin</dimension>
     <field>energy</field>
     <field>total</field>
     <field>integrated</field>
     <set>
      <set comment="spin 1">
       <r>   -42.5353     0.0000     0.0000 </r>
       <r>   -42.3517     0.0000     0.0000 </r>
       <r>   -42.1680     0.0000     0.0000 </r>
       <r>   -41.9843     0.0000     0.0000 </r>
       <r>   -41.8007     0.0000     0.0000 </r>
       <r>   -41.6170     0.0000     0.0000 </r>
       <r>   -41.4334     0.0000     0.0000 </r>
       <r>   -41.2497     0.0000     0.0000 </r>
       <r>   -41.0660     0.0000     0.0000 </r>
       <r>   -40.8824     0.0000     0.0000 </r>
       <r>   -40.6987     0.0000     0.0000 </r>
       <r>   -40.5150     0.0000     0.0000 </r>
       <r>   -40.3314     0.0000     0.0000 </r>
       <r>   -40.1477     0.0000     0.0000 </r>
       <r>   -39.9640     0.0000     2.0000 </r>
       <r>   -39.7804     0.0000     4.0000 </r>
       <r>   -39.5967     0.0000     6.0000 </r>
       <r>   -39.4130     0.0000    10.0000 </r>
       <r>   -39.2294     0.0000    10.0000 </r>
       <r>   -39.0457     0.0000    12.0000 </r>
       <r>   -38.8621     0.0000    12.0000 </r>
       <r>   -38.6784     0.0000    12.0000 </r>
       <r>   -38.4947     0.0000    12.0000 </r>
       <r>   -38.3111     0.0000    12.0000 </r>
       <r>   -38.1274     0.0000    12.0000 </r>
       <r>   -37.9437     0.0000    12.0000 </r>
       <r>   -37.7601     0.0000    12.0000 </r>
       <r>   -37.5764     0.0000    12.0000 </r>
       <r>   -37.3927     0.0000    12.0000 </r>
       <r>   -37.2091     0.0000    12.0000 </r>
       <r>   -37.0254     0.0000    12.0000 </r>
       <r>   -36.8417     0.0000    12.0000 </r>
       <r>   -36.6581     0.0000    12.0000 </r>
       <r>   -36.4744     0.0000    12.0000 </r>
       <r>   -36.2907     0.0000    12.0000 </r>
       <r>   -36.1071     0.0000    12.0000 </r>
       <r>   -35.9234     0.0000    12.0000 </r>
       <r>   -35.7398     0.0000    12.0000 </r>
       <r>   -35.5561     0.0000    12.0000 </r>
       <r>   -35.3724     0.0000    12.0000 </r>
       <r>   -35.1888     0.0000    12.0000 </r>
       <r>   -35.0051     0.0000    12.0000 </r>
       <r>   -34.8214     0.0000    12.0000 </r>
       <r>   -34.6378     0.0000    12.0000 </r>
       <r>   -34.4541     0.0000    12.0000 </r>
       <r>   -34.2704     0.0000    12.0000 </r>
       <r>   -34.0868     0.0000    12.0000 </r>
       <r>   -33.9031     0.0000    12.0000 </r>
       <r>   -33.7194     0.0000    12.0000 </r>
       <r>   -33.5358     0.0000    12.0000 </r>
       <r>   -33.3521     0.0000    12.0000 </r>
       <r>   -33.1685     0.0000    12.0000 </r>
       <r>   -32.9848     0.0000    12.0000 </r>
       <r>   -32.8011     0.0000    12.0000 </r>
       <r>   -32.6175     0.0000    12.0000 </r>
       <r>   -32.4338     0.0000    12.0000 </r>
       <r>   -32.2501     0.0000    12.0000 </r>
       <r>   -32.0665     0.0000    12.0000 </r>
       <r>   -31.8828     0.0000    12.0000 </r>
       <r>   -31.6991     0.0000    12.0000 </r>
       <r>   -31.5155     0.0000    12.0000 </r>
       <r>   -31.3318     0.0000    12.0000 </r>
       <r>   -31.1481     0.0000    12.0000 </r>
       <r>   -30.9645     0.0000    12.0000 </r>
       <r>   -30.7808     0.0000    12.0000 </r>
       <r>   -30.5972     0.0000    12.0000 </r>
       <r>   -30.4135     0.0000    12.0000 </r>
       <r>   -30.2298     0.0000    12.0000 </r>
       <r>   -30.0462     0.0000    12.0000 </r>
       <r>   -29.8625     0.0000    12.0000 </r>
       <r>   -29.6788     0.0000    12.0000 </r>
       <r>   -29.4952     0.0000    12.0000 </r>
       <r>   -29.3115     0.0000    12.0000 </r>
       <r>   -29.1278     0.0000    12.0000 </r>
       <r>   -28.9442     0.0000    12.0000 </r>
       <r>   -28.7605     0.0000    12.0000 </r>
       <r>   -28.5768     0.0000    12.0000 </r>
       <r>   -28.3932     0.0000    12.0000 </r>
       <r>   -28.2095     0.0000    12.0000 </r>
       <r>   -28.0259     0.0000    12.0000 </r>
       <r>   -27.8422     0.0000    12.0000 </r>
       <r>   -27.6585     0.0000    12.0000 </r>
       <r>   -27.4749     0.0000    12.0000 </r>
       <r>   -27.2912     0.0000    12.0000 </r>
       <r>   -27.1075     0.0000    12.0000 </r>
       <r>   -26.9239     0.0000    12.0000 </r>
       <r>   -26.7402     0.0000    12.0000 </r>
       <r>   -26.5565     0.0000    12.0000 </r>
       <r>   -26.3729     0.0000    12.0000 </r>
       <r>   -26.1892     0.0000    12.0000 </r>
       <r>   -26.0055     0.0000    12.0000 </r>
       <r>   -25.8219     0.0000    12.0000 </r>
       <r>   -25.6382     0.0000    12.0000 </r>
       <r>   -25.4545     0.0000    12.0000 </r>
       <r>   -25.2709     0.0000    12.0000 </r>
       <r>   -25.0872     0.0000    12.0000 </r>
       <r>   -24.9036     0.0000    12.0000 </r>
       <r>   -24.7199     0.0000    12.0000 </r>
       <r>   -24.5362     0.0000    12.0000 </r>
       <r>   -24.3526     0.0000    12.0000 </r>
       <r>   -24.1689     0.0000    12.0000 </r>
       <r>   -23.9852     0.0000    12.0000 </r>
       <r>   -23.8016     0.0000    12.0000 </r>
       <r>   -23.6179     0.0000    12.0000 </r>
       <r>   -23.4342     0.0000    12.0000 </r>
       <r>   -23.2506     0.0000    12.0000 </r>
       <r>   -23.0669     0.0000    12.0000 </r>
       <r>   -22.8832     0.0000    12.0000 </r>
       <r>   -22.6996     0.0000    12.0000 </r>
       <r>   -22.5159     0.0000    12.0000 </r>
       <r>   -22.3323     0.0000    12.0000 </r>
       <r>   -22.1486     0.0000    12.0000 </r>
       <r>   -21.9649     0.0000    12.0000 </r>
       <r>   -21.7813     0.0000    12.0000 </r>
       <r>   -21.5976     0.0000    12.0000 </r>
       <r>   -21.4139     0.0000    12.0000 </r>
       <r>   -21.2303     0.0000    12.0000 </r>
       <r>   -21.0466     0.0000    12.0000 </r>
       <r>   -20.8629     0.0000    12.0000 </r>
       <r>   -20.6793     0.0000    12.0000 </r>
       <r>   -20.4956     0.0000    12.0000 </r>
       <r>   -20.3119     0.0000    12.0000 </r>
       <r>   -20.1283     0.0000    12.0000 </r>
       <r>   -19.9446     0.0000    12.0000 </r>
       <r>   -19.7610     0.0000    12.0000 </r>
       <r>   -19.5773     0.0000    12.0000 </r>
       <r>   -19.3936     0.0000    12.0000 </r>
       <r>   -19.2100     0.0000    12.0000 </r>
       <r>   -19.0263     0.0000    12.0000 </r>
       <r>   -18.8426     0.0000    40.0000 </r>
       <r>   -18.6590     0.0000   104.0000 </r>
       <r>   -18.4753     0.0000   156.0000 </r>
       <r>   -18.2916     0.0000   172.0000 </r>
       <r>   -18.1080     0.0000   172.0000 </r>
       <r>   -17.9243     0.0000   172.0000 </r>
       <r>   -17.7406     0.0000   172.0000 </r>
       <r>   -17.5570     0.0000   172.0000 </r>
       <r>   -17.3733     0.0000   172.0000 </r>
       <r>   -17.1897     0.0000   172.0000 </r>
       <r>   -17.0060     0.0000   172.0000 </r>
       <r>   -16.8223     0.0000   172.0000 </r>
       <r>   -16.6387     0.0000   172.0000 </r>
       <r>   -16.4550     0.0000   172.0000 </r>
       <r>   -16.2713     0.0000   172.0000 </r>
       <r>   -16.0877     0.0000   172.0000 </r>
       <r>   -15.9040     0.0000   172.0000 </r>
       <r>   -15.7203     0.0000   172.0000 </r>
       <r>   -15.5367     0.0000   172.0000 </r>
       <r>   -15.3530     0.0000   172.0000 </r>
       <r>   -15.1693     0.0000   172.0000 </r>
       <r>   -14.9857     0.0000   172.0000 </r>
       <r>   -14.8020     0.0000   172.0000 </r>
       <r>   -14.6183     0.0000   172.0000 </r>
       <r>   -14.4347     0.0000   172.0000 </r>
       <r>   -14.2510     0.0000   172.0000 </r>
       <r>   -14.0674     0.0000   172.0000 </r>
       <r>   -13.8837     0.0000   172.0000 </r>
       <r>   -13.7000     0.0000   172.0000 </r>
       <r>   -13.5164     0.0000   172.0000 </r>
       <r>   -13.3327     0.0000   174.0000 </r>
       <r>   -13.1490     0.0000   178.0000 </r>
       <r>   -12.9654     0.0000   186.0000 </r>
       <r>   -12.7817     0.0000   192.0000 </r>
       <r>   -12.5980     0.0000   198.0000 </r>
       <r>   -12.4144     0.0000   202.0000 </r>
       <r>   -12.2307     0.0000   204.0000 </r>
       <r>   -12.0470     0.0000   204.0000 </r>
       <r>   -11.8634     0.0000   204.0000 </r>
       <r>   -11.6797     0.0000   204.0000 </r>
       <r>   -11.4961     0.0000   204.0000 </r>
       <r>   -11.3124     0.0000   204.0000 </r>
       <r>   -11.1287     0.0000   204.0000 </r>
       <r>   -10.9451     0.0000   204.0000 </r>
       <r>   -10.7614     0.0000   204.0000 </r>
       <r>   -10.5777     0.0000   204.0000 </r>
       <r>   -10.3941     0.0000   204.0000 </r>
       <r>   -10.2104     0.0000   204.0000 </r>
       <r>   -10.0267     0.0000   204.0000 </r>
       <r>    -9.8431     0.0000   204.0000 </r>
       <r>    -9.6594     0.0000   204.0000 </r>
       <r>    -9.4757     7.6064   204.2654 </r>
       <r>    -9.2921     1.6563   205.9868 </r>
       <r>    -9.1084     7.6348   207.6340 </r>
       <r>    -8.9248     8.6715   208.6493 </r>
       <r>    -8.7411     3.1813   211.9967 </r>
       <r>    -8.5574     4.4466   216.1285 </r>
       <r>    -8.3738    15.5387   219.3414 </r>
       <r>    -8.1901    32.6893   221.0388 </r>
       <r>    -8.0064    28.9831   227.8156 </r>
       <r>    -7.8228     0.0000   232.0000 </r>
       <r>    -7.6391    22.4954   234.8070 </r>
       <r>    -7.4554     0.0000   236.0000 </r>
       <r>    -7.2718     0.0000   236.0000 </r>
       <r>    -7.0881     0.0000   236.0000 </r>
       <r>    -6.9044     0.0000   236.0000 </r>
       <r>    -6.7208     0.0000   236.0000 </r>
       <r>    -6.5371     0.0000   236.0000 </r>
       <r>    -6.3535    16.2393   236.8649 </r>
       <r>    -6.1698    13.4123   241.4456 </r>
       <r>    -5.9861    14.6026   244.4936 </r>
       <r>    -5.8025    43.1180   248.4830 </r>
       <r>    -5.6188    19.9143   253.0016 </r>
       <r>    -5.4351    19.6698   256.9463 </r>
       <r>    -5.2515     8.1149   259.3851 </r>
       <r>    -5.0678     6.6740   260.2864 </r>
       <r>    -4.8841    14.4481   262.4157 </r>
       <r>    -4.7005     8.7490   264.0066 </r>
       <r>    -4.5168     5.9363   264.9900 </r>
       <r>    -4.3331     9.4489   266.4457 </r>
       <r>    -4.1495     2.9071   267.4826 </r>
       <r>    -3.9658     1.3913   267.8771 </r>
       <r>    -3.7822     0.0698   267.9990 </r>
       <r>    -3.5985     0.0000   268.0000 </r>
       <r>    -3.4148     0.0000   268.0000 </r>
       <r>    -3.2312     0.0000   268.0000 </r>
       <r>    -3.0475     0.0000   268.0000 </r>
       <r>    -2.8638     0.0000   268.0000 </r>
       <r>    -2.6802     0.0000   268.0000 </r>
       <r>    -2.4965     0.0000   268.0000 </r>
       <r>    -2.3128     0.0000   268.0000 </r>
       <r>    -2.1292     0.0000   268.0000 </r>
       <r>    -1.9455     0.0000   268.0000 </r>
       <r>    -1.7618     0.0000   268.0000 </r>
       <r>    -1.5782     0.0000   268.0000 </r>
       <r>    -1.3945     2.8820   268.0850 </r>
       <r>    -1.2108     7.6921   269.3423 </r>
       <r>    -1.0272     6.6477   270.6968 </r>
       <r>    -0.8435    14.3671   272.6794 </r>
       <r>    -0.6599     9.2231   275.0715 </r>
       <r>    -0.4762    30.6459   278.2251 </r>
       <r>    -0.2925    28.2523   283.5094 </r>
       <r>    -0.1089    42.9640   290.0329 </r>
       <r>     0.0748    35.8316   297.2200 </r>
       <r>     0.2585    36.7897   304.4110 </r>
       <r>     0.4421    33.4271   310.4919 </r>
       <r>     0.6258    35.4647   317.6122 </r>
       <r>     0.8095    30.2528   323.9555 </r>
       <r>     0.9931    53.6959   332.4002 </r>
       <r>     1.1768    47.2142   340.2953 </r>
       <r>     1.3605    43.4023   348.8669 </r>
       <r>     1.5441    43.1765   357.8846 </r>
       <r>     1.7278    40.9657   365.7184 </r>
       <r>     1.9114    42.6296   373.1012 </r>
       <r>     2.0951    52.4728   381.6535 </r>
       <r>     2.2788    61.0199   391.6272 </r>
       <r>     2.4624    62.3254   403.9258 </r>
       <r>     2.6461    56.4367   414.7102 </r>
       <r>     2.8298    74.8979   426.8392 </r>
       <r>     3.0134    62.8089   436.9214 </r>
       <r>     3.1971    29.0566   444.4756 </r>
       <r>     3.3808    42.7087   451.0696 </r>
       <r>     3.5644    19.3200   455.7843 </r>
       <r>     3.7481    10.7320   458.4893 </r>
       <r>     3.9318     3.5435   459.8002 </r>
       <r>     4.1154     0.0000   460.0000 </r>
       <r>     4.2991     0.0000   460.0000 </r>
       <r>     4.4827     0.0000   460.0000 </r>
       <r>     4.6664     0.0000   460.0000 </r>
       <r>     4.8501     0.0000   460.0000 </r>
       <r>     5.0337     0.0491   460.0004 </r>
       <r>     5.2174     4.4931   460.3350 </r>
       <r>     5.4011    10.6658   461.7286 </r>
       <r>     5.5847     9.7650   463.6762 </r>
       <r>     5.7684    20.9244   467.1971 </r>
       <r>     5.9521    14.0361   470.3779 </r>
       <r>     6.1357    13.2130   472.8595 </r>
       <r>     6.3194    14.3562   475.3621 </r>
       <r>     6.5031    16.0478   478.1574 </r>
       <r>     6.6867    17.9736   481.2619 </r>
       <r>     6.8704    21.1542   484.8493 </r>
       <r>     7.0540    23.4909   488.9352 </r>
       <r>     7.2377    27.2456   493.3539 </r>
       <r>     7.4214    31.9380   499.1210 </r>
       <r>     7.6050    30.8160   504.7487 </r>
       <r>     7.7887    38.6056   511.2607 </r>
       <r>     7.9724    32.0135   517.4088 </r>
       <r>     8.1560    29.1958   523.0880 </r>
       <r>     8.3397    24.9993   527.8296 </r>
       <r>     8.5234    34.6994   533.3413 </r>
       <r>     8.7070    35.3327   539.7844 </r>
       <r>     8.8907    26.6379   545.7718 </r>
       <r>     9.0744    23.4947   550.3569 </r>
       <r>     9.2580    12.6688   553.9462 </r>
       <r>     9.4417    14.2452   555.7400 </r>
       <r>     9.6254    12.2299   557.4402 </r>
       <r>     9.8090     5.6442   559.1637 </r>
       <r>     9.9927     2.4444   559.9366 </r>
       <r>    10.1763     0.0000   560.0000 </r>
       <r>    10.3600     0.0000   560.0000 </r>
       <r>    10.5437     0.0000   560.0000 </r>
       <r>    10.7273     0.0000   560.0000 </r>
       <r>    10.9110     0.0000   560.0000 </r>
       <r>    11.0947     0.0000   560.0000 </r>
       <r>    11.2783     0.0000   560.0000 </r>
       <r>    11.4620     0.0000   560.0000 </r>
       <r>    11.6457     0.0000   560.0000 </r>
       <r>    11.8293     0.0000   560.0000 </r>
       <r>    12.0130     0.0000   560.0000 </r>
       <r>    12.1967     0.0000   560.0000 </r>
       <r>    12.3803     0.0000   560.0000 </r>
       <r>    12.5640     0.0000   560.0000 </r>
      </set>
     </set>
    </array>
   </total>
  </dos>
 </calculation>
 <structure name="finalpos" >
  <crystal>
   <varray name="basis" >
    <v>      11.25213547       0.05734098      -0.04270442 </v>
    <v>       0.04850458       9.60410121      -0.04031503 </v>
    <v>      -0.04258649      -0.04585508      11.18713214 </v>
   </varray>
   <i name="volume">   1208.88668066 </i>
   <varray name="rec_basis" >
    <v>       0.08887558      -0.00044744       0.00033649 </v>
    <v>      -0.00052902       0.10412664       0.00042479 </v>
    <v>       0.00033736       0.00037353       0.08939123 </v>
   </varray>
  </crystal>
  <varray name="positions" >
   <v>       0.88958535       0.02017864       0.42447789 </v>
   <v>       0.90172733      -0.01409973       0.15989550 </v>
   <v>       0.25178881       0.02288725       0.45596189 </v>
   <v>       0.64304519       0.00823744       0.96796417 </v>
   <v>       0.87464141      -0.00249997       0.91736932 </v>
   <v>       0.06925196      -0.03505068       0.65709280 </v>
   <v>       0.38373036      -0.00054988       0.19242340 </v>
   <v>       0.61459477       0.00126586       0.42985070 </v>
   <v>       0.12895314      -0.00193124       0.95529845 </v>
   <v>       0.38713536       0.00063091       0.92311277 </v>
   <v>       0.62214029      -0.00124803       0.69854083 </v>
   <v>      -0.00566200       0.30426823       0.06749939 </v>
   <v>       0.25414676       0.68436382       0.06886409 </v>
   <v>       0.24707266       0.31024083       0.31550549 </v>
   <v>       0.49845995       0.69268101       0.31914770 </v>
   <v>       0.49671620       0.31127137       0.06884335 </v>
   <v>       0.75679192       0.70484847       0.06627791 </v>
   <v>       0.74733251       0.30898365       0.32494178 </v>
   <v>      -0.00588301       0.70823265       0.31906865 </v>
   <v>      -0.00727964       0.29496698       0.56661944 </v>
   <v>       0.23931757       0.69899807       0.56924752 </v>
   <v>       0.24325275       0.31017227       0.81649977 </v>
   <v>       0.50344982       0.68710814       0.81620457 </v>
   <v>       0.49722125       0.31302578       0.56792187 </v>
   <v>       0.74280971       0.68556657       0.56632576 </v>
   <v>       0.74597821       0.30254678       0.81949928 </v>
   <v>       0.00250288       0.69052564       0.82087093 </v>
   <v>       0.25104563       0.36332567       0.06770312 </v>
   <v>      -0.00374062       0.64630111       0.07144184 </v>
   <v>       0.49927447       0.35041830       0.31753972 </v>
   <v>       0.24892666       0.68137407       0.31612802 </v>
   <v>       0.74847014       0.33555060       0.06659578 </v>
   <v>       0.49516008       0.65115855       0.07052992 </v>
   <v>       0.99902008       0.33238921       0.31630446 </v>
   <v>       0.74396366       0.65279387       0.32097551 </v>
   <v>       0.25002630       0.28460304       0.56585113 </v>
   <v>      -0.01021289       0.67503672       0.57432001 </v>
   <v>       0.49937369       0.34769446       0.81976789 </v>
   <v>       0.24605049       0.64621661       0.82007380 </v>
   <v>       0.74655822       0.36286900       0.57044447 </v>
   <v>       0.48931144       0.65173953       0.57225000 </v>
   <v>       0.00076930       0.34499549       0.81827047 </v>
   <v>       0.74320341       0.64866491       0.82156768 </v>
   <v>       0.48023185       0.08893837       0.05751479 </v>
   <v>       0.27619479       0.91063130       0.04846606 </v>
   <v>       0.27616871       0.09910259       0.30096928 </v>
   <v>      -0.03585391       0.91294495       0.30245705 </v>
   <v>      -0.00321970       0.08814603       0.04260974 </v>
   <v>       0.77623798       0.91495800       0.04572630 </v>
   <v>       0.74470780       0.09779092       0.35036769 </v>
   <v>       0.49958908       0.91221042       0.31182355 </v>
   <v>       0.53629295       0.10142153       0.56832118 </v>
   <v>       0.21802656       0.90623280       0.58034409 </v>
   <v>       0.24778421       0.09891602       0.85971257 </v>
   <v>       0.02072179       0.90633581       0.83512168 </v>
   <v>       0.97501801       0.08714376       0.56298802 </v>
   <v>       0.70086480       0.89819256       0.56296664 </v>
   <v>       0.72743681       0.08601026       0.82453162 </v>
   <v>       0.51516671       0.91082275       0.82672075 </v>
  </varray>
 </structure>
</modeling>
