<?xml version="1.0" encoding="ISO-8859-1"?>
<modeling>
 <generator>
  <i name="program" type="string">vasp </i>
  <i name="version" type="string">5.4.4.18Apr17-6-g9f103f2a35  </i>
  <i name="subversion" type="string">(build Jul 31 2017 11:33:29) complex            parallel </i>
  <i name="platform" type="string">LinuxIFC </i>
  <i name="date" type="string">2021 09 29 </i>
  <i name="time" type="string">18:34:52 </i>
 </generator>
 <incar>
  <i type="string" name="SYSTEM"> La2O2S</i>
  <i type="string" name="PREC">normal</i>
  <i type="int" name="NELMIN">     4</i>
  <i type="int" name="IBRION">     2</i>
  <i type="int" name="NFREE">    10</i>
  <i name="EDIFF">      0.00000100</i>
  <i name="EDIFFG">     -0.01000000</i>
  <i type="int" name="NSW">     1</i>
  <i type="int" name="ISIF">     2</i>
  <i name="ENCUT">    600.00000000</i>
  <i name="ENAUG">    900.00000000</i>
  <i type="int" name="ISMEAR">    -5</i>
  <i type="logical" name="LWAVE"> F  </i>
  <i type="logical" name="LCHARG"> F  </i>
  <v type="int" name="KPOINT_BSE">    -1     0     0     0</v>
 </incar>
 <structure name="primitive_cell" >
  <crystal>
   <varray name="basis" >
    <v>      11.17850000       0.00000000       0.00000000 </v>
    <v>       0.00000000       9.57460000       0.00000000 </v>
    <v>       0.00000000       0.00000000      11.18240000 </v>
   </varray>
   <i name="volume">   1196.84853820 </i>
   <varray name="rec_basis" >
    <v>       0.08945744       0.00000000       0.00000000 </v>
    <v>       0.00000000       0.10444301       0.00000000 </v>
    <v>       0.00000000       0.00000000       0.08942624 </v>
   </varray>
  </crystal>
  <varray name="positions" >
   <v>       0.37539000       0.00017000       0.43687000 </v>
   <v>      -0.49987000      -0.07798000       0.31246000 </v>
   <v>       0.25013000       0.07798000       0.31246000 </v>
   <v>       0.49987000       0.07798000      -0.43754000 </v>
   <v>       0.24987000      -0.07798000      -0.43754000 </v>
   <v>       0.37461000       0.00017000      -0.31313000 </v>
   <v>       0.49987000      -0.29519000       0.31282000 </v>
   <v>       0.24987000       0.29519000       0.31282000 </v>
   <v>      -0.49987000       0.29519000      -0.43719000 </v>
   <v>       0.25013000      -0.29519000      -0.43719000 </v>
   <v>       0.49995000       0.32677000       0.31286000 </v>
   <v>       0.24995000      -0.32677000       0.31286000 </v>
   <v>      -0.49995000      -0.32677000      -0.43714000 </v>
   <v>       0.25005000       0.32677000      -0.43714000 </v>
   <v>      -0.37539000      -0.00016000      -0.31313000 </v>
   <v>      -0.37539000      -0.00016000       0.18687000 </v>
   <v>       0.12461000      -0.00016000       0.18687000 </v>
   <v>       0.12461000      -0.00016000      -0.31313000 </v>
   <v>       0.49987000       0.07798000       0.06246000 </v>
   <v>      -0.24987000       0.07798000       0.31246000 </v>
   <v>      -0.25013000      -0.07798000      -0.43754000 </v>
   <v>       0.24987000      -0.07798000       0.06246000 </v>
   <v>       0.00013000      -0.07798000       0.31246000 </v>
   <v>      -0.49987000      -0.07798000      -0.18754000 </v>
   <v>      -0.00013000       0.07798000      -0.43754000 </v>
   <v>       0.25013000       0.07798000      -0.18754000 </v>
   <v>      -0.49987000       0.29519000       0.06281000 </v>
   <v>      -0.25013000       0.29519000       0.31282000 </v>
   <v>       0.25013000      -0.29519000       0.06281000 </v>
   <v>      -0.24987000      -0.29519000      -0.43719000 </v>
   <v>      -0.00013000      -0.29519000       0.31282000 </v>
   <v>       0.00013000       0.29519000      -0.43719000 </v>
   <v>       0.49987000      -0.29519000      -0.18718000 </v>
   <v>       0.24987000       0.29519000      -0.18718000 </v>
   <v>      -0.49995000      -0.32677000       0.06286000 </v>
   <v>       0.25005000       0.32677000       0.06286000 </v>
   <v>      -0.25005000      -0.32677000       0.31286000 </v>
   <v>      -0.24995000       0.32677000      -0.43714000 </v>
   <v>      -0.00005000       0.32677000       0.31286000 </v>
   <v>       0.00005000      -0.32677000      -0.43714000 </v>
   <v>       0.49995000       0.32677000      -0.18714000 </v>
   <v>       0.24995000      -0.32677000      -0.18714000 </v>
   <v>      -0.12461000       0.00017000       0.43687000 </v>
   <v>       0.37539000       0.00017000      -0.06313000 </v>
   <v>      -0.25013000      -0.07798000       0.06246000 </v>
   <v>      -0.00013000       0.07798000       0.06246000 </v>
   <v>      -0.24987000       0.07798000      -0.18754000 </v>
   <v>       0.00013000      -0.07798000      -0.18754000 </v>
   <v>      -0.12539000       0.00017000      -0.31313000 </v>
   <v>       0.12539000      -0.00016000      -0.06313000 </v>
   <v>      -0.37461000      -0.00016000      -0.06313000 </v>
   <v>      -0.24987000      -0.29519000       0.06281000 </v>
   <v>       0.00013000       0.29519000       0.06281000 </v>
   <v>      -0.25013000       0.29519000      -0.18718000 </v>
   <v>      -0.00013000      -0.29519000      -0.18718000 </v>
   <v>      -0.24995000       0.32677000       0.06286000 </v>
   <v>       0.00005000      -0.32677000       0.06286000 </v>
   <v>      -0.25005000      -0.32677000      -0.18714000 </v>
   <v>      -0.00005000       0.32677000      -0.18714000 </v>
   <v>      -0.12461000       0.00017000      -0.06313000 </v>
  </varray>
 </structure>
 <varray name="primitive_index" >
  <v type="int" >        1 </v>
  <v type="int" >       52 </v>
  <v type="int" >       47 </v>
  <v type="int" >       53 </v>
  <v type="int" >       54 </v>
  <v type="int" >        4 </v>
  <v type="int" >       16 </v>
  <v type="int" >       15 </v>
  <v type="int" >       25 </v>
  <v type="int" >       22 </v>
  <v type="int" >       31 </v>
  <v type="int" >       32 </v>
  <v type="int" >       42 </v>
  <v type="int" >       37 </v>
  <v type="int" >        7 </v>
  <v type="int" >       11 </v>
  <v type="int" >        9 </v>
  <v type="int" >       12 </v>
  <v type="int" >       45 </v>
  <v type="int" >       51 </v>
  <v type="int" >       58 </v>
  <v type="int" >       46 </v>
  <v type="int" >       48 </v>
  <v type="int" >       60 </v>
  <v type="int" >       57 </v>
  <v type="int" >       55 </v>
  <v type="int" >       17 </v>
  <v type="int" >       19 </v>
  <v type="int" >       14 </v>
  <v type="int" >       26 </v>
  <v type="int" >       20 </v>
  <v type="int" >       21 </v>
  <v type="int" >       24 </v>
  <v type="int" >       23 </v>
  <v type="int" >       34 </v>
  <v type="int" >       29 </v>
  <v type="int" >       36 </v>
  <v type="int" >       41 </v>
  <v type="int" >       35 </v>
  <v type="int" >       38 </v>
  <v type="int" >       39 </v>
  <v type="int" >       40 </v>
  <v type="int" >       10 </v>
  <v type="int" >        3 </v>
  <v type="int" >       50 </v>
  <v type="int" >       49 </v>
  <v type="int" >       59 </v>
  <v type="int" >       56 </v>
  <v type="int" >        8 </v>
  <v type="int" >        2 </v>
  <v type="int" >        5 </v>
  <v type="int" >       18 </v>
  <v type="int" >       13 </v>
  <v type="int" >       27 </v>
  <v type="int" >       28 </v>
  <v type="int" >       33 </v>
  <v type="int" >       30 </v>
  <v type="int" >       44 </v>
  <v type="int" >       43 </v>
  <v type="int" >        6 </v>
 </varray>
 <kpoints>
  <generation param="Gamma">
   <v type="int" name="divisions">       2        2        2 </v>
   <v name="usershift">      0.00000000       0.00000000       0.00000000 </v>
   <v name="genvec1">      0.50000000       0.00000000       0.00000000 </v>
   <v name="genvec2">      0.00000000       0.50000000       0.00000000 </v>
   <v name="genvec3">      0.00000000       0.00000000       0.50000000 </v>
   <v name="shift">      0.00000000       0.00000000       0.00000000 </v>
  </generation>
  <varray name="kpointlist" >
   <v>       0.00000000       0.00000000       0.00000000 </v>
   <v>       0.50000000       0.00000000       0.00000000 </v>
   <v>       0.00000000       0.50000000       0.00000000 </v>
   <v>       0.50000000       0.50000000       0.00000000 </v>
   <v>       0.00000000       0.00000000       0.50000000 </v>
   <v>       0.50000000       0.00000000       0.50000000 </v>
   <v>       0.00000000       0.50000000       0.50000000 </v>
   <v>       0.50000000       0.50000000       0.50000000 </v>
  </varray>
  <varray name="weights" >
   <v>       0.12500000 </v>
   <v>       0.12500000 </v>
   <v>       0.12500000 </v>
   <v>       0.12500000 </v>
   <v>       0.12500000 </v>
   <v>       0.12500000 </v>
   <v>       0.12500000 </v>
   <v>       0.12500000 </v>
  </varray>
  <varray name="tetrahedronlist"  type="int" >
   <v type="int" >        2        1        2        4        5 </v>
   <v type="int" >        2        1        3        4        5 </v>
   <v type="int" >        2        3        4        5        7 </v>
   <v type="int" >        2        2        4        5        6 </v>
   <v type="int" >        2        4        5        6        8 </v>
   <v type="int" >        2        4        5        7        8 </v>
   <v type="int" >        2        1        2        3        6 </v>
   <v type="int" >        2        2        3        4        6 </v>
   <v type="int" >        2        3        4        6        8 </v>
   <v type="int" >        2        1        3        5        6 </v>
   <v type="int" >        2        3        5        6        7 </v>
   <v type="int" >        2        3        6        7        8 </v>
   <v type="int" >        2        2        3        4        7 </v>
   <v type="int" >        2        1        2        3        7 </v>
   <v type="int" >        2        1        2        5        7 </v>
   <v type="int" >        2        2        4        7        8 </v>
   <v type="int" >        2        2        6        7        8 </v>
   <v type="int" >        2        2        5        6        7 </v>
   <v type="int" >        2        1        3        4        8 </v>
   <v type="int" >        2        1        2        4        8 </v>
   <v type="int" >        2        1        2        6        8 </v>
   <v type="int" >        2        1        3        7        8 </v>
   <v type="int" >        2        1        5        7        8 </v>
   <v type="int" >        2        1        5        6        8 </v>
  </varray>
  <i name="volumeweight">      0.02083333 </i>
 </kpoints>
 <parameters>
  <separator name="general" >
   <i type="string" name="SYSTEM">La2O2S</i>
   <i type="logical" name="LCOMPAT"> F  </i>
  </separator>
  <separator name="electronic" >
   <i type="string" name="PREC">normal</i>
   <i name="ENMAX">    600.00000000</i>
   <i name="ENAUG">    900.00000000</i>
   <i name="EDIFF">      0.00000100</i>
   <i type="int" name="IALGO">    38</i>
   <i type="int" name="IWAVPR">    11</i>
   <i type="int" name="NBANDS">   280</i>
   <i name="NELECT">    464.00000000</i>
   <i type="int" name="TURBO">     0</i>
   <i type="int" name="IRESTART">     0</i>
   <i type="int" name="NREBOOT">     0</i>
   <i type="int" name="NMIN">     0</i>
   <i name="EREF">      0.00000000</i>
   <separator name="electronic smearing" >
    <i type="int" name="ISMEAR">    -5</i>
    <i name="SIGMA">      0.20000000</i>
    <i name="KSPACING">      0.50000000</i>
    <i type="logical" name="KGAMMA"> T  </i>
   </separator>
   <separator name="electronic projectors" >
    <i type="logical" name="LREAL"> F  </i>
    <v name="ROPT">      0.00000000      0.00000000      0.00000000      0.00000000      0.00000000</v>
    <i type="int" name="LMAXPAW">  -100</i>
    <i type="int" name="LMAXMIX">     2</i>
    <i type="logical" name="NLSPLINE"> F  </i>
   </separator>
   <separator name="electronic startup" >
    <i type="int" name="ISTART">     0</i>
    <i type="int" name="ICHARG">     2</i>
    <i type="int" name="INIWAV">     1</i>
   </separator>
   <separator name="electronic spin" >
    <i type="int" name="ISPIN">     1</i>
    <i type="logical" name="LNONCOLLINEAR"> F  </i>
    <v name="MAGMOM">      1.00000000      1.00000000      1.00000000      1.00000000      1.00000000      1.00000000      1.00000000      1.00000000      1.00000000      1.00000000      1.00000000      1.00000000      1.00000000      1.00000000      1.00000000      1.00000000      1.00000000      1.00000000      1.00000000      1.00000000
      1.00000000      1.00000000      1.00000000      1.00000000      1.00000000      1.00000000      1.00000000      1.00000000      1.00000000      1.00000000      1.00000000      1.00000000      1.00000000      1.00000000      1.00000000      1.00000000      1.00000000      1.00000000      1.00000000      1.00000000
      1.00000000      1.00000000      1.00000000      1.00000000      1.00000000      1.00000000      1.00000000      1.00000000      1.00000000      1.00000000      1.00000000      1.00000000      1.00000000      1.00000000      1.00000000      1.00000000      1.00000000      1.00000000      1.00000000      1.00000000
</v>
    <i name="NUPDOWN">     -1.00000000</i>
    <i type="logical" name="LSORBIT"> F  </i>
    <v name="SAXIS">      0.00000000      0.00000000      1.00000000</v>
    <i type="logical" name="LSPIRAL"> F  </i>
    <v name="QSPIRAL">      0.00000000      0.00000000      0.00000000</v>
    <i type="logical" name="LZEROZ"> F  </i>
   </separator>
   <separator name="electronic exchange-correlation" >
    <i type="logical" name="LASPH"> F  </i>
    <i type="logical" name="LMETAGGA"> F  </i>
   </separator>
   <separator name="electronic convergence" >
    <i type="int" name="NELM">    60</i>
    <i type="int" name="NELMDL">    -5</i>
    <i type="int" name="NELMIN">     4</i>
    <i name="ENINI">    600.00000000</i>
    <separator name="electronic convergence detail" >
     <i type="logical" name="LDIAG"> T  </i>
     <i type="logical" name="LSUBROT"> F  </i>
     <i name="WEIMIN">      0.00100000</i>
     <i name="EBREAK">      0.00000000</i>
     <i name="DEPER">      0.30000000</i>
     <i type="int" name="NRMM">     4</i>
     <i name="TIME">      0.40000000</i>
    </separator>
   </separator>
   <separator name="electronic mixer" >
    <i name="AMIX">      0.40000000</i>
    <i name="BMIX">      1.00000000</i>
    <i name="AMIN">      0.10000000</i>
    <i name="AMIX_MAG">      1.60000000</i>
    <i name="BMIX_MAG">      1.00000000</i>
    <separator name="electronic mixer details" >
     <i type="int" name="IMIX">     4</i>
     <i type="logical" name="MIXFIRST"> F  </i>
     <i type="int" name="MAXMIX">   -45</i>
     <i name="WC">    100.00000000</i>
     <i type="int" name="INIMIX">     1</i>
     <i type="int" name="MIXPRE">     1</i>
     <i type="int" name="MREMOVE">     5</i>
    </separator>
   </separator>
   <separator name="electronic dipolcorrection" >
    <i type="logical" name="LDIPOL"> F  </i>
    <i type="logical" name="LMONO"> F  </i>
    <i type="int" name="IDIPOL">     0</i>
    <i name="EPSILON">      1.00000000</i>
    <v name="DIPOL">   -100.00000000   -100.00000000   -100.00000000</v>
    <i name="EFIELD">      0.00000000</i>
   </separator>
  </separator>
  <separator name="grids" >
   <i type="int" name="NGX">    70</i>
   <i type="int" name="NGY">    60</i>
   <i type="int" name="NGZ">    70</i>
   <i type="int" name="NGXF">   140</i>
   <i type="int" name="NGYF">   120</i>
   <i type="int" name="NGZF">   140</i>
   <i type="logical" name="ADDGRID"> F  </i>
  </separator>
  <separator name="ionic" >
   <i type="int" name="NSW">     1</i>
   <i type="int" name="IBRION">     2</i>
   <i type="int" name="MDALGO">     0</i>
   <i type="int" name="ISIF">     2</i>
   <i name="PSTRESS">      0.00000000</i>
   <i name="EDIFFG">     -0.01000000</i>
   <i type="int" name="NFREE">    10</i>
   <i name="POTIM">      0.50000000</i>
   <i name="SMASS">     -3.00000000</i>
   <i name="SCALEE">      1.00000000</i>
  </separator>
  <separator name="ionic md" >
   <i name="TEBEG">      0.00010000</i>
   <i name="TEEND">      0.00010000</i>
   <i type="int" name="NBLOCK">     1</i>
   <i type="int" name="KBLOCK">     1</i>
   <i type="int" name="NPACO">   256</i>
   <i name="APACO">     16.00000000</i>
  </separator>
  <separator name="symmetry" >
   <i type="int" name="ISYM">     2</i>
   <i name="SYMPREC">      0.00001000</i>
  </separator>
  <separator name="dos" >
   <i type="int" name="LORBIT">     0</i>
   <v name="RWIGS">     -1.00000000     -1.00000000     -1.00000000     -1.00000000     -1.00000000</v>
   <i type="int" name="NEDOS">   301</i>
   <i name="EMIN">     10.00000000</i>
   <i name="EMAX">    -10.00000000</i>
   <i name="EFERMI">      0.00000000</i>
  </separator>
  <separator name="writing" >
   <i type="int" name="NWRITE">     2</i>
   <i type="logical" name="LWAVE"> F  </i>
   <i type="logical" name="LDOWNSAMPLE"> F  </i>
   <i type="logical" name="LCHARG"> F  </i>
   <i type="logical" name="LPARD"> F  </i>
   <i type="logical" name="LVTOT"> F  </i>
   <i type="logical" name="LVHAR"> F  </i>
   <i type="logical" name="LELF"> F  </i>
   <i type="logical" name="LOPTICS"> F  </i>
   <v name="STM">      0.00000000      0.00000000      0.00000000      0.00000000      0.00000000      0.00000000      0.00000000</v>
  </separator>
  <separator name="performance" >
   <i type="int" name="NPAR">    28</i>
   <i type="int" name="NSIM">     4</i>
   <i type="int" name="NBLK">    -1</i>
   <i type="logical" name="LPLANE"> T  </i>
   <i type="logical" name="LSCALAPACK"> T  </i>
   <i type="logical" name="LSCAAWARE"> F  </i>
   <i type="logical" name="LSCALU"> F  </i>
   <i type="logical" name="LASYNC"> F  </i>
   <i type="logical" name="LORBITALREAL"> F  </i>
  </separator>
  <separator name="miscellaneous" >
   <i type="int" name="IDIOT">     3</i>
   <i type="int" name="ISPECIAL">     0</i>
   <i type="logical" name="LMUSIC"> F  </i>
   <v name="POMASS">      7.01000000     24.30500000    208.98000000     32.06600000     16.00000000</v>
   <v name="DARWINR">      0.00000000      0.00000000      0.00000000      0.00000000      0.00000000</v>
   <v name="DARWINV">      1.00000000      1.00000000      1.00000000      1.00000000      1.00000000</v>
   <i type="logical" name="LCORR"> T  </i>
  </separator>
  <i type="logical" name="GGA_COMPAT"> T  </i>
  <i type="logical" name="LBERRY"> F  </i>
  <i type="int" name="ICORELEVEL">     0</i>
  <i type="logical" name="LDAU"> F  </i>
  <i type="int" name="I_CONSTRAINED_M">     0</i>
  <separator name="electronic exchange-correlation" >
   <i type="string" name="GGA">--</i>
   <i type="int" name="VOSKOWN">     0</i>
   <i type="logical" name="LHFCALC"> F  </i>
   <i type="string" name="PRECFOCK"></i>
   <i type="logical" name="LSYMGRAD"> F  </i>
   <i type="logical" name="LHFONE"> F  </i>
   <i type="logical" name="LRHFCALC"> F  </i>
   <i type="logical" name="LTHOMAS"> F  </i>
   <i type="logical" name="LMODELHF"> F  </i>
   <i name="ENCUT4O">     -1.00000000</i>
   <i type="int" name="EXXOEP">     0</i>
   <i type="int" name="FOURORBIT">     0</i>
   <i name="AEXX">      0.00000000</i>
   <i name="HFALPHA">      0.00000000</i>
   <i name="MCALPHA">      0.00000000</i>
   <i name="ALDAX">      1.00000000</i>
   <i name="AGGAX">      1.00000000</i>
   <i name="ALDAC">      1.00000000</i>
   <i name="AGGAC">      1.00000000</i>
   <i type="int" name="NKREDX">     1</i>
   <i type="int" name="NKREDY">     1</i>
   <i type="int" name="NKREDZ">     1</i>
   <i type="logical" name="SHIFTRED"> F  </i>
   <i type="logical" name="ODDONLY"> F  </i>
   <i type="logical" name="EVENONLY"> F  </i>
   <i type="int" name="LMAXFOCK">     0</i>
   <i type="int" name="NMAXFOCKAE">     0</i>
   <i type="logical" name="LFOCKAEDFT"> F  </i>
   <i name="HFSCREEN">      0.00000000</i>
   <i name="HFSCREENC">      0.00000000</i>
   <i type="int" name="NBANDSGWLOW">     0</i>
  </separator>
  <separator name="vdW DFT" >
   <i type="logical" name="LUSE_VDW"> F  </i>
   <i name="Zab_VDW">     -0.84910000</i>
   <i name="PARAM1">      0.12340000</i>
   <i name="PARAM2">      1.00000000</i>
   <i name="PARAM3">      0.00000000</i>
  </separator>
  <separator name="model GW" >
   <i type="int" name="MODEL_GW">     0</i>
   <i name="MODEL_EPS0">     11.96848538</i>
   <i name="MODEL_ALPHA">      1.00000000</i>
  </separator>
  <separator name="linear response parameters" >
   <i type="logical" name="LEPSILON"> F  </i>
   <i type="logical" name="LRPA"> F  </i>
   <i type="logical" name="LNABLA"> F  </i>
   <i type="logical" name="LVEL"> F  </i>
   <i type="int" name="KINTER">     0</i>
   <i name="CSHIFT">      0.10000000</i>
   <i name="OMEGAMAX">     -1.00000000</i>
   <i name="DEG_THRESHOLD">      0.00200000</i>
   <i name="RTIME">     -0.10000000</i>
   <i name="WPLASMAI">      0.00000000</i>
   <v name="DFIELD">      0.00000000      0.00000000      0.00000000</v>
   <v name="WPLASMA">      0.00000000      0.00000000      0.00000000      0.00000000      0.00000000      0.00000000      0.00000000      0.00000000      0.00000000</v>
  </separator>
  <separator name="orbital magnetization" >
   <i type="logical" name="NUCIND"> F  </i>
   <v name="MAGPOS">      0.00000000      0.00000000      0.00000000</v>
   <i type="logical" name="LNICSALL"> T  </i>
   <i type="logical" name="ORBITALMAG"> F  </i>
   <i type="logical" name="LMAGBLOCH"> F  </i>
   <i type="logical" name="LCHIMAG"> F  </i>
   <i type="logical" name="LGAUGE"> T  </i>
   <i type="int" name="MAGATOM">     0</i>
   <v name="MAGDIPOL">      0.00000000      0.00000000      0.00000000</v>
   <v name="AVECCONST">      0.00000000      0.00000000      0.00000000</v>
  </separator>
  <separator name="response functions" >
   <i type="logical" name="LADDER"> F  </i>
   <i type="logical" name="LRPAFORCE"> F  </i>
   <i type="logical" name="LFXC"> F  </i>
   <i type="logical" name="LHARTREE"> T  </i>
   <i type="int" name="IBSE">     0</i>
   <v type="int" name="KPOINT">    -1     0     0     0</v>
   <i type="logical" name="LTCTE"> F  </i>
   <i type="logical" name="LTETE"> F  </i>
   <i type="logical" name="LTRIPLET"> F  </i>
   <i type="logical" name="LFXCEPS"> F  </i>
   <i type="logical" name="LFXHEG"> F  </i>
   <i type="int" name="NATURALO">     2</i>
   <i type="logical" name="L2ORDER"> F  </i>
   <i type="logical" name="LMP2LT"> F  </i>
   <i type="logical" name="LUSEW"> F  </i>
   <i name="ENCUTGW">     -2.00000000</i>
   <i name="ENCUTGWSOFT">     -2.00000000</i>
   <i name="ENCUTLF">     -1.00000000</i>
   <i type="int" name="LMAXMP2">    -1</i>
   <i name="SCISSOR">      0.00000000</i>
   <i type="int" name="NOMEGA">     0</i>
   <i type="int" name="NOMEGAR">     0</i>
   <i type="int" name="NBANDSGW">    -1</i>
   <i type="int" name="NBANDSO">    -1</i>
   <i type="int" name="NBANDSV">    -1</i>
   <i type="int" name="NELM">     1</i>
   <i type="int" name="NELMHF">     1</i>
   <i type="int" name="DIM">     3</i>
   <i type="int" name="ANTIRES">     0</i>
   <i name="OMEGAMAX">    -30.00000000</i>
   <i name="OMEGAMIN">    -30.00000000</i>
   <i name="OMEGATL">   -200.00000000</i>
   <i type="int" name="OMEGAGRID">   140</i>
   <i name="CSHIFT">     -0.10000000</i>
   <i type="logical" name="SELFENERGY"> F  </i>
   <i type="logical" name="LSPECTRAL"> F  </i>
   <i type="logical" name="LSPECTRALGW"> F  </i>
   <i type="logical" name="LSINGLES"> F  </i>
   <i type="logical" name="LFERMIGW"> F  </i>
   <i type="logical" name="ODDONLYGW"> F  </i>
   <i type="logical" name="EVENONLYGW"> F  </i>
   <i type="int" name="NKREDLFX">     1</i>
   <i type="int" name="NKREDLFY">     1</i>
   <i type="int" name="NKREDLFZ">     1</i>
   <i type="int" name="MAXMEM">  2800</i>
   <i type="int" name="TELESCOPE">     0</i>
   <i type="int" name="TAUPAR">     1</i>
   <i type="int" name="OMEGAPAR">    -1</i>
   <i name="LAMBDA">      1.00000000</i>
  </separator>
  <separator name="External order field" >
   <i name="OFIELD_KAPPA">      0.00000000</i>
   <v name="OFIELD_K">      0.00000000      0.00000000      0.00000000</v>
   <i name="OFIELD_Q6_NEAR">      0.00000000</i>
   <i name="OFIELD_Q6_FAR">      0.00000000</i>
   <i name="OFIELD_A">      0.00000000</i>
  </separator>
 </parameters>
 <atominfo>
  <atoms>      60 </atoms>
  <types>       5 </types>
  <array name="atoms" >
   <dimension dim="1">ion</dimension>
   <field type="string">element</field>
   <field type="int">atomtype</field>
   <set>
    <rc><c>Li</c><c>   1</c></rc>
    <rc><c>Li</c><c>   1</c></rc>
    <rc><c>Li</c><c>   1</c></rc>
    <rc><c>Li</c><c>   1</c></rc>
    <rc><c>Li</c><c>   1</c></rc>
    <rc><c>Li</c><c>   1</c></rc>
    <rc><c>Li</c><c>   1</c></rc>
    <rc><c>Li</c><c>   1</c></rc>
    <rc><c>Mg</c><c>   2</c></rc>
    <rc><c>Mg</c><c>   2</c></rc>
    <rc><c>Mg</c><c>   2</c></rc>
    <rc><c>Mg</c><c>   2</c></rc>
    <rc><c>Bi</c><c>   3</c></rc>
    <rc><c>Bi</c><c>   3</c></rc>
    <rc><c>Bi</c><c>   3</c></rc>
    <rc><c>Bi</c><c>   3</c></rc>
    <rc><c>Bi</c><c>   3</c></rc>
    <rc><c>Bi</c><c>   3</c></rc>
    <rc><c>Bi</c><c>   3</c></rc>
    <rc><c>Bi</c><c>   3</c></rc>
    <rc><c>Bi</c><c>   3</c></rc>
    <rc><c>Bi</c><c>   3</c></rc>
    <rc><c>Bi</c><c>   3</c></rc>
    <rc><c>Bi</c><c>   3</c></rc>
    <rc><c>Bi</c><c>   3</c></rc>
    <rc><c>Bi</c><c>   3</c></rc>
    <rc><c>Bi</c><c>   3</c></rc>
    <rc><c>Bi</c><c>   3</c></rc>
    <rc><c>S </c><c>   4</c></rc>
    <rc><c>S </c><c>   4</c></rc>
    <rc><c>S </c><c>   4</c></rc>
    <rc><c>S </c><c>   4</c></rc>
    <rc><c>S </c><c>   4</c></rc>
    <rc><c>S </c><c>   4</c></rc>
    <rc><c>S </c><c>   4</c></rc>
    <rc><c>S </c><c>   4</c></rc>
    <rc><c>S </c><c>   4</c></rc>
    <rc><c>S </c><c>   4</c></rc>
    <rc><c>S </c><c>   4</c></rc>
    <rc><c>S </c><c>   4</c></rc>
    <rc><c>S </c><c>   4</c></rc>
    <rc><c>S </c><c>   4</c></rc>
    <rc><c>S </c><c>   4</c></rc>
    <rc><c>S </c><c>   4</c></rc>
    <rc><c>O </c><c>   5</c></rc>
    <rc><c>O </c><c>   5</c></rc>
    <rc><c>O </c><c>   5</c></rc>
    <rc><c>O </c><c>   5</c></rc>
    <rc><c>O </c><c>   5</c></rc>
    <rc><c>O </c><c>   5</c></rc>
    <rc><c>O </c><c>   5</c></rc>
    <rc><c>O </c><c>   5</c></rc>
    <rc><c>O </c><c>   5</c></rc>
    <rc><c>O </c><c>   5</c></rc>
    <rc><c>O </c><c>   5</c></rc>
    <rc><c>O </c><c>   5</c></rc>
    <rc><c>O </c><c>   5</c></rc>
    <rc><c>O </c><c>   5</c></rc>
    <rc><c>O </c><c>   5</c></rc>
    <rc><c>O </c><c>   5</c></rc>
   </set>
  </array>
  <array name="atomtypes" >
   <dimension dim="1">type</dimension>
   <field type="int">atomspertype</field>
   <field type="string">element</field>
   <field>mass</field>
   <field>valence</field>
   <field type="string">pseudopotential</field>
   <set>
    <rc><c>   8</c><c>Li</c><c>      7.01000000</c><c>      3.00000000</c><c>  PAW_PBE Li_sv 10Sep2004               </c></rc>
    <rc><c>   4</c><c>Mg</c><c>     24.30500000</c><c>      2.00000000</c><c>  PAW_PBE Mg 13Apr2007                  </c></rc>
    <rc><c>  16</c><c>Bi</c><c>    208.98000000</c><c>     15.00000000</c><c>  PAW_PBE Bi_d 06Sep2000                </c></rc>
    <rc><c>  16</c><c>S </c><c>     32.06600000</c><c>      6.00000000</c><c>  PAW_PBE S 06Sep2000                   </c></rc>
    <rc><c>  16</c><c>O </c><c>     16.00000000</c><c>      6.00000000</c><c>  PAW_PBE O 08Apr2002                   </c></rc>
   </set>
  </array>
 </atominfo>
 <structure name="initialpos" >
  <crystal>
   <varray name="basis" >
    <v>      11.17850000       0.00000000       0.00000000 </v>
    <v>       0.00000000       9.57460000       0.00000000 </v>
    <v>       0.00000000       0.00000000      11.18240000 </v>
   </varray>
   <i name="volume">   1196.84853820 </i>
   <varray name="rec_basis" >
    <v>       0.08945744       0.00000000       0.00000000 </v>
    <v>       0.00000000       0.10444301       0.00000000 </v>
    <v>       0.00000000       0.00000000       0.08942624 </v>
   </varray>
  </crystal>
  <varray name="positions" >
   <v>       0.37539000       0.00017000       0.43687000 </v>
   <v>       0.12539000       0.99984000       0.93687000 </v>
   <v>       0.37539000       0.00017000       0.93687000 </v>
   <v>       0.37461000       0.00017000       0.68687000 </v>
   <v>       0.62539000       0.99984000       0.93687000 </v>
   <v>       0.87539000       0.00017000       0.93687000 </v>
   <v>       0.62461000       0.99984000       0.68687000 </v>
   <v>       0.87461000       0.00017000       0.68687000 </v>
   <v>       0.12461000       0.99984000       0.18687000 </v>
   <v>       0.87539000       0.00017000       0.43687000 </v>
   <v>       0.62461000       0.99984000       0.18687000 </v>
   <v>       0.12461000       0.99984000       0.68687000 </v>
   <v>       0.00013000       0.29519000       0.06281000 </v>
   <v>       0.25013000       0.70481000       0.06281000 </v>
   <v>       0.24987000       0.29519000       0.31282000 </v>
   <v>       0.49987000       0.70481000       0.31282000 </v>
   <v>       0.50013000       0.29519000       0.06281000 </v>
   <v>       0.75013000       0.70481000       0.06281000 </v>
   <v>       0.74987000       0.29519000       0.31282000 </v>
   <v>       0.99987000       0.70481000       0.31282000 </v>
   <v>       0.00013000       0.29519000       0.56281000 </v>
   <v>       0.25013000       0.70481000       0.56281000 </v>
   <v>       0.24987000       0.29519000       0.81282000 </v>
   <v>       0.49987000       0.70481000       0.81282000 </v>
   <v>       0.50013000       0.29519000       0.56281000 </v>
   <v>       0.75013000       0.70481000       0.56281000 </v>
   <v>       0.74987000       0.29519000       0.81282000 </v>
   <v>       0.99987000       0.70481000       0.81282000 </v>
   <v>       0.25005000       0.32677000       0.06286000 </v>
   <v>       0.00005000       0.67323000       0.06286000 </v>
   <v>       0.49995000       0.32677000       0.31286000 </v>
   <v>       0.24995000       0.67323000       0.31286000 </v>
   <v>       0.75005000       0.32677000       0.06286000 </v>
   <v>       0.50005000       0.67323000       0.06286000 </v>
   <v>       0.99995000       0.32677000       0.31286000 </v>
   <v>       0.74995000       0.67323000       0.31286000 </v>
   <v>       0.25005000       0.32677000       0.56286000 </v>
   <v>       0.00005000       0.67323000       0.56286000 </v>
   <v>       0.49995000       0.32677000       0.81286000 </v>
   <v>       0.24995000       0.67323000       0.81286000 </v>
   <v>       0.75005000       0.32677000       0.56286000 </v>
   <v>       0.50005000       0.67323000       0.56286000 </v>
   <v>       0.99995000       0.32677000       0.81286000 </v>
   <v>       0.74995000       0.67323000       0.81286000 </v>
   <v>       0.49987000       0.07798000       0.06246000 </v>
   <v>       0.24987000       0.92202000       0.06246000 </v>
   <v>       0.25013000       0.07798000       0.31246000 </v>
   <v>       0.00013000       0.92202000       0.31246000 </v>
   <v>       0.99987000       0.07798000       0.06246000 </v>
   <v>       0.74987000       0.92202000       0.06246000 </v>
   <v>       0.75013000       0.07798000       0.31246000 </v>
   <v>       0.50013000       0.92202000       0.31246000 </v>
   <v>       0.49987000       0.07798000       0.56246000 </v>
   <v>       0.24987000       0.92202000       0.56246000 </v>
   <v>       0.25013000       0.07798000       0.81246000 </v>
   <v>       0.00013000       0.92202000       0.81246000 </v>
   <v>       0.99987000       0.07798000       0.56246000 </v>
   <v>       0.74987000       0.92202000       0.56246000 </v>
   <v>       0.75013000       0.07798000       0.81246000 </v>
   <v>       0.50013000       0.92202000       0.81246000 </v>
  </varray>
 </structure>
 <calculation>
  <scstep>
   <time name="dav">   59.95   60.14</time>
   <time name="total">   60.03   60.22</time>
   <energy>
    <i name="alphaZ">   1067.11773629 </i>
    <i name="ewald"> -30626.74295507 </i>
    <i name="hartreedc"> -12726.72952867 </i>
    <i name="XCdc">   1321.06168689 </i>
    <i name="pawpsdc">  36729.48549953 </i>
    <i name="pawaedc"> -36149.63912807 </i>
    <i name="eentropy">      0.00000000 </i>
    <i name="bandstr">   1845.13223048 </i>
    <i name="atom">  44408.54722957 </i>
    <i name="e_fr_energy">   5868.23277095 </i>
    <i name="e_wo_entrp">   5868.23277095 </i>
    <i name="e_0_energy">   5868.23277095 </i>
   </energy>
  </scstep>
  <scstep>
   <time name="dav">   60.12   60.25</time>
   <time name="total">   60.13   60.26</time>
   <energy>
    <i name="e_fr_energy">    790.09016849 </i>
    <i name="e_wo_entrp">    790.09016849 </i>
    <i name="e_0_energy">    790.09016849 </i>
   </energy>
  </scstep>
  <scstep>
   <time name="dav">   69.84   70.09</time>
   <time name="total">   69.85   70.09</time>
   <energy>
    <i name="e_fr_energy">   -242.08419431 </i>
    <i name="e_wo_entrp">   -242.08419431 </i>
    <i name="e_0_energy">   -242.08419431 </i>
   </energy>
  </scstep>
  <scstep>
   <time name="dav">   71.89   71.99</time>
   <time name="total">   71.89   71.99</time>
   <energy>
    <i name="e_fr_energy">   -341.38502778 </i>
    <i name="e_wo_entrp">   -341.38502778 </i>
    <i name="e_0_energy">   -341.38502778 </i>
   </energy>
  </scstep>
  <scstep>
   <time name="dav">   95.50   95.63</time>
   <time name="total">   96.22   96.34</time>
   <energy>
    <i name="e_fr_energy">   -349.66747186 </i>
    <i name="e_wo_entrp">   -349.66747186 </i>
    <i name="e_0_energy">   -349.66747186 </i>
   </energy>
  </scstep>
  <scstep>
   <time name="dav">   85.23   85.94</time>
   <time name="total">   86.02   86.73</time>
   <energy>
    <i name="e_fr_energy">   -292.52981741 </i>
    <i name="e_wo_entrp">   -292.52981741 </i>
    <i name="e_0_energy">   -292.52981741 </i>
   </energy>
  </scstep>
  <scstep>
   <time name="dav">   64.98   66.15</time>
   <time name="total">   65.76   66.94</time>
   <energy>
    <i name="e_fr_energy">   -295.15958833 </i>
    <i name="e_wo_entrp">   -295.15958833 </i>
    <i name="e_0_energy">   -295.15958833 </i>
   </energy>
  </scstep>
  <scstep>
   <time name="dav">   77.18   77.43</time>
   <time name="total">   78.01   78.26</time>
   <energy>
    <i name="e_fr_energy">   -294.03890148 </i>
    <i name="e_wo_entrp">   -294.03890148 </i>
    <i name="e_0_energy">   -294.03890148 </i>
   </energy>
  </scstep>
  <scstep>
   <time name="dav">   74.98   75.23</time>
   <time name="total">   75.76   76.02</time>
   <energy>
    <i name="e_fr_energy">   -293.45950120 </i>
    <i name="e_wo_entrp">   -293.45950120 </i>
    <i name="e_0_energy">   -293.45950120 </i>
   </energy>
  </scstep>
  <scstep>
   <time name="dav">   71.61   72.14</time>
   <time name="total">   72.40   72.92</time>
   <energy>
    <i name="e_fr_energy">   -293.48932227 </i>
    <i name="e_wo_entrp">   -293.48932227 </i>
    <i name="e_0_energy">   -293.48932227 </i>
   </energy>
  </scstep>
  <scstep>
   <time name="dav">   82.88   83.08</time>
   <time name="total">   83.66   83.87</time>
   <energy>
    <i name="e_fr_energy">   -293.49641840 </i>
    <i name="e_wo_entrp">   -293.49641840 </i>
    <i name="e_0_energy">   -293.49641840 </i>
   </energy>
  </scstep>
  <scstep>
   <time name="dav">   77.48   77.60</time>
   <time name="total">   78.26   78.39</time>
   <energy>
    <i name="e_fr_energy">   -293.49935806 </i>
    <i name="e_wo_entrp">   -293.49935806 </i>
    <i name="e_0_energy">   -293.49935806 </i>
   </energy>
  </scstep>
  <scstep>
   <time name="dav">   76.83   76.87</time>
   <time name="total">   77.62   77.66</time>
   <energy>
    <i name="e_fr_energy">   -293.50069038 </i>
    <i name="e_wo_entrp">   -293.50069038 </i>
    <i name="e_0_energy">   -293.50069038 </i>
   </energy>
  </scstep>
  <scstep>
   <time name="dav">   79.45   79.64</time>
   <time name="total">   80.25   80.45</time>
   <energy>
    <i name="e_fr_energy">   -293.50086678 </i>
    <i name="e_wo_entrp">   -293.50086678 </i>
    <i name="e_0_energy">   -293.50086678 </i>
   </energy>
  </scstep>
  <scstep>
   <time name="dav">   82.40   82.55</time>
   <time name="total">   83.18   83.34</time>
   <energy>
    <i name="e_fr_energy">   -293.50089678 </i>
    <i name="e_wo_entrp">   -293.50089678 </i>
    <i name="e_0_energy">   -293.50089678 </i>
   </energy>
  </scstep>
  <scstep>
   <time name="dav">   62.78   62.79</time>
   <time name="total">   63.57   63.58</time>
   <energy>
    <i name="e_fr_energy">   -293.50091799 </i>
    <i name="e_wo_entrp">   -293.50091799 </i>
    <i name="e_0_energy">   -293.50091799 </i>
   </energy>
  </scstep>
  <scstep>
   <time name="dav">   67.49   67.94</time>
   <time name="total">   68.20   68.78</time>
   <energy>
    <i name="e_fr_energy">   -293.50092176 </i>
    <i name="e_wo_entrp">   -293.50092176 </i>
    <i name="e_0_energy">   -293.50092176 </i>
   </energy>
  </scstep>
  <scstep>
   <time name="dav">   61.24   61.70</time>
   <time name="total">   61.30   61.77</time>
   <energy>
    <i name="alphaZ">   1067.11773629 </i>
    <i name="ewald"> -30626.74295507 </i>
    <i name="hartreedc"> -12965.88219336 </i>
    <i name="XCdc">   1345.28161104 </i>
    <i name="pawpsdc">  43761.18636454 </i>
    <i name="pawaedc"> -43155.43218769 </i>
    <i name="eentropy">      0.00000000 </i>
    <i name="bandstr">  -4127.57652781 </i>
    <i name="atom">  44408.54722957 </i>
    <i name="e_fr_energy">   -293.50092248 </i>
    <i name="e_wo_entrp">   -293.50092248 </i>
    <i name="e_0_energy">   -293.50092248 </i>
   </energy>
  </scstep>
  <structure>
   <crystal>
    <varray name="basis" >
     <v>      11.17850000       0.00000000       0.00000000 </v>
     <v>       0.00000000       9.57460000       0.00000000 </v>
     <v>       0.00000000       0.00000000      11.18240000 </v>
    </varray>
    <i name="volume">   1196.84853820 </i>
    <varray name="rec_basis" >
     <v>       0.08945744       0.00000000       0.00000000 </v>
     <v>       0.00000000       0.10444301       0.00000000 </v>
     <v>       0.00000000       0.00000000       0.08942624 </v>
    </varray>
   </crystal>
   <varray name="positions" >
    <v>       0.37539000       0.00017000       0.43687000 </v>
    <v>       0.12539000       0.99984000       0.93687000 </v>
    <v>       0.37539000       0.00017000       0.93687000 </v>
    <v>       0.37461000       0.00017000       0.68687000 </v>
    <v>       0.62539000       0.99984000       0.93687000 </v>
    <v>       0.87539000       0.00017000       0.93687000 </v>
    <v>       0.62461000       0.99984000       0.68687000 </v>
    <v>       0.87461000       0.00017000       0.68687000 </v>
    <v>       0.12461000       0.99984000       0.18687000 </v>
    <v>       0.87539000       0.00017000       0.43687000 </v>
    <v>       0.62461000       0.99984000       0.18687000 </v>
    <v>       0.12461000       0.99984000       0.68687000 </v>
    <v>       0.00013000       0.29519000       0.06281000 </v>
    <v>       0.25013000       0.70481000       0.06281000 </v>
    <v>       0.24987000       0.29519000       0.31282000 </v>
    <v>       0.49987000       0.70481000       0.31282000 </v>
    <v>       0.50013000       0.29519000       0.06281000 </v>
    <v>       0.75013000       0.70481000       0.06281000 </v>
    <v>       0.74987000       0.29519000       0.31282000 </v>
    <v>       0.99987000       0.70481000       0.31282000 </v>
    <v>       0.00013000       0.29519000       0.56281000 </v>
    <v>       0.25013000       0.70481000       0.56281000 </v>
    <v>       0.24987000       0.29519000       0.81282000 </v>
    <v>       0.49987000       0.70481000       0.81282000 </v>
    <v>       0.50013000       0.29519000       0.56281000 </v>
    <v>       0.75013000       0.70481000       0.56281000 </v>
    <v>       0.74987000       0.29519000       0.81282000 </v>
    <v>       0.99987000       0.70481000       0.81282000 </v>
    <v>       0.25005000       0.32677000       0.06286000 </v>
    <v>       0.00005000       0.67323000       0.06286000 </v>
    <v>       0.49995000       0.32677000       0.31286000 </v>
    <v>       0.24995000       0.67323000       0.31286000 </v>
    <v>       0.75005000       0.32677000       0.06286000 </v>
    <v>       0.50005000       0.67323000       0.06286000 </v>
    <v>       0.99995000       0.32677000       0.31286000 </v>
    <v>       0.74995000       0.67323000       0.31286000 </v>
    <v>       0.25005000       0.32677000       0.56286000 </v>
    <v>       0.00005000       0.67323000       0.56286000 </v>
    <v>       0.49995000       0.32677000       0.81286000 </v>
    <v>       0.24995000       0.67323000       0.81286000 </v>
    <v>       0.75005000       0.32677000       0.56286000 </v>
    <v>       0.50005000       0.67323000       0.56286000 </v>
    <v>       0.99995000       0.32677000       0.81286000 </v>
    <v>       0.74995000       0.67323000       0.81286000 </v>
    <v>       0.49987000       0.07798000       0.06246000 </v>
    <v>       0.24987000       0.92202000       0.06246000 </v>
    <v>       0.25013000       0.07798000       0.31246000 </v>
    <v>       0.00013000       0.92202000       0.31246000 </v>
    <v>       0.99987000       0.07798000       0.06246000 </v>
    <v>       0.74987000       0.92202000       0.06246000 </v>
    <v>       0.75013000       0.07798000       0.31246000 </v>
    <v>       0.50013000       0.92202000       0.31246000 </v>
    <v>       0.49987000       0.07798000       0.56246000 </v>
    <v>       0.24987000       0.92202000       0.56246000 </v>
    <v>       0.25013000       0.07798000       0.81246000 </v>
    <v>       0.00013000       0.92202000       0.81246000 </v>
    <v>       0.99987000       0.07798000       0.56246000 </v>
    <v>       0.74987000       0.92202000       0.56246000 </v>
    <v>       0.75013000       0.07798000       0.81246000 </v>
    <v>       0.50013000       0.92202000       0.81246000 </v>
   </varray>
  </structure>
  <varray name="forces" >
   <v>       0.10941730       0.06840570      -0.44505412 </v>
   <v>       0.03646649       0.00350840       0.38235796 </v>
   <v>       0.11999640      -0.06747440       0.46566478 </v>
   <v>       0.52282985      -0.00353933      -0.34796199 </v>
   <v>      -0.04375470       0.00033472      -0.10181308 </v>
   <v>      -0.13408381       0.06989414       0.46888311 </v>
   <v>      -0.10833601       0.06677909      -0.43368915 </v>
   <v>      -0.52078862       0.00433303       0.12247024 </v>
   <v>       0.25585080       0.12257397       0.89116078 </v>
   <v>      -0.27930012      -0.12335882      -0.87613477 </v>
   <v>      -0.21012894      -0.10462402       0.88570325 </v>
   <v>       0.27974809      -0.10820453      -0.85282070 </v>
   <v>      -0.19697523       0.02579589       0.20678501 </v>
   <v>       0.34016273      -0.00595079       0.27180231 </v>
   <v>       0.26769892      -1.04513097       0.04562111 </v>
   <v>      -0.10349566       1.05754756       0.10357464 </v>
   <v>      -0.20123861      -0.01708753       0.21060923 </v>
   <v>       0.03296647       0.01965832       0.14834503 </v>
   <v>      -0.21421718      -0.11028078      -0.01045273 </v>
   <v>       0.07080023       0.06483724      -0.07152433 </v>
   <v>       0.12745720       1.02051409      -0.29836127 </v>
   <v>       0.21306200      -0.03527075      -0.41053659 </v>
   <v>       0.29942336       1.06241823       0.07460781 </v>
   <v>       0.06927987      -0.03659318      -0.06156313 </v>
   <v>       0.10863644      -0.98710573      -0.26581967 </v>
   <v>      -0.47270111      -0.01685335      -0.15713257 </v>
   <v>      -0.20887162       0.05586251       0.00177056 </v>
   <v>      -0.13414475      -1.08643151       0.14271134 </v>
   <v>      -0.13306908       0.14567623      -0.24603821 </v>
   <v>       0.05661957      -0.10904234      -0.15574588 </v>
   <v>       0.14290934       0.18203052      -0.14081936 </v>
   <v>      -0.20998171      -0.15309736      -0.04630481 </v>
   <v>       0.01880533       0.14762037      -0.07672295 </v>
   <v>       0.05524840      -0.17941797      -0.16168653 </v>
   <v>      -0.09551528       0.09442042       0.08648953 </v>
   <v>       0.17040704      -0.12762429       0.01309262 </v>
   <v>      -0.28794814       0.12171283       0.33832175 </v>
   <v>      -0.00265665      -0.05388980       0.19997202 </v>
   <v>      -0.08088675       0.19370286       0.09226507 </v>
   <v>      -0.20470459      -0.10517103      -0.04929456 </v>
   <v>       0.30738415       0.12321354       0.06787653 </v>
   <v>      -0.02182012      -0.20071674       0.20398933 </v>
   <v>       0.12237645       0.06084060      -0.12600320 </v>
   <v>       0.16268464      -0.15544282      -0.00678763 </v>
   <v>       1.08524560       0.09402865      -0.29267420 </v>
   <v>      -1.14610880      -0.03313763      -0.36539173 </v>
   <v>      -0.62122395       0.97946516      -0.51406127 </v>
   <v>      -0.08580313      -0.27596270       0.08858713 </v>
   <v>       1.07574388      -0.01541928      -0.32386489 </v>
   <v>      -0.99651720      -0.06397848      -0.24618295 </v>
   <v>       0.13784178       0.33289411       0.03414906 </v>
   <v>       0.53825845      -1.02732560      -0.54398779 </v>
   <v>      -0.59856044       0.82151643       0.75427642 </v>
   <v>      -0.11126167       0.01225897       1.35118308 </v>
   <v>      -0.67356348      -0.86410459      -0.49395231 </v>
   <v>       0.55626637       0.92396303      -0.57088739 </v>
   <v>      -0.59129887      -0.72115931       0.79379140 </v>
   <v>       1.32803706       0.01571096       0.19127264 </v>
   <v>       0.15959728      -0.08712986      -0.00966765 </v>
   <v>      -0.08226528       0.02900788       0.06560365 </v>
  </varray>
  <varray name="stress" >
   <v>     -10.75716616      -0.21769337       0.34552486 </v>
   <v>      -0.21769338     -13.60021581      -0.03444448 </v>
   <v>       0.34552482      -0.03444454      -7.65246255 </v>
  </varray>
  <energy>
   <i name="e_fr_energy">   -307.12717287 </i>
   <i name="e_wo_entrp">   -307.12717287 </i>
   <i name="e_0_energy">      0.00000000 </i>
  </energy>
  <time name="totalsc"> 1440.60 1446.24</time>
  <eigenvalues>
   <array>
    <dimension dim="1">band</dimension>
    <dimension dim="2">kpoint</dimension>
    <dimension dim="3">spin</dimension>
    <field>eigene</field>
    <field>occ</field>
    <set>
     <set comment="spin 1">
      <set comment="kpoint 1">
       <r>  -40.3342    1.0000 </r>
       <r>  -40.3300    1.0000 </r>
       <r>  -40.0361    1.0000 </r>
       <r>  -39.9485    1.0000 </r>
       <r>  -39.8766    1.0000 </r>
       <r>  -39.8548    1.0000 </r>
       <r>  -39.6277    1.0000 </r>
       <r>  -39.1555    1.0000 </r>
       <r>  -19.0240    1.0000 </r>
       <r>  -18.9482    1.0000 </r>
       <r>  -18.9463    1.0000 </r>
       <r>  -18.9402    1.0000 </r>
       <r>  -18.9367    1.0000 </r>
       <r>  -18.8764    1.0000 </r>
       <r>  -18.8694    1.0000 </r>
       <r>  -18.8613    1.0000 </r>
       <r>  -18.8529    1.0000 </r>
       <r>  -18.8453    1.0000 </r>
       <r>  -18.8384    1.0000 </r>
       <r>  -18.7739    1.0000 </r>
       <r>  -18.7642    1.0000 </r>
       <r>  -18.7517    1.0000 </r>
       <r>  -18.7500    1.0000 </r>
       <r>  -18.7280    1.0000 </r>
       <r>  -18.7196    1.0000 </r>
       <r>  -18.7143    1.0000 </r>
       <r>  -18.7052    1.0000 </r>
       <r>  -18.7023    1.0000 </r>
       <r>  -18.6970    1.0000 </r>
       <r>  -18.6802    1.0000 </r>
       <r>  -18.6720    1.0000 </r>
       <r>  -18.6666    1.0000 </r>
       <r>  -18.6647    1.0000 </r>
       <r>  -18.6629    1.0000 </r>
       <r>  -18.6600    1.0000 </r>
       <r>  -18.6538    1.0000 </r>
       <r>  -18.6527    1.0000 </r>
       <r>  -18.6509    1.0000 </r>
       <r>  -18.6484    1.0000 </r>
       <r>  -18.6446    1.0000 </r>
       <r>  -18.6416    1.0000 </r>
       <r>  -18.6383    1.0000 </r>
       <r>  -18.6370    1.0000 </r>
       <r>  -18.6324    1.0000 </r>
       <r>  -18.6183    1.0000 </r>
       <r>  -18.6146    1.0000 </r>
       <r>  -18.6063    1.0000 </r>
       <r>  -18.5806    1.0000 </r>
       <r>  -18.5723    1.0000 </r>
       <r>  -18.5689    1.0000 </r>
       <r>  -18.5612    1.0000 </r>
       <r>  -18.5598    1.0000 </r>
       <r>  -18.5551    1.0000 </r>
       <r>  -18.5519    1.0000 </r>
       <r>  -18.5495    1.0000 </r>
       <r>  -18.5459    1.0000 </r>
       <r>  -18.5337    1.0000 </r>
       <r>  -18.5166    1.0000 </r>
       <r>  -18.5129    1.0000 </r>
       <r>  -18.5038    1.0000 </r>
       <r>  -18.5027    1.0000 </r>
       <r>  -18.4972    1.0000 </r>
       <r>  -18.4958    1.0000 </r>
       <r>  -18.4931    1.0000 </r>
       <r>  -18.4900    1.0000 </r>
       <r>  -18.4875    1.0000 </r>
       <r>  -18.4814    1.0000 </r>
       <r>  -18.4713    1.0000 </r>
       <r>  -18.4546    1.0000 </r>
       <r>  -18.4203    1.0000 </r>
       <r>  -18.4162    1.0000 </r>
       <r>  -18.4075    1.0000 </r>
       <r>  -18.4050    1.0000 </r>
       <r>  -18.4009    1.0000 </r>
       <r>  -18.3958    1.0000 </r>
       <r>  -18.3824    1.0000 </r>
       <r>  -18.3766    1.0000 </r>
       <r>  -18.3364    1.0000 </r>
       <r>  -18.3246    1.0000 </r>
       <r>  -18.3237    1.0000 </r>
       <r>  -18.3076    1.0000 </r>
       <r>  -18.2440    1.0000 </r>
       <r>  -18.2086    1.0000 </r>
       <r>  -18.1988    1.0000 </r>
       <r>  -18.1935    1.0000 </r>
       <r>  -18.1722    1.0000 </r>
       <r>  -18.1347    1.0000 </r>
       <r>  -18.1088    1.0000 </r>
       <r>  -13.6771    1.0000 </r>
       <r>  -13.5255    1.0000 </r>
       <r>  -13.4995    1.0000 </r>
       <r>  -12.8874    1.0000 </r>
       <r>  -12.8119    1.0000 </r>
       <r>  -12.7703    1.0000 </r>
       <r>  -12.7464    1.0000 </r>
       <r>  -12.7269    1.0000 </r>
       <r>  -12.7157    1.0000 </r>
       <r>  -12.6729    1.0000 </r>
       <r>  -12.6551    1.0000 </r>
       <r>  -12.5985    1.0000 </r>
       <r>  -12.5527    1.0000 </r>
       <r>  -11.9958    1.0000 </r>
       <r>  -11.9493    1.0000 </r>
       <r>  -11.8779    1.0000 </r>
       <r>   -9.3509    1.0000 </r>
       <r>   -9.0577    1.0000 </r>
       <r>   -8.5396    1.0000 </r>
       <r>   -8.5363    1.0000 </r>
       <r>   -8.4789    1.0000 </r>
       <r>   -8.4738    1.0000 </r>
       <r>   -8.3162    1.0000 </r>
       <r>   -8.3138    1.0000 </r>
       <r>   -8.2608    1.0000 </r>
       <r>   -8.2491    1.0000 </r>
       <r>   -8.0356    1.0000 </r>
       <r>   -8.0118    1.0000 </r>
       <r>   -8.0035    1.0000 </r>
       <r>   -7.9700    1.0000 </r>
       <r>   -7.3643    1.0000 </r>
       <r>   -7.3595    1.0000 </r>
       <r>   -6.3943    1.0000 </r>
       <r>   -6.3800    1.0000 </r>
       <r>   -6.3696    1.0000 </r>
       <r>   -6.3573    1.0000 </r>
       <r>   -5.5569    1.0000 </r>
       <r>   -5.5533    1.0000 </r>
       <r>   -5.3817    1.0000 </r>
       <r>   -5.3557    1.0000 </r>
       <r>   -5.2841    1.0000 </r>
       <r>   -5.2780    1.0000 </r>
       <r>   -5.1992    1.0000 </r>
       <r>   -5.1641    1.0000 </r>
       <r>   -5.0847    1.0000 </r>
       <r>   -5.0610    1.0000 </r>
       <r>   -3.8085    1.0000 </r>
       <r>   -3.6565    1.0000 </r>
       <r>   -1.4932    1.0000 </r>
       <r>   -1.3240    1.0000 </r>
       <r>   -1.1336    1.0000 </r>
       <r>   -1.0123    1.0000 </r>
       <r>   -0.6115    1.0000 </r>
       <r>   -0.5442    1.0000 </r>
       <r>   -0.4918    1.0000 </r>
       <r>   -0.4722    1.0000 </r>
       <r>   -0.2097    1.0000 </r>
       <r>   -0.1890    1.0000 </r>
       <r>   -0.1559    1.0000 </r>
       <r>   -0.1544    1.0000 </r>
       <r>   -0.0857    1.0000 </r>
       <r>    0.1310    1.0000 </r>
       <r>    0.2108    1.0000 </r>
       <r>    0.2544    1.0000 </r>
       <r>    0.3923    1.0000 </r>
       <r>    0.4889    1.0000 </r>
       <r>    0.5577    1.0000 </r>
       <r>    0.5728    1.0000 </r>
       <r>    0.6547    1.0000 </r>
       <r>    0.7098    1.0000 </r>
       <r>    0.7339    1.0000 </r>
       <r>    0.7617    1.0000 </r>
       <r>    0.7792    1.0000 </r>
       <r>    0.8090    1.0000 </r>
       <r>    0.8836    1.0000 </r>
       <r>    0.9531    1.0000 </r>
       <r>    0.9655    1.0000 </r>
       <r>    0.9864    1.0000 </r>
       <r>    1.0183    1.0000 </r>
       <r>    1.0437    1.0000 </r>
       <r>    1.0949    1.0000 </r>
       <r>    1.1059    1.0000 </r>
       <r>    1.1644    1.0000 </r>
       <r>    1.2288    1.0000 </r>
       <r>    1.2772    1.0000 </r>
       <r>    1.3631    1.0000 </r>
       <r>    1.3808    1.0000 </r>
       <r>    1.4242    1.0000 </r>
       <r>    1.4993    1.0000 </r>
       <r>    1.5238    1.0000 </r>
       <r>    1.5502    1.0000 </r>
       <r>    1.5869    1.0000 </r>
       <r>    1.6756    1.0000 </r>
       <r>    1.6972    1.0000 </r>
       <r>    1.7503    1.0000 </r>
       <r>    1.8059    1.0000 </r>
       <r>    1.8357    1.0000 </r>
       <r>    1.8712    1.0000 </r>
       <r>    1.9736    1.0000 </r>
       <r>    2.0103    1.0000 </r>
       <r>    2.0958    1.0000 </r>
       <r>    2.1803    1.0000 </r>
       <r>    2.2094    1.0000 </r>
       <r>    2.2900    1.0000 </r>
       <r>    2.3012    1.0000 </r>
       <r>    2.3316    1.0000 </r>
       <r>    2.4593    1.0000 </r>
       <r>    2.5115    1.0000 </r>
       <r>    2.5475    1.0000 </r>
       <r>    2.5565    1.0000 </r>
       <r>    2.5704    1.0000 </r>
       <r>    2.5799    1.0000 </r>
       <r>    2.5865    1.0000 </r>
       <r>    2.6348    1.0000 </r>
       <r>    2.6691    1.0000 </r>
       <r>    2.7274    1.0000 </r>
       <r>    2.7421    1.0000 </r>
       <r>    2.7719    1.0000 </r>
       <r>    2.8153    1.0000 </r>
       <r>    2.8199    1.0000 </r>
       <r>    2.8745    1.0000 </r>
       <r>    2.9065    1.0000 </r>
       <r>    2.9294    1.0000 </r>
       <r>    3.0251    1.0000 </r>
       <r>    3.0462    1.0000 </r>
       <r>    3.0606    1.0000 </r>
       <r>    3.1008    1.0000 </r>
       <r>    3.1149    1.0000 </r>
       <r>    3.1303    1.0000 </r>
       <r>    3.1559    1.0000 </r>
       <r>    3.2065    1.0000 </r>
       <r>    3.2125    1.0000 </r>
       <r>    3.2326    1.0000 </r>
       <r>    3.2372    1.0000 </r>
       <r>    3.2971    1.0000 </r>
       <r>    3.3663    1.0000 </r>
       <r>    3.4455    1.0000 </r>
       <r>    3.4702    1.0000 </r>
       <r>    3.6146    1.0000 </r>
       <r>    3.8098    1.0000 </r>
       <r>    4.1702    1.0000 </r>
       <r>    4.1895    1.0000 </r>
       <r>    4.2337    1.0000 </r>
       <r>    4.2372    1.0000 </r>
       <r>    5.0130    0.0000 </r>
       <r>    5.0237    0.0000 </r>
       <r>    5.1637    0.0000 </r>
       <r>    5.1751    0.0000 </r>
       <r>    5.7151    0.0000 </r>
       <r>    5.7154    0.0000 </r>
       <r>    5.7914    0.0000 </r>
       <r>    5.8135    0.0000 </r>
       <r>    6.1047    0.0000 </r>
       <r>    6.1247    0.0000 </r>
       <r>    6.1396    0.0000 </r>
       <r>    6.1473    0.0000 </r>
       <r>    6.2327    0.0000 </r>
       <r>    6.2582    0.0000 </r>
       <r>    6.2639    0.0000 </r>
       <r>    6.2754    0.0000 </r>
       <r>    7.0141    0.0000 </r>
       <r>    7.0948    0.0000 </r>
       <r>    7.2642    0.0000 </r>
       <r>    7.2893    0.0000 </r>
       <r>    7.7963    0.0000 </r>
       <r>    7.8344    0.0000 </r>
       <r>    7.8800    0.0000 </r>
       <r>    7.9599    0.0000 </r>
       <r>    7.9723    0.0000 </r>
       <r>    7.9956    0.0000 </r>
       <r>    8.1124    0.0000 </r>
       <r>    8.1681    0.0000 </r>
       <r>    8.3190    0.0000 </r>
       <r>    8.6247    0.0000 </r>
       <r>    8.6782    0.0000 </r>
       <r>    8.8030    0.0000 </r>
       <r>    8.8053    0.0000 </r>
       <r>    8.8454    0.0000 </r>
       <r>    8.8808    0.0000 </r>
       <r>    8.9696    0.0000 </r>
       <r>    9.0003    0.0000 </r>
       <r>    9.0060    0.0000 </r>
       <r>    9.0474    0.0000 </r>
       <r>    9.0895    0.0000 </r>
       <r>    9.1468    0.0000 </r>
       <r>    9.1584    0.0000 </r>
       <r>    9.2134    0.0000 </r>
       <r>    9.2660    0.0000 </r>
       <r>    9.3880    0.0000 </r>
       <r>    9.4636    0.0000 </r>
       <r>    9.5269    0.0000 </r>
       <r>    9.5463    0.0000 </r>
      </set>
      <set comment="kpoint 2">
       <r>  -40.3342    1.0000 </r>
       <r>  -40.3300    1.0000 </r>
       <r>  -40.0361    1.0000 </r>
       <r>  -39.9485    1.0000 </r>
       <r>  -39.8766    1.0000 </r>
       <r>  -39.8548    1.0000 </r>
       <r>  -39.6277    1.0000 </r>
       <r>  -39.1555    1.0000 </r>
       <r>  -19.0240    1.0000 </r>
       <r>  -18.9481    1.0000 </r>
       <r>  -18.9462    1.0000 </r>
       <r>  -18.9402    1.0000 </r>
       <r>  -18.9367    1.0000 </r>
       <r>  -18.8762    1.0000 </r>
       <r>  -18.8693    1.0000 </r>
       <r>  -18.8614    1.0000 </r>
       <r>  -18.8530    1.0000 </r>
       <r>  -18.8453    1.0000 </r>
       <r>  -18.8384    1.0000 </r>
       <r>  -18.7739    1.0000 </r>
       <r>  -18.7642    1.0000 </r>
       <r>  -18.7517    1.0000 </r>
       <r>  -18.7500    1.0000 </r>
       <r>  -18.7281    1.0000 </r>
       <r>  -18.7196    1.0000 </r>
       <r>  -18.7142    1.0000 </r>
       <r>  -18.7052    1.0000 </r>
       <r>  -18.7023    1.0000 </r>
       <r>  -18.6970    1.0000 </r>
       <r>  -18.6764    1.0000 </r>
       <r>  -18.6721    1.0000 </r>
       <r>  -18.6674    1.0000 </r>
       <r>  -18.6656    1.0000 </r>
       <r>  -18.6620    1.0000 </r>
       <r>  -18.6597    1.0000 </r>
       <r>  -18.6585    1.0000 </r>
       <r>  -18.6553    1.0000 </r>
       <r>  -18.6515    1.0000 </r>
       <r>  -18.6502    1.0000 </r>
       <r>  -18.6426    1.0000 </r>
       <r>  -18.6418    1.0000 </r>
       <r>  -18.6392    1.0000 </r>
       <r>  -18.6353    1.0000 </r>
       <r>  -18.6238    1.0000 </r>
       <r>  -18.6194    1.0000 </r>
       <r>  -18.6171    1.0000 </r>
       <r>  -18.6076    1.0000 </r>
       <r>  -18.5807    1.0000 </r>
       <r>  -18.5722    1.0000 </r>
       <r>  -18.5688    1.0000 </r>
       <r>  -18.5612    1.0000 </r>
       <r>  -18.5598    1.0000 </r>
       <r>  -18.5551    1.0000 </r>
       <r>  -18.5518    1.0000 </r>
       <r>  -18.5495    1.0000 </r>
       <r>  -18.5459    1.0000 </r>
       <r>  -18.5337    1.0000 </r>
       <r>  -18.5166    1.0000 </r>
       <r>  -18.5129    1.0000 </r>
       <r>  -18.5040    1.0000 </r>
       <r>  -18.5026    1.0000 </r>
       <r>  -18.4972    1.0000 </r>
       <r>  -18.4959    1.0000 </r>
       <r>  -18.4929    1.0000 </r>
       <r>  -18.4902    1.0000 </r>
       <r>  -18.4875    1.0000 </r>
       <r>  -18.4814    1.0000 </r>
       <r>  -18.4713    1.0000 </r>
       <r>  -18.4546    1.0000 </r>
       <r>  -18.4204    1.0000 </r>
       <r>  -18.4163    1.0000 </r>
       <r>  -18.4075    1.0000 </r>
       <r>  -18.4049    1.0000 </r>
       <r>  -18.4009    1.0000 </r>
       <r>  -18.3958    1.0000 </r>
       <r>  -18.3825    1.0000 </r>
       <r>  -18.3766    1.0000 </r>
       <r>  -18.3364    1.0000 </r>
       <r>  -18.3246    1.0000 </r>
       <r>  -18.3237    1.0000 </r>
       <r>  -18.3076    1.0000 </r>
       <r>  -18.2440    1.0000 </r>
       <r>  -18.2086    1.0000 </r>
       <r>  -18.1988    1.0000 </r>
       <r>  -18.1935    1.0000 </r>
       <r>  -18.1722    1.0000 </r>
       <r>  -18.1347    1.0000 </r>
       <r>  -18.1088    1.0000 </r>
       <r>  -13.6768    1.0000 </r>
       <r>  -13.5255    1.0000 </r>
       <r>  -13.4999    1.0000 </r>
       <r>  -12.8777    1.0000 </r>
       <r>  -12.8255    1.0000 </r>
       <r>  -12.7681    1.0000 </r>
       <r>  -12.7504    1.0000 </r>
       <r>  -12.7372    1.0000 </r>
       <r>  -12.7005    1.0000 </r>
       <r>  -12.6650    1.0000 </r>
       <r>  -12.6621    1.0000 </r>
       <r>  -12.5974    1.0000 </r>
       <r>  -12.5540    1.0000 </r>
       <r>  -11.9956    1.0000 </r>
       <r>  -11.9496    1.0000 </r>
       <r>  -11.8776    1.0000 </r>
       <r>   -9.2075    1.0000 </r>
       <r>   -9.0472    1.0000 </r>
       <r>   -8.9341    1.0000 </r>
       <r>   -8.7709    1.0000 </r>
       <r>   -8.4111    1.0000 </r>
       <r>   -8.3970    1.0000 </r>
       <r>   -8.2721    1.0000 </r>
       <r>   -8.2614    1.0000 </r>
       <r>   -8.2083    1.0000 </r>
       <r>   -8.1986    1.0000 </r>
       <r>   -8.0721    1.0000 </r>
       <r>   -8.0603    1.0000 </r>
       <r>   -7.7551    1.0000 </r>
       <r>   -7.6472    1.0000 </r>
       <r>   -7.6361    1.0000 </r>
       <r>   -7.5277    1.0000 </r>
       <r>   -6.0611    1.0000 </r>
       <r>   -6.0333    1.0000 </r>
       <r>   -5.9483    1.0000 </r>
       <r>   -5.8533    1.0000 </r>
       <r>   -5.8387    1.0000 </r>
       <r>   -5.8090    1.0000 </r>
       <r>   -5.7231    1.0000 </r>
       <r>   -5.6805    1.0000 </r>
       <r>   -5.6526    1.0000 </r>
       <r>   -5.6196    1.0000 </r>
       <r>   -5.4848    1.0000 </r>
       <r>   -5.4285    1.0000 </r>
       <r>   -4.5072    1.0000 </r>
       <r>   -4.3503    1.0000 </r>
       <r>   -4.3422    1.0000 </r>
       <r>   -4.1733    1.0000 </r>
       <r>   -1.2798    1.0000 </r>
       <r>   -1.0546    1.0000 </r>
       <r>   -0.9147    1.0000 </r>
       <r>   -0.7346    1.0000 </r>
       <r>   -0.5395    1.0000 </r>
       <r>   -0.3113    1.0000 </r>
       <r>   -0.1156    1.0000 </r>
       <r>   -0.0819    1.0000 </r>
       <r>    0.0160    1.0000 </r>
       <r>    0.0368    1.0000 </r>
       <r>    0.0678    1.0000 </r>
       <r>    0.1325    1.0000 </r>
       <r>    0.1514    1.0000 </r>
       <r>    0.2018    1.0000 </r>
       <r>    0.3265    1.0000 </r>
       <r>    0.3422    1.0000 </r>
       <r>    0.4480    1.0000 </r>
       <r>    0.4775    1.0000 </r>
       <r>    0.5243    1.0000 </r>
       <r>    0.5337    1.0000 </r>
       <r>    0.6022    1.0000 </r>
       <r>    0.6317    1.0000 </r>
       <r>    0.6486    1.0000 </r>
       <r>    0.7018    1.0000 </r>
       <r>    0.7275    1.0000 </r>
       <r>    0.8302    1.0000 </r>
       <r>    0.8365    1.0000 </r>
       <r>    0.8801    1.0000 </r>
       <r>    0.9227    1.0000 </r>
       <r>    0.9678    1.0000 </r>
       <r>    1.0384    1.0000 </r>
       <r>    1.0555    1.0000 </r>
       <r>    1.1304    1.0000 </r>
       <r>    1.2039    1.0000 </r>
       <r>    1.2160    1.0000 </r>
       <r>    1.2568    1.0000 </r>
       <r>    1.2778    1.0000 </r>
       <r>    1.3049    1.0000 </r>
       <r>    1.3439    1.0000 </r>
       <r>    1.3760    1.0000 </r>
       <r>    1.4471    1.0000 </r>
       <r>    1.4804    1.0000 </r>
       <r>    1.5238    1.0000 </r>
       <r>    1.5540    1.0000 </r>
       <r>    1.5630    1.0000 </r>
       <r>    1.5778    1.0000 </r>
       <r>    1.6796    1.0000 </r>
       <r>    1.7306    1.0000 </r>
       <r>    1.7856    1.0000 </r>
       <r>    1.8153    1.0000 </r>
       <r>    1.8924    1.0000 </r>
       <r>    1.9033    1.0000 </r>
       <r>    1.9760    1.0000 </r>
       <r>    2.0075    1.0000 </r>
       <r>    2.0399    1.0000 </r>
       <r>    2.0721    1.0000 </r>
       <r>    2.1466    1.0000 </r>
       <r>    2.1757    1.0000 </r>
       <r>    2.2376    1.0000 </r>
       <r>    2.2902    1.0000 </r>
       <r>    2.3089    1.0000 </r>
       <r>    2.3307    1.0000 </r>
       <r>    2.3915    1.0000 </r>
       <r>    2.4264    1.0000 </r>
       <r>    2.4771    1.0000 </r>
       <r>    2.5109    1.0000 </r>
       <r>    2.5462    1.0000 </r>
       <r>    2.6190    1.0000 </r>
       <r>    2.6279    1.0000 </r>
       <r>    2.6992    1.0000 </r>
       <r>    2.7198    1.0000 </r>
       <r>    2.7291    1.0000 </r>
       <r>    2.7592    1.0000 </r>
       <r>    2.8103    1.0000 </r>
       <r>    2.8348    1.0000 </r>
       <r>    2.8499    1.0000 </r>
       <r>    2.8836    1.0000 </r>
       <r>    2.9324    1.0000 </r>
       <r>    2.9813    1.0000 </r>
       <r>    3.0310    1.0000 </r>
       <r>    3.0718    1.0000 </r>
       <r>    3.1068    1.0000 </r>
       <r>    3.1433    1.0000 </r>
       <r>    3.1623    1.0000 </r>
       <r>    3.2127    1.0000 </r>
       <r>    3.2830    1.0000 </r>
       <r>    3.3180    1.0000 </r>
       <r>    3.4142    1.0000 </r>
       <r>    3.4391    1.0000 </r>
       <r>    3.5019    1.0000 </r>
       <r>    3.5502    1.0000 </r>
       <r>    3.5638    1.0000 </r>
       <r>    3.6244    1.0000 </r>
       <r>    3.6648    1.0000 </r>
       <r>    3.7662    1.0000 </r>
       <r>    3.9422    1.0000 </r>
       <r>    5.5481    0.0000 </r>
       <r>    5.5515    0.0000 </r>
       <r>    5.7023    0.0000 </r>
       <r>    5.7109    0.0000 </r>
       <r>    5.7405    0.0000 </r>
       <r>    5.7486    0.0000 </r>
       <r>    5.8924    0.0000 </r>
       <r>    5.8973    0.0000 </r>
       <r>    7.1252    0.0000 </r>
       <r>    7.1531    0.0000 </r>
       <r>    7.2279    0.0000 </r>
       <r>    7.2955    0.0000 </r>
       <r>    7.3424    0.0000 </r>
       <r>    7.3826    0.0000 </r>
       <r>    7.4257    0.0000 </r>
       <r>    7.4595    0.0000 </r>
       <r>    7.4718    0.0000 </r>
       <r>    7.4831    0.0000 </r>
       <r>    7.5672    0.0000 </r>
       <r>    7.5829    0.0000 </r>
       <r>    7.7949    0.0000 </r>
       <r>    7.8127    0.0000 </r>
       <r>    7.8429    0.0000 </r>
       <r>    7.8552    0.0000 </r>
       <r>    7.8886    0.0000 </r>
       <r>    7.9265    0.0000 </r>
       <r>    7.9493    0.0000 </r>
       <r>    7.9638    0.0000 </r>
       <r>    7.9890    0.0000 </r>
       <r>    7.9965    0.0000 </r>
       <r>    8.0292    0.0000 </r>
       <r>    8.1417    0.0000 </r>
       <r>    8.2011    0.0000 </r>
       <r>    8.2877    0.0000 </r>
       <r>    8.4460    0.0000 </r>
       <r>    8.5728    0.0000 </r>
       <r>    8.6664    0.0000 </r>
       <r>    8.7219    0.0000 </r>
       <r>    8.7341    0.0000 </r>
       <r>    8.7535    0.0000 </r>
       <r>    8.7624    0.0000 </r>
       <r>    8.8654    0.0000 </r>
       <r>    8.9289    0.0000 </r>
       <r>    8.9383    0.0000 </r>
       <r>    9.0873    0.0000 </r>
       <r>    9.2641    0.0000 </r>
       <r>    9.3430    0.0000 </r>
       <r>    9.3549    0.0000 </r>
      </set>
      <set comment="kpoint 3">
       <r>  -40.3342    1.0000 </r>
       <r>  -40.3300    1.0000 </r>
       <r>  -40.0361    1.0000 </r>
       <r>  -39.9485    1.0000 </r>
       <r>  -39.8766    1.0000 </r>
       <r>  -39.8548    1.0000 </r>
       <r>  -39.6277    1.0000 </r>
       <r>  -39.1555    1.0000 </r>
       <r>  -19.0240    1.0000 </r>
       <r>  -18.9481    1.0000 </r>
       <r>  -18.9463    1.0000 </r>
       <r>  -18.9402    1.0000 </r>
       <r>  -18.9367    1.0000 </r>
       <r>  -18.8764    1.0000 </r>
       <r>  -18.8694    1.0000 </r>
       <r>  -18.8613    1.0000 </r>
       <r>  -18.8529    1.0000 </r>
       <r>  -18.8453    1.0000 </r>
       <r>  -18.8384    1.0000 </r>
       <r>  -18.7739    1.0000 </r>
       <r>  -18.7642    1.0000 </r>
       <r>  -18.7517    1.0000 </r>
       <r>  -18.7500    1.0000 </r>
       <r>  -18.7280    1.0000 </r>
       <r>  -18.7196    1.0000 </r>
       <r>  -18.7143    1.0000 </r>
       <r>  -18.7052    1.0000 </r>
       <r>  -18.7023    1.0000 </r>
       <r>  -18.6970    1.0000 </r>
       <r>  -18.6802    1.0000 </r>
       <r>  -18.6720    1.0000 </r>
       <r>  -18.6666    1.0000 </r>
       <r>  -18.6647    1.0000 </r>
       <r>  -18.6629    1.0000 </r>
       <r>  -18.6600    1.0000 </r>
       <r>  -18.6538    1.0000 </r>
       <r>  -18.6527    1.0000 </r>
       <r>  -18.6509    1.0000 </r>
       <r>  -18.6484    1.0000 </r>
       <r>  -18.6446    1.0000 </r>
       <r>  -18.6416    1.0000 </r>
       <r>  -18.6383    1.0000 </r>
       <r>  -18.6370    1.0000 </r>
       <r>  -18.6324    1.0000 </r>
       <r>  -18.6183    1.0000 </r>
       <r>  -18.6146    1.0000 </r>
       <r>  -18.6063    1.0000 </r>
       <r>  -18.5806    1.0000 </r>
       <r>  -18.5723    1.0000 </r>
       <r>  -18.5688    1.0000 </r>
       <r>  -18.5612    1.0000 </r>
       <r>  -18.5598    1.0000 </r>
       <r>  -18.5551    1.0000 </r>
       <r>  -18.5519    1.0000 </r>
       <r>  -18.5495    1.0000 </r>
       <r>  -18.5459    1.0000 </r>
       <r>  -18.5337    1.0000 </r>
       <r>  -18.5166    1.0000 </r>
       <r>  -18.5129    1.0000 </r>
       <r>  -18.5038    1.0000 </r>
       <r>  -18.5027    1.0000 </r>
       <r>  -18.4972    1.0000 </r>
       <r>  -18.4958    1.0000 </r>
       <r>  -18.4931    1.0000 </r>
       <r>  -18.4900    1.0000 </r>
       <r>  -18.4875    1.0000 </r>
       <r>  -18.4814    1.0000 </r>
       <r>  -18.4713    1.0000 </r>
       <r>  -18.4546    1.0000 </r>
       <r>  -18.4203    1.0000 </r>
       <r>  -18.4162    1.0000 </r>
       <r>  -18.4075    1.0000 </r>
       <r>  -18.4050    1.0000 </r>
       <r>  -18.4009    1.0000 </r>
       <r>  -18.3958    1.0000 </r>
       <r>  -18.3824    1.0000 </r>
       <r>  -18.3766    1.0000 </r>
       <r>  -18.3364    1.0000 </r>
       <r>  -18.3246    1.0000 </r>
       <r>  -18.3237    1.0000 </r>
       <r>  -18.3076    1.0000 </r>
       <r>  -18.2440    1.0000 </r>
       <r>  -18.2086    1.0000 </r>
       <r>  -18.1988    1.0000 </r>
       <r>  -18.1935    1.0000 </r>
       <r>  -18.1722    1.0000 </r>
       <r>  -18.1347    1.0000 </r>
       <r>  -18.1088    1.0000 </r>
       <r>  -13.6769    1.0000 </r>
       <r>  -13.5257    1.0000 </r>
       <r>  -13.4995    1.0000 </r>
       <r>  -12.8860    1.0000 </r>
       <r>  -12.8113    1.0000 </r>
       <r>  -12.7707    1.0000 </r>
       <r>  -12.7464    1.0000 </r>
       <r>  -12.7272    1.0000 </r>
       <r>  -12.7157    1.0000 </r>
       <r>  -12.6731    1.0000 </r>
       <r>  -12.6551    1.0000 </r>
       <r>  -12.5998    1.0000 </r>
       <r>  -12.5531    1.0000 </r>
       <r>  -11.9953    1.0000 </r>
       <r>  -11.9494    1.0000 </r>
       <r>  -11.8793    1.0000 </r>
       <r>   -9.3413    1.0000 </r>
       <r>   -9.0642    1.0000 </r>
       <r>   -8.5568    1.0000 </r>
       <r>   -8.5548    1.0000 </r>
       <r>   -8.4962    1.0000 </r>
       <r>   -8.4908    1.0000 </r>
       <r>   -8.2975    1.0000 </r>
       <r>   -8.2933    1.0000 </r>
       <r>   -8.2424    1.0000 </r>
       <r>   -8.2299    1.0000 </r>
       <r>   -8.0396    1.0000 </r>
       <r>   -8.0148    1.0000 </r>
       <r>   -8.0064    1.0000 </r>
       <r>   -7.9725    1.0000 </r>
       <r>   -7.3670    1.0000 </r>
       <r>   -7.3623    1.0000 </r>
       <r>   -6.3853    1.0000 </r>
       <r>   -6.3697    1.0000 </r>
       <r>   -6.3600    1.0000 </r>
       <r>   -6.3476    1.0000 </r>
       <r>   -5.5606    1.0000 </r>
       <r>   -5.5582    1.0000 </r>
       <r>   -5.4196    1.0000 </r>
       <r>   -5.3973    1.0000 </r>
       <r>   -5.3049    1.0000 </r>
       <r>   -5.2993    1.0000 </r>
       <r>   -5.1441    1.0000 </r>
       <r>   -5.1220    1.0000 </r>
       <r>   -5.0383    1.0000 </r>
       <r>   -5.0182    1.0000 </r>
       <r>   -3.8824    1.0000 </r>
       <r>   -3.5708    1.0000 </r>
       <r>   -1.3876    1.0000 </r>
       <r>   -1.2805    1.0000 </r>
       <r>   -1.2787    1.0000 </r>
       <r>   -1.0704    1.0000 </r>
       <r>   -0.4922    1.0000 </r>
       <r>   -0.4425    1.0000 </r>
       <r>   -0.4308    1.0000 </r>
       <r>   -0.4017    1.0000 </r>
       <r>   -0.3941    1.0000 </r>
       <r>   -0.3562    1.0000 </r>
       <r>   -0.2816    1.0000 </r>
       <r>   -0.2673    1.0000 </r>
       <r>   -0.2078    1.0000 </r>
       <r>   -0.1090    1.0000 </r>
       <r>   -0.0229    1.0000 </r>
       <r>    0.1495    1.0000 </r>
       <r>    0.2755    1.0000 </r>
       <r>    0.3170    1.0000 </r>
       <r>    0.3651    1.0000 </r>
       <r>    0.4304    1.0000 </r>
       <r>    0.4977    1.0000 </r>
       <r>    0.6389    1.0000 </r>
       <r>    0.6801    1.0000 </r>
       <r>    0.7256    1.0000 </r>
       <r>    0.7621    1.0000 </r>
       <r>    0.7896    1.0000 </r>
       <r>    0.8080    1.0000 </r>
       <r>    0.8280    1.0000 </r>
       <r>    0.9032    1.0000 </r>
       <r>    1.0179    1.0000 </r>
       <r>    1.0923    1.0000 </r>
       <r>    1.1283    1.0000 </r>
       <r>    1.1594    1.0000 </r>
       <r>    1.2449    1.0000 </r>
       <r>    1.2613    1.0000 </r>
       <r>    1.3260    1.0000 </r>
       <r>    1.3836    1.0000 </r>
       <r>    1.4707    1.0000 </r>
       <r>    1.5254    1.0000 </r>
       <r>    1.5782    1.0000 </r>
       <r>    1.6128    1.0000 </r>
       <r>    1.6429    1.0000 </r>
       <r>    1.6950    1.0000 </r>
       <r>    1.7058    1.0000 </r>
       <r>    1.7585    1.0000 </r>
       <r>    1.8114    1.0000 </r>
       <r>    1.8987    1.0000 </r>
       <r>    1.9557    1.0000 </r>
       <r>    1.9767    1.0000 </r>
       <r>    2.0023    1.0000 </r>
       <r>    2.0431    1.0000 </r>
       <r>    2.1439    1.0000 </r>
       <r>    2.1970    1.0000 </r>
       <r>    2.2333    1.0000 </r>
       <r>    2.2892    1.0000 </r>
       <r>    2.3478    1.0000 </r>
       <r>    2.3634    1.0000 </r>
       <r>    2.4240    1.0000 </r>
       <r>    2.4526    1.0000 </r>
       <r>    2.4947    1.0000 </r>
       <r>    2.5322    1.0000 </r>
       <r>    2.5516    1.0000 </r>
       <r>    2.5588    1.0000 </r>
       <r>    2.5767    1.0000 </r>
       <r>    2.5832    1.0000 </r>
       <r>    2.6013    1.0000 </r>
       <r>    2.6330    1.0000 </r>
       <r>    2.6968    1.0000 </r>
       <r>    2.7291    1.0000 </r>
       <r>    2.8028    1.0000 </r>
       <r>    2.8087    1.0000 </r>
       <r>    2.8321    1.0000 </r>
       <r>    2.8433    1.0000 </r>
       <r>    2.9178    1.0000 </r>
       <r>    2.9325    1.0000 </r>
       <r>    2.9508    1.0000 </r>
       <r>    2.9867    1.0000 </r>
       <r>    3.0114    1.0000 </r>
       <r>    3.0351    1.0000 </r>
       <r>    3.0472    1.0000 </r>
       <r>    3.1186    1.0000 </r>
       <r>    3.1601    1.0000 </r>
       <r>    3.2504    1.0000 </r>
       <r>    3.3269    1.0000 </r>
       <r>    3.3832    1.0000 </r>
       <r>    3.3995    1.0000 </r>
       <r>    3.4140    1.0000 </r>
       <r>    3.4416    1.0000 </r>
       <r>    3.5041    1.0000 </r>
       <r>    3.5485    1.0000 </r>
       <r>    3.5828    1.0000 </r>
       <r>    3.7561    1.0000 </r>
       <r>    4.2193    1.0000 </r>
       <r>    4.2409    1.0000 </r>
       <r>    4.2853    1.0000 </r>
       <r>    4.2873    1.0000 </r>
       <r>    5.0894    0.0000 </r>
       <r>    5.1003    0.0000 </r>
       <r>    5.2253    0.0000 </r>
       <r>    5.2374    0.0000 </r>
       <r>    5.7234    0.0000 </r>
       <r>    5.7243    0.0000 </r>
       <r>    5.8015    0.0000 </r>
       <r>    5.8227    0.0000 </r>
       <r>    6.1569    0.0000 </r>
       <r>    6.1754    0.0000 </r>
       <r>    6.1857    0.0000 </r>
       <r>    6.1872    0.0000 </r>
       <r>    6.2492    0.0000 </r>
       <r>    6.2706    0.0000 </r>
       <r>    6.2807    0.0000 </r>
       <r>    6.2958    0.0000 </r>
       <r>    6.6523    0.0000 </r>
       <r>    6.8433    0.0000 </r>
       <r>    6.9625    0.0000 </r>
       <r>    6.9903    0.0000 </r>
       <r>    7.2292    0.0000 </r>
       <r>    7.3045    0.0000 </r>
       <r>    7.4300    0.0000 </r>
       <r>    7.4808    0.0000 </r>
       <r>    7.7619    0.0000 </r>
       <r>    7.8463    0.0000 </r>
       <r>    7.8648    0.0000 </r>
       <r>    7.9753    0.0000 </r>
       <r>    7.9953    0.0000 </r>
       <r>    8.3566    0.0000 </r>
       <r>    8.3797    0.0000 </r>
       <r>    8.4292    0.0000 </r>
       <r>    8.6648    0.0000 </r>
       <r>    8.7815    0.0000 </r>
       <r>    8.8953    0.0000 </r>
       <r>    8.8994    0.0000 </r>
       <r>    9.0074    0.0000 </r>
       <r>    9.0264    0.0000 </r>
       <r>    9.0347    0.0000 </r>
       <r>    9.0708    0.0000 </r>
       <r>    9.0997    0.0000 </r>
       <r>    9.1465    0.0000 </r>
       <r>    9.1764    0.0000 </r>
       <r>    9.2120    0.0000 </r>
       <r>    9.4728    0.0000 </r>
       <r>    9.4908    0.0000 </r>
       <r>    9.6359    0.0000 </r>
       <r>    9.7201    0.0000 </r>
      </set>
      <set comment="kpoint 4">
       <r>  -40.3342    1.0000 </r>
       <r>  -40.3299    1.0000 </r>
       <r>  -40.0361    1.0000 </r>
       <r>  -39.9485    1.0000 </r>
       <r>  -39.8766    1.0000 </r>
       <r>  -39.8548    1.0000 </r>
       <r>  -39.6276    1.0000 </r>
       <r>  -39.1555    1.0000 </r>
       <r>  -19.0240    1.0000 </r>
       <r>  -18.9481    1.0000 </r>
       <r>  -18.9462    1.0000 </r>
       <r>  -18.9402    1.0000 </r>
       <r>  -18.9367    1.0000 </r>
       <r>  -18.8762    1.0000 </r>
       <r>  -18.8693    1.0000 </r>
       <r>  -18.8614    1.0000 </r>
       <r>  -18.8530    1.0000 </r>
       <r>  -18.8453    1.0000 </r>
       <r>  -18.8384    1.0000 </r>
       <r>  -18.7739    1.0000 </r>
       <r>  -18.7642    1.0000 </r>
       <r>  -18.7517    1.0000 </r>
       <r>  -18.7500    1.0000 </r>
       <r>  -18.7281    1.0000 </r>
       <r>  -18.7196    1.0000 </r>
       <r>  -18.7142    1.0000 </r>
       <r>  -18.7052    1.0000 </r>
       <r>  -18.7023    1.0000 </r>
       <r>  -18.6970    1.0000 </r>
       <r>  -18.6764    1.0000 </r>
       <r>  -18.6721    1.0000 </r>
       <r>  -18.6674    1.0000 </r>
       <r>  -18.6656    1.0000 </r>
       <r>  -18.6620    1.0000 </r>
       <r>  -18.6597    1.0000 </r>
       <r>  -18.6585    1.0000 </r>
       <r>  -18.6553    1.0000 </r>
       <r>  -18.6515    1.0000 </r>
       <r>  -18.6502    1.0000 </r>
       <r>  -18.6426    1.0000 </r>
       <r>  -18.6418    1.0000 </r>
       <r>  -18.6392    1.0000 </r>
       <r>  -18.6353    1.0000 </r>
       <r>  -18.6238    1.0000 </r>
       <r>  -18.6194    1.0000 </r>
       <r>  -18.6171    1.0000 </r>
       <r>  -18.6076    1.0000 </r>
       <r>  -18.5807    1.0000 </r>
       <r>  -18.5722    1.0000 </r>
       <r>  -18.5688    1.0000 </r>
       <r>  -18.5612    1.0000 </r>
       <r>  -18.5598    1.0000 </r>
       <r>  -18.5551    1.0000 </r>
       <r>  -18.5518    1.0000 </r>
       <r>  -18.5495    1.0000 </r>
       <r>  -18.5460    1.0000 </r>
       <r>  -18.5337    1.0000 </r>
       <r>  -18.5166    1.0000 </r>
       <r>  -18.5129    1.0000 </r>
       <r>  -18.5040    1.0000 </r>
       <r>  -18.5026    1.0000 </r>
       <r>  -18.4972    1.0000 </r>
       <r>  -18.4959    1.0000 </r>
       <r>  -18.4929    1.0000 </r>
       <r>  -18.4902    1.0000 </r>
       <r>  -18.4875    1.0000 </r>
       <r>  -18.4814    1.0000 </r>
       <r>  -18.4713    1.0000 </r>
       <r>  -18.4546    1.0000 </r>
       <r>  -18.4204    1.0000 </r>
       <r>  -18.4163    1.0000 </r>
       <r>  -18.4075    1.0000 </r>
       <r>  -18.4049    1.0000 </r>
       <r>  -18.4009    1.0000 </r>
       <r>  -18.3958    1.0000 </r>
       <r>  -18.3825    1.0000 </r>
       <r>  -18.3766    1.0000 </r>
       <r>  -18.3364    1.0000 </r>
       <r>  -18.3246    1.0000 </r>
[...]
       <r>    8.8403    0.0000 </r>
       <r>    8.8479    0.0000 </r>
       <r>    8.8760    0.0000 </r>
       <r>    8.8979    0.0000 </r>
       <r>    8.9245    0.0000 </r>
       <r>    8.9390    0.0000 </r>
       <r>    8.9808    0.0000 </r>
      </set>
     </set>
    </set>
   </array>
  </eigenvalues>
  <separator name="orbital magnetization" >
   <v name="MAGDIPOLOUT">      0.00000000      0.00000000      0.00000000</v>
  </separator>
  <dos>
   <i name="efermi">      4.37681460 </i>
   <total>
    <array>
     <dimension dim="1">gridpoints</dimension>
     <dimension dim="2">spin</dimension>
     <field>energy</field>
     <field>total</field>
     <field>integrated</field>
     <set>
      <set comment="spin 1">
       <r>   -42.8369     0.0000     0.0000 </r>
       <r>   -42.6534     0.0000     0.0000 </r>
       <r>   -42.4698     0.0000     0.0000 </r>
       <r>   -42.2863     0.0000     0.0000 </r>
       <r>   -42.1028     0.0000     0.0000 </r>
       <r>   -41.9192     0.0000     0.0000 </r>
       <r>   -41.7357     0.0000     0.0000 </r>
       <r>   -41.5522     0.0000     0.0000 </r>
       <r>   -41.3686     0.0000     0.0000 </r>
       <r>   -41.1851     0.0000     0.0000 </r>
       <r>   -41.0016     0.0000     0.0000 </r>
       <r>   -40.8180     0.0000     0.0000 </r>
       <r>   -40.6345     0.0000     0.0000 </r>
       <r>   -40.4510     0.0000     0.0000 </r>
       <r>   -40.2674     0.0000     4.0000 </r>
       <r>   -40.0839     0.0000     4.0000 </r>
       <r>   -39.9004     0.0000     8.0000 </r>
       <r>   -39.7168     0.0000    12.0000 </r>
       <r>   -39.5333     0.0000    14.0000 </r>
       <r>   -39.3498     0.0000    14.0000 </r>
       <r>   -39.1662     0.0000    14.0000 </r>
       <r>   -38.9827     0.0000    16.0000 </r>
       <r>   -38.7992     0.0000    16.0000 </r>
       <r>   -38.6156     0.0000    16.0000 </r>
       <r>   -38.4321     0.0000    16.0000 </r>
       <r>   -38.2486     0.0000    16.0000 </r>
       <r>   -38.0650     0.0000    16.0000 </r>
       <r>   -37.8815     0.0000    16.0000 </r>
       <r>   -37.6980     0.0000    16.0000 </r>
       <r>   -37.5145     0.0000    16.0000 </r>
       <r>   -37.3309     0.0000    16.0000 </r>
       <r>   -37.1474     0.0000    16.0000 </r>
       <r>   -36.9639     0.0000    16.0000 </r>
       <r>   -36.7803     0.0000    16.0000 </r>
       <r>   -36.5968     0.0000    16.0000 </r>
       <r>   -36.4133     0.0000    16.0000 </r>
       <r>   -36.2297     0.0000    16.0000 </r>
       <r>   -36.0462     0.0000    16.0000 </r>
       <r>   -35.8627     0.0000    16.0000 </r>
       <r>   -35.6791     0.0000    16.0000 </r>
       <r>   -35.4956     0.0000    16.0000 </r>
       <r>   -35.3121     0.0000    16.0000 </r>
       <r>   -35.1285     0.0000    16.0000 </r>
       <r>   -34.9450     0.0000    16.0000 </r>
       <r>   -34.7615     0.0000    16.0000 </r>
       <r>   -34.5779     0.0000    16.0000 </r>
       <r>   -34.3944     0.0000    16.0000 </r>
       <r>   -34.2109     0.0000    16.0000 </r>
       <r>   -34.0273     0.0000    16.0000 </r>
       <r>   -33.8438     0.0000    16.0000 </r>
       <r>   -33.6603     0.0000    16.0000 </r>
       <r>   -33.4767     0.0000    16.0000 </r>
       <r>   -33.2932     0.0000    16.0000 </r>
       <r>   -33.1097     0.0000    16.0000 </r>
       <r>   -32.9261     0.0000    16.0000 </r>
       <r>   -32.7426     0.0000    16.0000 </r>
       <r>   -32.5591     0.0000    16.0000 </r>
       <r>   -32.3755     0.0000    16.0000 </r>
       <r>   -32.1920     0.0000    16.0000 </r>
       <r>   -32.0085     0.0000    16.0000 </r>
       <r>   -31.8249     0.0000    16.0000 </r>
       <r>   -31.6414     0.0000    16.0000 </r>
       <r>   -31.4579     0.0000    16.0000 </r>
       <r>   -31.2743     0.0000    16.0000 </r>
       <r>   -31.0908     0.0000    16.0000 </r>
       <r>   -30.9073     0.0000    16.0000 </r>
       <r>   -30.7238     0.0000    16.0000 </r>
       <r>   -30.5402     0.0000    16.0000 </r>
       <r>   -30.3567     0.0000    16.0000 </r>
       <r>   -30.1732     0.0000    16.0000 </r>
       <r>   -29.9896     0.0000    16.0000 </r>
       <r>   -29.8061     0.0000    16.0000 </r>
       <r>   -29.6226     0.0000    16.0000 </r>
       <r>   -29.4390     0.0000    16.0000 </r>
       <r>   -29.2555     0.0000    16.0000 </r>
       <r>   -29.0720     0.0000    16.0000 </r>
       <r>   -28.8884     0.0000    16.0000 </r>
       <r>   -28.7049     0.0000    16.0000 </r>
       <r>   -28.5214     0.0000    16.0000 </r>
       <r>   -28.3378     0.0000    16.0000 </r>
       <r>   -28.1543     0.0000    16.0000 </r>
       <r>   -27.9708     0.0000    16.0000 </r>
       <r>   -27.7872     0.0000    16.0000 </r>
       <r>   -27.6037     0.0000    16.0000 </r>
       <r>   -27.4202     0.0000    16.0000 </r>
       <r>   -27.2366     0.0000    16.0000 </r>
       <r>   -27.0531     0.0000    16.0000 </r>
       <r>   -26.8696     0.0000    16.0000 </r>
       <r>   -26.6860     0.0000    16.0000 </r>
       <r>   -26.5025     0.0000    16.0000 </r>
       <r>   -26.3190     0.0000    16.0000 </r>
       <r>   -26.1354     0.0000    16.0000 </r>
       <r>   -25.9519     0.0000    16.0000 </r>
       <r>   -25.7684     0.0000    16.0000 </r>
       <r>   -25.5848     0.0000    16.0000 </r>
       <r>   -25.4013     0.0000    16.0000 </r>
       <r>   -25.2178     0.0000    16.0000 </r>
       <r>   -25.0342     0.0000    16.0000 </r>
       <r>   -24.8507     0.0000    16.0000 </r>
       <r>   -24.6672     0.0000    16.0000 </r>
       <r>   -24.4837     0.0000    16.0000 </r>
       <r>   -24.3001     0.0000    16.0000 </r>
       <r>   -24.1166     0.0000    16.0000 </r>
       <r>   -23.9331     0.0000    16.0000 </r>
       <r>   -23.7495     0.0000    16.0000 </r>
       <r>   -23.5660     0.0000    16.0000 </r>
       <r>   -23.3825     0.0000    16.0000 </r>
       <r>   -23.1989     0.0000    16.0000 </r>
       <r>   -23.0154     0.0000    16.0000 </r>
       <r>   -22.8319     0.0000    16.0000 </r>
       <r>   -22.6483     0.0000    16.0000 </r>
       <r>   -22.4648     0.0000    16.0000 </r>
       <r>   -22.2813     0.0000    16.0000 </r>
       <r>   -22.0977     0.0000    16.0000 </r>
       <r>   -21.9142     0.0000    16.0000 </r>
       <r>   -21.7307     0.0000    16.0000 </r>
       <r>   -21.5471     0.0000    16.0000 </r>
       <r>   -21.3636     0.0000    16.0000 </r>
       <r>   -21.1801     0.0000    16.0000 </r>
       <r>   -20.9965     0.0000    16.0000 </r>
       <r>   -20.8130     0.0000    16.0000 </r>
       <r>   -20.6295     0.0000    16.0000 </r>
       <r>   -20.4459     0.0000    16.0000 </r>
       <r>   -20.2624     0.0000    16.0000 </r>
       <r>   -20.0789     0.0000    16.0000 </r>
       <r>   -19.8953     0.0000    16.0000 </r>
       <r>   -19.7118     0.0000    16.0000 </r>
       <r>   -19.5283     0.0000    16.0000 </r>
       <r>   -19.3447     0.0000    16.0000 </r>
       <r>   -19.1612     0.0000    16.0000 </r>
       <r>   -18.9777     0.0000    18.0000 </r>
       <r>   -18.7941     0.0000    38.0000 </r>
       <r>   -18.6106     0.0000    92.0000 </r>
       <r>   -18.4271     0.0000   138.0000 </r>
       <r>   -18.2436     0.0000   164.0000 </r>
       <r>   -18.0600     0.0000   176.0000 </r>
       <r>   -17.8765     0.0000   176.0000 </r>
       <r>   -17.6930     0.0000   176.0000 </r>
       <r>   -17.5094     0.0000   176.0000 </r>
       <r>   -17.3259     0.0000   176.0000 </r>
       <r>   -17.1424     0.0000   176.0000 </r>
       <r>   -16.9588     0.0000   176.0000 </r>
       <r>   -16.7753     0.0000   176.0000 </r>
       <r>   -16.5918     0.0000   176.0000 </r>
       <r>   -16.4082     0.0000   176.0000 </r>
       <r>   -16.2247     0.0000   176.0000 </r>
       <r>   -16.0412     0.0000   176.0000 </r>
       <r>   -15.8576     0.0000   176.0000 </r>
       <r>   -15.6741     0.0000   176.0000 </r>
       <r>   -15.4906     0.0000   176.0000 </r>
       <r>   -15.3070     0.0000   176.0000 </r>
       <r>   -15.1235     0.0000   176.0000 </r>
       <r>   -14.9400     0.0000   176.0000 </r>
       <r>   -14.7564     0.0000   176.0000 </r>
       <r>   -14.5729     0.0000   176.0000 </r>
       <r>   -14.3894     0.0000   176.0000 </r>
       <r>   -14.2058     0.0000   176.0000 </r>
       <r>   -14.0223     0.0000   176.0000 </r>
       <r>   -13.8388     0.0000   176.0000 </r>
       <r>   -13.6552     0.0000   178.0000 </r>
       <r>   -13.4717     0.0000   182.0000 </r>
       <r>   -13.2882     0.0000   182.0000 </r>
       <r>   -13.1046     0.0000   182.0000 </r>
       <r>   -12.9211     0.0000   182.0000 </r>
       <r>   -12.7376     0.0000   190.0000 </r>
       <r>   -12.5540  1241.5624   200.8870 </r>
       <r>   -12.3705     0.0000   202.0000 </r>
       <r>   -12.1870     0.0000   202.0000 </r>
       <r>   -12.0035     0.0000   202.0000 </r>
       <r>   -11.8199     0.0000   208.0000 </r>
       <r>   -11.6364     0.0000   208.0000 </r>
       <r>   -11.4529     0.0000   208.0000 </r>
       <r>   -11.2693     0.0000   208.0000 </r>
       <r>   -11.0858     0.0000   208.0000 </r>
       <r>   -10.9023     0.0000   208.0000 </r>
       <r>   -10.7187     0.0000   208.0000 </r>
       <r>   -10.5352     0.0000   208.0000 </r>
       <r>   -10.3517     0.0000   208.0000 </r>
       <r>   -10.1681     0.0000   208.0000 </r>
       <r>    -9.9846     0.0000   208.0000 </r>
       <r>    -9.8011     0.0000   208.0000 </r>
       <r>    -9.6175     0.0000   208.0000 </r>
       <r>    -9.4340     0.0000   208.0000 </r>
       <r>    -9.2505    10.0784   208.4821 </r>
       <r>    -9.0669     0.0000   210.0000 </r>
       <r>    -8.8834     7.1283   212.8061 </r>
       <r>    -8.6999    13.3542   215.1728 </r>
       <r>    -8.5163    19.2556   217.6755 </r>
       <r>    -8.3328    18.4035   222.0280 </r>
       <r>    -8.1493    13.9711   225.9186 </r>
       <r>    -7.9657    21.7074   230.0639 </r>
       <r>    -7.7822    20.0936   233.7158 </r>
       <r>    -7.5987    11.8646   236.8191 </r>
       <r>    -7.4151     6.9856   239.8157 </r>
       <r>    -7.2316     0.0000   240.0000 </r>
       <r>    -7.0481     0.0000   240.0000 </r>
       <r>    -6.8645     0.0000   240.0000 </r>
       <r>    -6.6810     0.0000   240.0000 </r>
       <r>    -6.4975     0.0000   240.0000 </r>
       <r>    -6.3139     7.4773   240.2412 </r>
       <r>    -6.1304    26.4987   243.5472 </r>
       <r>    -5.9469    11.0654   247.3333 </r>
       <r>    -5.7633    22.0662   250.7658 </r>
       <r>    -5.5798    22.3190   255.4196 </r>
       <r>    -5.3963    22.2336   258.8883 </r>
       <r>    -5.2128    14.0665   262.4633 </r>
       <r>    -5.0292     2.5679   263.9853 </r>
       <r>    -4.8457     7.5582   264.9261 </r>
       <r>    -4.6622     9.3672   266.4835 </r>
       <r>    -4.4786     7.7084   268.1837 </r>
       <r>    -4.2951     6.6162   269.5388 </r>
       <r>    -4.1116     6.1214   270.7609 </r>
       <r>    -3.9280     3.0595   271.6036 </r>
       <r>    -3.7445     0.9541   271.9354 </r>
       <r>    -3.5610     0.0000   272.0000 </r>
       <r>    -3.3774     0.0000   272.0000 </r>
       <r>    -3.1939     0.0000   272.0000 </r>
       <r>    -3.0104     0.0000   272.0000 </r>
       <r>    -2.8268     0.0000   272.0000 </r>
       <r>    -2.6433     0.0000   272.0000 </r>
       <r>    -2.4598     0.0000   272.0000 </r>
       <r>    -2.2762     0.0000   272.0000 </r>
       <r>    -2.0927     0.0000   272.0000 </r>
       <r>    -1.9092     0.0000   272.0000 </r>
       <r>    -1.7256     0.0000   272.0000 </r>
       <r>    -1.5421     0.0000   272.0000 </r>
       <r>    -1.3586     2.6132   272.1217 </r>
       <r>    -1.1750     8.9391   273.2406 </r>
       <r>    -0.9915    12.5444   275.2748 </r>
       <r>    -0.8080    11.3102   277.5072 </r>
       <r>    -0.6244     6.1230   279.0503 </r>
       <r>    -0.4409    13.7172   281.1721 </r>
       <r>    -0.2574    22.4655   284.7830 </r>
       <r>    -0.0738    44.3790   291.0231 </r>
       <r>     0.1097    26.5865   297.6782 </r>
       <r>     0.2932    39.9242   303.4475 </r>
       <r>     0.4768    40.0770   310.3580 </r>
       <r>     0.6603    43.9214   317.1908 </r>
       <r>     0.8438    46.3285   324.2414 </r>
       <r>     1.0273    48.8213   332.3531 </r>
       <r>     1.2109    47.4903   340.3224 </r>
       <r>     1.3944    53.6668   349.3414 </r>
       <r>     1.5779    59.6030   358.0643 </r>
       <r>     1.7615    40.4763   366.9560 </r>
       <r>     1.9450    36.0280   374.0572 </r>
       <r>     2.1285    46.4150   381.5567 </r>
       <r>     2.3121    52.6958   390.2031 </r>
       <r>     2.4956    61.7438   400.1531 </r>
       <r>     2.6791    53.1058   410.8525 </r>
       <r>     2.8627    60.8659   422.0592 </r>
       <r>     3.0462    69.3989   433.4277 </r>
       <r>     3.2297    39.1851   442.7724 </r>
       <r>     3.4133    35.8106   449.3785 </r>
       <r>     3.5968    20.8563   455.7805 </r>
       <r>     3.7803    16.2805   459.1348 </r>
       <r>     3.9639    13.9755   462.0275 </r>
       <r>     4.1474     4.7779   463.7491 </r>
       <r>     4.3309     0.0000   464.0000 </r>
       <r>     4.5145     0.0000   464.0000 </r>
       <r>     4.6980     0.0000   464.0000 </r>
       <r>     4.8815     0.0000   464.0000 </r>
       <r>     5.0651     0.1693   464.0027 </r>
       <r>     5.2486     2.7922   464.2339 </r>
       <r>     5.4321     7.0228   465.1344 </r>
       <r>     5.6157     8.4359   466.7106 </r>
       <r>     5.7992    11.3926   469.4430 </r>
       <r>     5.9827    13.7778   472.7747 </r>
       <r>     6.1663    11.5888   475.0820 </r>
       <r>     6.3498    12.6544   477.2618 </r>
       <r>     6.5333    14.7561   479.7778 </r>
       <r>     6.7169    16.7460   482.6716 </r>
       <r>     6.9004    19.1186   485.9467 </r>
       <r>     7.0839    24.5647   489.8547 </r>
       <r>     7.2674    31.9771   495.0689 </r>
       <r>     7.4510    37.8161   501.7995 </r>
       <r>     7.6345    26.3717   507.0299 </r>
       <r>     7.8180    46.0326   514.0356 </r>
       <r>     8.0016    37.9226   522.7900 </r>
       <r>     8.1851    21.4088   527.8881 </r>
       <r>     8.3686    19.3660   531.4779 </r>
       <r>     8.5522    23.6046   535.3718 </r>
       <r>     8.7357    27.5191   540.1381 </r>
       <r>     8.9192    40.6291   547.8797 </r>
       <r>     9.1028    20.2602   553.3663 </r>
       <r>     9.2863    15.4254   556.4599 </r>
       <r>     9.4698    10.5280   558.9240 </r>
       <r>     9.6534     1.4006   559.9688 </r>
       <r>     9.8369     0.0000   560.0000 </r>
       <r>    10.0204     0.0000   560.0000 </r>
       <r>    10.2040     0.0000   560.0000 </r>
       <r>    10.3875     0.0000   560.0000 </r>
       <r>    10.5710     0.0000   560.0000 </r>
       <r>    10.7546     0.0000   560.0000 </r>
       <r>    10.9381     0.0000   560.0000 </r>
       <r>    11.1216     0.0000   560.0000 </r>
       <r>    11.3052     0.0000   560.0000 </r>
       <r>    11.4887     0.0000   560.0000 </r>
       <r>    11.6722     0.0000   560.0000 </r>
       <r>    11.8558     0.0000   560.0000 </r>
       <r>    12.0393     0.0000   560.0000 </r>
       <r>    12.2228     0.0000   560.0000 </r>
      </set>
     </set>
    </array>
   </total>
  </dos>
 </calculation>
 <structure name="finalpos" >
  <crystal>
   <varray name="basis" >
    <v>      11.17850000       0.00000000       0.00000000 </v>
    <v>       0.00000000       9.57460000       0.00000000 </v>
    <v>       0.00000000       0.00000000      11.18240000 </v>
   </varray>
   <i name="volume">   1196.84853820 </i>
   <varray name="rec_basis" >
    <v>       0.08945744       0.00000000       0.00000000 </v>
    <v>       0.00000000       0.10444301       0.00000000 </v>
    <v>       0.00000000       0.00000000       0.08942624 </v>
   </varray>
  </crystal>
  <varray name="positions" >
   <v>       0.37539000       0.00017000       0.43687000 </v>
   <v>       0.12539000       0.99984000       0.93687000 </v>
   <v>       0.37539000       0.00017000       0.93687000 </v>
   <v>       0.37461000       0.00017000       0.68687000 </v>
   <v>       0.62539000       0.99984000       0.93687000 </v>
   <v>       0.87539000       0.00017000       0.93687000 </v>
   <v>       0.62461000       0.99984000       0.68687000 </v>
   <v>       0.87461000       0.00017000       0.68687000 </v>
   <v>       0.12461000       0.99984000       0.18687000 </v>
   <v>       0.87539000       0.00017000       0.43687000 </v>
   <v>       0.62461000       0.99984000       0.18687000 </v>
   <v>       0.12461000       0.99984000       0.68687000 </v>
   <v>       0.00013000       0.29519000       0.06281000 </v>
   <v>       0.25013000       0.70481000       0.06281000 </v>
   <v>       0.24987000       0.29519000       0.31282000 </v>
   <v>       0.49987000       0.70481000       0.31282000 </v>
   <v>       0.50013000       0.29519000       0.06281000 </v>
   <v>       0.75013000       0.70481000       0.06281000 </v>
   <v>       0.74987000       0.29519000       0.31282000 </v>
   <v>       0.99987000       0.70481000       0.31282000 </v>
   <v>       0.00013000       0.29519000       0.56281000 </v>
   <v>       0.25013000       0.70481000       0.56281000 </v>
   <v>       0.24987000       0.29519000       0.81282000 </v>
   <v>       0.49987000       0.70481000       0.81282000 </v>
   <v>       0.50013000       0.29519000       0.56281000 </v>
   <v>       0.75013000       0.70481000       0.56281000 </v>
   <v>       0.74987000       0.29519000       0.81282000 </v>
   <v>       0.99987000       0.70481000       0.81282000 </v>
   <v>       0.25005000       0.32677000       0.06286000 </v>
   <v>       0.00005000       0.67323000       0.06286000 </v>
   <v>       0.49995000       0.32677000       0.31286000 </v>
   <v>       0.24995000       0.67323000       0.31286000 </v>
   <v>       0.75005000       0.32677000       0.06286000 </v>
   <v>       0.50005000       0.67323000       0.06286000 </v>
   <v>       0.99995000       0.32677000       0.31286000 </v>
   <v>       0.74995000       0.67323000       0.31286000 </v>
   <v>       0.25005000       0.32677000       0.56286000 </v>
   <v>       0.00005000       0.67323000       0.56286000 </v>
   <v>       0.49995000       0.32677000       0.81286000 </v>
   <v>       0.24995000       0.67323000       0.81286000 </v>
   <v>       0.75005000       0.32677000       0.56286000 </v>
   <v>       0.50005000       0.67323000       0.56286000 </v>
   <v>       0.99995000       0.32677000       0.81286000 </v>
   <v>       0.74995000       0.67323000       0.81286000 </v>
   <v>       0.49987000       0.07798000       0.06246000 </v>
   <v>       0.24987000       0.92202000       0.06246000 </v>
   <v>       0.25013000       0.07798000       0.31246000 </v>
   <v>       0.00013000       0.92202000       0.31246000 </v>
   <v>       0.99987000       0.07798000       0.06246000 </v>
   <v>       0.74987000       0.92202000       0.06246000 </v>
   <v>       0.75013000       0.07798000       0.31246000 </v>
   <v>       0.50013000       0.92202000       0.31246000 </v>
   <v>       0.49987000       0.07798000       0.56246000 </v>
   <v>       0.24987000       0.92202000       0.56246000 </v>
   <v>       0.25013000       0.07798000       0.81246000 </v>
   <v>       0.00013000       0.92202000       0.81246000 </v>
   <v>       0.99987000       0.07798000       0.56246000 </v>
   <v>       0.74987000       0.92202000       0.56246000 </v>
   <v>       0.75013000       0.07798000       0.81246000 </v>
   <v>       0.50013000       0.92202000       0.81246000 </v>
  </varray>
 </structure>
</modeling>
