<?xml version="1.0" encoding="ISO-8859-1"?>
<modeling>
 <generator>
  <i name="program" type="string">vasp </i>
  <i name="version" type="string">5.3.3  </i>
  <i name="subversion" type="string">18Dez12 (build Nov 19 2020 19:34:37) complex                          parallel </i>
  <i name="platform" type="string">LinuxIFC </i>
  <i name="date" type="string">2021 09 23 </i>
  <i name="time" type="string">10:31:08 </i>
 </generator>
 <incar>
  <i type="string" name="SYSTEM"> La2O2S</i>
  <i type="string" name="PREC">normal</i>
  <i type="int" name="NELMIN">     4</i>
  <i type="int" name="IBRION">     2</i>
  <i type="int" name="NFREE">    10</i>
  <i name="EDIFF">      0.00000100</i>
  <i name="EDIFFG">     -0.01000000</i>
  <i type="int" name="NSW">   200</i>
  <i type="int" name="ISIF">     3</i>
  <i name="ENCUT">    600.00000000</i>
  <i name="ENAUG">    900.00000000</i>
  <i type="int" name="ISMEAR">    -5</i>
  <i type="logical" name="LWAVE"> F  </i>
  <i type="logical" name="LCHARG"> F  </i>
 </incar>
 <kpoints>
  <generation param="Gamma">
   <v type="int" name="divisions">       2        2        2 </v>
   <v name="usershift">      0.00000000       0.00000000       0.00000000 </v>
   <v name="genvec1">      0.50000000       0.00000000       0.00000000 </v>
   <v name="genvec2">      0.00000000       0.50000000       0.00000000 </v>
   <v name="genvec3">      0.00000000       0.00000000       0.50000000 </v>
   <v name="shift">      0.00000000       0.00000000       0.00000000 </v>
  </generation>
  <varray name="kpointlist" >
   <v>       0.00000000       0.00000000       0.00000000 </v>
   <v>       0.50000000       0.00000000       0.00000000 </v>
   <v>       0.00000000       0.50000000       0.00000000 </v>
   <v>       0.50000000       0.50000000       0.00000000 </v>
   <v>       0.00000000       0.00000000       0.50000000 </v>
   <v>       0.50000000       0.00000000       0.50000000 </v>
   <v>       0.00000000       0.50000000       0.50000000 </v>
   <v>       0.50000000       0.50000000       0.50000000 </v>
  </varray>
  <varray name="weights" >
   <v>       0.12500000 </v>
   <v>       0.12500000 </v>
   <v>       0.12500000 </v>
   <v>       0.12500000 </v>
   <v>       0.12500000 </v>
   <v>       0.12500000 </v>
   <v>       0.12500000 </v>
   <v>       0.12500000 </v>
  </varray>
  <varray name="tetrahedronlist"  type="int" >
   <v type="int" >        2        1        2        4        5 </v>
   <v type="int" >        2        1        3        4        5 </v>
   <v type="int" >        2        3        4        5        7 </v>
   <v type="int" >        2        2        4        5        6 </v>
   <v type="int" >        2        4        5        6        8 </v>
   <v type="int" >        2        4        5        7        8 </v>
   <v type="int" >        2        1        2        3        6 </v>
   <v type="int" >        2        2        3        4        6 </v>
   <v type="int" >        2        3        4        6        8 </v>
   <v type="int" >        2        1        3        5        6 </v>
   <v type="int" >        2        3        5        6        7 </v>
   <v type="int" >        2        3        6        7        8 </v>
   <v type="int" >        2        2        3        4        7 </v>
   <v type="int" >        2        1        2        3        7 </v>
   <v type="int" >        2        1        2        5        7 </v>
   <v type="int" >        2        2        4        7        8 </v>
   <v type="int" >        2        2        6        7        8 </v>
   <v type="int" >        2        2        5        6        7 </v>
   <v type="int" >        2        1        3        4        8 </v>
   <v type="int" >        2        1        2        4        8 </v>
   <v type="int" >        2        1        2        6        8 </v>
   <v type="int" >        2        1        3        7        8 </v>
   <v type="int" >        2        1        5        7        8 </v>
   <v type="int" >        2        1        5        6        8 </v>
  </varray>
  <i name="volumeweight">      0.02083333 </i>
 </kpoints>
 <parameters>
  <separator name="general" >
   <i type="string" name="SYSTEM">La2O2S</i>
   <i type="logical" name="LCOMPAT"> F  </i>
  </separator>
  <separator name="electronic" >
   <i type="string" name="PREC">normal</i>
   <i name="ENMAX">    600.00000000</i>
   <i name="ENAUG">    900.00000000</i>
   <i name="EDIFF">      0.00000100</i>
   <i type="int" name="IALGO">    38</i>
   <i type="int" name="IWAVPR">    11</i>
   <i type="int" name="NBANDS">   280</i>
   <i name="NELECT">    456.00000000</i>
   <i type="int" name="TURBO">     0</i>
   <i type="int" name="IRESTART">     0</i>
   <i type="int" name="NREBOOT">     0</i>
   <i type="int" name="NMIN">     0</i>
   <i name="EREF">      0.00000000</i>
   <separator name="electronic smearing" >
    <i type="int" name="ISMEAR">    -5</i>
    <i name="SIGMA">      0.20000000</i>
    <i name="KSPACING">      0.50000000</i>
    <i type="logical" name="KGAMMA"> T  </i>
   </separator>
   <separator name="electronic projectors" >
    <i type="logical" name="LREAL"> F  </i>
    <v name="ROPT">      0.00000000      0.00000000      0.00000000      0.00000000      0.00000000</v>
    <i type="int" name="LMAXPAW">  -100</i>
    <i type="int" name="LMAXMIX">     2</i>
    <i type="logical" name="NLSPLINE"> F  </i>
   </separator>
   <separator name="electronic startup" >
    <i type="int" name="ISTART">     0</i>
    <i type="int" name="ICHARG">     2</i>
    <i type="int" name="INIWAV">     1</i>
   </separator>
   <separator name="electronic spin" >
    <i type="int" name="ISPIN">     1</i>
    <i type="logical" name="LNONCOLLINEAR"> F  </i>
    <v name="MAGMOM">      1.00000000      1.00000000      1.00000000      1.00000000      1.00000000      1.00000000      1.00000000      1.00000000      1.00000000      1.00000000      1.00000000      1.00000000      1.00000000      1.00000000      1.00000000      1.00000000      1.00000000      1.00000000      1.00000000      1.00000000
      1.00000000      1.00000000      1.00000000      1.00000000      1.00000000      1.00000000      1.00000000      1.00000000      1.00000000      1.00000000      1.00000000      1.00000000      1.00000000      1.00000000      1.00000000      1.00000000      1.00000000      1.00000000      1.00000000      1.00000000
      1.00000000      1.00000000      1.00000000      1.00000000      1.00000000      1.00000000      1.00000000      1.00000000      1.00000000      1.00000000      1.00000000      1.00000000      1.00000000      1.00000000      1.00000000      1.00000000      1.00000000      1.00000000</v>
    <i name="NUPDOWN">     -1.00000000</i>
    <i type="logical" name="LSORBIT"> F  </i>
    <v name="SAXIS">      0.00000000      0.00000000      1.00000000</v>
    <i type="logical" name="LSPIRAL"> F  </i>
    <v name="QSPIRAL">      0.00000000      0.00000000      0.00000000</v>
    <i type="logical" name="LZEROZ"> F  </i>
   </separator>
   <separator name="electronic exchange-correlation" >
    <i type="logical" name="LASPH"> F  </i>
    <i type="logical" name="LMETAGGA"> F  </i>
   </separator>
   <separator name="electronic convergence" >
    <i type="int" name="NELM">    60</i>
    <i type="int" name="NELMDL">    -5</i>
    <i type="int" name="NELMIN">     4</i>
    <i name="ENINI">    600.00000000</i>
    <separator name="electronic convergence detail" >
     <i type="logical" name="LDIAG"> T  </i>
     <i type="logical" name="LSUBROT"> T  </i>
     <i name="WEIMIN">      0.00100000</i>
     <i name="EBREAK">      0.00000000</i>
     <i name="DEPER">      0.30000000</i>
     <i type="int" name="NRMM">     4</i>
     <i name="TIME">      0.40000000</i>
    </separator>
   </separator>
   <separator name="electronic mixer" >
    <i name="AMIX">      0.40000000</i>
    <i name="BMIX">      1.00000000</i>
    <i name="AMIN">      0.10000000</i>
    <i name="AMIX_MAG">      1.60000000</i>
    <i name="BMIX_MAG">      1.00000000</i>
    <separator name="electronic mixer details" >
     <i type="int" name="IMIX">     4</i>
     <i type="int" name="MAXMIX">   -45</i>
     <i name="WC">    100.00000000</i>
     <i type="int" name="INIMIX">     1</i>
     <i type="int" name="MIXPRE">     1</i>
     <i type="int" name="MREMOVE">     5</i>
    </separator>
   </separator>
   <separator name="electronic dipolcorrection" >
    <i type="logical" name="LDIPOL"> F  </i>
    <i type="logical" name="LMONO"> F  </i>
    <i type="int" name="IDIPOL">     0</i>
    <i name="EPSILON">      1.00000000</i>
    <v name="DIPOL">   -100.00000000   -100.00000000   -100.00000000</v>
    <i name="EFIELD">      0.00000000</i>
   </separator>
  </separator>
  <separator name="grids" >
   <i type="int" name="NGX">    70</i>
   <i type="int" name="NGY">    60</i>
   <i type="int" name="NGZ">    70</i>
   <i type="int" name="NGXF">   140</i>
   <i type="int" name="NGYF">   120</i>
   <i type="int" name="NGZF">   140</i>
   <i type="logical" name="ADDGRID"> F  </i>
  </separator>
  <separator name="ionic" >
   <i type="int" name="NSW">   200</i>
   <i type="int" name="IBRION">     2</i>
   <i type="int" name="ISIF">     3</i>
   <i name="PSTRESS">      0.00000000</i>
   <i name="EDIFFG">     -0.01000000</i>
   <i type="int" name="NFREE">    10</i>
   <i name="POTIM">      0.50000000</i>
   <i name="SMASS">     -3.00000000</i>
   <i name="SCALEE">      1.00000000</i>
  </separator>
  <separator name="ionic md" >
   <i name="TEBEG">      0.00010000</i>
   <i name="TEEND">      0.00010000</i>
   <i type="int" name="NBLOCK">     1</i>
   <i type="int" name="KBLOCK">   200</i>
   <i type="int" name="NPACO">   256</i>
   <i name="APACO">     16.00000000</i>
  </separator>
  <separator name="symmetry" >
   <i type="int" name="ISYM">     2</i>
   <i name="SYMPREC">      0.00001000</i>
  </separator>
  <separator name="dos" >
   <i type="logical" name="LORBIT"> F  </i>
   <v name="RWIGS">     -1.00000000     -1.00000000     -1.00000000     -1.00000000     -1.00000000</v>
   <i type="int" name="NEDOS">   301</i>
   <i name="EMIN">     10.00000000</i>
   <i name="EMAX">    -10.00000000</i>
   <i name="EFERMI">      0.00000000</i>
  </separator>
  <separator name="writing" >
   <i type="int" name="NWRITE">     2</i>
   <i type="logical" name="LWAVE"> F  </i>
   <i type="logical" name="LCHARG"> F  </i>
   <i type="logical" name="LPARD"> F  </i>
   <i type="logical" name="LVTOT"> F  </i>
   <i type="logical" name="LVHAR"> F  </i>
   <i type="logical" name="LELF"> F  </i>
   <i type="logical" name="LOPTICS"> F  </i>
   <v name="STM">      0.00000000      0.00000000      0.00000000      0.00000000      0.00000000      0.00000000      0.00000000</v>
  </separator>
  <separator name="performance" >
   <i type="int" name="NPAR">    40</i>
   <i type="int" name="NSIM">     4</i>
   <i type="int" name="NBLK">    -1</i>
   <i type="logical" name="LPLANE"> T  </i>
   <i type="logical" name="LSCALAPACK"> F  </i>
   <i type="logical" name="LSCAAWARE"> F  </i>
   <i type="logical" name="LSCALU"> F  </i>
   <i type="logical" name="LASYNC"> F  </i>
   <i type="logical" name="LORBITALREAL"> F  </i>
  </separator>
  <separator name="miscellaneous" >
   <i type="int" name="IDIOT">     3</i>
   <i type="logical" name="LMUSIC"> F  </i>
   <v name="POMASS">      7.01000000     24.30500000    208.98000000     32.06600000     16.00000000</v>
   <v name="DARWINR">      0.00000000      0.00000000      0.00000000      0.00000000      0.00000000</v>
   <v name="DARWINV">      1.00000000      1.00000000      1.00000000      1.00000000      1.00000000</v>
   <i type="logical" name="LCORR"> T  </i>
  </separator>
  <i type="logical" name="GGA_COMPAT"> T  </i>
  <i type="logical" name="LBERRY"> F  </i>
  <i type="int" name="ICORELEVEL">     0</i>
  <i type="logical" name="LDAU"> F  </i>
  <i type="int" name="I_CONSTRAINED_M">     0</i>
  <separator name="electronic exchange-correlation" >
   <i type="string" name="GGA">--</i>
   <i type="int" name="VOSKOWN">     0</i>
   <i type="logical" name="LHFCALC"> F  </i>
   <i type="string" name="PRECFOCK"></i>
   <i type="logical" name="LSYMGRAD"> F  </i>
   <i type="logical" name="LHFONE"> F  </i>
   <i type="logical" name="LRHFCALC"> F  </i>
   <i type="logical" name="LTHOMAS"> F  </i>
   <i type="logical" name="LMODELHF"> F  </i>
   <i name="ENCUT4O">     -1.00000000</i>
   <i type="int" name="EXXOEP">     0</i>
   <i type="int" name="FOURORBIT">     0</i>
   <i name="AEXX">      0.00000000</i>
   <i name="HFALPHA">      0.00000000</i>
   <i name="MCALPHA">      0.00000000</i>
   <i name="ALDAX">      1.00000000</i>
   <i name="AGGAX">      1.00000000</i>
   <i name="ALDAC">      1.00000000</i>
   <i name="AGGAC">      1.00000000</i>
   <i type="int" name="NKREDX">     1</i>
   <i type="int" name="NKREDY">     1</i>
   <i type="int" name="NKREDZ">     1</i>
   <i type="logical" name="SHIFTRED"> F  </i>
   <i type="logical" name="ODDONLY"> F  </i>
   <i type="logical" name="EVENONLY"> F  </i>
   <i type="int" name="LMAXFOCK">     0</i>
   <i type="int" name="NMAXFOCKAE">     0</i>
   <i type="logical" name="LFOCKAEDFT"> F  </i>
   <i name="HFSCREEN">      0.00000000</i>
   <i name="HFSCREENC">      0.00000000</i>
   <i type="int" name="NBANDSGWLOW">     0</i>
  </separator>
  <separator name="vdW DFT" >
   <i type="logical" name="LUSE_VDW"> F  </i>
   <i name="Zab_VDW">     -0.84910000</i>
   <i name="PARAM1">      0.12340000</i>
   <i name="PARAM2">      1.00000000</i>
   <i name="PARAM3">      0.00000000</i>
  </separator>
  <separator name="model GW" >
   <i type="int" name="MODEL_GW">     0</i>
   <i name="MODEL_EPS0">     12.38119177</i>
   <i name="MODEL_ALPHA">      1.00000000</i>
  </separator>
  <separator name="linear response parameters" >
   <i type="logical" name="LEPSILON"> F  </i>
   <i type="logical" name="LRPA"> F  </i>
   <i type="logical" name="LNABLA"> F  </i>
   <i type="logical" name="LVEL"> F  </i>
   <i type="int" name="KINTER">     0</i>
   <i name="CSHIFT">      0.10000000</i>
   <i name="OMEGAMAX">     -1.00000000</i>
   <i name="DEG_THRESHOLD">      0.00200000</i>
  </separator>
  <separator name="orbital magnetization" >
   <i type="logical" name="NUCIND"> F  </i>
   <v name="MAGPOS">      0.00000000      0.00000000      0.00000000</v>
   <i type="logical" name="LNICSALL"> T  </i>
   <i type="logical" name="ORBITALMAG"> F  </i>
   <i type="logical" name="LMAGBLOCH"> F  </i>
   <i type="logical" name="LCHIMAG"> F  </i>
   <i type="logical" name="LGAUGE"> T  </i>
   <i type="int" name="MAGATOM">     0</i>
   <v name="MAGDIPOL">      0.00000000      0.00000000      0.00000000</v>
   <v name="AVECCONST">      0.00000000      0.00000000      0.00000000</v>
  </separator>
  <separator name="response functions" >
   <i type="logical" name="LADDER"> F  </i>
   <i type="logical" name="LFXC"> F  </i>
   <i type="logical" name="LHARTREE"> T  </i>
   <i type="int" name="IBSE">     0</i>
   <i type="logical" name="LTCTE"> F  </i>
   <i type="logical" name="LTETE"> F  </i>
   <i type="logical" name="LTRIPLET"> F  </i>
   <i type="logical" name="LFXCEPS"> F  </i>
   <i type="logical" name="L2ORDER"> F  </i>
   <i type="logical" name="LUSEW"> F  </i>
   <i name="ENCUTGW">     -2.00000000</i>
   <i name="ENCUTGWSOFT">     -2.00000000</i>
   <i name="ENCUTLF">     -1.00000000</i>
   <i type="int" name="LMAXMP2">    -1</i>
   <i name="SCISSOR">      0.00000000</i>
   <i type="int" name="NOMEGA">     0</i>
   <i type="int" name="NOMEGAR">     0</i>
   <i type="int" name="NBANDSGW">    -1</i>
   <i type="int" name="NBANDSO">    -1</i>
   <i type="int" name="NBANDSV">    -1</i>
   <i type="int" name="NELM">     1</i>
   <i type="int" name="DIM">     3</i>
   <i type="int" name="ANTIRES">     0</i>
   <i name="OMEGAMAX">    -30.00000000</i>
   <i name="OMEGATL">   -200.00000000</i>
   <i type="int" name="OMEGAGRID">     0</i>
   <i name="CSHIFT">     -0.10000000</i>
   <i type="logical" name="SELFENERGY"> F  </i>
   <i type="logical" name="LSPECTRAL"> F  </i>
   <i type="logical" name="ODDONLYGW"> F  </i>
   <i type="logical" name="EVENONLYGW"> F  </i>
   <i type="int" name="NKREDLFX">     1</i>
   <i type="int" name="NKREDLFY">     1</i>
   <i type="int" name="NKREDLFZ">     1</i>
   <i type="int" name="MAXMEM">  1800</i>
   <i type="int" name="TELESCOPE">     0</i>
  </separator>
 </parameters>
 <atominfo>
  <atoms>      58 </atoms>
  <types>       5 </types>
  <array name="atoms" >
   <dimension dim="1">ion</dimension>
   <field type="string">element</field>
   <field type="int">atomtype</field>
   <set>
    <rc><c>Li</c><c>   1</c></rc>
    <rc><c>Li</c><c>   1</c></rc>
    <rc><c>Li</c><c>   1</c></rc>
    <rc><c>Li</c><c>   1</c></rc>
    <rc><c>Mg</c><c>   2</c></rc>
    <rc><c>Mg</c><c>   2</c></rc>
    <rc><c>Mg</c><c>   2</c></rc>
    <rc><c>Mg</c><c>   2</c></rc>
    <rc><c>Mg</c><c>   2</c></rc>
    <rc><c>Mg</c><c>   2</c></rc>
    <rc><c>Bi</c><c>   3</c></rc>
    <rc><c>Bi</c><c>   3</c></rc>
    <rc><c>Bi</c><c>   3</c></rc>
    <rc><c>Bi</c><c>   3</c></rc>
    <rc><c>Bi</c><c>   3</c></rc>
    <rc><c>Bi</c><c>   3</c></rc>
    <rc><c>Bi</c><c>   3</c></rc>
    <rc><c>Bi</c><c>   3</c></rc>
    <rc><c>Bi</c><c>   3</c></rc>
    <rc><c>Bi</c><c>   3</c></rc>
    <rc><c>Bi</c><c>   3</c></rc>
    <rc><c>Bi</c><c>   3</c></rc>
    <rc><c>Bi</c><c>   3</c></rc>
    <rc><c>Bi</c><c>   3</c></rc>
    <rc><c>Bi</c><c>   3</c></rc>
    <rc><c>Bi</c><c>   3</c></rc>
    <rc><c>S </c><c>   4</c></rc>
    <rc><c>S </c><c>   4</c></rc>
    <rc><c>S </c><c>   4</c></rc>
    <rc><c>S </c><c>   4</c></rc>
    <rc><c>S </c><c>   4</c></rc>
    <rc><c>S </c><c>   4</c></rc>
    <rc><c>S </c><c>   4</c></rc>
    <rc><c>S </c><c>   4</c></rc>
    <rc><c>S </c><c>   4</c></rc>
    <rc><c>S </c><c>   4</c></rc>
    <rc><c>S </c><c>   4</c></rc>
    <rc><c>S </c><c>   4</c></rc>
    <rc><c>S </c><c>   4</c></rc>
    <rc><c>S </c><c>   4</c></rc>
    <rc><c>S </c><c>   4</c></rc>
    <rc><c>S </c><c>   4</c></rc>
    <rc><c>O </c><c>   5</c></rc>
    <rc><c>O </c><c>   5</c></rc>
    <rc><c>O </c><c>   5</c></rc>
    <rc><c>O </c><c>   5</c></rc>
    <rc><c>O </c><c>   5</c></rc>
    <rc><c>O </c><c>   5</c></rc>
    <rc><c>O </c><c>   5</c></rc>
    <rc><c>O </c><c>   5</c></rc>
    <rc><c>O </c><c>   5</c></rc>
    <rc><c>O </c><c>   5</c></rc>
    <rc><c>O </c><c>   5</c></rc>
    <rc><c>O </c><c>   5</c></rc>
    <rc><c>O </c><c>   5</c></rc>
    <rc><c>O </c><c>   5</c></rc>
    <rc><c>O </c><c>   5</c></rc>
    <rc><c>O </c><c>   5</c></rc>
   </set>
  </array>
  <array name="atomtypes" >
   <dimension dim="1">type</dimension>
   <field type="int">atomspertype</field>
   <field type="string">element</field>
   <field>mass</field>
   <field>valence</field>
   <field type="string">pseudopotential</field>
   <set>
    <rc><c>   4</c><c>Li</c><c>      7.01000000</c><c>      3.00000000</c><c>  PAW_PBE Li_sv 10Sep2004               </c></rc>
    <rc><c>   6</c><c>Mg</c><c>     24.30500000</c><c>      2.00000000</c><c>  PAW_PBE Mg 13Apr2007                  </c></rc>
    <rc><c>  16</c><c>Bi</c><c>    208.98000000</c><c>     15.00000000</c><c>  PAW_PBE Bi_d 06Sep2000                </c></rc>
    <rc><c>  16</c><c>S </c><c>     32.06600000</c><c>      6.00000000</c><c>  PAW_PBE S 06Sep2000                   </c></rc>
    <rc><c>  16</c><c>O </c><c>     16.00000000</c><c>      6.00000000</c><c>  PAW_PBE O 08Apr2002                   </c></rc>
   </set>
  </array>
 </atominfo>
 <structure name="initialpos" >
  <crystal>
   <varray name="basis" >
    <v>      11.17850000       0.00000000       0.00000000 </v>
    <v>       0.00000000       9.57460000       0.00000000 </v>
    <v>       0.00000000       0.00000000      11.18240000 </v>
   </varray>
   <i name="volume">   1196.84853820 </i>
   <varray name="rec_basis" >
    <v>       0.08945744       0.00000000       0.00000000 </v>
    <v>       0.00000000       0.10444301       0.00000000 </v>
    <v>       0.00000000       0.00000000       0.08942624 </v>
   </varray>
  </crystal>
  <varray name="positions" >
   <v>       0.37461000       0.00017000       0.18687000 </v>
   <v>       0.37539000       0.00017000       0.93687000 </v>
   <v>       0.62539000       0.99984000       0.93687000 </v>
   <v>       0.62461000       0.99984000       0.68687000 </v>
   <v>       0.62539000       0.99984000       0.43687000 </v>
   <v>       0.87539000       0.00017000       0.43687000 </v>
   <v>       0.62461000       0.99984000       0.18687000 </v>
   <v>       0.12461000       0.99984000       0.68687000 </v>
   <v>       0.87539000       0.00017000       0.93687000 </v>
   <v>       0.87461000       0.00017000       0.68687000 </v>
   <v>       0.00013000       0.29519000       0.06281000 </v>
   <v>       0.25013000       0.70481000       0.06281000 </v>
   <v>       0.24987000       0.29519000       0.31282000 </v>
   <v>       0.49987000       0.70481000       0.31282000 </v>
   <v>       0.50013000       0.29519000       0.06281000 </v>
   <v>       0.75013000       0.70481000       0.06281000 </v>
   <v>       0.74987000       0.29519000       0.31282000 </v>
   <v>       0.99987000       0.70481000       0.31282000 </v>
   <v>       0.00013000       0.29519000       0.56281000 </v>
   <v>       0.25013000       0.70481000       0.56281000 </v>
   <v>       0.24987000       0.29519000       0.81282000 </v>
   <v>       0.49987000       0.70481000       0.81282000 </v>
   <v>       0.50013000       0.29519000       0.56281000 </v>
   <v>       0.75013000       0.70481000       0.56281000 </v>
   <v>       0.74987000       0.29519000       0.81282000 </v>
   <v>       0.99987000       0.70481000       0.81282000 </v>
   <v>       0.25005000       0.32677000       0.06286000 </v>
   <v>       0.00005000       0.67323000       0.06286000 </v>
   <v>       0.49995000       0.32677000       0.31286000 </v>
   <v>       0.24995000       0.67323000       0.31286000 </v>
   <v>       0.75005000       0.32677000       0.06286000 </v>
   <v>       0.50005000       0.67323000       0.06286000 </v>
   <v>       0.99995000       0.32677000       0.31286000 </v>
   <v>       0.74995000       0.67323000       0.31286000 </v>
   <v>       0.25005000       0.32677000       0.56286000 </v>
   <v>       0.00005000       0.67323000       0.56286000 </v>
   <v>       0.49995000       0.32677000       0.81286000 </v>
   <v>       0.24995000       0.67323000       0.81286000 </v>
   <v>       0.75005000       0.32677000       0.56286000 </v>
   <v>       0.50005000       0.67323000       0.56286000 </v>
   <v>       0.99995000       0.32677000       0.81286000 </v>
   <v>       0.74995000       0.67323000       0.81286000 </v>
   <v>       0.49987000       0.07798000       0.06246000 </v>
   <v>       0.24987000       0.92202000       0.06246000 </v>
   <v>       0.25013000       0.07798000       0.31246000 </v>
   <v>       0.00013000       0.92202000       0.31246000 </v>
   <v>       0.99987000       0.07798000       0.06246000 </v>
   <v>       0.74987000       0.92202000       0.06246000 </v>
   <v>       0.75013000       0.07798000       0.31246000 </v>
   <v>       0.50013000       0.92202000       0.31246000 </v>
   <v>       0.49987000       0.07798000       0.56246000 </v>
   <v>       0.24987000       0.92202000       0.56246000 </v>
   <v>       0.25013000       0.07798000       0.81246000 </v>
   <v>       0.00013000       0.92202000       0.81246000 </v>
   <v>       0.99987000       0.07798000       0.56246000 </v>
   <v>       0.74987000       0.92202000       0.56246000 </v>
   <v>       0.75013000       0.07798000       0.81246000 </v>
   <v>       0.50013000       0.92202000       0.81246000 </v>
  </varray>
 </structure>
 <calculation>
  <scstep>
   <time name="dav">   39.40   39.45</time>
   <time name="total">   39.47   39.54</time>
   <energy>
    <i name="alphaZ">   1054.17224280 </i>
    <i name="ewald"> -30143.46794067 </i>
    <i name="hartreedc"> -12735.97283002 </i>
    <i name="XCdc">   1173.59769127 </i>
    <i name="pawpsdc">  36541.05238669 </i>
    <i name="pawaedc"> -35795.85877930 </i>
    <i name="eentropy">      0.00000000 </i>
    <i name="bandstr">   1750.46244778 </i>
    <i name="atom">  43643.51795008 </i>
    <i name="e_fr_energy">   5487.50316864 </i>
    <i name="e_wo_entrp">   5487.50316864 </i>
    <i name="e_0_energy">   5487.50316864 </i>
   </energy>
  </scstep>
  <scstep>
   <time name="dav">   40.14   40.32</time>
   <time name="total">   40.15   40.35</time>
   <energy>
    <i name="e_fr_energy">    634.55700875 </i>
    <i name="e_wo_entrp">    634.55700875 </i>
    <i name="e_0_energy">    634.55700875 </i>
   </energy>
  </scstep>
  <scstep>
   <time name="dav">   45.43   45.81</time>
   <time name="total">   45.44   45.87</time>
   <energy>
    <i name="e_fr_energy">   -257.13586900 </i>
    <i name="e_wo_entrp">   -257.13586900 </i>
    <i name="e_0_energy">   -257.13586900 </i>
   </energy>
  </scstep>
  <scstep>
   <time name="dav">   50.06   50.15</time>
   <time name="total">   50.06   50.23</time>
   <energy>
    <i name="e_fr_energy">   -329.68708025 </i>
    <i name="e_wo_entrp">   -329.68708025 </i>
    <i name="e_0_energy">   -329.68708025 </i>
   </energy>
  </scstep>
  <scstep>
   <time name="dav">   62.10   62.44</time>
   <time name="total">   62.53   62.92</time>
   <energy>
    <i name="e_fr_energy">   -334.25142288 </i>
    <i name="e_wo_entrp">   -334.25142288 </i>
    <i name="e_0_energy">   -334.25142288 </i>
   </energy>
  </scstep>
  <scstep>
   <time name="dav">   56.82   57.03</time>
   <time name="total">   57.31   57.54</time>
   <energy>
    <i name="e_fr_energy">   -280.59424314 </i>
    <i name="e_wo_entrp">   -280.59424314 </i>
    <i name="e_0_energy">   -280.59424314 </i>
   </energy>
  </scstep>
  <scstep>
   <time name="dav">   43.62   44.15</time>
   <time name="total">   44.10   44.66</time>
   <energy>
    <i name="e_fr_energy">   -281.21759182 </i>
    <i name="e_wo_entrp">   -281.21759182 </i>
    <i name="e_0_energy">   -281.21759182 </i>
   </energy>
  </scstep>
  <scstep>
   <time name="dav">   50.78   51.22</time>
   <time name="total">   51.28   51.79</time>
   <energy>
    <i name="e_fr_energy">   -279.89876709 </i>
    <i name="e_wo_entrp">   -279.89876709 </i>
    <i name="e_0_energy">   -279.89876709 </i>
   </energy>
  </scstep>
  <scstep>
   <time name="dav">   49.92   50.27</time>
   <time name="total">   50.41   50.82</time>
   <energy>
    <i name="e_fr_energy">   -279.31921778 </i>
    <i name="e_wo_entrp">   -279.31921778 </i>
    <i name="e_0_energy">   -279.31921778 </i>
   </energy>
  </scstep>
  <scstep>
   <time name="dav">   51.68   52.02</time>
   <time name="total">   52.17   52.52</time>
   <energy>
    <i name="e_fr_energy">   -279.27685497 </i>
    <i name="e_wo_entrp">   -279.27685497 </i>
    <i name="e_0_energy">   -279.27685497 </i>
   </energy>
  </scstep>
  <scstep>
   <time name="dav">   47.20   47.67</time>
   <time name="total">   47.68   48.22</time>
   <energy>
    <i name="e_fr_energy">   -279.26207096 </i>
    <i name="e_wo_entrp">   -279.26207096 </i>
    <i name="e_0_energy">   -279.26207096 </i>
   </energy>
  </scstep>
  <scstep>
   <time name="dav">   48.67   49.09</time>
   <time name="total">   49.24   49.68</time>
   <energy>
    <i name="e_fr_energy">   -279.26128818 </i>
    <i name="e_wo_entrp">   -279.26128818 </i>
    <i name="e_0_energy">   -279.26128818 </i>
   </energy>
  </scstep>
  <scstep>
   <time name="dav">   47.95   48.60</time>
   <time name="total">   48.44   49.11</time>
   <energy>
    <i name="e_fr_energy">   -279.26551975 </i>
    <i name="e_wo_entrp">   -279.26551975 </i>
    <i name="e_0_energy">   -279.26551975 </i>
   </energy>
  </scstep>
  <scstep>
   <time name="dav">   49.39   49.91</time>
   <time name="total">   49.88   50.42</time>
   <energy>
    <i name="e_fr_energy">   -279.26440153 </i>
    <i name="e_wo_entrp">   -279.26440153 </i>
    <i name="e_0_energy">   -279.26440153 </i>
   </energy>
  </scstep>
  <scstep>
   <time name="dav">   49.75   50.18</time>
   <time name="total">   50.23   50.68</time>
   <energy>
    <i name="e_fr_energy">   -279.26442424 </i>
    <i name="e_wo_entrp">   -279.26442424 </i>
    <i name="e_0_energy">   -279.26442424 </i>
   </energy>
  </scstep>
  <scstep>
   <time name="dav">   46.18   46.58</time>
   <time name="total">   46.67   47.09</time>
   <energy>
    <i name="e_fr_energy">   -279.26444385 </i>
    <i name="e_wo_entrp">   -279.26444385 </i>
    <i name="e_0_energy">   -279.26444385 </i>
   </energy>
  </scstep>
  <scstep>
   <time name="dav">   47.77   47.99</time>
   <time name="total">   48.25   48.49</time>
   <energy>
    <i name="e_fr_energy">   -279.26448729 </i>
    <i name="e_wo_entrp">   -279.26448729 </i>
    <i name="e_0_energy">   -279.26448729 </i>
   </energy>
  </scstep>
  <scstep>
   <time name="dav">   47.83   48.13</time>
   <time name="total">   48.31   48.67</time>
   <energy>
    <i name="e_fr_energy">   -279.26449832 </i>
    <i name="e_wo_entrp">   -279.26449832 </i>
    <i name="e_0_energy">   -279.26449832 </i>
   </energy>
  </scstep>
  <scstep>
   <time name="dav">   44.71   45.08</time>
   <time name="total">   45.19   45.62</time>
   <energy>
    <i name="e_fr_energy">   -279.26449864 </i>
    <i name="e_wo_entrp">   -279.26449864 </i>
    <i name="e_0_energy">   -279.26449864 </i>
   </energy>
  </scstep>
  <scstep>
   <time name="dav">   42.99   43.55</time>
   <time name="total">   43.05   43.63</time>
   <energy>
    <i name="alphaZ">   1054.17224280 </i>
    <i name="ewald"> -30143.46794067 </i>
    <i name="hartreedc"> -12957.73588938 </i>
    <i name="XCdc">   1197.88361953 </i>
    <i name="pawpsdc">  43564.66092120 </i>
    <i name="pawaedc"> -42793.18874114 </i>
    <i name="eentropy">      0.00000000 </i>
    <i name="bandstr">  -3845.10666198 </i>
    <i name="atom">  43643.51795008 </i>
    <i name="e_fr_energy">   -279.26449955 </i>
    <i name="e_wo_entrp">   -279.26449955 </i>
    <i name="e_0_energy">   -279.26449955 </i>
   </energy>
  </scstep>
  <structure>
   <crystal>
    <varray name="basis" >
     <v>      11.17850000       0.00000000       0.00000000 </v>
     <v>       0.00000000       9.57460000       0.00000000 </v>
     <v>       0.00000000       0.00000000      11.18240000 </v>
    </varray>
    <i name="volume">   1196.84853820 </i>
    <varray name="rec_basis" >
     <v>       0.08945744       0.00000000       0.00000000 </v>
     <v>       0.00000000       0.10444301       0.00000000 </v>
     <v>       0.00000000       0.00000000       0.08942624 </v>
    </varray>
   </crystal>
   <varray name="positions" >
    <v>       0.37461000       0.00017000       0.18687000 </v>
    <v>       0.37539000       0.00017000       0.93687000 </v>
    <v>       0.62539000       0.99984000       0.93687000 </v>
    <v>       0.62461000       0.99984000       0.68687000 </v>
    <v>       0.62539000       0.99984000       0.43687000 </v>
    <v>       0.87539000       0.00017000       0.43687000 </v>
    <v>       0.62461000       0.99984000       0.18687000 </v>
    <v>       0.12461000       0.99984000       0.68687000 </v>
    <v>       0.87539000       0.00017000       0.93687000 </v>
    <v>       0.87461000       0.00017000       0.68687000 </v>
    <v>       0.00013000       0.29519000       0.06281000 </v>
    <v>       0.25013000       0.70481000       0.06281000 </v>
    <v>       0.24987000       0.29519000       0.31282000 </v>
    <v>       0.49987000       0.70481000       0.31282000 </v>
    <v>       0.50013000       0.29519000       0.06281000 </v>
    <v>       0.75013000       0.70481000       0.06281000 </v>
    <v>       0.74987000       0.29519000       0.31282000 </v>
    <v>       0.99987000       0.70481000       0.31282000 </v>
    <v>       0.00013000       0.29519000       0.56281000 </v>
    <v>       0.25013000       0.70481000       0.56281000 </v>
    <v>       0.24987000       0.29519000       0.81282000 </v>
    <v>       0.49987000       0.70481000       0.81282000 </v>
    <v>       0.50013000       0.29519000       0.56281000 </v>
    <v>       0.75013000       0.70481000       0.56281000 </v>
    <v>       0.74987000       0.29519000       0.81282000 </v>
    <v>       0.99987000       0.70481000       0.81282000 </v>
    <v>       0.25005000       0.32677000       0.06286000 </v>
    <v>       0.00005000       0.67323000       0.06286000 </v>
    <v>       0.49995000       0.32677000       0.31286000 </v>
    <v>       0.24995000       0.67323000       0.31286000 </v>
    <v>       0.75005000       0.32677000       0.06286000 </v>
    <v>       0.50005000       0.67323000       0.06286000 </v>
    <v>       0.99995000       0.32677000       0.31286000 </v>
    <v>       0.74995000       0.67323000       0.31286000 </v>
    <v>       0.25005000       0.32677000       0.56286000 </v>
    <v>       0.00005000       0.67323000       0.56286000 </v>
    <v>       0.49995000       0.32677000       0.81286000 </v>
    <v>       0.24995000       0.67323000       0.81286000 </v>
    <v>       0.75005000       0.32677000       0.56286000 </v>
    <v>       0.50005000       0.67323000       0.56286000 </v>
    <v>       0.99995000       0.32677000       0.81286000 </v>
    <v>       0.74995000       0.67323000       0.81286000 </v>
    <v>       0.49987000       0.07798000       0.06246000 </v>
    <v>       0.24987000       0.92202000       0.06246000 </v>
    <v>       0.25013000       0.07798000       0.31246000 </v>
    <v>       0.00013000       0.92202000       0.31246000 </v>
    <v>       0.99987000       0.07798000       0.06246000 </v>
    <v>       0.74987000       0.92202000       0.06246000 </v>
    <v>       0.75013000       0.07798000       0.31246000 </v>
    <v>       0.50013000       0.92202000       0.31246000 </v>
    <v>       0.49987000       0.07798000       0.56246000 </v>
    <v>       0.24987000       0.92202000       0.56246000 </v>
    <v>       0.25013000       0.07798000       0.81246000 </v>
    <v>       0.00013000       0.92202000       0.81246000 </v>
    <v>       0.99987000       0.07798000       0.56246000 </v>
    <v>       0.74987000       0.92202000       0.56246000 </v>
    <v>       0.75013000       0.07798000       0.81246000 </v>
    <v>       0.50013000       0.92202000       0.81246000 </v>
   </varray>
  </structure>
  <varray name="forces" >
   <v>      -1.43784613       0.03252797       0.36063827 </v>
   <v>      -0.78946985      -0.18123383      -0.29649420 </v>
   <v>      -0.70015688      -0.19404098      -0.30968882 </v>
   <v>      -1.47135574       0.05754961       0.33679826 </v>
   <v>      -2.43506775       0.34583246       0.67401214 </v>
   <v>       2.37120829      -0.30749916      -2.28844204 </v>
   <v>       0.20703455      -0.09799620      -0.77095000 </v>
   <v>       2.88184796      -0.08237466      -0.11109375 </v>
   <v>       1.37426332       0.31030906       2.35391939 </v>
   <v>      -0.11122947       0.09782985       0.24683450 </v>
   <v>       0.79544631      -1.79802892       0.44179178 </v>
   <v>      -0.31878191       1.86747010       0.20148701 </v>
   <v>      -0.20650676      -2.53144578      -0.04780697 </v>
   <v>      -1.14987412      -1.17925552       0.05981777 </v>
   <v>      -0.82862847       1.13957680      -0.06832838 </v>
   <v>       0.26130399      -1.14138809       0.22327104 </v>
   <v>       0.38959369       2.19303774      -0.46274479 </v>
   <v>       0.91575725       1.72840817      -0.45955074 </v>
   <v>       1.05955873       2.22133253      -0.60146833 </v>
   <v>       0.28915354       1.79694923      -0.38185464 </v>
   <v>       0.22341245      -0.95832782       0.22929065 </v>
   <v>      -0.75797014       0.88169131      -0.05419891 </v>
   <v>      -1.03002359      -0.80245314       0.04767989 </v>
   <v>      -0.27894574      -3.12505550      -0.04477532 </v>
   <v>      -0.37303324       2.22434160       0.26788021 </v>
   <v>       0.98298270      -2.13675918       0.59023814 </v>
   <v>       0.36443668       0.26766255      -0.27930392 </v>
   <v>      -0.61157170      -0.06500259      -0.49133480 </v>
   <v>       0.77124159       0.04482360      -0.11053279 </v>
   <v>       0.33341868      -0.25645550       0.05997122 </v>
   <v>      -0.27921234      -0.01438179      -0.11144450 </v>
   <v>       0.59219451      -0.16683619       0.16654032 </v>
   <v>      -0.75335894       0.03644779       0.51434695 </v>
   <v>      -0.30374733       0.09972295       0.26397922 </v>
   <v>      -0.35334905       0.15191927       0.28937110 </v>
   <v>      -0.72258263       0.04594497       0.42971581 </v>
   <v>       0.55779281       0.12546885       0.10456405 </v>
   <v>      -0.31752572      -0.22549576      -0.09465106 </v>
   <v>       0.25299883      -0.18932617       0.05216582 </v>
   <v>       0.76450353      -0.02079126      -0.15621994 </v>
   <v>      -0.58089331      -0.04109481      -0.44860567 </v>
   <v>       0.29168813       0.12798644      -0.19514822 </v>
   <v>       1.01620956      -0.85268037       0.57905858 </v>
   <v>       1.32187702      -1.59854065      -0.10926610 </v>
   <v>       0.66052484       2.20846673      -0.45628104 </v>
   <v>      -1.50921547      -1.27583441       1.34135245 </v>
   <v>      -1.38742919       1.35295112      -1.31587735 </v>
   <v>      -0.79386860       0.91983401      -0.72028163 </v>
   <v>      -1.17337139      -1.80389376       1.27877109 </v>
   <v>       2.10214664       0.99835199      -0.62145196 </v>
   <v>       2.25505673       0.38649314      -0.53085492 </v>
   <v>      -1.24391574      -1.49374975       1.09346632 </v>
   <v>      -0.73599441       0.96163450      -0.56442461 </v>
   <v>      -1.59441173       1.71730915      -1.37164243 </v>
   <v>      -1.71427785      -1.77690605       1.30121466 </v>
   <v>       0.69271659       2.53761171      -0.33214620 </v>
   <v>       1.11053535      -1.94342535      -0.31261927 </v>
   <v>       1.12471095      -0.61921202       0.61130668 </v>
  </varray>
  <varray name="stress" >
   <v>      -2.02751686       0.18228236       1.84189932 </v>
   <v>       0.18228244     -10.53587010      -1.34783941 </v>
   <v>       1.84189912      -1.34783942       4.68229799 </v>
  </varray>
  <energy>
   <i name="e_fr_energy">   -290.89716740 </i>
   <i name="e_wo_entrp">   -290.89716740 </i>
   <i name="e_0_energy">      0.00000000 </i>
  </energy>
  <time name="totalsc"> 1053.88 1062.19</time>
 </calculation>
 <calculation>
  <scstep>
   <time name="dav">   43.89   44.11</time>
   <time name="total">   44.37   44.60</time>
   <energy>
    <i name="alphaZ">   1059.37730072 </i>
    <i name="ewald"> -30169.74946505 </i>
    <i name="hartreedc"> -12980.34185322 </i>
    <i name="XCdc">   1201.05090541 </i>
    <i name="pawpsdc">  43564.60828711 </i>
    <i name="pawaedc"> -42793.13822625 </i>
    <i name="eentropy">      0.00000000 </i>
    <i name="bandstr">  -3802.78668485 </i>
    <i name="atom">  43643.51795008 </i>
    <i name="e_fr_energy">   -277.46178606 </i>
    <i name="e_wo_entrp">   -277.46178606 </i>
    <i name="e_0_energy">   -277.46178606 </i>
   </energy>
  </scstep>
  <scstep>
   <time name="dav">   45.84   46.18</time>
   <time name="total">   46.33   46.68</time>
   <energy>
    <i name="e_fr_energy">   -283.67589166 </i>
    <i name="e_wo_entrp">   -283.67589166 </i>
    <i name="e_0_energy">   -283.67589166 </i>
   </energy>
  </scstep>
  <scstep>
   <time name="dav">   59.22   59.67</time>
   <time name="total">   59.71   60.21</time>
   <energy>
    <i name="e_fr_energy">   -283.48561748 </i>
    <i name="e_wo_entrp">   -283.48561748 </i>
    <i name="e_0_energy">   -283.48561748 </i>
   </energy>
  </scstep>
  <scstep>
   <time name="dav">   49.58   49.99</time>
   <time name="total">   50.05   50.54</time>
   <energy>
    <i name="e_fr_energy">   -283.31649657 </i>
    <i name="e_wo_entrp">   -283.31649657 </i>
    <i name="e_0_energy">   -283.31649657 </i>
   </energy>
  </scstep>
  <scstep>
   <time name="dav">   51.38   51.81</time>
   <time name="total">   51.86   52.31</time>
   <energy>
    <i name="e_fr_energy">   -283.23310742 </i>
    <i name="e_wo_entrp">   -283.23310742 </i>
    <i name="e_0_energy">   -283.23310742 </i>
   </energy>
  </scstep>
  <scstep>
   <time name="dav">   52.44   53.26</time>
   <time name="total">   52.92   53.76</time>
   <energy>
    <i name="e_fr_energy">   -283.23255654 </i>
    <i name="e_wo_entrp">   -283.23255654 </i>
    <i name="e_0_energy">   -283.23255654 </i>
   </energy>
  </scstep>
  <scstep>
   <time name="dav">   50.14   50.53</time>
   <time name="total">   50.62   51.03</time>
   <energy>
    <i name="e_fr_energy">   -283.23172050 </i>
    <i name="e_wo_entrp">   -283.23172050 </i>
    <i name="e_0_energy">   -283.23172050 </i>
   </energy>
  </scstep>
  <scstep>
   <time name="dav">   51.24   51.65</time>
   <time name="total">   51.78   52.21</time>
   <energy>
    <i name="e_fr_energy">   -283.23058422 </i>
    <i name="e_wo_entrp">   -283.23058422 </i>
    <i name="e_0_energy">   -283.23058422 </i>
   </energy>
  </scstep>
  <scstep>
   <time name="dav">   62.69   63.19</time>
   <time name="total">   63.15   63.70</time>
   <energy>
    <i name="e_fr_energy">   -283.23054461 </i>
    <i name="e_wo_entrp">   -283.23054461 </i>
    <i name="e_0_energy">   -283.23054461 </i>
   </energy>
  </scstep>
  <scstep>
   <time name="dav">   45.08   45.46</time>
   <time name="total">   45.57   45.97</time>
   <energy>
    <i name="e_fr_energy">   -283.23058424 </i>
    <i name="e_wo_entrp">   -283.23058424 </i>
    <i name="e_0_energy">   -283.23058424 </i>
   </energy>
  </scstep>
  <scstep>
   <time name="dav">   52.02   52.14</time>
   <time name="total">   52.53   52.67</time>
   <energy>
    <i name="e_fr_energy">   -283.23059078 </i>
    <i name="e_wo_entrp">   -283.23059078 </i>
    <i name="e_0_energy">   -283.23059078 </i>
   </energy>
  </scstep>
  <scstep>
   <time name="dav">   52.48   53.30</time>
   <time name="total">   52.96   53.80</time>
   <energy>
    <i name="e_fr_energy">   -283.23059751 </i>
    <i name="e_wo_entrp">   -283.23059751 </i>
    <i name="e_0_energy">   -283.23059751 </i>
   </energy>
  </scstep>
  <scstep>
   <time name="dav">   47.52   47.83</time>
   <time name="total">   48.01   48.33</time>
   <energy>
    <i name="e_fr_energy">   -283.23059892 </i>
    <i name="e_wo_entrp">   -283.23059892 </i>
    <i name="e_0_energy">   -283.23059892 </i>
   </energy>
  </scstep>
  <scstep>
   <time name="dav">   37.54   37.73</time>
   <time name="total">   37.59   37.80</time>
   <energy>
    <i name="alphaZ">   1059.37730072 </i>
    <i name="ewald"> -30169.74946505 </i>
    <i name="hartreedc"> -12956.25744737 </i>
    <i name="XCdc">   1200.61353085 </i>
    <i name="pawpsdc">  43845.67108383 </i>
    <i name="pawaedc"> -43077.11458384 </i>
    <i name="eentropy">      0.00000000 </i>
    <i name="bandstr">  -3829.28896823 </i>
    <i name="atom">  43643.51795008 </i>
    <i name="e_fr_energy">   -283.23059903 </i>
    <i name="e_wo_entrp">   -283.23059903 </i>
    <i name="e_0_energy">   -283.23059903 </i>
   </energy>
  </scstep>
  <structure>
   <crystal>
    <varray name="basis" >
     <v>      11.16441750       0.00126608       0.01279326 </v>
     <v>       0.00108442       9.51192088      -0.00801845 </v>
     <v>       0.01279772      -0.00936494      11.21493313 </v>
    </varray>
    <i name="volume">   1190.96804033 </i>
    <varray name="rec_basis" >
     <v>       0.08957040      -0.00001030      -0.00010222 </v>
     <v>      -0.00001202       0.10513131       0.00008780 </v>
     <v>      -0.00010218       0.00007518       0.08916701 </v>
    </varray>
   </crystal>
   <varray name="positions" >
    <v>       0.36840474       0.00033390       0.18842585 </v>
    <v>       0.37198291      -0.00074317       0.93559088 </v>
    <v>       0.62236836       0.99886230       0.93553395 </v>
    <v>       0.61826012       0.00012997       0.68832300 </v>
    <v>       0.61488106       0.00158251       0.43977780 </v>
    <v>       0.88562334      -0.00137937       0.42699730 </v>
    <v>       0.62550349       0.99934624       0.18354400 </v>
    <v>       0.13704709       0.99942495       0.68639072 </v>
    <v>       0.88132086       0.00173353       0.94702518 </v>
    <v>       0.87412997       0.00066293       0.68793488 </v>
    <v>       0.00356288       0.28613044       0.06471596 </v>
    <v>       0.24875424       0.71421945       0.06367925 </v>
    <v>       0.24897879       0.28243504       0.31261375 </v>
    <v>       0.49490753       0.69886819       0.31307806 </v>
    <v>       0.49655392       0.30093188       0.06251522 </v>
    <v>       0.75125770       0.69905899       0.06377323 </v>
    <v>       0.75155136       0.30623986       0.31082365 </v>
    <v>       0.00382210       0.71351877       0.31083742 </v>
    <v>       0.00470270       0.30638242       0.56021517 </v>
    <v>       0.25137789       0.71386412       0.56116262 </v>
    <v>       0.25083417       0.29036136       0.81380920 </v>
    <v>       0.49659886       0.70925250       0.81258618 </v>
    <v>       0.49568476       0.29114675       0.56301570 </v>
    <v>       0.74892616       0.68906407       0.56261683 </v>
    <v>       0.74826011       0.30639758       0.81397568 </v>
    <v>       0.00411222       0.69404371       0.81536638 </v>
    <v>       0.25162279       0.32811865       0.06165504 </v>
    <v>      -0.00258934       0.67290248       0.06074030 </v>
    <v>       0.50327842       0.32699585       0.31238314 </v>
    <v>       0.25138892       0.67193782       0.31311873 </v>
    <v>       0.74884501       0.32669754       0.06237921 </v>
    <v>       0.50260571       0.67238938       0.06357848 </v>
    <v>       0.99669876       0.32695365       0.31507897 </v>
    <v>       0.74863913       0.67373246       0.31399885 </v>
    <v>       0.24852506       0.32753546       0.56410839 </v>
    <v>      -0.00306842       0.67346150       0.56471386 </v>
    <v>       0.50235725       0.32740219       0.81331111 </v>
    <v>       0.24857967       0.67209382       0.81245166 </v>
    <v>       0.75114186       0.32581606       0.56308505 </v>
    <v>       0.50334934       0.67312524       0.56218604 </v>
    <v>       0.99744306       0.32656294       0.81092464 </v>
    <v>       0.75120883       0.67387487       0.81201810 </v>
    <v>       0.50425562       0.07368368       0.06495815 </v>
    <v>       0.25557478       0.91396558       0.06198861 </v>
    <v>       0.25298060       0.08910760       0.31049153 </v>
    <v>      -0.00638327       0.91559157       0.31824681 </v>
    <v>       0.99388232       0.08479699       0.05678310 </v>
    <v>       0.74644393       0.92665468       0.05935259 </v>
    <v>       0.74506612       0.06889089       0.31797682 </v>
    <v>       0.50920216       0.92705030       0.30977896 </v>
    <v>       0.50960207       0.07992739       0.56016981 </v>
    <v>       0.24450168       0.91449358       0.56717739 </v>
    <v>       0.24695370       0.08282530       0.81002498 </v>
    <v>      -0.00675095       0.93067285       0.80654252 </v>
    <v>       0.99247175       0.06902687       0.56807365 </v>
    <v>       0.75285953       0.93480603       0.56102707 </v>
    <v>       0.75492270       0.06818784       0.81111131 </v>
    <v>       0.50498387       0.91890003       0.81509727 </v>
   </varray>
  </structure>
  <varray name="forces" >
   <v>      -0.82639372       0.02115980       0.31725052 </v>
   <v>      -0.50197105      -0.10204157      -0.14596716 </v>
   <v>      -0.24507873      -0.10250182      -0.26305260 </v>
   <v>      -0.59920921       0.02976542       0.19424467 </v>
   <v>      -0.21330123      -0.07630111       0.10141580 </v>
   <v>       0.06435632       0.42933627      -0.15284979 </v>
   <v>       0.52806085      -0.00824660      -0.13204036 </v>
   <v>       0.48235779       0.09785033       0.05786501 </v>
   <v>       0.18292606      -0.22974400       0.37990016 </v>
   <v>      -0.41590218      -0.01665299      -0.09483522 </v>
   <v>       0.53338089       1.70309680       0.25697562 </v>
   <v>      -0.22931768      -2.22270495       0.08845299 </v>
   <v>      -0.15602253       3.60260808       0.07555591 </v>
   <v>      -0.38222538       0.16278550      -0.05365210 </v>
   <v>      -0.33707508      -0.04409345       0.06288478 </v>
   <v>       0.00937816       0.06652825       0.05938055 </v>
   <v>       0.05203270      -0.20342274      -0.04974797 </v>
   <v>       0.49421796      -1.55239053      -0.24729529 </v>
   <v>       0.26557483      -0.17420957      -0.11649576 </v>
   <v>       0.20425181      -2.02657757      -0.33767528 </v>
   <v>       0.02371100       1.23594599       0.18020480 </v>
   <v>      -0.23418836      -0.65327908      -0.00318552 </v>
   <v>      -0.41838139       0.35219910      -0.01662796 </v>
   <v>       0.00723484       0.04894620      -0.03150604 </v>
   <v>      -0.01493510      -0.22835522      -0.00194933 </v>
   <v>       0.29023758       0.18774631       0.09977696 </v>
   <v>       0.24082996       0.13344125      -0.20499811 </v>
   <v>      -0.34041994       0.02926652      -0.27540757 </v>
   <v>       0.39503035       0.19733094      -0.01803771 </v>
   <v>       0.20701522      -0.08524335       0.01649525 </v>
   <v>      -0.07643222       0.12161171      -0.06272252 </v>
   <v>       0.27686745      -0.25327789       0.10230901 </v>
   <v>      -0.42882644      -0.02364977       0.28082959 </v>
   <v>      -0.07531534      -0.20644635       0.08756175 </v>
   <v>      -0.19181744       0.04385860       0.22125339 </v>
   <v>      -0.27445772      -0.24531010       0.14576306 </v>
   <v>       0.24837840       0.06792648       0.03987389 </v>
   <v>      -0.16925298      -0.11579595      -0.06559588 </v>
   <v>       0.04526521       0.29200223       0.02337754 </v>
   <v>       0.35097739      -0.00656376      -0.09387602 </v>
   <v>      -0.23684604       0.23089962      -0.15984311 </v>
   <v>       0.08423267      -0.21603807      -0.04865655 </v>
   <v>       0.23852393       0.42426951       0.14011698 </v>
   <v>       1.15329041       2.47911903      -0.10572535 </v>
   <v>       0.64127782      -3.99101778      -0.51910747 </v>
   <v>      -0.28590837       1.23355246       0.19646203 </v>
   <v>      -0.54664861      -1.60939593      -0.48349310 </v>
   <v>      -0.36368650      -0.44538360      -0.49646615 </v>
   <v>      -0.65979486       0.71993359       0.59125349 </v>
   <v>       0.75240394      -0.64845328      -0.56384739 </v>
   <v>       0.89044343      -0.18633201       0.19196779 </v>
   <v>      -0.64781025       1.99749687       0.65501428 </v>
   <v>      -0.21875002      -1.05312169      -0.23494163 </v>
   <v>      -0.33590603      -0.77359107      -0.43481600 </v>
   <v>      -0.27651064       0.80667367       0.46979322 </v>
   <v>       0.14939387      -0.73062801      -0.43166714 </v>
   <v>       0.37700993       0.74031791       0.31742886 </v>
   <v>       0.51372427       0.77510140       0.49267413 </v>
  </varray>
  <varray name="stress" >
   <v>       9.76395989      -1.41248071      -2.05358587 </v>
   <v>      -1.41248055      17.83297072       4.44222250 </v>
   <v>      -2.05358543       4.44222239       5.63433514 </v>
  </varray>
  <energy>
   <i name="e_fr_energy">   -294.93321166 </i>
   <i name="e_wo_entrp">   -294.93321166 </i>
   <i name="e_0_energy">      0.00000000 </i>
  </energy>
  <time name="totalsc">  783.97  790.72</time>
 </calculation>
 <calculation>
  <scstep>
   <time name="dav">   43.11   43.43</time>
   <time name="total">   43.60   43.93</time>
   <energy>
    <i name="alphaZ">   1058.72132020 </i>
    <i name="ewald"> -30173.86698017 </i>
    <i name="hartreedc"> -12947.19947994 </i>
    <i name="XCdc">   1200.11952378 </i>
    <i name="pawpsdc">  43845.64134217 </i>
    <i name="pawaedc"> -43077.08608089 </i>
    <i name="eentropy">      0.00000000 </i>
    <i name="bandstr">  -3833.09220848 </i>
    <i name="atom">  43643.51795008 </i>
    <i name="e_fr_energy">   -283.24461324 </i>
    <i name="e_wo_entrp">   -283.24461324 </i>
    <i name="e_0_energy">   -283.24461324 </i>
   </energy>
  </scstep>
  <scstep>
   <time name="dav">   46.98   47.33</time>
   <time name="total">   47.46   47.84</time>
   <energy>
    <i name="e_fr_energy">   -283.34151464 </i>
    <i name="e_wo_entrp">   -283.34151464 </i>
    <i name="e_0_energy">   -283.34151464 </i>
   </energy>
  </scstep>
  <scstep>
   <time name="dav">   50.71   51.54</time>
   <time name="total">   51.19   52.04</time>
   <energy>
    <i name="e_fr_energy">   -283.33762586 </i>
    <i name="e_wo_entrp">   -283.33762586 </i>
    <i name="e_0_energy">   -283.33762586 </i>
   </energy>
  </scstep>
  <scstep>
   <time name="dav">   46.78   47.20</time>
   <time name="total">   47.27   47.70</time>
   <energy>
    <i name="e_fr_energy">   -283.33329129 </i>
    <i name="e_wo_entrp">   -283.33329129 </i>
    <i name="e_0_energy">   -283.33329129 </i>
   </energy>
  </scstep>
  <scstep>
   <time name="dav">   50.58   50.90</time>
   <time name="total">   51.06   51.41</time>
   <energy>
    <i name="e_fr_energy">   -283.33232076 </i>
    <i name="e_wo_entrp">   -283.33232076 </i>
    <i name="e_0_energy">   -283.33232076 </i>
   </energy>
  </scstep>
  <scstep>
   <time name="dav">   45.73   46.05</time>
   <time name="total">   46.23   46.57</time>
   <energy>
    <i name="e_fr_energy">   -283.33227638 </i>
    <i name="e_wo_entrp">   -283.33227638 </i>
    <i name="e_0_energy">   -283.33227638 </i>
   </energy>
  </scstep>
  <scstep>
   <time name="dav">   54.62   55.14</time>
   <time name="total">   55.12   55.71</time>
   <energy>
    <i name="e_fr_energy">   -283.33225693 </i>
    <i name="e_wo_entrp">   -283.33225693 </i>
    <i name="e_0_energy">   -283.33225693 </i>
   </energy>
  </scstep>
  <scstep>
   <time name="dav">   46.42   46.85</time>
   <time name="total">   46.91   47.38</time>
   <energy>
    <i name="e_fr_energy">   -283.33224507 </i>
    <i name="e_wo_entrp">   -283.33224507 </i>
    <i name="e_0_energy">   -283.33224507 </i>
   </energy>
  </scstep>
  <scstep>
   <time name="dav">   55.49   56.25</time>
   <time name="total">   55.97   56.75</time>
   <energy>
    <i name="e_fr_energy">   -283.33224609 </i>
    <i name="e_wo_entrp">   -283.33224609 </i>
    <i name="e_0_energy">   -283.33224609 </i>
   </energy>
  </scstep>
  <scstep>
   <time name="dav">   39.62   39.91</time>
   <time name="total">   40.10   40.42</time>
   <energy>
    <i name="e_fr_energy">   -283.33224735 </i>
    <i name="e_wo_entrp">   -283.33224735 </i>
    <i name="e_0_energy">   -283.33224735 </i>
   </energy>
  </scstep>
  <scstep>
   <time name="dav">   34.43   34.92</time>
   <time name="total">   34.48   34.99</time>
   <energy>
    <i name="alphaZ">   1058.72132020 </i>
    <i name="ewald"> -30173.86698017 </i>
    <i name="hartreedc"> -12950.55010730 </i>
    <i name="XCdc">   1200.20152874 </i>
    <i name="pawpsdc">  43783.98919713 </i>
    <i name="pawaedc"> -43014.63869526 </i>
    <i name="eentropy">      0.00000000 </i>
    <i name="bandstr">  -3830.70646123 </i>
    <i name="atom">  43643.51795008 </i>
    <i name="e_fr_energy">   -283.33224779 </i>
    <i name="e_wo_entrp">   -283.33224779 </i>
    <i name="e_0_energy">   -283.33224779 </i>
   </energy>
  </scstep>
  <structure>
   <crystal>
    <varray name="basis" >
     <v>      11.16617950       0.00110767       0.01119257 </v>
     <v>       0.00094874       9.51976330      -0.00701518 </v>
     <v>       0.01119647      -0.00819320      11.21086259 </v>
    </varray>
    <i name="volume">   1191.70596051 </i>
    <varray name="rec_basis" >
     <v>       0.08955624      -0.00000899      -0.00008945 </v>
     <v>      -0.00001050       0.10504469       0.00007678 </v>
     <v>      -0.00008942       0.00006574       0.08919934 </v>
    </varray>
   </crystal>
   <varray name="positions" >
    <v>       0.36918235       0.00031296       0.18823085 </v>
    <v>       0.37240955      -0.00062806       0.93575005 </v>
    <v>       0.62274670       0.99898555       0.93570029 </v>
    <v>       0.61905583       0.00009316       0.68814080 </v>
    <v>       0.61619804       0.00136252       0.43941337 </v>
    <v>       0.88433990      -0.00118285       0.42823059 </v>
    <v>       0.62539107       0.99940885       0.18395911 </v>
    <v>       0.13548892       0.99947749       0.68645233 </v>
    <v>       0.88057932       0.00153546       0.94575896 </v>
    <v>       0.87419027       0.00060071       0.68780192 </v>
    <v>       0.00313298       0.28727126       0.06447948 </v>
    <v>       0.24892684       0.71303425       0.06356976 </v>
    <v>       0.24909025       0.28404147       0.31264051 </v>
    <v>       0.49552918       0.69961642       0.31304569 </v>
    <v>       0.49700195       0.30020870       0.06255097 </v>
    <v>       0.75111649       0.69978320       0.06365374 </v>
    <v>       0.75134057       0.30484846       0.31107195 </v>
    <v>       0.00332681       0.71242226       0.31108455 </v>
    <v>       0.00412961       0.30497319       0.56053854 </v>
    <v>       0.25122143       0.71272403       0.56136750 </v>
    <v>       0.25071347       0.29096940       0.81368636 </v>
    <v>       0.49700868       0.70869296       0.81261448 </v>
    <v>       0.49624163       0.29165588       0.56298977 </v>
    <v>       0.74907676       0.69104719       0.56264218 </v>
    <v>       0.74846210       0.30498588       0.81383026 </v>
    <v>       0.00358100       0.69539942       0.81505028 </v>
    <v>       0.25142560       0.32794897       0.06180547 </v>
    <v>      -0.00225899       0.67294394       0.06100440 </v>
    <v>       0.50286138       0.32696752       0.31244309 </v>
    <v>       0.25120868       0.67210056       0.31308677 </v>
    <v>       0.74899590       0.32670670       0.06243903 </v>
    <v>       0.50228563       0.67249520       0.06348929 </v>
    <v>       0.99710638       0.32693019       0.31480166 </v>
    <v>       0.74880352       0.67366902       0.31385654 </v>
    <v>       0.24871629       0.32743888       0.56395236 </v>
    <v>      -0.00267749       0.67343206       0.56448211 </v>
    <v>       0.50205574       0.32732255       0.81325511 </v>
    <v>       0.24875127       0.67223694       0.81250251 </v>
    <v>       0.75100509       0.32593619       0.56305722 </v>
    <v>       0.50293591       0.67313857       0.56227060 </v>
    <v>       0.99775684       0.32658921       0.81116575 </v>
    <v>       0.75105101       0.67379378       0.81212325 </v>
    <v>       0.50370650       0.07422454       0.06464750 </v>
    <v>       0.25485993       0.91498015       0.06204896 </v>
    <v>       0.25262334       0.08770643       0.31073652 </v>
    <v>      -0.00556655       0.91640038       0.31752451 </v>
    <v>       0.99463172       0.08393902       0.05748986 </v>
    <v>       0.74687275       0.92607129       0.05973936 </v>
    <v>       0.74570119       0.07003485       0.31728865 </v>
    <v>       0.50806530       0.92641725       0.31011428 </v>
    <v>       0.50838255       0.07968257       0.56045674 </v>
    <v>       0.24517479       0.91544082       0.56658877 </v>
    <v>       0.24735133       0.08221531       0.81032788 </v>
    <v>      -0.00588965       0.92958368       0.80727900 </v>
    <v>       0.99339928       0.07015365       0.56737305 </v>
    <v>       0.75248496       0.93319592       0.56120511 </v>
    <v>       0.75432196       0.06942136       0.81128114 </v>
    <v>       0.50437613       0.91929273       0.81476923 </v>
   </varray>
  </structure>
  <varray name="forces" >
   <v>      -0.90741602       0.02558868       0.32645063 </v>
   <v>      -0.53886598      -0.11311209      -0.16288087 </v>
   <v>      -0.30319842      -0.11536517      -0.27180959 </v>
   <v>      -0.70912746       0.03209061       0.21006757 </v>
   <v>      -0.52046668       0.00158511       0.21320467 </v>
   <v>       0.41042911       0.26651492      -0.48592187 </v>
   <v>       0.47888200      -0.02006577      -0.21308779 </v>
   <v>       0.79290004       0.06301747       0.02083505 </v>
   <v>       0.37495458      -0.12150074       0.66104376 </v>
   <v>      -0.35181126      -0.00067860      -0.04533839 </v>
   <v>       0.54491690       1.10642706       0.25768998 </v>
   <v>      -0.21516767      -1.49029124       0.09823918 </v>
   <v>      -0.13485928       2.35335552       0.04553038 </v>
   <v>      -0.48939487       0.02847272      -0.03972200 </v>
   <v>      -0.40826379       0.07621889       0.04714330 </v>
   <v>       0.04328090      -0.05700583       0.08067682 </v>
   <v>       0.09902973       0.00243072      -0.10068522 </v>
   <v>       0.52475842      -0.99887300      -0.25275341 </v>
   <v>       0.37420800       0.02658283      -0.18150168 </v>
   <v>       0.19206702      -1.35838442      -0.32472709 </v>
   <v>       0.04223038       0.89606251       0.18327573 </v>
   <v>      -0.29521725      -0.42446429      -0.00566501 </v>
   <v>      -0.48978235       0.19121025      -0.01243832 </v>
   <v>      -0.02993351      -0.18371603      -0.03446189 </v>
   <v>      -0.06300625      -0.02347421       0.03069492 </v>
   <v>       0.38507466      -0.01180209       0.16564609 </v>
   <v>       0.25952573       0.15522103      -0.21885352 </v>
   <v>      -0.37833129       0.01504868      -0.30599118 </v>
   <v>       0.45048230       0.18204548      -0.02942396 </v>
   <v>       0.22843804      -0.11033803       0.02257367 </v>
   <v>      -0.10155153       0.10615953      -0.06978668 </v>
   <v>       0.31937437      -0.24398469       0.10977280 </v>
   <v>      -0.48048307      -0.01235395       0.31310055 </v>
   <v>      -0.10347366      -0.17164504       0.11123107 </v>
   <v>      -0.21704630       0.06095342       0.23255879 </v>
   <v>      -0.33481628      -0.21307400       0.18037945 </v>
   <v>       0.29261659       0.07608361       0.04805133 </v>
   <v>      -0.19227657      -0.13284760      -0.06919154 </v>
   <v>       0.06957208       0.23836981       0.02614362 </v>
   <v>       0.40971328      -0.01084032      -0.10129700 </v>
   <v>      -0.28327976       0.20012055      -0.19461683 </v>
   <v>       0.10931270      -0.17750876      -0.06686096 </v>
   <v>       0.34890093       0.28447845       0.20161409 </v>
   <v>       1.15226465       1.75517596      -0.10341618 </v>
   <v>       0.62095228      -2.74527942      -0.49815558 </v>
   <v>      -0.48256012       0.84113365       0.38956664 </v>
   <v>      -0.66759559      -1.12024936      -0.60509136 </v>
   <v>      -0.42301252      -0.30084944      -0.52411733 </v>
   <v>      -0.73405749       0.49581345       0.68299771 </v>
   <v>       0.94488194      -0.46485495      -0.56821623 </v>
   <v>       1.09218884      -0.13138863       0.05853243 </v>
   <v>      -0.71855924       1.39462514       0.71389225 </v>
   <v>      -0.28568855      -0.74413842      -0.28133382 </v>
   <v>      -0.51988471      -0.53723673      -0.58431853 </v>
   <v>      -0.48165354       0.56761880       0.60713040 </v>
   <v>       0.22657123      -0.47210740      -0.42309620 </v>
   <v>       0.48746630       0.49654891       0.22963505 </v>
   <v>       0.58578800       0.56847645       0.50708213 </v>
  </varray>
  <varray name="stress" >
   <v>       7.76012576      -1.07238984      -1.48834886 </v>
   <v>      -1.07238970      10.05106915       3.28604458 </v>
   <v>      -1.48834918       3.28604421       4.99133659 </v>
  </varray>
  <energy>
   <i name="e_fr_energy">   -295.02483065 </i>
   <i name="e_wo_entrp">   -295.02483065 </i>
   <i name="e_0_energy">      0.00000000 </i>
  </energy>
  <time name="totalsc">  595.79  601.86</time>
 </calculation>
 <calculation>
  <scstep>
   <time name="dav">   45.80   46.14</time>
   <time name="total">   46.28   46.63</time>
   <energy>
    <i name="alphaZ">   1045.60049721 </i>
    <i name="ewald"> -30176.27089541 </i>
    <i name="hartreedc"> -12778.25180695 </i>
    <i name="XCdc">   1192.38809814 </i>
    <i name="pawpsdc">  43784.38029376 </i>
    <i name="pawaedc"> -43015.03024114 </i>
    <i name="eentropy">      0.00000000 </i>
    <i name="bandstr">  -3978.92726685 </i>
    <i name="atom">  43643.51795008 </i>
    <i name="e_fr_energy">   -282.59337116 </i>
    <i name="e_wo_entrp">   -282.59337116 </i>
    <i name="e_0_energy">   -282.59337116 </i>
   </energy>
  </scstep>
  <scstep>
   <time name="dav">   46.35   46.56</time>
   <time name="total">   46.84   47.06</time>
   <energy>
    <i name="e_fr_energy">   -284.18222085 </i>
    <i name="e_wo_entrp">   -284.18222085 </i>
    <i name="e_0_energy">   -284.18222085 </i>
   </energy>
  </scstep>
  <scstep>
   <time name="dav">   54.92   54.99</time>
   <time name="total">   55.41   55.52</time>
   <energy>
    <i name="e_fr_energy">   -284.10012215 </i>
    <i name="e_wo_entrp">   -284.10012215 </i>
    <i name="e_0_energy">   -284.10012215 </i>
   </energy>
  </scstep>
  <scstep>
   <time name="dav">   55.11   55.84</time>
   <time name="total">   55.60   56.39</time>
   <energy>
    <i name="e_fr_energy">   -284.06327312 </i>
    <i name="e_wo_entrp">   -284.06327312 </i>
    <i name="e_0_energy">   -284.06327312 </i>
   </energy>
  </scstep>
  <scstep>
   <time name="dav">   52.50   52.91</time>
   <time name="total">   52.98   53.45</time>
   <energy>
    <i name="e_fr_energy">   -284.03622779 </i>
    <i name="e_wo_entrp">   -284.03622779 </i>
    <i name="e_0_energy">   -284.03622779 </i>
   </energy>
  </scstep>
  <scstep>
   <time name="dav">   50.66   51.12</time>
   <time name="total">   51.15   51.67</time>
   <energy>
    <i name="e_fr_energy">   -284.03173722 </i>
    <i name="e_wo_entrp">   -284.03173722 </i>
    <i name="e_0_energy">   -284.03173722 </i>
   </energy>
  </scstep>
  <scstep>
   <time name="dav">   52.79   53.21</time>
   <time name="total">   53.28   53.73</time>
   <energy>
    <i name="e_fr_energy">   -284.03181440 </i>
    <i name="e_wo_entrp">   -284.03181440 </i>
    <i name="e_0_energy">   -284.03181440 </i>
   </energy>
  </scstep>
  <scstep>
   <time name="dav">   49.91   50.25</time>
   <time name="total">   50.39   50.77</time>
   <energy>
    <i name="e_fr_energy">   -284.03155704 </i>
    <i name="e_wo_entrp">   -284.03155704 </i>
    <i name="e_0_energy">   -284.03155704 </i>
   </energy>
  </scstep>
  <scstep>
   <time name="dav">   58.87   59.01</time>
   <time name="total">   59.37   59.54</time>
   <energy>
    <i name="e_fr_energy">   -284.03150481 </i>
    <i name="e_wo_entrp">   -284.03150481 </i>
    <i name="e_0_energy">   -284.03150481 </i>
   </energy>
  </scstep>
  <scstep>
   <time name="dav">   54.20   54.96</time>
   <time name="total">   54.68   55.46</time>
   <energy>
    <i name="e_fr_energy">   -284.03150323 </i>
    <i name="e_wo_entrp">   -284.03150323 </i>
    <i name="e_0_energy">   -284.03150323 </i>
   </energy>
  </scstep>
  <scstep>
   <time name="dav">   45.92   46.30</time>
   <time name="total">   46.41   46.80</time>
   <energy>
    <i name="e_fr_energy">   -284.03150820 </i>
    <i name="e_wo_entrp">   -284.03150820 </i>
    <i name="e_0_energy">   -284.03150820 </i>
   </energy>
  </scstep>
  <scstep>
   <time name="dav">   44.82   45.21</time>
   <time name="total">   45.31   45.73</time>
   <energy>
    <i name="e_fr_energy">   -284.03151223 </i>
    <i name="e_wo_entrp">   -284.03151223 </i>
    <i name="e_0_energy">   -284.03151223 </i>
   </energy>
  </scstep>
  <scstep>
   <time name="dav">   39.85   40.39</time>
   <time name="total">   40.33   40.92</time>
   <energy>
    <i name="e_fr_energy">   -284.03151517 </i>
    <i name="e_wo_entrp">   -284.03151517 </i>
    <i name="e_0_energy">   -284.03151517 </i>
   </energy>
  </scstep>
  <scstep>
   <time name="dav">   32.18   32.38</time>
   <time name="total">   32.23   32.45</time>
   <energy>
    <i name="alphaZ">   1045.60049721 </i>
    <i name="ewald"> -30176.27089541 </i>
    <i name="hartreedc"> -12888.53718683 </i>
    <i name="XCdc">   1197.45829836 </i>
    <i name="pawpsdc">  43332.41360369 </i>
    <i name="pawaedc"> -42556.71002017 </i>
    <i name="eentropy">      0.00000000 </i>
    <i name="bandstr">  -3881.50376253 </i>
    <i name="atom">  43643.51795008 </i>
    <i name="e_fr_energy">   -284.03151560 </i>
    <i name="e_wo_entrp">   -284.03151560 </i>
    <i name="e_0_energy">   -284.03151560 </i>
   </energy>
  </scstep>
  <structure>
   <crystal>
    <varray name="basis" >
     <v>      11.21483735      -0.00576679       0.00448413 </v>
     <v>      -0.00492473       9.56150884       0.00978579 </v>
     <v>       0.00447088       0.01158116      11.25294564 </v>
    </varray>
    <i name="volume">   1206.66020260 </i>
    <varray name="rec_basis" >
     <v>       0.08916763       0.00004596      -0.00003547 </v>
     <v>       0.00005382       0.10458614      -0.00010766 </v>
     <v>      -0.00003558      -0.00009097       0.08886573 </v>
    </varray>
   </crystal>
   <varray name="positions" >
    <v>       0.36376761       0.00048375       0.19000336 </v>
    <v>       0.36926740      -0.00142259       0.93474263 </v>
    <v>       0.62069654       0.99816274       0.93422021 </v>
    <v>       0.61443980       0.00032801       0.68939799 </v>
    <v>       0.61131019       0.00182108       0.44105570 </v>
    <v>       0.88869641      -0.00026948       0.42366661 </v>
    <v>       0.62763908       0.99918078       0.18221325 </v>
    <v>       0.14201694       0.99968116       0.68641095 </v>
    <v>       0.88367367       0.00134205       0.95112282 </v>
    <v>       0.87258519       0.00072455       0.68788535 </v>
    <v>       0.00630646       0.29040582       0.06604621 </v>
    <v>       0.24766762       0.70809487       0.06420210 </v>
    <v>       0.24829288       0.29238444       0.31278487 </v>
    <v>       0.49219586       0.69822723       0.31294741 </v>
    <v>       0.49436526       0.30206438       0.06267727 </v>
    <v>       0.75158744       0.69802096       0.06423665 </v>
    <v>       0.75218939       0.30770520       0.31014059 </v>
    <v>       0.00655212       0.70972802       0.30951285 </v>
    <v>       0.00687920       0.30798534       0.55911346 </v>
    <v>       0.25235252       0.70834250       0.55958049 </v>
    <v>       0.25113721       0.29415401       0.81470951 </v>
    <v>       0.49492679       0.70773999       0.81253248 </v>
    <v>       0.49303906       0.29155975       0.56299325 </v>
    <v>       0.74864270       0.68608437       0.56244558 </v>
    <v>       0.74778337       0.30775660       0.81425661 </v>
    <v>       0.00628938       0.69256934       0.81639112 </v>
    <v>       0.25292309       0.32906197       0.06057872 </v>
    <v>      -0.00452737       0.67293265       0.05918149 </v>
    <v>       0.50561230       0.32792460       0.31219570 </v>
    <v>       0.25253969       0.67122261       0.31324568 </v>
    <v>       0.74825963       0.32721228       0.06202449 </v>
    <v>       0.50428553       0.67107356       0.06413046 </v>
    <v>       0.99424715       0.32691840       0.31668486 </v>
    <v>       0.74803094       0.67295109       0.31461439 </v>
    <v>       0.24740979       0.32793843       0.56524852 </v>
    <v>      -0.00488835       0.67244024       0.56571397 </v>
    <v>       0.50390503       0.32786133       0.81357042 </v>
    <v>       0.24759055       0.67128776       0.81210849 </v>
    <v>       0.75157779       0.32686835       0.56322439 </v>
    <v>       0.50550809       0.67305722       0.56167086 </v>
    <v>       0.99592220       0.32752374       0.80985736 </v>
    <v>       0.75183471       0.67308229       0.81162649 </v>
    <v>       0.50629886       0.07452466       0.06612901 </v>
    <v>       0.26117595       0.92157671       0.06149250 </v>
    <v>       0.25597321       0.07700552       0.30813370 </v>
    <v>      -0.00927216       0.91890389       0.32064217 </v>
    <v>       0.99028907       0.08015671       0.05350326 </v>
    <v>       0.74421570       0.92577614       0.05674924 </v>
    <v>       0.74130677       0.07014808       0.32156765 </v>
    <v>       0.51437411       0.92541254       0.30703865 </v>
    <v>       0.51547821       0.07953378       0.56011022 </v>
    <v>       0.24076727       0.92039729       0.57079625 </v>
    <v>       0.24533574       0.07978513       0.80852612 </v>
    <v>      -0.00983939       0.92915468       0.80331982 </v>
    <v>       0.98946994       0.07065637       0.57135825 </v>
    <v>       0.75420774       0.93415403       0.55906291 </v>
    <v>       0.75760325       0.06935312       0.81189680 </v>
    <v>       0.50808489       0.92129998       0.81756782 </v>
   </varray>
  </structure>
  <varray name="forces" >
   <v>      -0.55240448       0.01633359       0.16437584 </v>
   <v>      -0.41877482      -0.10812580      -0.11866348 </v>
   <v>      -0.12757187      -0.05646711      -0.15705663 </v>
   <v>      -0.36613217       0.01943396       0.18442890 </v>
   <v>       0.50185878      -0.34197632      -0.38945123 </v>
   <v>      -0.93750929       0.84781048       0.90401905 </v>
   <v>       0.49377121       0.04315256      -0.03091288 </v>
   <v>      -0.61606016       0.26294800       0.42158604 </v>
   <v>      -0.72130477      -0.66588096      -0.77097774 </v>
   <v>      -0.49531040      -0.04460987      -0.14114442 </v>
   <v>      -0.00668991      -0.88758380      -0.13214272 </v>
   <v>       0.17593562       1.33255720      -0.10536773 </v>
   <v>       0.19852862      -2.36557753      -0.06320520 </v>
   <v>       0.26769182       0.47136683      -0.15489385 </v>
   <v>       0.15404935      -0.49726662       0.12400411 </v>
   <v>      -0.21379279       0.28492362      -0.00899371 </v>
   <v>      -0.23207580      -0.44511238       0.08293388 </v>
   <v>      -0.10750029       0.65744403       0.11282382 </v>
   <v>      -0.23746091      -0.53800791       0.23161007 </v>
   <v>      -0.14922027       1.06881888       0.07358557 </v>
   <v>      -0.14373091      -0.38052506       0.02243672 </v>
   <v>       0.11294196       0.39162189       0.10439080 </v>
   <v>       0.04354595      -0.23162420      -0.06338323 </v>
   <v>       0.21048764       0.41879376      -0.03449474 </v>
   <v>       0.19005362      -0.54046895      -0.06801082 </v>
   <v>      -0.14028415       0.58064325      -0.24324748 </v>
   <v>       0.01821577       0.19402587      -0.05610895 </v>
   <v>      -0.04964639       0.00980739      -0.04450451 </v>
   <v>       0.06388955       0.25367123       0.04298744 </v>
   <v>      -0.00742767      -0.12583072      -0.01454037 </v>
   <v>       0.02776751       0.17067804      -0.00016140 </v>
   <v>       0.03963689      -0.31559982       0.04597183 </v>
   <v>      -0.03830109      -0.02135435       0.04783078 </v>
   <v>       0.02447284      -0.28224057      -0.01289697 </v>
   <v>      -0.03662103       0.08873837       0.06054024 </v>
   <v>       0.01665799      -0.33856103      -0.02186944 </v>
   <v>      -0.00767273       0.08757900      -0.02158021 </v>
   <v>      -0.00425820      -0.16654866      -0.01027919 </v>
   <v>      -0.02982662       0.37920348       0.00199434 </v>
   <v>       0.00423268      -0.00991596      -0.03734178 </v>
   <v>       0.01248824       0.32094961       0.00816183 </v>
   <v>      -0.01715722      -0.27055225       0.01141130 </v>
   <v>       0.14917635       0.84254953       0.03414248 </v>
   <v>       0.71664792      -1.21616421      -0.10403824 </v>
   <v>       0.27816193       2.16003714      -0.18959931 </v>
   <v>       0.68557141      -1.41292119      -0.76078539 </v>
   <v>       0.54404292       1.45571860       0.55681669 </v>
   <v>      -0.22205735      -0.68378496      -0.32357860 </v>
   <v>      -0.38166629       0.96645477       0.28337298 </v>
   <v>       0.37419310      -0.97202548      -0.35530903 </v>
   <v>       0.19124732       0.64052030       0.63951642 </v>
   <v>       0.18315355      -1.49015558      -0.24062932 </v>
   <v>       0.13000282       0.74706373       0.14729088 </v>
   <v>      -0.00762388      -1.13867522      -0.04167000 </v>
   <v>       0.03267663       1.17269835       0.05942949 </v>
   <v>       0.03227674      -1.00761631      -0.31328909 </v>
   <v>       0.14999121       0.97966386       0.33868015 </v>
   <v>       0.24471350      -0.31003449       0.32578601 </v>
  </varray>
  <varray name="stress" >
   <v>       7.76960257      -1.43415451      -3.04846191 </v>
   <v>      -1.43415463     -42.50672138       5.24965307 </v>
   <v>      -3.04846190       5.24965286       3.49943585 </v>
  </varray>
  <energy>
   <i name="e_fr_energy">   -295.63565285 </i>
   <i name="e_wo_entrp">   -295.63565285 </i>
   <i name="e_0_energy">      0.00000000 </i>
  </energy>
  <time name="totalsc">  767.02  773.46</time>
 </calculation>
 <calculation>
  <scstep>
   <time name="dav">   38.96   39.77</time>
   <time name="total">   39.44   40.26</time>
   <energy>
    <i name="alphaZ">   1049.94018553 </i>
    <i name="ewald"> -30180.06811718 </i>
    <i name="hartreedc"> -12941.86277316 </i>
    <i name="XCdc">   1199.99673309 </i>
    <i name="pawpsdc">  43332.46821370 </i>
    <i name="pawaedc"> -42556.76290274 </i>
    <i name="eentropy">      0.00000000 </i>
    <i name="bandstr">  -3831.24338376 </i>
    <i name="atom">  43643.51795008 </i>
    <i name="e_fr_energy">   -284.01409443 </i>
    <i name="e_wo_entrp">   -284.01409443 </i>
    <i name="e_0_energy">   -284.01409443 </i>
   </energy>
  </scstep>
  <scstep>
   <time name="dav">   44.29   44.63</time>
   <time name="total">   44.78   45.14</time>
   <energy>
    <i name="e_fr_energy">   -284.20209467 </i>
    <i name="e_wo_entrp">   -284.20209467 </i>
    <i name="e_0_energy">   -284.20209467 </i>
   </energy>
  </scstep>
  <scstep>
   <time name="dav">   54.64   54.91</time>
   <time name="total">   55.13   55.45</time>
   <energy>
    <i name="e_fr_energy">   -284.19279211 </i>
    <i name="e_wo_entrp">   -284.19279211 </i>
    <i name="e_0_energy">   -284.19279211 </i>
   </energy>
  </scstep>
  <scstep>
   <time name="dav">   51.17   51.61</time>
   <time name="total">   51.66   52.12</time>
   <energy>
    <i name="e_fr_energy">   -284.18487738 </i>
    <i name="e_wo_entrp">   -284.18487738 </i>
    <i name="e_0_energy">   -284.18487738 </i>
   </energy>
  </scstep>
  <scstep>
   <time name="dav">   52.27   52.82</time>
   <time name="total">   52.78   53.37</time>
   <energy>
    <i name="e_fr_energy">   -284.18309910 </i>
    <i name="e_wo_entrp">   -284.18309910 </i>
    <i name="e_0_energy">   -284.18309910 </i>
   </energy>
  </scstep>
  <scstep>
   <time name="dav">   51.68   52.33</time>
   <time name="total">   52.17   52.89</time>
   <energy>
    <i name="e_fr_energy">   -284.18303047 </i>
    <i name="e_wo_entrp">   -284.18303047 </i>
    <i name="e_0_energy">   -284.18303047 </i>
   </energy>
  </scstep>
  <scstep>
   <time name="dav">   51.10   51.63</time>
   <time name="total">   51.58   52.13</time>
   <energy>
    <i name="e_fr_energy">   -284.18301771 </i>
    <i name="e_wo_entrp">   -284.18301771 </i>
    <i name="e_0_energy">   -284.18301771 </i>
   </energy>
  </scstep>
  <scstep>
   <time name="dav">   53.28   53.97</time>
   <time name="total">   53.76   54.47</time>
   <energy>
    <i name="e_fr_energy">   -284.18302901 </i>
[...]
       <r>    8.6379    0.0000 </r>
       <r>    8.6892    0.0000 </r>
       <r>    8.7890    0.0000 </r>
       <r>    8.8066    0.0000 </r>
       <r>    8.9573    0.0000 </r>
       <r>    9.0554    0.0000 </r>
       <r>    9.5796    0.0000 </r>
       <r>    9.8270    0.0000 </r>
       <r>    9.9946    0.0000 </r>
       <r>   10.2074    0.0000 </r>
       <r>   10.2506    0.0000 </r>
      </set>
     </set>
    </set>
   </array>
  </eigenvalues>
  <separator name="orbital magnetization" >
   <v name="MAGDIPOLOUT">      0.00000000      0.00000000      0.00000000</v>
  </separator>
  <dos>
   <i name="efermi">      4.16818658 </i>
   <total>
    <array>
     <dimension dim="1">gridpoints</dimension>
     <dimension dim="2">spin</dimension>
     <field>energy</field>
     <field>total</field>
     <field>integrated</field>
     <set>
      <set comment="spin 1">
       <r>   -42.3497     0.0000     0.0000 </r>
       <r>   -42.1661     0.0000     0.0000 </r>
       <r>   -41.9824     0.0000     0.0000 </r>
       <r>   -41.7987     0.0000     0.0000 </r>
       <r>   -41.6150     0.0000     0.0000 </r>
       <r>   -41.4313     0.0000     0.0000 </r>
       <r>   -41.2476     0.0000     0.0000 </r>
       <r>   -41.0640     0.0000     0.0000 </r>
       <r>   -40.8803     0.0000     0.0000 </r>
       <r>   -40.6966     0.0000     0.0000 </r>
       <r>   -40.5129     0.0000     0.0000 </r>
       <r>   -40.3292     0.0000     0.0000 </r>
       <r>   -40.1455     0.0000     0.0000 </r>
       <r>   -39.9619     0.0000     0.0000 </r>
       <r>   -39.7782     0.0000     2.0000 </r>
       <r>   -39.5945     0.0000     4.0000 </r>
       <r>   -39.4108     0.0000     4.0000 </r>
       <r>   -39.2271     0.0000     4.0000 </r>
       <r>   -39.0434     0.0000     6.0000 </r>
       <r>   -38.8598     0.0000     6.0000 </r>
       <r>   -38.6761     0.0000     8.0000 </r>
       <r>   -38.4924     0.0000     8.0000 </r>
       <r>   -38.3087     0.0000     8.0000 </r>
       <r>   -38.1250     0.0000     8.0000 </r>
       <r>   -37.9413     0.0000     8.0000 </r>
       <r>   -37.7577     0.0000     8.0000 </r>
       <r>   -37.5740     0.0000     8.0000 </r>
       <r>   -37.3903     0.0000     8.0000 </r>
       <r>   -37.2066     0.0000     8.0000 </r>
       <r>   -37.0229     0.0000     8.0000 </r>
       <r>   -36.8392     0.0000     8.0000 </r>
       <r>   -36.6555     0.0000     8.0000 </r>
       <r>   -36.4719     0.0000     8.0000 </r>
       <r>   -36.2882     0.0000     8.0000 </r>
       <r>   -36.1045     0.0000     8.0000 </r>
       <r>   -35.9208     0.0000     8.0000 </r>
       <r>   -35.7371     0.0000     8.0000 </r>
       <r>   -35.5534     0.0000     8.0000 </r>
       <r>   -35.3698     0.0000     8.0000 </r>
       <r>   -35.1861     0.0000     8.0000 </r>
       <r>   -35.0024     0.0000     8.0000 </r>
       <r>   -34.8187     0.0000     8.0000 </r>
       <r>   -34.6350     0.0000     8.0000 </r>
       <r>   -34.4513     0.0000     8.0000 </r>
       <r>   -34.2677     0.0000     8.0000 </r>
       <r>   -34.0840     0.0000     8.0000 </r>
       <r>   -33.9003     0.0000     8.0000 </r>
       <r>   -33.7166     0.0000     8.0000 </r>
       <r>   -33.5329     0.0000     8.0000 </r>
       <r>   -33.3492     0.0000     8.0000 </r>
       <r>   -33.1656     0.0000     8.0000 </r>
       <r>   -32.9819     0.0000     8.0000 </r>
       <r>   -32.7982     0.0000     8.0000 </r>
       <r>   -32.6145     0.0000     8.0000 </r>
       <r>   -32.4308     0.0000     8.0000 </r>
       <r>   -32.2471     0.0000     8.0000 </r>
       <r>   -32.0635     0.0000     8.0000 </r>
       <r>   -31.8798     0.0000     8.0000 </r>
       <r>   -31.6961     0.0000     8.0000 </r>
       <r>   -31.5124     0.0000     8.0000 </r>
       <r>   -31.3287     0.0000     8.0000 </r>
       <r>   -31.1450     0.0000     8.0000 </r>
       <r>   -30.9613     0.0000     8.0000 </r>
       <r>   -30.7777     0.0000     8.0000 </r>
       <r>   -30.5940     0.0000     8.0000 </r>
       <r>   -30.4103     0.0000     8.0000 </r>
       <r>   -30.2266     0.0000     8.0000 </r>
       <r>   -30.0429     0.0000     8.0000 </r>
       <r>   -29.8592     0.0000     8.0000 </r>
       <r>   -29.6756     0.0000     8.0000 </r>
       <r>   -29.4919     0.0000     8.0000 </r>
       <r>   -29.3082     0.0000     8.0000 </r>
       <r>   -29.1245     0.0000     8.0000 </r>
       <r>   -28.9408     0.0000     8.0000 </r>
       <r>   -28.7571     0.0000     8.0000 </r>
       <r>   -28.5735     0.0000     8.0000 </r>
       <r>   -28.3898     0.0000     8.0000 </r>
       <r>   -28.2061     0.0000     8.0000 </r>
       <r>   -28.0224     0.0000     8.0000 </r>
       <r>   -27.8387     0.0000     8.0000 </r>
       <r>   -27.6550     0.0000     8.0000 </r>
       <r>   -27.4714     0.0000     8.0000 </r>
       <r>   -27.2877     0.0000     8.0000 </r>
       <r>   -27.1040     0.0000     8.0000 </r>
       <r>   -26.9203     0.0000     8.0000 </r>
       <r>   -26.7366     0.0000     8.0000 </r>
       <r>   -26.5529     0.0000     8.0000 </r>
       <r>   -26.3693     0.0000     8.0000 </r>
       <r>   -26.1856     0.0000     8.0000 </r>
       <r>   -26.0019     0.0000     8.0000 </r>
       <r>   -25.8182     0.0000     8.0000 </r>
       <r>   -25.6345     0.0000     8.0000 </r>
       <r>   -25.4508     0.0000     8.0000 </r>
       <r>   -25.2671     0.0000     8.0000 </r>
       <r>   -25.0835     0.0000     8.0000 </r>
       <r>   -24.8998     0.0000     8.0000 </r>
       <r>   -24.7161     0.0000     8.0000 </r>
       <r>   -24.5324     0.0000     8.0000 </r>
       <r>   -24.3487     0.0000     8.0000 </r>
       <r>   -24.1650     0.0000     8.0000 </r>
       <r>   -23.9814     0.0000     8.0000 </r>
       <r>   -23.7977     0.0000     8.0000 </r>
       <r>   -23.6140     0.0000     8.0000 </r>
       <r>   -23.4303     0.0000     8.0000 </r>
       <r>   -23.2466     0.0000     8.0000 </r>
       <r>   -23.0629     0.0000     8.0000 </r>
       <r>   -22.8793     0.0000     8.0000 </r>
       <r>   -22.6956     0.0000     8.0000 </r>
       <r>   -22.5119     0.0000     8.0000 </r>
       <r>   -22.3282     0.0000     8.0000 </r>
       <r>   -22.1445     0.0000     8.0000 </r>
       <r>   -21.9608     0.0000     8.0000 </r>
       <r>   -21.7772     0.0000     8.0000 </r>
       <r>   -21.5935     0.0000     8.0000 </r>
       <r>   -21.4098     0.0000     8.0000 </r>
       <r>   -21.2261     0.0000     8.0000 </r>
       <r>   -21.0424     0.0000     8.0000 </r>
       <r>   -20.8587     0.0000     8.0000 </r>
       <r>   -20.6751     0.0000     8.0000 </r>
       <r>   -20.4914     0.0000     8.0000 </r>
       <r>   -20.3077     0.0000     8.0000 </r>
       <r>   -20.1240     0.0000     8.0000 </r>
       <r>   -19.9403     0.0000     8.0000 </r>
       <r>   -19.7566     0.0000     8.0000 </r>
       <r>   -19.5730     0.0000     8.0000 </r>
       <r>   -19.3893     0.0000     8.0000 </r>
       <r>   -19.2056     0.0000     8.0000 </r>
       <r>   -19.0219     0.0000    12.0000 </r>
       <r>   -18.8382     0.0000    30.0000 </r>
       <r>   -18.6545     0.0000    96.0000 </r>
       <r>   -18.4708     0.0000   140.0000 </r>
       <r>   -18.2872     0.0000   160.0000 </r>
       <r>   -18.1035     0.0000   168.0000 </r>
       <r>   -17.9198     0.0000   168.0000 </r>
       <r>   -17.7361     0.0000   168.0000 </r>
       <r>   -17.5524     0.0000   168.0000 </r>
       <r>   -17.3687     0.0000   168.0000 </r>
       <r>   -17.1851     0.0000   168.0000 </r>
       <r>   -17.0014     0.0000   168.0000 </r>
       <r>   -16.8177     0.0000   168.0000 </r>
       <r>   -16.6340     0.0000   168.0000 </r>
       <r>   -16.4503     0.0000   168.0000 </r>
       <r>   -16.2666     0.0000   168.0000 </r>
       <r>   -16.0830     0.0000   168.0000 </r>
       <r>   -15.8993     0.0000   168.0000 </r>
       <r>   -15.7156     0.0000   168.0000 </r>
       <r>   -15.5319     0.0000   168.0000 </r>
       <r>   -15.3482     0.0000   168.0000 </r>
       <r>   -15.1645     0.0000   168.0000 </r>
       <r>   -14.9809     0.0000   168.0000 </r>
       <r>   -14.7972     0.0000   168.0000 </r>
       <r>   -14.6135     0.0000   168.0000 </r>
       <r>   -14.4298     0.0000   168.0000 </r>
       <r>   -14.2461     0.0000   168.0000 </r>
       <r>   -14.0624     0.0000   168.0000 </r>
       <r>   -13.8788     0.0000   168.0000 </r>
       <r>   -13.6951     0.0000   168.0000 </r>
       <r>   -13.5114     0.0000   170.0000 </r>
       <r>   -13.3277     0.0000   172.0000 </r>
       <r>   -13.1440     0.0000   176.0000 </r>
       <r>   -12.9603     0.0000   180.0000 </r>
       <r>   -12.7766     0.0000   186.0000 </r>
       <r>   -12.5930     0.0000   190.0000 </r>
       <r>   -12.4093     0.0000   196.0000 </r>
       <r>   -12.2256     0.0000   198.0000 </r>
       <r>   -12.0419     0.0000   200.0000 </r>
       <r>   -11.8582     0.0000   200.0000 </r>
       <r>   -11.6745     0.0000   200.0000 </r>
       <r>   -11.4909     0.0000   200.0000 </r>
       <r>   -11.3072     0.0000   200.0000 </r>
       <r>   -11.1235     0.0000   200.0000 </r>
       <r>   -10.9398     0.0000   200.0000 </r>
       <r>   -10.7561     0.0000   200.0000 </r>
       <r>   -10.5724     0.0000   200.0000 </r>
       <r>   -10.3888     0.0000   200.0000 </r>
       <r>   -10.2051     0.0000   200.0000 </r>
       <r>   -10.0214     0.0000   200.0000 </r>
       <r>    -9.8377     0.0000   200.0000 </r>
       <r>    -9.6540     0.0000   200.0000 </r>
       <r>    -9.4703     4.5199   200.0609 </r>
       <r>    -9.2867     2.8840   201.9748 </r>
       <r>    -9.1030    10.9025   202.9772 </r>
       <r>    -8.9193     0.0000   204.0000 </r>
       <r>    -8.7356    21.4746   206.3397 </r>
       <r>    -8.5519    28.9065   209.9882 </r>
       <r>    -8.3682    15.0253   213.0504 </r>
       <r>    -8.1846     0.0000   216.0000 </r>
       <r>    -8.0009    35.9721   221.1009 </r>
       <r>    -7.8172    14.7238   226.5145 </r>
       <r>    -7.6335    25.1928   228.5730 </r>
       <r>    -7.4498     4.0105   231.9368 </r>
       <r>    -7.2661     0.0000   232.0000 </r>
       <r>    -7.0824     0.0000   232.0000 </r>
       <r>    -6.8988     0.0000   232.0000 </r>
       <r>    -6.7151     0.0000   232.0000 </r>
       <r>    -6.5314     0.0000   232.0000 </r>
       <r>    -6.3477    13.6945   232.6667 </r>
       <r>    -6.1640    15.8924   236.6575 </r>
       <r>    -5.9803    11.6760   239.4493 </r>
       <r>    -5.7967    24.6307   242.1398 </r>
       <r>    -5.6130    24.6090   246.8164 </r>
       <r>    -5.4293    21.4907   250.6166 </r>
       <r>    -5.2456     7.4796   253.4485 </r>
       <r>    -5.0619     6.8807   255.7706 </r>
       <r>    -4.8782    15.2583   257.4477 </r>
       <r>    -4.6946     7.0427   259.3726 </r>
       <r>    -4.5109     5.3556   260.6788 </r>
       <r>    -4.3272    10.3390   262.0982 </r>
       <r>    -4.1435     3.4349   263.4123 </r>
       <r>    -3.9598     1.5764   263.8692 </r>
       <r>    -3.7761     0.0382   263.9996 </r>
       <r>    -3.5925     0.0000   264.0000 </r>
       <r>    -3.4088     0.0000   264.0000 </r>
       <r>    -3.2251     0.0000   264.0000 </r>
       <r>    -3.0414     0.0000   264.0000 </r>
       <r>    -2.8577     0.0000   264.0000 </r>
       <r>    -2.6740     0.0000   264.0000 </r>
       <r>    -2.4904     0.0000   264.0000 </r>
       <r>    -2.3067     0.0000   264.0000 </r>
       <r>    -2.1230     0.0000   264.0000 </r>
       <r>    -1.9393     0.0000   264.0000 </r>
       <r>    -1.7556     0.0000   264.0000 </r>
       <r>    -1.5719     0.0000   264.0000 </r>
       <r>    -1.3882     0.1641   264.0008 </r>
       <r>    -1.2046     6.8981   264.8828 </r>
       <r>    -1.0209     8.2591   266.2429 </r>
       <r>    -0.8372    15.1291   268.2721 </r>
       <r>    -0.6535    12.5317   270.8867 </r>
       <r>    -0.4698    18.5968   274.8124 </r>
       <r>    -0.2861    33.7380   279.6126 </r>
       <r>    -0.1025    32.1540   285.6789 </r>
       <r>     0.0812    34.3782   291.8935 </r>
       <r>     0.2649    36.4564   298.5575 </r>
       <r>     0.4486    45.0953   305.5253 </r>
       <r>     0.6323    40.5248   312.3496 </r>
       <r>     0.8160    62.3050   319.4878 </r>
       <r>     0.9996    47.3787   327.1349 </r>
       <r>     1.1833    44.8907   335.0145 </r>
       <r>     1.3670    57.5067   343.4928 </r>
       <r>     1.5507    44.4681   351.7768 </r>
       <r>     1.7344    46.2135   360.6152 </r>
       <r>     1.9181    45.9771   368.7365 </r>
       <r>     2.1017    43.6192   376.7227 </r>
       <r>     2.2854    56.7876   385.2818 </r>
       <r>     2.4691    56.3988   395.1339 </r>
       <r>     2.6528    61.5546   406.1327 </r>
       <r>     2.8365    41.6744   415.9970 </r>
       <r>     3.0202    48.8527   426.2811 </r>
       <r>     3.2038    44.7744   435.2658 </r>
       <r>     3.3875    41.4697   442.3893 </r>
       <r>     3.5712    18.5148   449.3421 </r>
       <r>     3.7549    18.2791   453.5756 </r>
       <r>     3.9386     5.1299   455.6924 </r>
       <r>     4.1223     0.0000   456.0000 </r>
       <r>     4.3059     0.0000   456.0000 </r>
       <r>     4.4896     0.0000   456.0000 </r>
       <r>     4.6733     0.0000   456.0000 </r>
       <r>     4.8570     0.0000   456.0000 </r>
       <r>     5.0407     0.0000   456.0000 </r>
       <r>     5.2244     2.2464   456.1143 </r>
       <r>     5.4081     8.9084   457.1905 </r>
       <r>     5.5917    11.2085   459.0936 </r>
       <r>     5.7754    20.3350   461.9440 </r>
       <r>     5.9591    14.9090   465.3824 </r>
       <r>     6.1428    16.9810   468.4169 </r>
       <r>     6.3265    16.3448   471.3683 </r>
       <r>     6.5102    17.1576   474.4236 </r>
       <r>     6.6938    19.8736   477.8135 </r>
       <r>     6.8775    22.2627   481.7466 </r>
       <r>     7.0612    22.0170   485.8829 </r>
       <r>     7.2449    29.4303   490.0610 </r>
       <r>     7.4286    29.8388   495.8347 </r>
       <r>     7.6123    36.4642   501.6183 </r>
       <r>     7.7959    31.4681   507.3859 </r>
       <r>     7.9796    28.4551   512.6861 </r>
       <r>     8.1633    28.4119   518.0660 </r>
       <r>     8.3470    29.8765   523.0287 </r>
       <r>     8.5307    35.0334   528.9890 </r>
       <r>     8.7144    29.2145   535.0183 </r>
       <r>     8.8980    24.0194   539.9012 </r>
       <r>     9.0817    23.5725   544.2304 </r>
       <r>     9.2654    17.1478   547.9808 </r>
       <r>     9.4491    15.3772   550.4384 </r>
       <r>     9.6328     7.8768   552.8835 </r>
       <r>     9.8165     9.3315   554.8420 </r>
       <r>    10.0001    16.0582   556.6855 </r>
       <r>    10.1838    12.9048   559.6900 </r>
       <r>    10.3675     0.0000   560.0000 </r>
       <r>    10.5512     0.0000   560.0000 </r>
       <r>    10.7349     0.0000   560.0000 </r>
       <r>    10.9186     0.0000   560.0000 </r>
       <r>    11.1023     0.0000   560.0000 </r>
       <r>    11.2859     0.0000   560.0000 </r>
       <r>    11.4696     0.0000   560.0000 </r>
       <r>    11.6533     0.0000   560.0000 </r>
       <r>    11.8370     0.0000   560.0000 </r>
       <r>    12.0207     0.0000   560.0000 </r>
       <r>    12.2044     0.0000   560.0000 </r>
       <r>    12.3880     0.0000   560.0000 </r>
       <r>    12.5717     0.0000   560.0000 </r>
       <r>    12.7554     0.0000   560.0000 </r>
      </set>
     </set>
    </array>
   </total>
  </dos>
 </calculation>
 <structure name="finalpos" >
  <crystal>
   <varray name="basis" >
    <v>      11.18647505      -0.25669618      -0.03253714 </v>
    <v>      -0.21696397       9.57170756       0.18980203 </v>
    <v>      -0.03253906       0.22978012      11.20490437 </v>
   </varray>
   <i name="volume">   1198.63136544 </i>
   <varray name="rec_basis" >
    <v>       0.08944072       0.00202304       0.00021825 </v>
    <v>       0.00239338       0.10457120      -0.00213750 </v>
    <v>       0.00021918      -0.00176548       0.08928348 </v>
   </varray>
  </crystal>
  <varray name="positions" >
   <v>       0.41311663      -0.02740286       0.15850183 </v>
   <v>       0.32532987      -0.03547000       0.89175321 </v>
   <v>       0.60794483       0.00355514       0.92361142 </v>
   <v>       0.41999295      -0.02769664       0.64813957 </v>
   <v>       0.61946983      -0.00958228       0.43861759 </v>
   <v>       0.89375233       0.04482155       0.42182677 </v>
   <v>       0.67221402       0.00537939       0.17656249 </v>
   <v>       0.11300023       0.01545364       0.68505790 </v>
   <v>       0.88557426      -0.00740386       0.94261368 </v>
   <v>       0.84248898       0.01228549       0.68186710 </v>
   <v>       0.00766872       0.30969430       0.07326990 </v>
   <v>       0.25519505       0.68524789       0.06755455 </v>
   <v>       0.25504073       0.18025829       0.32144205 </v>
   <v>       0.50351089       0.68190880       0.31138540 </v>
   <v>       0.50463940       0.29915159       0.06874737 </v>
   <v>       0.75358970       0.68561944       0.06198584 </v>
   <v>       0.74514400       0.33006411       0.31906082 </v>
   <v>       0.01555433       0.73956960       0.30997868 </v>
   <v>       0.00815514       0.33886034       0.56681807 </v>
   <v>       0.25081107       0.71780235       0.56532847 </v>
   <v>       0.24674392       0.29727226       0.82612311 </v>
   <v>       0.49277095       0.70286136       0.81808372 </v>
   <v>       0.50030895       0.29806516       0.56415774 </v>
   <v>       0.75397886       0.69569394       0.55665433 </v>
   <v>       0.75171163       0.31304643       0.82186011 </v>
   <v>      -0.00321266       0.69572165       0.81297419 </v>
   <v>       0.25120229       0.29623769       0.08965655 </v>
   <v>       0.00238115       0.73709303       0.05031908 </v>
   <v>       0.48194703       0.34540727       0.32687281 </v>
   <v>       0.25297808       0.65716263       0.31531107 </v>
   <v>       0.75094578       0.36040036       0.07470028 </v>
   <v>       0.50729156       0.63188073       0.06287840 </v>
   <v>       0.98272491       0.30868560       0.33083334 </v>
   <v>       0.76362102       0.64763761       0.31534078 </v>
   <v>       0.24433802       0.32651957       0.57983106 </v>
   <v>       0.00366316       0.66323277       0.55785984 </v>
   <v>       0.49731442       0.32388214       0.82593132 </v>
   <v>       0.25381373       0.64133006       0.80999075 </v>
   <v>       0.74400912       0.36640581       0.57618153 </v>
   <v>       0.50941873       0.72284591       0.55661838 </v>
   <v>      -0.00511946       0.37473624       0.82334657 </v>
   <v>       0.75426498       0.65750850       0.81128221 </v>
   <v>       0.54525032       0.08721717       0.07528705 </v>
   <v>       0.30867308       0.88616930       0.04602673 </v>
   <v>       0.33558757       0.00676713       0.30028751 </v>
   <v>       0.01003034       0.94394151       0.34009267 </v>
   <v>       0.96902008       0.10801642       0.05250776 </v>
   <v>       0.74406510       0.90784244       0.04096909 </v>
   <v>       0.74062610       0.09971501       0.32687088 </v>
   <v>       0.56805986       0.89132450       0.29017717 </v>
   <v>       0.52418034       0.08855694       0.55171512 </v>
   <v>       0.24537669       0.92441451       0.60345715 </v>
   <v>       0.21534970       0.08617633       0.81395062 </v>
   <v>      -0.03118542       0.92069374       0.78556889 </v>
   <v>       0.97533747       0.10975345       0.58484166 </v>
   <v>       0.77092591       0.92596341       0.53568920 </v>
   <v>       0.76842869       0.09179064       0.82377115 </v>
   <v>       0.48098504       0.91596453       0.81671749 </v>
  </varray>
 </structure>
</modeling>
