<?xml version="1.0" encoding="ISO-8859-1"?>
<modeling>
 <generator>
  <i name="program" type="string">vasp </i>
  <i name="version" type="string">5.4.4.18Apr17-6-g9f103f2a35  </i>
  <i name="subversion" type="string">(build Jul 31 2017 11:33:29) complex            parallel </i>
  <i name="platform" type="string">LinuxIFC </i>
  <i name="date" type="string">2021 09 29 </i>
  <i name="time" type="string">16:46:31 </i>
 </generator>
 <incar>
  <i type="string" name="SYSTEM"> La2O2S</i>
  <i type="string" name="PREC">normal</i>
  <i type="int" name="NELMIN">     4</i>
  <i type="int" name="IBRION">     2</i>
  <i type="int" name="NFREE">    10</i>
  <i name="EDIFF">      0.00000100</i>
  <i name="EDIFFG">     -0.01000000</i>
  <i type="int" name="NSW">     1</i>
  <i type="int" name="ISIF">     2</i>
  <i name="ENCUT">    600.00000000</i>
  <i name="ENAUG">    900.00000000</i>
  <i type="int" name="ISMEAR">    -5</i>
  <i type="logical" name="LWAVE"> F  </i>
  <i type="logical" name="LCHARG"> F  </i>
  <v type="int" name="KPOINT_BSE">    -1     0     0     0</v>
 </incar>
 <structure name="primitive_cell" >
  <crystal>
   <varray name="basis" >
    <v>      11.17850000       0.00000000       0.00000000 </v>
    <v>       0.00000000       9.57460000       0.00000000 </v>
    <v>       0.00000000       0.00000000      11.18240000 </v>
   </varray>
   <i name="volume">   1196.84853820 </i>
   <varray name="rec_basis" >
    <v>       0.08945744       0.00000000       0.00000000 </v>
    <v>       0.00000000       0.10444301       0.00000000 </v>
    <v>       0.00000000       0.00000000       0.08942624 </v>
   </varray>
  </crystal>
  <varray name="positions" >
   <v>       0.37539000       0.00017000       0.43687000 </v>
   <v>      -0.49987000      -0.07798000       0.31246000 </v>
   <v>       0.25013000       0.07798000       0.31246000 </v>
   <v>       0.49987000       0.07798000      -0.43754000 </v>
   <v>       0.24987000      -0.07798000      -0.43754000 </v>
   <v>      -0.37461000      -0.00016000       0.43687000 </v>
   <v>       0.37461000       0.00017000       0.18687000 </v>
   <v>       0.49987000      -0.29519000       0.31282000 </v>
   <v>       0.24987000       0.29519000       0.31282000 </v>
   <v>      -0.49987000       0.29519000      -0.43719000 </v>
   <v>       0.25013000      -0.29519000      -0.43719000 </v>
   <v>       0.49995000       0.32677000       0.31286000 </v>
   <v>       0.24995000      -0.32677000       0.31286000 </v>
   <v>      -0.49995000      -0.32677000      -0.43714000 </v>
   <v>       0.25005000       0.32677000      -0.43714000 </v>
   <v>      -0.37539000      -0.00016000       0.18687000 </v>
   <v>      -0.37539000      -0.00016000      -0.31313000 </v>
   <v>       0.12461000      -0.00016000       0.18687000 </v>
   <v>       0.12461000      -0.00016000      -0.31313000 </v>
   <v>       0.49987000       0.07798000       0.06246000 </v>
   <v>      -0.24987000       0.07798000       0.31246000 </v>
   <v>      -0.25013000      -0.07798000      -0.43754000 </v>
   <v>       0.24987000      -0.07798000       0.06246000 </v>
   <v>       0.00013000      -0.07798000       0.31246000 </v>
   <v>      -0.49987000      -0.07798000      -0.18754000 </v>
   <v>      -0.00013000       0.07798000      -0.43754000 </v>
   <v>       0.25013000       0.07798000      -0.18754000 </v>
   <v>      -0.49987000       0.29519000       0.06281000 </v>
   <v>      -0.25013000       0.29519000       0.31282000 </v>
   <v>       0.25013000      -0.29519000       0.06281000 </v>
   <v>      -0.24987000      -0.29519000      -0.43719000 </v>
   <v>      -0.00013000      -0.29519000       0.31282000 </v>
   <v>       0.00013000       0.29519000      -0.43719000 </v>
   <v>       0.49987000      -0.29519000      -0.18718000 </v>
   <v>       0.24987000       0.29519000      -0.18718000 </v>
   <v>      -0.49995000      -0.32677000       0.06286000 </v>
   <v>       0.25005000       0.32677000       0.06286000 </v>
   <v>      -0.25005000      -0.32677000       0.31286000 </v>
   <v>      -0.24995000       0.32677000      -0.43714000 </v>
   <v>      -0.00005000       0.32677000       0.31286000 </v>
   <v>       0.00005000      -0.32677000      -0.43714000 </v>
   <v>       0.49995000       0.32677000      -0.18714000 </v>
   <v>       0.24995000      -0.32677000      -0.18714000 </v>
   <v>      -0.12461000       0.00017000       0.43687000 </v>
   <v>       0.37539000       0.00017000      -0.06313000 </v>
   <v>      -0.25013000      -0.07798000       0.06246000 </v>
   <v>      -0.00013000       0.07798000       0.06246000 </v>
   <v>      -0.24987000       0.07798000      -0.18754000 </v>
   <v>       0.00013000      -0.07798000      -0.18754000 </v>
   <v>      -0.37461000      -0.00016000      -0.06313000 </v>
   <v>      -0.24987000      -0.29519000       0.06281000 </v>
   <v>       0.00013000       0.29519000       0.06281000 </v>
   <v>      -0.25013000       0.29519000      -0.18718000 </v>
   <v>      -0.00013000      -0.29519000      -0.18718000 </v>
   <v>      -0.24995000       0.32677000       0.06286000 </v>
   <v>       0.00005000      -0.32677000       0.06286000 </v>
   <v>      -0.25005000      -0.32677000      -0.18714000 </v>
   <v>      -0.00005000       0.32677000      -0.18714000 </v>
   <v>      -0.12461000       0.00017000      -0.06313000 </v>
  </varray>
 </structure>
 <varray name="primitive_index" >
  <v type="int" >        1 </v>
  <v type="int" >       51 </v>
  <v type="int" >       46 </v>
  <v type="int" >       52 </v>
  <v type="int" >       53 </v>
  <v type="int" >        3 </v>
  <v type="int" >        2 </v>
  <v type="int" >       15 </v>
  <v type="int" >       14 </v>
  <v type="int" >       24 </v>
  <v type="int" >       21 </v>
  <v type="int" >       30 </v>
  <v type="int" >       31 </v>
  <v type="int" >       41 </v>
  <v type="int" >       36 </v>
  <v type="int" >        5 </v>
  <v type="int" >       11 </v>
  <v type="int" >        7 </v>
  <v type="int" >        9 </v>
  <v type="int" >       44 </v>
  <v type="int" >       50 </v>
  <v type="int" >       57 </v>
  <v type="int" >       45 </v>
  <v type="int" >       47 </v>
  <v type="int" >       59 </v>
  <v type="int" >       56 </v>
  <v type="int" >       54 </v>
  <v type="int" >       16 </v>
  <v type="int" >       18 </v>
  <v type="int" >       13 </v>
  <v type="int" >       25 </v>
  <v type="int" >       19 </v>
  <v type="int" >       20 </v>
  <v type="int" >       23 </v>
  <v type="int" >       22 </v>
  <v type="int" >       33 </v>
  <v type="int" >       28 </v>
  <v type="int" >       35 </v>
  <v type="int" >       40 </v>
  <v type="int" >       34 </v>
  <v type="int" >       37 </v>
  <v type="int" >       38 </v>
  <v type="int" >       39 </v>
  <v type="int" >        4 </v>
  <v type="int" >        8 </v>
  <v type="int" >       49 </v>
  <v type="int" >       48 </v>
  <v type="int" >       58 </v>
  <v type="int" >       55 </v>
  <v type="int" >        6 </v>
  <v type="int" >       17 </v>
  <v type="int" >       12 </v>
  <v type="int" >       26 </v>
  <v type="int" >       27 </v>
  <v type="int" >       32 </v>
  <v type="int" >       29 </v>
  <v type="int" >       43 </v>
  <v type="int" >       42 </v>
  <v type="int" >       10 </v>
 </varray>
 <kpoints>
  <generation param="Gamma">
   <v type="int" name="divisions">       2        2        2 </v>
   <v name="usershift">      0.00000000       0.00000000       0.00000000 </v>
   <v name="genvec1">      0.50000000       0.00000000       0.00000000 </v>
   <v name="genvec2">      0.00000000       0.50000000       0.00000000 </v>
   <v name="genvec3">      0.00000000       0.00000000       0.50000000 </v>
   <v name="shift">      0.00000000       0.00000000       0.00000000 </v>
  </generation>
  <varray name="kpointlist" >
   <v>       0.00000000       0.00000000       0.00000000 </v>
   <v>       0.50000000       0.00000000       0.00000000 </v>
   <v>       0.00000000       0.50000000       0.00000000 </v>
   <v>       0.50000000       0.50000000       0.00000000 </v>
   <v>       0.00000000       0.00000000       0.50000000 </v>
   <v>       0.50000000       0.00000000       0.50000000 </v>
   <v>       0.00000000       0.50000000       0.50000000 </v>
   <v>       0.50000000       0.50000000       0.50000000 </v>
  </varray>
  <varray name="weights" >
   <v>       0.12500000 </v>
   <v>       0.12500000 </v>
   <v>       0.12500000 </v>
   <v>       0.12500000 </v>
   <v>       0.12500000 </v>
   <v>       0.12500000 </v>
   <v>       0.12500000 </v>
   <v>       0.12500000 </v>
  </varray>
  <varray name="tetrahedronlist"  type="int" >
   <v type="int" >        2        1        2        4        5 </v>
   <v type="int" >        2        1        3        4        5 </v>
   <v type="int" >        2        3        4        5        7 </v>
   <v type="int" >        2        2        4        5        6 </v>
   <v type="int" >        2        4        5        6        8 </v>
   <v type="int" >        2        4        5        7        8 </v>
   <v type="int" >        2        1        2        3        6 </v>
   <v type="int" >        2        2        3        4        6 </v>
   <v type="int" >        2        3        4        6        8 </v>
   <v type="int" >        2        1        3        5        6 </v>
   <v type="int" >        2        3        5        6        7 </v>
   <v type="int" >        2        3        6        7        8 </v>
   <v type="int" >        2        2        3        4        7 </v>
   <v type="int" >        2        1        2        3        7 </v>
   <v type="int" >        2        1        2        5        7 </v>
   <v type="int" >        2        2        4        7        8 </v>
   <v type="int" >        2        2        6        7        8 </v>
   <v type="int" >        2        2        5        6        7 </v>
   <v type="int" >        2        1        3        4        8 </v>
   <v type="int" >        2        1        2        4        8 </v>
   <v type="int" >        2        1        2        6        8 </v>
   <v type="int" >        2        1        3        7        8 </v>
   <v type="int" >        2        1        5        7        8 </v>
   <v type="int" >        2        1        5        6        8 </v>
  </varray>
  <i name="volumeweight">      0.02083333 </i>
 </kpoints>
 <parameters>
  <separator name="general" >
   <i type="string" name="SYSTEM">La2O2S</i>
   <i type="logical" name="LCOMPAT"> F  </i>
  </separator>
  <separator name="electronic" >
   <i type="string" name="PREC">normal</i>
   <i name="ENMAX">    600.00000000</i>
   <i name="ENAUG">    900.00000000</i>
   <i name="EDIFF">      0.00000100</i>
   <i type="int" name="IALGO">    38</i>
   <i type="int" name="IWAVPR">    11</i>
   <i type="int" name="NBANDS">   280</i>
   <i name="NELECT">    460.00000000</i>
   <i type="int" name="TURBO">     0</i>
   <i type="int" name="IRESTART">     0</i>
   <i type="int" name="NREBOOT">     0</i>
   <i type="int" name="NMIN">     0</i>
   <i name="EREF">      0.00000000</i>
   <separator name="electronic smearing" >
    <i type="int" name="ISMEAR">    -5</i>
    <i name="SIGMA">      0.20000000</i>
    <i name="KSPACING">      0.50000000</i>
    <i type="logical" name="KGAMMA"> T  </i>
   </separator>
   <separator name="electronic projectors" >
    <i type="logical" name="LREAL"> F  </i>
    <v name="ROPT">      0.00000000      0.00000000      0.00000000      0.00000000      0.00000000</v>
    <i type="int" name="LMAXPAW">  -100</i>
    <i type="int" name="LMAXMIX">     2</i>
    <i type="logical" name="NLSPLINE"> F  </i>
   </separator>
   <separator name="electronic startup" >
    <i type="int" name="ISTART">     0</i>
    <i type="int" name="ICHARG">     2</i>
    <i type="int" name="INIWAV">     1</i>
   </separator>
   <separator name="electronic spin" >
    <i type="int" name="ISPIN">     1</i>
    <i type="logical" name="LNONCOLLINEAR"> F  </i>
    <v name="MAGMOM">      1.00000000      1.00000000      1.00000000      1.00000000      1.00000000      1.00000000      1.00000000      1.00000000      1.00000000      1.00000000      1.00000000      1.00000000      1.00000000      1.00000000      1.00000000      1.00000000      1.00000000      1.00000000      1.00000000      1.00000000
      1.00000000      1.00000000      1.00000000      1.00000000      1.00000000      1.00000000      1.00000000      1.00000000      1.00000000      1.00000000      1.00000000      1.00000000      1.00000000      1.00000000      1.00000000      1.00000000      1.00000000      1.00000000      1.00000000      1.00000000
      1.00000000      1.00000000      1.00000000      1.00000000      1.00000000      1.00000000      1.00000000      1.00000000      1.00000000      1.00000000      1.00000000      1.00000000      1.00000000      1.00000000      1.00000000      1.00000000      1.00000000      1.00000000      1.00000000</v>
    <i name="NUPDOWN">     -1.00000000</i>
    <i type="logical" name="LSORBIT"> F  </i>
    <v name="SAXIS">      0.00000000      0.00000000      1.00000000</v>
    <i type="logical" name="LSPIRAL"> F  </i>
    <v name="QSPIRAL">      0.00000000      0.00000000      0.00000000</v>
    <i type="logical" name="LZEROZ"> F  </i>
   </separator>
   <separator name="electronic exchange-correlation" >
    <i type="logical" name="LASPH"> F  </i>
    <i type="logical" name="LMETAGGA"> F  </i>
   </separator>
   <separator name="electronic convergence" >
    <i type="int" name="NELM">    60</i>
    <i type="int" name="NELMDL">    -5</i>
    <i type="int" name="NELMIN">     4</i>
    <i name="ENINI">    600.00000000</i>
    <separator name="electronic convergence detail" >
     <i type="logical" name="LDIAG"> T  </i>
     <i type="logical" name="LSUBROT"> F  </i>
     <i name="WEIMIN">      0.00100000</i>
     <i name="EBREAK">      0.00000000</i>
     <i name="DEPER">      0.30000000</i>
     <i type="int" name="NRMM">     4</i>
     <i name="TIME">      0.40000000</i>
    </separator>
   </separator>
   <separator name="electronic mixer" >
    <i name="AMIX">      0.40000000</i>
    <i name="BMIX">      1.00000000</i>
    <i name="AMIN">      0.10000000</i>
    <i name="AMIX_MAG">      1.60000000</i>
    <i name="BMIX_MAG">      1.00000000</i>
    <separator name="electronic mixer details" >
     <i type="int" name="IMIX">     4</i>
     <i type="logical" name="MIXFIRST"> F  </i>
     <i type="int" name="MAXMIX">   -45</i>
     <i name="WC">    100.00000000</i>
     <i type="int" name="INIMIX">     1</i>
     <i type="int" name="MIXPRE">     1</i>
     <i type="int" name="MREMOVE">     5</i>
    </separator>
   </separator>
   <separator name="electronic dipolcorrection" >
    <i type="logical" name="LDIPOL"> F  </i>
    <i type="logical" name="LMONO"> F  </i>
    <i type="int" name="IDIPOL">     0</i>
    <i name="EPSILON">      1.00000000</i>
    <v name="DIPOL">   -100.00000000   -100.00000000   -100.00000000</v>
    <i name="EFIELD">      0.00000000</i>
   </separator>
  </separator>
  <separator name="grids" >
   <i type="int" name="NGX">    70</i>
   <i type="int" name="NGY">    60</i>
   <i type="int" name="NGZ">    70</i>
   <i type="int" name="NGXF">   140</i>
   <i type="int" name="NGYF">   120</i>
   <i type="int" name="NGZF">   140</i>
   <i type="logical" name="ADDGRID"> F  </i>
  </separator>
  <separator name="ionic" >
   <i type="int" name="NSW">     1</i>
   <i type="int" name="IBRION">     2</i>
   <i type="int" name="MDALGO">     0</i>
   <i type="int" name="ISIF">     2</i>
   <i name="PSTRESS">      0.00000000</i>
   <i name="EDIFFG">     -0.01000000</i>
   <i type="int" name="NFREE">    10</i>
   <i name="POTIM">      0.50000000</i>
   <i name="SMASS">     -3.00000000</i>
   <i name="SCALEE">      1.00000000</i>
  </separator>
  <separator name="ionic md" >
   <i name="TEBEG">      0.00010000</i>
   <i name="TEEND">      0.00010000</i>
   <i type="int" name="NBLOCK">     1</i>
   <i type="int" name="KBLOCK">     1</i>
   <i type="int" name="NPACO">   256</i>
   <i name="APACO">     16.00000000</i>
  </separator>
  <separator name="symmetry" >
   <i type="int" name="ISYM">     2</i>
   <i name="SYMPREC">      0.00001000</i>
  </separator>
  <separator name="dos" >
   <i type="int" name="LORBIT">     0</i>
   <v name="RWIGS">     -1.00000000     -1.00000000     -1.00000000     -1.00000000     -1.00000000</v>
   <i type="int" name="NEDOS">   301</i>
   <i name="EMIN">     10.00000000</i>
   <i name="EMAX">    -10.00000000</i>
   <i name="EFERMI">      0.00000000</i>
  </separator>
  <separator name="writing" >
   <i type="int" name="NWRITE">     2</i>
   <i type="logical" name="LWAVE"> F  </i>
   <i type="logical" name="LDOWNSAMPLE"> F  </i>
   <i type="logical" name="LCHARG"> F  </i>
   <i type="logical" name="LPARD"> F  </i>
   <i type="logical" name="LVTOT"> F  </i>
   <i type="logical" name="LVHAR"> F  </i>
   <i type="logical" name="LELF"> F  </i>
   <i type="logical" name="LOPTICS"> F  </i>
   <v name="STM">      0.00000000      0.00000000      0.00000000      0.00000000      0.00000000      0.00000000      0.00000000</v>
  </separator>
  <separator name="performance" >
   <i type="int" name="NPAR">    28</i>
   <i type="int" name="NSIM">     4</i>
   <i type="int" name="NBLK">    -1</i>
   <i type="logical" name="LPLANE"> T  </i>
   <i type="logical" name="LSCALAPACK"> T  </i>
   <i type="logical" name="LSCAAWARE"> F  </i>
   <i type="logical" name="LSCALU"> F  </i>
   <i type="logical" name="LASYNC"> F  </i>
   <i type="logical" name="LORBITALREAL"> F  </i>
  </separator>
  <separator name="miscellaneous" >
   <i type="int" name="IDIOT">     3</i>
   <i type="int" name="ISPECIAL">     0</i>
   <i type="logical" name="LMUSIC"> F  </i>
   <v name="POMASS">      7.01000000     24.30500000    208.98000000     32.06600000     16.00000000</v>
   <v name="DARWINR">      0.00000000      0.00000000      0.00000000      0.00000000      0.00000000</v>
   <v name="DARWINV">      1.00000000      1.00000000      1.00000000      1.00000000      1.00000000</v>
   <i type="logical" name="LCORR"> T  </i>
  </separator>
  <i type="logical" name="GGA_COMPAT"> T  </i>
  <i type="logical" name="LBERRY"> F  </i>
  <i type="int" name="ICORELEVEL">     0</i>
  <i type="logical" name="LDAU"> F  </i>
  <i type="int" name="I_CONSTRAINED_M">     0</i>
  <separator name="electronic exchange-correlation" >
   <i type="string" name="GGA">--</i>
   <i type="int" name="VOSKOWN">     0</i>
   <i type="logical" name="LHFCALC"> F  </i>
   <i type="string" name="PRECFOCK"></i>
   <i type="logical" name="LSYMGRAD"> F  </i>
   <i type="logical" name="LHFONE"> F  </i>
   <i type="logical" name="LRHFCALC"> F  </i>
   <i type="logical" name="LTHOMAS"> F  </i>
   <i type="logical" name="LMODELHF"> F  </i>
   <i name="ENCUT4O">     -1.00000000</i>
   <i type="int" name="EXXOEP">     0</i>
   <i type="int" name="FOURORBIT">     0</i>
   <i name="AEXX">      0.00000000</i>
   <i name="HFALPHA">      0.00000000</i>
   <i name="MCALPHA">      0.00000000</i>
   <i name="ALDAX">      1.00000000</i>
   <i name="AGGAX">      1.00000000</i>
   <i name="ALDAC">      1.00000000</i>
   <i name="AGGAC">      1.00000000</i>
   <i type="int" name="NKREDX">     1</i>
   <i type="int" name="NKREDY">     1</i>
   <i type="int" name="NKREDZ">     1</i>
   <i type="logical" name="SHIFTRED"> F  </i>
   <i type="logical" name="ODDONLY"> F  </i>
   <i type="logical" name="EVENONLY"> F  </i>
   <i type="int" name="LMAXFOCK">     0</i>
   <i type="int" name="NMAXFOCKAE">     0</i>
   <i type="logical" name="LFOCKAEDFT"> F  </i>
   <i name="HFSCREEN">      0.00000000</i>
   <i name="HFSCREENC">      0.00000000</i>
   <i type="int" name="NBANDSGWLOW">     0</i>
  </separator>
  <separator name="vdW DFT" >
   <i type="logical" name="LUSE_VDW"> F  </i>
   <i name="Zab_VDW">     -0.84910000</i>
   <i name="PARAM1">      0.12340000</i>
   <i name="PARAM2">      1.00000000</i>
   <i name="PARAM3">      0.00000000</i>
  </separator>
  <separator name="model GW" >
   <i type="int" name="MODEL_GW">     0</i>
   <i name="MODEL_EPS0">     12.17134107</i>
   <i name="MODEL_ALPHA">      1.00000000</i>
  </separator>
  <separator name="linear response parameters" >
   <i type="logical" name="LEPSILON"> F  </i>
   <i type="logical" name="LRPA"> F  </i>
   <i type="logical" name="LNABLA"> F  </i>
   <i type="logical" name="LVEL"> F  </i>
   <i type="int" name="KINTER">     0</i>
   <i name="CSHIFT">      0.10000000</i>
   <i name="OMEGAMAX">     -1.00000000</i>
   <i name="DEG_THRESHOLD">      0.00200000</i>
   <i name="RTIME">     -0.10000000</i>
   <i name="WPLASMAI">      0.00000000</i>
   <v name="DFIELD">      0.00000000      0.00000000      0.00000000</v>
   <v name="WPLASMA">      0.00000000      0.00000000      0.00000000      0.00000000      0.00000000      0.00000000      0.00000000      0.00000000      0.00000000</v>
  </separator>
  <separator name="orbital magnetization" >
   <i type="logical" name="NUCIND"> F  </i>
   <v name="MAGPOS">      0.00000000      0.00000000      0.00000000</v>
   <i type="logical" name="LNICSALL"> T  </i>
   <i type="logical" name="ORBITALMAG"> F  </i>
   <i type="logical" name="LMAGBLOCH"> F  </i>
   <i type="logical" name="LCHIMAG"> F  </i>
   <i type="logical" name="LGAUGE"> T  </i>
   <i type="int" name="MAGATOM">     0</i>
   <v name="MAGDIPOL">      0.00000000      0.00000000      0.00000000</v>
   <v name="AVECCONST">      0.00000000      0.00000000      0.00000000</v>
  </separator>
  <separator name="response functions" >
   <i type="logical" name="LADDER"> F  </i>
   <i type="logical" name="LRPAFORCE"> F  </i>
   <i type="logical" name="LFXC"> F  </i>
   <i type="logical" name="LHARTREE"> T  </i>
   <i type="int" name="IBSE">     0</i>
   <v type="int" name="KPOINT">    -1     0     0     0</v>
   <i type="logical" name="LTCTE"> F  </i>
   <i type="logical" name="LTETE"> F  </i>
   <i type="logical" name="LTRIPLET"> F  </i>
   <i type="logical" name="LFXCEPS"> F  </i>
   <i type="logical" name="LFXHEG"> F  </i>
   <i type="int" name="NATURALO">     2</i>
   <i type="logical" name="L2ORDER"> F  </i>
   <i type="logical" name="LMP2LT"> F  </i>
   <i type="logical" name="LUSEW"> F  </i>
   <i name="ENCUTGW">     -2.00000000</i>
   <i name="ENCUTGWSOFT">     -2.00000000</i>
   <i name="ENCUTLF">     -1.00000000</i>
   <i type="int" name="LMAXMP2">    -1</i>
   <i name="SCISSOR">      0.00000000</i>
   <i type="int" name="NOMEGA">     0</i>
   <i type="int" name="NOMEGAR">     0</i>
   <i type="int" name="NBANDSGW">    -1</i>
   <i type="int" name="NBANDSO">    -1</i>
   <i type="int" name="NBANDSV">    -1</i>
   <i type="int" name="NELM">     1</i>
   <i type="int" name="NELMHF">     1</i>
   <i type="int" name="DIM">     3</i>
   <i type="int" name="ANTIRES">     0</i>
   <i name="OMEGAMAX">    -30.00000000</i>
   <i name="OMEGAMIN">    -30.00000000</i>
   <i name="OMEGATL">   -200.00000000</i>
   <i type="int" name="OMEGAGRID">   140</i>
   <i name="CSHIFT">     -0.10000000</i>
   <i type="logical" name="SELFENERGY"> F  </i>
   <i type="logical" name="LSPECTRAL"> F  </i>
   <i type="logical" name="LSPECTRALGW"> F  </i>
   <i type="logical" name="LSINGLES"> F  </i>
   <i type="logical" name="LFERMIGW"> F  </i>
   <i type="logical" name="ODDONLYGW"> F  </i>
   <i type="logical" name="EVENONLYGW"> F  </i>
   <i type="int" name="NKREDLFX">     1</i>
   <i type="int" name="NKREDLFY">     1</i>
   <i type="int" name="NKREDLFZ">     1</i>
   <i type="int" name="MAXMEM">  2800</i>
   <i type="int" name="TELESCOPE">     0</i>
   <i type="int" name="TAUPAR">     1</i>
   <i type="int" name="OMEGAPAR">    -1</i>
   <i name="LAMBDA">      1.00000000</i>
  </separator>
  <separator name="External order field" >
   <i name="OFIELD_KAPPA">      0.00000000</i>
   <v name="OFIELD_K">      0.00000000      0.00000000      0.00000000</v>
   <i name="OFIELD_Q6_NEAR">      0.00000000</i>
   <i name="OFIELD_Q6_FAR">      0.00000000</i>
   <i name="OFIELD_A">      0.00000000</i>
  </separator>
 </parameters>
 <atominfo>
  <atoms>      59 </atoms>
  <types>       5 </types>
  <array name="atoms" >
   <dimension dim="1">ion</dimension>
   <field type="string">element</field>
   <field type="int">atomtype</field>
   <set>
    <rc><c>Li</c><c>   1</c></rc>
    <rc><c>Li</c><c>   1</c></rc>
    <rc><c>Li</c><c>   1</c></rc>
    <rc><c>Li</c><c>   1</c></rc>
    <rc><c>Li</c><c>   1</c></rc>
    <rc><c>Li</c><c>   1</c></rc>
    <rc><c>Mg</c><c>   2</c></rc>
    <rc><c>Mg</c><c>   2</c></rc>
    <rc><c>Mg</c><c>   2</c></rc>
    <rc><c>Mg</c><c>   2</c></rc>
    <rc><c>Mg</c><c>   2</c></rc>
    <rc><c>Bi</c><c>   3</c></rc>
    <rc><c>Bi</c><c>   3</c></rc>
    <rc><c>Bi</c><c>   3</c></rc>
    <rc><c>Bi</c><c>   3</c></rc>
    <rc><c>Bi</c><c>   3</c></rc>
    <rc><c>Bi</c><c>   3</c></rc>
    <rc><c>Bi</c><c>   3</c></rc>
    <rc><c>Bi</c><c>   3</c></rc>
    <rc><c>Bi</c><c>   3</c></rc>
    <rc><c>Bi</c><c>   3</c></rc>
    <rc><c>Bi</c><c>   3</c></rc>
    <rc><c>Bi</c><c>   3</c></rc>
    <rc><c>Bi</c><c>   3</c></rc>
    <rc><c>Bi</c><c>   3</c></rc>
    <rc><c>Bi</c><c>   3</c></rc>
    <rc><c>Bi</c><c>   3</c></rc>
    <rc><c>S </c><c>   4</c></rc>
    <rc><c>S </c><c>   4</c></rc>
    <rc><c>S </c><c>   4</c></rc>
    <rc><c>S </c><c>   4</c></rc>
    <rc><c>S </c><c>   4</c></rc>
    <rc><c>S </c><c>   4</c></rc>
    <rc><c>S </c><c>   4</c></rc>
    <rc><c>S </c><c>   4</c></rc>
    <rc><c>S </c><c>   4</c></rc>
    <rc><c>S </c><c>   4</c></rc>
    <rc><c>S </c><c>   4</c></rc>
    <rc><c>S </c><c>   4</c></rc>
    <rc><c>S </c><c>   4</c></rc>
    <rc><c>S </c><c>   4</c></rc>
    <rc><c>S </c><c>   4</c></rc>
    <rc><c>S </c><c>   4</c></rc>
    <rc><c>O </c><c>   5</c></rc>
    <rc><c>O </c><c>   5</c></rc>
    <rc><c>O </c><c>   5</c></rc>
    <rc><c>O </c><c>   5</c></rc>
    <rc><c>O </c><c>   5</c></rc>
    <rc><c>O </c><c>   5</c></rc>
    <rc><c>O </c><c>   5</c></rc>
    <rc><c>O </c><c>   5</c></rc>
    <rc><c>O </c><c>   5</c></rc>
    <rc><c>O </c><c>   5</c></rc>
    <rc><c>O </c><c>   5</c></rc>
    <rc><c>O </c><c>   5</c></rc>
    <rc><c>O </c><c>   5</c></rc>
    <rc><c>O </c><c>   5</c></rc>
    <rc><c>O </c><c>   5</c></rc>
    <rc><c>O </c><c>   5</c></rc>
   </set>
  </array>
  <array name="atomtypes" >
   <dimension dim="1">type</dimension>
   <field type="int">atomspertype</field>
   <field type="string">element</field>
   <field>mass</field>
   <field>valence</field>
   <field type="string">pseudopotential</field>
   <set>
    <rc><c>   6</c><c>Li</c><c>      7.01000000</c><c>      3.00000000</c><c>  PAW_PBE Li_sv 10Sep2004               </c></rc>
    <rc><c>   5</c><c>Mg</c><c>     24.30500000</c><c>      2.00000000</c><c>  PAW_PBE Mg 13Apr2007                  </c></rc>
    <rc><c>  16</c><c>Bi</c><c>    208.98000000</c><c>     15.00000000</c><c>  PAW_PBE Bi_d 06Sep2000                </c></rc>
    <rc><c>  16</c><c>S </c><c>     32.06600000</c><c>      6.00000000</c><c>  PAW_PBE S 06Sep2000                   </c></rc>
    <rc><c>  16</c><c>O </c><c>     16.00000000</c><c>      6.00000000</c><c>  PAW_PBE O 08Apr2002                   </c></rc>
   </set>
  </array>
 </atominfo>
 <structure name="initialpos" >
  <crystal>
   <varray name="basis" >
    <v>      11.17850000       0.00000000       0.00000000 </v>
    <v>       0.00000000       9.57460000       0.00000000 </v>
    <v>       0.00000000       0.00000000      11.18240000 </v>
   </varray>
   <i name="volume">   1196.84853820 </i>
   <varray name="rec_basis" >
    <v>       0.08945744       0.00000000       0.00000000 </v>
    <v>       0.00000000       0.10444301       0.00000000 </v>
    <v>       0.00000000       0.00000000       0.08942624 </v>
   </varray>
  </crystal>
  <varray name="positions" >
   <v>       0.37539000       0.00017000       0.43687000 </v>
   <v>       0.37461000       0.00017000       0.18687000 </v>
   <v>       0.62539000       0.99984000       0.43687000 </v>
   <v>       0.87539000       0.00017000       0.43687000 </v>
   <v>       0.62461000       0.99984000       0.18687000 </v>
   <v>       0.62539000       0.99984000       0.93687000 </v>
   <v>       0.12461000       0.99984000       0.18687000 </v>
   <v>       0.37539000       0.00017000       0.93687000 </v>
   <v>       0.12461000       0.99984000       0.68687000 </v>
   <v>       0.87539000       0.00017000       0.93687000 </v>
   <v>       0.62461000       0.99984000       0.68687000 </v>
   <v>       0.00013000       0.29519000       0.06281000 </v>
   <v>       0.25013000       0.70481000       0.06281000 </v>
   <v>       0.24987000       0.29519000       0.31282000 </v>
   <v>       0.49987000       0.70481000       0.31282000 </v>
   <v>       0.50013000       0.29519000       0.06281000 </v>
   <v>       0.75013000       0.70481000       0.06281000 </v>
   <v>       0.74987000       0.29519000       0.31282000 </v>
   <v>       0.99987000       0.70481000       0.31282000 </v>
   <v>       0.00013000       0.29519000       0.56281000 </v>
   <v>       0.25013000       0.70481000       0.56281000 </v>
   <v>       0.24987000       0.29519000       0.81282000 </v>
   <v>       0.49987000       0.70481000       0.81282000 </v>
   <v>       0.50013000       0.29519000       0.56281000 </v>
   <v>       0.75013000       0.70481000       0.56281000 </v>
   <v>       0.74987000       0.29519000       0.81282000 </v>
   <v>       0.99987000       0.70481000       0.81282000 </v>
   <v>       0.25005000       0.32677000       0.06286000 </v>
   <v>       0.00005000       0.67323000       0.06286000 </v>
   <v>       0.49995000       0.32677000       0.31286000 </v>
   <v>       0.24995000       0.67323000       0.31286000 </v>
   <v>       0.75005000       0.32677000       0.06286000 </v>
   <v>       0.50005000       0.67323000       0.06286000 </v>
   <v>       0.99995000       0.32677000       0.31286000 </v>
   <v>       0.74995000       0.67323000       0.31286000 </v>
   <v>       0.25005000       0.32677000       0.56286000 </v>
   <v>       0.00005000       0.67323000       0.56286000 </v>
   <v>       0.49995000       0.32677000       0.81286000 </v>
   <v>       0.24995000       0.67323000       0.81286000 </v>
   <v>       0.75005000       0.32677000       0.56286000 </v>
   <v>       0.50005000       0.67323000       0.56286000 </v>
   <v>       0.99995000       0.32677000       0.81286000 </v>
   <v>       0.74995000       0.67323000       0.81286000 </v>
   <v>       0.49987000       0.07798000       0.06246000 </v>
   <v>       0.24987000       0.92202000       0.06246000 </v>
   <v>       0.25013000       0.07798000       0.31246000 </v>
   <v>       0.00013000       0.92202000       0.31246000 </v>
   <v>       0.99987000       0.07798000       0.06246000 </v>
   <v>       0.74987000       0.92202000       0.06246000 </v>
   <v>       0.75013000       0.07798000       0.31246000 </v>
   <v>       0.50013000       0.92202000       0.31246000 </v>
   <v>       0.49987000       0.07798000       0.56246000 </v>
   <v>       0.24987000       0.92202000       0.56246000 </v>
   <v>       0.25013000       0.07798000       0.81246000 </v>
   <v>       0.00013000       0.92202000       0.81246000 </v>
   <v>       0.99987000       0.07798000       0.56246000 </v>
   <v>       0.74987000       0.92202000       0.56246000 </v>
   <v>       0.75013000       0.07798000       0.81246000 </v>
   <v>       0.50013000       0.92202000       0.81246000 </v>
  </varray>
 </structure>
 <calculation>
  <scstep>
   <time name="dav">   60.28   60.33</time>
   <time name="total">   60.36   60.42</time>
   <energy>
    <i name="alphaZ">   1060.66890660 </i>
    <i name="ewald"> -30400.45623138 </i>
    <i name="hartreedc"> -12718.48445098 </i>
    <i name="XCdc">   1247.15128832 </i>
    <i name="pawpsdc">  36635.26894311 </i>
    <i name="pawaedc"> -35972.74895369 </i>
    <i name="eentropy">      0.00000000 </i>
    <i name="bandstr">   1865.20838022 </i>
    <i name="atom">  44026.03258983 </i>
    <i name="e_fr_energy">   5742.64047202 </i>
    <i name="e_wo_entrp">   5742.64047202 </i>
    <i name="e_0_energy">   5742.64047202 </i>
   </energy>
  </scstep>
  <scstep>
   <time name="dav">   61.66   61.74</time>
   <time name="total">   61.67   61.75</time>
   <energy>
    <i name="e_fr_energy">    750.40489542 </i>
    <i name="e_wo_entrp">    750.40489542 </i>
    <i name="e_0_energy">    750.40489542 </i>
   </energy>
  </scstep>
  <scstep>
   <time name="dav">   70.47   70.55</time>
   <time name="total">   70.47   70.55</time>
   <energy>
    <i name="e_fr_energy">   -246.03019605 </i>
    <i name="e_wo_entrp">   -246.03019605 </i>
    <i name="e_0_energy">   -246.03019605 </i>
   </energy>
  </scstep>
  <scstep>
   <time name="dav">   72.38   72.49</time>
   <time name="total">   72.39   72.49</time>
   <energy>
    <i name="e_fr_energy">   -337.24339187 </i>
    <i name="e_wo_entrp">   -337.24339187 </i>
    <i name="e_0_energy">   -337.24339187 </i>
   </energy>
  </scstep>
  <scstep>
   <time name="dav">   93.75   93.93</time>
   <time name="total">   94.47   94.65</time>
   <energy>
    <i name="e_fr_energy">   -344.20512628 </i>
    <i name="e_wo_entrp">   -344.20512628 </i>
    <i name="e_0_energy">   -344.20512628 </i>
   </energy>
  </scstep>
  <scstep>
   <time name="dav">   85.96   86.00</time>
   <time name="total">   86.74   86.78</time>
   <energy>
    <i name="e_fr_energy">   -288.49322013 </i>
    <i name="e_wo_entrp">   -288.49322013 </i>
    <i name="e_0_energy">   -288.49322013 </i>
   </energy>
  </scstep>
  <scstep>
   <time name="dav">   65.98   66.00</time>
   <time name="total">   66.76   66.78</time>
   <energy>
    <i name="e_fr_energy">   -290.83757902 </i>
    <i name="e_wo_entrp">   -290.83757902 </i>
    <i name="e_0_energy">   -290.83757902 </i>
   </energy>
  </scstep>
  <scstep>
   <time name="dav">   75.39   75.56</time>
   <time name="total">   76.17   76.35</time>
   <energy>
    <i name="e_fr_energy">   -289.83239180 </i>
    <i name="e_wo_entrp">   -289.83239180 </i>
    <i name="e_0_energy">   -289.83239180 </i>
   </energy>
  </scstep>
  <scstep>
   <time name="dav">   72.92   72.92</time>
   <time name="total">   73.70   73.70</time>
   <energy>
    <i name="e_fr_energy">   -289.31662786 </i>
    <i name="e_wo_entrp">   -289.31662786 </i>
    <i name="e_0_energy">   -289.31662786 </i>
   </energy>
  </scstep>
  <scstep>
   <time name="dav">   71.86   71.88</time>
   <time name="total">   72.64   72.67</time>
   <energy>
    <i name="e_fr_energy">   -289.34615690 </i>
    <i name="e_wo_entrp">   -289.34615690 </i>
    <i name="e_0_energy">   -289.34615690 </i>
   </energy>
  </scstep>
  <scstep>
   <time name="dav">   83.27   83.28</time>
   <time name="total">   84.06   84.06</time>
   <energy>
    <i name="e_fr_energy">   -289.35152234 </i>
    <i name="e_wo_entrp">   -289.35152234 </i>
    <i name="e_0_energy">   -289.35152234 </i>
   </energy>
  </scstep>
  <scstep>
   <time name="dav">   76.69   76.70</time>
   <time name="total">   77.47   77.48</time>
   <energy>
    <i name="e_fr_energy">   -289.35434811 </i>
    <i name="e_wo_entrp">   -289.35434811 </i>
    <i name="e_0_energy">   -289.35434811 </i>
   </energy>
  </scstep>
  <scstep>
   <time name="dav">   72.58   72.59</time>
   <time name="total">   73.36   73.38</time>
   <energy>
    <i name="e_fr_energy">   -289.35557551 </i>
    <i name="e_wo_entrp">   -289.35557551 </i>
    <i name="e_0_energy">   -289.35557551 </i>
   </energy>
  </scstep>
  <scstep>
   <time name="dav">   77.98   78.00</time>
   <time name="total">   78.77   78.78</time>
   <energy>
    <i name="e_fr_energy">   -289.35579054 </i>
    <i name="e_wo_entrp">   -289.35579054 </i>
    <i name="e_0_energy">   -289.35579054 </i>
   </energy>
  </scstep>
  <scstep>
   <time name="dav">   81.17   81.18</time>
   <time name="total">   81.95   81.97</time>
   <energy>
    <i name="e_fr_energy">   -289.35581351 </i>
    <i name="e_wo_entrp">   -289.35581351 </i>
    <i name="e_0_energy">   -289.35581351 </i>
   </energy>
  </scstep>
  <scstep>
   <time name="dav">   66.75   66.76</time>
   <time name="total">   67.53   67.55</time>
   <energy>
    <i name="e_fr_energy">   -289.35583561 </i>
    <i name="e_wo_entrp">   -289.35583561 </i>
    <i name="e_0_energy">   -289.35583561 </i>
   </energy>
  </scstep>
  <scstep>
   <time name="dav">   72.30   72.36</time>
   <time name="total">   73.13   73.20</time>
   <energy>
    <i name="e_fr_energy">   -289.35583777 </i>
    <i name="e_wo_entrp">   -289.35583777 </i>
    <i name="e_0_energy">   -289.35583777 </i>
   </energy>
  </scstep>
  <scstep>
   <time name="dav">   62.19   62.22</time>
   <time name="total">   62.26   62.29</time>
   <energy>
    <i name="alphaZ">   1060.66890660 </i>
    <i name="ewald"> -30400.45623138 </i>
    <i name="hartreedc"> -12959.59457513 </i>
    <i name="XCdc">   1271.99218780 </i>
    <i name="pawpsdc">  43670.06175009 </i>
    <i name="pawaedc"> -42981.01465286 </i>
    <i name="eentropy">      0.00000000 </i>
    <i name="bandstr">  -3977.04581340 </i>
    <i name="atom">  44026.03258983 </i>
    <i name="e_fr_energy">   -289.35583846 </i>
    <i name="e_wo_entrp">   -289.35583846 </i>
    <i name="e_0_energy">   -289.35583846 </i>
   </energy>
  </scstep>
  <structure>
   <crystal>
    <varray name="basis" >
     <v>      11.17850000       0.00000000       0.00000000 </v>
     <v>       0.00000000       9.57460000       0.00000000 </v>
     <v>       0.00000000       0.00000000      11.18240000 </v>
    </varray>
    <i name="volume">   1196.84853820 </i>
    <varray name="rec_basis" >
     <v>       0.08945744       0.00000000       0.00000000 </v>
     <v>       0.00000000       0.10444301       0.00000000 </v>
     <v>       0.00000000       0.00000000       0.08942624 </v>
    </varray>
   </crystal>
   <varray name="positions" >
    <v>       0.37539000       0.00017000       0.43687000 </v>
    <v>       0.37461000       0.00017000       0.18687000 </v>
    <v>       0.62539000       0.99984000       0.43687000 </v>
    <v>       0.87539000       0.00017000       0.43687000 </v>
    <v>       0.62461000       0.99984000       0.18687000 </v>
    <v>       0.62539000       0.99984000       0.93687000 </v>
    <v>       0.12461000       0.99984000       0.18687000 </v>
    <v>       0.37539000       0.00017000       0.93687000 </v>
    <v>       0.12461000       0.99984000       0.68687000 </v>
    <v>       0.87539000       0.00017000       0.93687000 </v>
    <v>       0.62461000       0.99984000       0.68687000 </v>
    <v>       0.00013000       0.29519000       0.06281000 </v>
    <v>       0.25013000       0.70481000       0.06281000 </v>
    <v>       0.24987000       0.29519000       0.31282000 </v>
    <v>       0.49987000       0.70481000       0.31282000 </v>
    <v>       0.50013000       0.29519000       0.06281000 </v>
    <v>       0.75013000       0.70481000       0.06281000 </v>
    <v>       0.74987000       0.29519000       0.31282000 </v>
    <v>       0.99987000       0.70481000       0.31282000 </v>
    <v>       0.00013000       0.29519000       0.56281000 </v>
    <v>       0.25013000       0.70481000       0.56281000 </v>
    <v>       0.24987000       0.29519000       0.81282000 </v>
    <v>       0.49987000       0.70481000       0.81282000 </v>
    <v>       0.50013000       0.29519000       0.56281000 </v>
    <v>       0.75013000       0.70481000       0.56281000 </v>
    <v>       0.74987000       0.29519000       0.81282000 </v>
    <v>       0.99987000       0.70481000       0.81282000 </v>
    <v>       0.25005000       0.32677000       0.06286000 </v>
    <v>       0.00005000       0.67323000       0.06286000 </v>
    <v>       0.49995000       0.32677000       0.31286000 </v>
    <v>       0.24995000       0.67323000       0.31286000 </v>
    <v>       0.75005000       0.32677000       0.06286000 </v>
    <v>       0.50005000       0.67323000       0.06286000 </v>
    <v>       0.99995000       0.32677000       0.31286000 </v>
    <v>       0.74995000       0.67323000       0.31286000 </v>
    <v>       0.25005000       0.32677000       0.56286000 </v>
    <v>       0.00005000       0.67323000       0.56286000 </v>
    <v>       0.49995000       0.32677000       0.81286000 </v>
    <v>       0.24995000       0.67323000       0.81286000 </v>
    <v>       0.75005000       0.32677000       0.56286000 </v>
    <v>       0.50005000       0.67323000       0.56286000 </v>
    <v>       0.99995000       0.32677000       0.81286000 </v>
    <v>       0.74995000       0.67323000       0.81286000 </v>
    <v>       0.49987000       0.07798000       0.06246000 </v>
    <v>       0.24987000       0.92202000       0.06246000 </v>
    <v>       0.25013000       0.07798000       0.31246000 </v>
    <v>       0.00013000       0.92202000       0.31246000 </v>
    <v>       0.99987000       0.07798000       0.06246000 </v>
    <v>       0.74987000       0.92202000       0.06246000 </v>
    <v>       0.75013000       0.07798000       0.31246000 </v>
    <v>       0.50013000       0.92202000       0.31246000 </v>
    <v>       0.49987000       0.07798000       0.56246000 </v>
    <v>       0.24987000       0.92202000       0.56246000 </v>
    <v>       0.25013000       0.07798000       0.81246000 </v>
    <v>       0.00013000       0.92202000       0.81246000 </v>
    <v>       0.99987000       0.07798000       0.56246000 </v>
    <v>       0.74987000       0.92202000       0.56246000 </v>
    <v>       0.75013000       0.07798000       0.81246000 </v>
    <v>       0.50013000       0.92202000       0.81246000 </v>
   </varray>
  </structure>
  <varray name="forces" >
   <v>      -0.45408316      -0.06630734       0.42297320 </v>
   <v>       0.11428196      -0.00532121       0.56983413 </v>
   <v>       0.19102764       0.06255680      -0.30001661 </v>
   <v>       0.43440012       0.06695664      -0.07960343 </v>
   <v>       0.54778208      -0.00473569       0.24776482 </v>
   <v>       0.20587099      -0.06347480       0.32238754 </v>
   <v>      -1.03312389       0.01470579       0.51638570 </v>
   <v>      -0.93089480       0.11371523      -0.79971424 </v>
   <v>      -0.03917918       0.00164610      -0.44498268 </v>
   <v>       0.87366408      -0.12533897       0.21427126 </v>
   <v>       0.08593824       0.01003720      -0.49288960 </v>
   <v>      -0.07219546      -0.05556699       0.21551341 </v>
   <v>      -0.30365844      -1.01623439       0.04615634 </v>
   <v>      -0.21970841       0.01042798       0.43439312 </v>
   <v>       0.07405185      -0.05354884       0.17794046 </v>
   <v>       0.14063419       1.11079083       0.32213876 </v>
   <v>       0.21105829      -0.04374675       0.47169235 </v>
   <v>       0.26724870      -0.99505338       0.01555187 </v>
   <v>      -0.10049977       1.04245151       0.25066184 </v>
   <v>      -0.03038859      -1.03013129      -0.26991917 </v>
   <v>      -0.12281329       1.03664614      -0.22865758 </v>
   <v>      -0.17987887      -0.05426647      -0.25923994 </v>
   <v>      -0.16916323      -1.04859721      -0.33569415 </v>
   <v>      -0.23479498       0.02521122      -0.18152480 </v>
   <v>       0.36505251      -0.01690227      -0.21905678 </v>
   <v>       0.31813033       1.02431710      -0.29488651 </v>
   <v>       0.05546601       0.04787608      -0.21818352 </v>
   <v>       0.20268797       0.06223055      -0.04743750 </v>
   <v>       0.06516344      -0.09410908      -0.15412746 </v>
   <v>      -0.09452499       0.19872962      -0.17784505 </v>
   <v>       0.15789754      -0.16516134      -0.33280111 </v>
   <v>      -0.15099090       0.09032725      -0.29114746 </v>
   <v>      -0.11714648      -0.06342128      -0.18575610 </v>
   <v>       0.14670592       0.17919081      -0.22658624 </v>
   <v>      -0.20322763      -0.20336389      -0.06884538 </v>
   <v>       0.13781733       0.16431951       0.11092669 </v>
   <v>      -0.06744102      -0.19119283       0.21630565 </v>
   <v>       0.10007716       0.00887395       0.17241383 </v>
   <v>       0.18916706      -0.05730791       0.25823044 </v>
   <v>      -0.24093614       0.17300059       0.29408435 </v>
   <v>       0.16408843      -0.13456824       0.19180994 </v>
   <v>      -0.10241480       0.09628730       0.16280555 </v>
   <v>      -0.18637137      -0.06080771       0.07576431 </v>
   <v>      -0.55539324      -0.93802637      -0.65591519 </v>
   <v>       0.84247532       0.71566901       0.49307319 </v>
   <v>       0.24658296       0.03358507      -1.32766073 </v>
   <v>       0.56292214      -1.01126589      -0.62732578 </v>
   <v>       0.03266893       0.26762079      -0.14098357 </v>
   <v>      -0.26233489       0.07770949      -1.31177092 </v>
   <v>      -0.75718573       0.83103643       0.51978348 </v>
   <v>      -0.07545930       0.03579300      -0.16942334 </v>
   <v>       1.16540422       0.01916599       0.02723115 </v>
   <v>      -0.34637486      -1.00105903       0.52921007 </v>
   <v>       0.20194938       0.21413217       0.25466331 </v>
   <v>      -0.11720847      -0.26819405       0.16019219 </v>
   <v>       0.43902458       1.03133332       0.59545357 </v>
   <v>      -1.25136330      -0.06543742       0.10291732 </v>
   <v>      -0.80370418      -0.72798010       0.66832150 </v>
   <v>       0.68322001       0.79477727       0.78114349 </v>
  </varray>
  <varray name="stress" >
   <v>      -8.80226435      -0.14574766      -0.08427120 </v>
   <v>      -0.14574754     -13.09756794       0.14887932 </v>
   <v>      -0.08427129       0.14887930     -10.07004970 </v>
  </varray>
  <energy>
   <i name="e_fr_energy">   -301.99277046 </i>
   <i name="e_wo_entrp">   -301.99277046 </i>
   <i name="e_0_energy">      0.00000000 </i>
  </energy>
  <time name="totalsc"> 1443.19 1444.16</time>
  <eigenvalues>
   <array>
    <dimension dim="1">band</dimension>
    <dimension dim="2">kpoint</dimension>
    <dimension dim="3">spin</dimension>
    <field>eigene</field>
    <field>occ</field>
    <set>
     <set comment="spin 1">
      <set comment="kpoint 1">
       <r>  -40.6106    1.0000 </r>
       <r>  -40.3059    1.0000 </r>
       <r>  -39.8639    1.0000 </r>
       <r>  -39.6840    1.0000 </r>
       <r>  -39.5673    1.0000 </r>
       <r>  -39.1343    1.0000 </r>
       <r>  -19.0441    1.0000 </r>
       <r>  -19.0394    1.0000 </r>
       <r>  -18.9670    1.0000 </r>
       <r>  -18.9625    1.0000 </r>
       <r>  -18.9617    1.0000 </r>
       <r>  -18.9577    1.0000 </r>
       <r>  -18.9537    1.0000 </r>
       <r>  -18.9482    1.0000 </r>
       <r>  -18.8846    1.0000 </r>
       <r>  -18.8807    1.0000 </r>
       <r>  -18.8767    1.0000 </r>
       <r>  -18.8729    1.0000 </r>
       <r>  -18.8659    1.0000 </r>
       <r>  -18.8644    1.0000 </r>
       <r>  -18.8579    1.0000 </r>
       <r>  -18.8459    1.0000 </r>
       <r>  -18.7870    1.0000 </r>
       <r>  -18.7829    1.0000 </r>
       <r>  -18.7647    1.0000 </r>
       <r>  -18.7602    1.0000 </r>
       <r>  -18.7523    1.0000 </r>
       <r>  -18.7431    1.0000 </r>
       <r>  -18.7348    1.0000 </r>
       <r>  -18.7293    1.0000 </r>
       <r>  -18.7192    1.0000 </r>
       <r>  -18.7100    1.0000 </r>
       <r>  -18.6770    1.0000 </r>
       <r>  -18.6735    1.0000 </r>
       <r>  -18.6627    1.0000 </r>
       <r>  -18.6608    1.0000 </r>
       <r>  -18.6600    1.0000 </r>
       <r>  -18.6575    1.0000 </r>
       <r>  -18.6485    1.0000 </r>
       <r>  -18.6467    1.0000 </r>
       <r>  -18.6458    1.0000 </r>
       <r>  -18.6432    1.0000 </r>
       <r>  -18.6309    1.0000 </r>
       <r>  -18.6303    1.0000 </r>
       <r>  -18.6064    1.0000 </r>
       <r>  -18.6029    1.0000 </r>
       <r>  -18.5990    1.0000 </r>
       <r>  -18.5951    1.0000 </r>
       <r>  -18.5903    1.0000 </r>
       <r>  -18.5828    1.0000 </r>
       <r>  -18.5827    1.0000 </r>
       <r>  -18.5808    1.0000 </r>
       <r>  -18.5789    1.0000 </r>
       <r>  -18.5491    1.0000 </r>
       <r>  -18.5215    1.0000 </r>
       <r>  -18.5141    1.0000 </r>
       <r>  -18.5097    1.0000 </r>
       <r>  -18.5077    1.0000 </r>
       <r>  -18.4940    1.0000 </r>
       <r>  -18.4924    1.0000 </r>
       <r>  -18.4735    1.0000 </r>
       <r>  -18.4723    1.0000 </r>
       <r>  -18.4509    1.0000 </r>
       <r>  -18.4472    1.0000 </r>
       <r>  -18.4324    1.0000 </r>
       <r>  -18.4310    1.0000 </r>
       <r>  -18.4289    1.0000 </r>
       <r>  -18.4211    1.0000 </r>
       <r>  -18.4202    1.0000 </r>
       <r>  -18.4089    1.0000 </r>
       <r>  -18.3572    1.0000 </r>
       <r>  -18.3554    1.0000 </r>
       <r>  -18.3470    1.0000 </r>
       <r>  -18.3469    1.0000 </r>
       <r>  -18.3371    1.0000 </r>
       <r>  -18.3291    1.0000 </r>
       <r>  -18.2664    1.0000 </r>
       <r>  -18.2641    1.0000 </r>
       <r>  -18.2255    1.0000 </r>
       <r>  -18.2211    1.0000 </r>
       <r>  -18.2113    1.0000 </r>
       <r>  -18.1938    1.0000 </r>
       <r>  -18.1574    1.0000 </r>
       <r>  -18.1545    1.0000 </r>
       <r>  -18.1308    1.0000 </r>
       <r>  -18.1288    1.0000 </r>
       <r>  -13.7414    1.0000 </r>
       <r>  -13.6251    1.0000 </r>
       <r>  -13.5397    1.0000 </r>
       <r>  -13.5243    1.0000 </r>
       <r>  -12.8815    1.0000 </r>
       <r>  -12.8290    1.0000 </r>
       <r>  -12.7895    1.0000 </r>
       <r>  -12.7288    1.0000 </r>
       <r>  -12.7034    1.0000 </r>
       <r>  -12.6821    1.0000 </r>
       <r>  -12.6411    1.0000 </r>
       <r>  -12.6358    1.0000 </r>
       <r>  -12.0226    1.0000 </r>
       <r>  -11.9864    1.0000 </r>
       <r>  -11.9114    1.0000 </r>
       <r>  -11.8905    1.0000 </r>
       <r>   -9.3840    1.0000 </r>
       <r>   -9.0919    1.0000 </r>
       <r>   -8.5881    1.0000 </r>
       <r>   -8.5386    1.0000 </r>
       <r>   -8.5049    1.0000 </r>
       <r>   -8.4987    1.0000 </r>
       <r>   -8.3683    1.0000 </r>
       <r>   -8.3219    1.0000 </r>
       <r>   -8.2835    1.0000 </r>
       <r>   -8.2787    1.0000 </r>
       <r>   -8.0333    1.0000 </r>
       <r>   -8.0197    1.0000 </r>
       <r>   -8.0016    1.0000 </r>
       <r>   -7.9891    1.0000 </r>
       <r>   -7.3782    1.0000 </r>
       <r>   -7.3774    1.0000 </r>
       <r>   -6.4216    1.0000 </r>
       <r>   -6.4155    1.0000 </r>
       <r>   -6.3944    1.0000 </r>
       <r>   -6.3872    1.0000 </r>
       <r>   -5.6058    1.0000 </r>
       <r>   -5.5914    1.0000 </r>
       <r>   -5.3947    1.0000 </r>
       <r>   -5.3876    1.0000 </r>
       <r>   -5.3207    1.0000 </r>
       <r>   -5.2555    1.0000 </r>
       <r>   -5.1917    1.0000 </r>
       <r>   -5.1794    1.0000 </r>
       <r>   -5.1021    1.0000 </r>
       <r>   -5.0457    1.0000 </r>
       <r>   -3.8205    1.0000 </r>
       <r>   -3.6697    1.0000 </r>
       <r>   -1.5718    1.0000 </r>
       <r>   -1.3374    1.0000 </r>
       <r>   -1.1845    1.0000 </r>
       <r>   -1.0218    1.0000 </r>
       <r>   -0.6546    1.0000 </r>
       <r>   -0.6209    1.0000 </r>
       <r>   -0.5287    1.0000 </r>
       <r>   -0.5140    1.0000 </r>
       <r>   -0.2530    1.0000 </r>
       <r>   -0.2343    1.0000 </r>
       <r>   -0.1913    1.0000 </r>
       <r>   -0.1686    1.0000 </r>
       <r>   -0.1188    1.0000 </r>
       <r>   -0.0437    1.0000 </r>
       <r>    0.1110    1.0000 </r>
       <r>    0.1552    1.0000 </r>
       <r>    0.2720    1.0000 </r>
       <r>    0.3170    1.0000 </r>
       <r>    0.3903    1.0000 </r>
       <r>    0.4893    1.0000 </r>
       <r>    0.5694    1.0000 </r>
       <r>    0.6261    1.0000 </r>
       <r>    0.6625    1.0000 </r>
       <r>    0.6819    1.0000 </r>
       <r>    0.7614    1.0000 </r>
       <r>    0.8056    1.0000 </r>
       <r>    0.8110    1.0000 </r>
       <r>    0.8695    1.0000 </r>
       <r>    0.8985    1.0000 </r>
       <r>    0.9702    1.0000 </r>
       <r>    0.9865    1.0000 </r>
       <r>    1.0047    1.0000 </r>
       <r>    1.0439    1.0000 </r>
       <r>    1.1039    1.0000 </r>
       <r>    1.1151    1.0000 </r>
       <r>    1.1947    1.0000 </r>
       <r>    1.2935    1.0000 </r>
       <r>    1.3195    1.0000 </r>
       <r>    1.3541    1.0000 </r>
       <r>    1.4057    1.0000 </r>
       <r>    1.4288    1.0000 </r>
       <r>    1.4935    1.0000 </r>
       <r>    1.5654    1.0000 </r>
       <r>    1.5972    1.0000 </r>
       <r>    1.6231    1.0000 </r>
       <r>    1.6757    1.0000 </r>
       <r>    1.7280    1.0000 </r>
       <r>    1.7341    1.0000 </r>
       <r>    1.8322    1.0000 </r>
       <r>    1.8520    1.0000 </r>
       <r>    1.9849    1.0000 </r>
       <r>    2.0772    1.0000 </r>
       <r>    2.1075    1.0000 </r>
       <r>    2.1736    1.0000 </r>
       <r>    2.2016    1.0000 </r>
       <r>    2.2369    1.0000 </r>
       <r>    2.3141    1.0000 </r>
       <r>    2.3591    1.0000 </r>
       <r>    2.3773    1.0000 </r>
       <r>    2.4680    1.0000 </r>
       <r>    2.5234    1.0000 </r>
       <r>    2.5307    1.0000 </r>
       <r>    2.5385    1.0000 </r>
       <r>    2.5604    1.0000 </r>
       <r>    2.5729    1.0000 </r>
       <r>    2.6250    1.0000 </r>
       <r>    2.6506    1.0000 </r>
       <r>    2.6845    1.0000 </r>
       <r>    2.7504    1.0000 </r>
       <r>    2.8122    1.0000 </r>
       <r>    2.8173    1.0000 </r>
       <r>    2.8327    1.0000 </r>
       <r>    2.8880    1.0000 </r>
       <r>    2.9413    1.0000 </r>
       <r>    2.9715    1.0000 </r>
       <r>    3.0060    1.0000 </r>
       <r>    3.0405    1.0000 </r>
       <r>    3.0945    1.0000 </r>
       <r>    3.1056    1.0000 </r>
       <r>    3.1311    1.0000 </r>
       <r>    3.1598    1.0000 </r>
       <r>    3.1760    1.0000 </r>
       <r>    3.1847    1.0000 </r>
       <r>    3.2033    1.0000 </r>
       <r>    3.2294    1.0000 </r>
       <r>    3.2951    1.0000 </r>
       <r>    3.3671    1.0000 </r>
       <r>    3.3760    1.0000 </r>
       <r>    3.4406    1.0000 </r>
       <r>    3.5309    1.0000 </r>
       <r>    3.7187    1.0000 </r>
       <r>    3.8179    1.0000 </r>
       <r>    4.1622    1.0000 </r>
       <r>    4.1752    1.0000 </r>
       <r>    4.2265    1.0000 </r>
       <r>    4.2266    1.0000 </r>
       <r>    4.9685    0.0000 </r>
       <r>    4.9769    0.0000 </r>
       <r>    5.1588    0.0000 </r>
       <r>    5.1662    0.0000 </r>
       <r>    5.6753    0.0000 </r>
       <r>    5.6800    0.0000 </r>
       <r>    5.7823    0.0000 </r>
       <r>    5.7884    0.0000 </r>
       <r>    6.1042    0.0000 </r>
       <r>    6.1103    0.0000 </r>
       <r>    6.1382    0.0000 </r>
       <r>    6.1476    0.0000 </r>
       <r>    6.2278    0.0000 </r>
       <r>    6.2328    0.0000 </r>
       <r>    6.2541    0.0000 </r>
       <r>    6.2666    0.0000 </r>
       <r>    6.9582    0.0000 </r>
       <r>    6.9736    0.0000 </r>
       <r>    7.2281    0.0000 </r>
       <r>    7.2447    0.0000 </r>
       <r>    7.7196    0.0000 </r>
       <r>    7.8000    0.0000 </r>
       <r>    7.8288    0.0000 </r>
       <r>    7.9027    0.0000 </r>
       <r>    7.9321    0.0000 </r>
       <r>    8.0113    0.0000 </r>
       <r>    8.0404    0.0000 </r>
       <r>    8.1336    0.0000 </r>
       <r>    8.3069    0.0000 </r>
       <r>    8.6209    0.0000 </r>
       <r>    8.6799    0.0000 </r>
       <r>    8.7399    0.0000 </r>
       <r>    8.7967    0.0000 </r>
       <r>    8.8048    0.0000 </r>
       <r>    8.8481    0.0000 </r>
       <r>    8.9116    0.0000 </r>
       <r>    8.9710    0.0000 </r>
       <r>    8.9947    0.0000 </r>
       <r>    9.0253    0.0000 </r>
       <r>    9.0987    0.0000 </r>
       <r>    9.1145    0.0000 </r>
       <r>    9.1271    0.0000 </r>
       <r>    9.1775    0.0000 </r>
       <r>    9.2604    0.0000 </r>
       <r>    9.3518    0.0000 </r>
       <r>    9.4540    0.0000 </r>
       <r>    9.4940    0.0000 </r>
       <r>    9.5183    0.0000 </r>
       <r>    9.6629    0.0000 </r>
       <r>    9.7925    0.0000 </r>
      </set>
      <set comment="kpoint 2">
       <r>  -40.6106    1.0000 </r>
       <r>  -40.3059    1.0000 </r>
       <r>  -39.8639    1.0000 </r>
       <r>  -39.6840    1.0000 </r>
       <r>  -39.5673    1.0000 </r>
       <r>  -39.1343    1.0000 </r>
       <r>  -19.0441    1.0000 </r>
       <r>  -19.0393    1.0000 </r>
       <r>  -18.9669    1.0000 </r>
       <r>  -18.9625    1.0000 </r>
       <r>  -18.9617    1.0000 </r>
       <r>  -18.9578    1.0000 </r>
       <r>  -18.9537    1.0000 </r>
       <r>  -18.9482    1.0000 </r>
       <r>  -18.8846    1.0000 </r>
       <r>  -18.8807    1.0000 </r>
       <r>  -18.8767    1.0000 </r>
       <r>  -18.8729    1.0000 </r>
       <r>  -18.8659    1.0000 </r>
       <r>  -18.8644    1.0000 </r>
       <r>  -18.8579    1.0000 </r>
       <r>  -18.8459    1.0000 </r>
       <r>  -18.7870    1.0000 </r>
       <r>  -18.7829    1.0000 </r>
       <r>  -18.7647    1.0000 </r>
       <r>  -18.7602    1.0000 </r>
       <r>  -18.7523    1.0000 </r>
       <r>  -18.7430    1.0000 </r>
       <r>  -18.7348    1.0000 </r>
       <r>  -18.7294    1.0000 </r>
       <r>  -18.7192    1.0000 </r>
       <r>  -18.7100    1.0000 </r>
       <r>  -18.6770    1.0000 </r>
       <r>  -18.6735    1.0000 </r>
       <r>  -18.6631    1.0000 </r>
       <r>  -18.6610    1.0000 </r>
       <r>  -18.6597    1.0000 </r>
       <r>  -18.6574    1.0000 </r>
       <r>  -18.6490    1.0000 </r>
       <r>  -18.6466    1.0000 </r>
       <r>  -18.6460    1.0000 </r>
       <r>  -18.6425    1.0000 </r>
       <r>  -18.6308    1.0000 </r>
       <r>  -18.6302    1.0000 </r>
       <r>  -18.6064    1.0000 </r>
       <r>  -18.6029    1.0000 </r>
       <r>  -18.5990    1.0000 </r>
       <r>  -18.5951    1.0000 </r>
       <r>  -18.5904    1.0000 </r>
       <r>  -18.5828    1.0000 </r>
       <r>  -18.5827    1.0000 </r>
       <r>  -18.5808    1.0000 </r>
       <r>  -18.5789    1.0000 </r>
       <r>  -18.5491    1.0000 </r>
       <r>  -18.5215    1.0000 </r>
       <r>  -18.5141    1.0000 </r>
       <r>  -18.5097    1.0000 </r>
       <r>  -18.5077    1.0000 </r>
       <r>  -18.4940    1.0000 </r>
       <r>  -18.4924    1.0000 </r>
       <r>  -18.4735    1.0000 </r>
       <r>  -18.4723    1.0000 </r>
       <r>  -18.4509    1.0000 </r>
       <r>  -18.4472    1.0000 </r>
       <r>  -18.4324    1.0000 </r>
       <r>  -18.4310    1.0000 </r>
       <r>  -18.4289    1.0000 </r>
       <r>  -18.4211    1.0000 </r>
       <r>  -18.4202    1.0000 </r>
       <r>  -18.4089    1.0000 </r>
       <r>  -18.3572    1.0000 </r>
       <r>  -18.3554    1.0000 </r>
       <r>  -18.3470    1.0000 </r>
       <r>  -18.3469    1.0000 </r>
       <r>  -18.3371    1.0000 </r>
       <r>  -18.3291    1.0000 </r>
       <r>  -18.2664    1.0000 </r>
       <r>  -18.2641    1.0000 </r>
       <r>  -18.2255    1.0000 </r>
       <r>  -18.2211    1.0000 </r>
       <r>  -18.2113    1.0000 </r>
       <r>  -18.1938    1.0000 </r>
       <r>  -18.1574    1.0000 </r>
       <r>  -18.1545    1.0000 </r>
       <r>  -18.1308    1.0000 </r>
       <r>  -18.1288    1.0000 </r>
       <r>  -13.7402    1.0000 </r>
       <r>  -13.6257    1.0000 </r>
       <r>  -13.5437    1.0000 </r>
       <r>  -13.5209    1.0000 </r>
       <r>  -12.8831    1.0000 </r>
       <r>  -12.8263    1.0000 </r>
       <r>  -12.7904    1.0000 </r>
       <r>  -12.7330    1.0000 </r>
       <r>  -12.6938    1.0000 </r>
       <r>  -12.6826    1.0000 </r>
       <r>  -12.6507    1.0000 </r>
       <r>  -12.6310    1.0000 </r>
       <r>  -12.0253    1.0000 </r>
       <r>  -11.9836    1.0000 </r>
       <r>  -11.9119    1.0000 </r>
       <r>  -11.8903    1.0000 </r>
       <r>   -9.2384    1.0000 </r>
       <r>   -9.0820    1.0000 </r>
       <r>   -8.9668    1.0000 </r>
       <r>   -8.8066    1.0000 </r>
       <r>   -8.4374    1.0000 </r>
       <r>   -8.4048    1.0000 </r>
       <r>   -8.3025    1.0000 </r>
       <r>   -8.2661    1.0000 </r>
       <r>   -8.2421    1.0000 </r>
       <r>   -8.2017    1.0000 </r>
       <r>   -8.1077    1.0000 </r>
       <r>   -8.0616    1.0000 </r>
       <r>   -7.7690    1.0000 </r>
       <r>   -7.6661    1.0000 </r>
       <r>   -7.6473    1.0000 </r>
       <r>   -7.5442    1.0000 </r>
       <r>   -6.0989    1.0000 </r>
       <r>   -6.0714    1.0000 </r>
       <r>   -5.9925    1.0000 </r>
       <r>   -5.9230    1.0000 </r>
       <r>   -5.8707    1.0000 </r>
       <r>   -5.8438    1.0000 </r>
       <r>   -5.7447    1.0000 </r>
       <r>   -5.6945    1.0000 </r>
       <r>   -5.6385    1.0000 </r>
       <r>   -5.6311    1.0000 </r>
       <r>   -5.4531    1.0000 </r>
       <r>   -5.4225    1.0000 </r>
       <r>   -4.5163    1.0000 </r>
       <r>   -4.3658    1.0000 </r>
       <r>   -4.3465    1.0000 </r>
       <r>   -4.1892    1.0000 </r>
       <r>   -1.3124    1.0000 </r>
       <r>   -1.1370    1.0000 </r>
       <r>   -0.9401    1.0000 </r>
       <r>   -0.7690    1.0000 </r>
       <r>   -0.6267    1.0000 </r>
       <r>   -0.4753    1.0000 </r>
       <r>   -0.1828    1.0000 </r>
       <r>   -0.1260    1.0000 </r>
       <r>   -0.1018    1.0000 </r>
       <r>   -0.0339    1.0000 </r>
       <r>   -0.0169    1.0000 </r>
       <r>    0.0351    1.0000 </r>
       <r>    0.1169    1.0000 </r>
       <r>    0.1943    1.0000 </r>
       <r>    0.2553    1.0000 </r>
       <r>    0.3203    1.0000 </r>
       <r>    0.3971    1.0000 </r>
       <r>    0.4388    1.0000 </r>
       <r>    0.4553    1.0000 </r>
       <r>    0.5274    1.0000 </r>
       <r>    0.5745    1.0000 </r>
       <r>    0.5815    1.0000 </r>
       <r>    0.6344    1.0000 </r>
       <r>    0.6628    1.0000 </r>
       <r>    0.6738    1.0000 </r>
       <r>    0.7124    1.0000 </r>
       <r>    0.7481    1.0000 </r>
       <r>    0.7904    1.0000 </r>
       <r>    0.8340    1.0000 </r>
       <r>    0.8934    1.0000 </r>
       <r>    0.9063    1.0000 </r>
       <r>    0.9594    1.0000 </r>
       <r>    1.1014    1.0000 </r>
       <r>    1.1179    1.0000 </r>
       <r>    1.1724    1.0000 </r>
       <r>    1.2251    1.0000 </r>
       <r>    1.2749    1.0000 </r>
       <r>    1.3009    1.0000 </r>
       <r>    1.3056    1.0000 </r>
       <r>    1.3572    1.0000 </r>
       <r>    1.3728    1.0000 </r>
       <r>    1.4641    1.0000 </r>
       <r>    1.4983    1.0000 </r>
       <r>    1.5122    1.0000 </r>
       <r>    1.5565    1.0000 </r>
       <r>    1.5788    1.0000 </r>
       <r>    1.6503    1.0000 </r>
       <r>    1.7132    1.0000 </r>
       <r>    1.7538    1.0000 </r>
       <r>    1.7730    1.0000 </r>
       <r>    1.8649    1.0000 </r>
       <r>    1.9145    1.0000 </r>
       <r>    1.9176    1.0000 </r>
       <r>    1.9982    1.0000 </r>
       <r>    2.0417    1.0000 </r>
       <r>    2.0912    1.0000 </r>
       <r>    2.1634    1.0000 </r>
       <r>    2.2071    1.0000 </r>
       <r>    2.2156    1.0000 </r>
       <r>    2.2558    1.0000 </r>
       <r>    2.2982    1.0000 </r>
       <r>    2.3720    1.0000 </r>
       <r>    2.3928    1.0000 </r>
       <r>    2.4404    1.0000 </r>
       <r>    2.5018    1.0000 </r>
       <r>    2.5215    1.0000 </r>
       <r>    2.5423    1.0000 </r>
       <r>    2.5889    1.0000 </r>
       <r>    2.6317    1.0000 </r>
       <r>    2.6411    1.0000 </r>
       <r>    2.6613    1.0000 </r>
       <r>    2.7271    1.0000 </r>
       <r>    2.7413    1.0000 </r>
       <r>    2.7972    1.0000 </r>
       <r>    2.8313    1.0000 </r>
       <r>    2.8423    1.0000 </r>
       <r>    2.8998    1.0000 </r>
       <r>    2.9825    1.0000 </r>
       <r>    3.0104    1.0000 </r>
       <r>    3.0225    1.0000 </r>
       <r>    3.0540    1.0000 </r>
       <r>    3.1067    1.0000 </r>
       <r>    3.1630    1.0000 </r>
       <r>    3.1869    1.0000 </r>
       <r>    3.2528    1.0000 </r>
       <r>    3.2837    1.0000 </r>
       <r>    3.4003    1.0000 </r>
       <r>    3.4176    1.0000 </r>
       <r>    3.4608    1.0000 </r>
       <r>    3.5284    1.0000 </r>
       <r>    3.5468    1.0000 </r>
       <r>    3.5788    1.0000 </r>
       <r>    3.6506    1.0000 </r>
       <r>    3.7036    1.0000 </r>
       <r>    3.8740    1.0000 </r>
       <r>    3.9355    1.0000 </r>
       <r>    5.5244    0.0000 </r>
       <r>    5.5265    0.0000 </r>
       <r>    5.6889    0.0000 </r>
       <r>    5.6965    0.0000 </r>
       <r>    5.7161    0.0000 </r>
       <r>    5.7207    0.0000 </r>
       <r>    5.8750    0.0000 </r>
       <r>    5.8831    0.0000 </r>
       <r>    7.0714    0.0000 </r>
       <r>    7.1099    0.0000 </r>
       <r>    7.1582    0.0000 </r>
       <r>    7.2315    0.0000 </r>
       <r>    7.2803    0.0000 </r>
       <r>    7.2992    0.0000 </r>
       <r>    7.3561    0.0000 </r>
       <r>    7.3736    0.0000 </r>
       <r>    7.4295    0.0000 </r>
       <r>    7.4719    0.0000 </r>
       <r>    7.5548    0.0000 </r>
       <r>    7.6012    0.0000 </r>
       <r>    7.7559    0.0000 </r>
       <r>    7.7925    0.0000 </r>
       <r>    7.8230    0.0000 </r>
       <r>    7.8313    0.0000 </r>
       <r>    7.8614    0.0000 </r>
       <r>    7.8856    0.0000 </r>
       <r>    7.9057    0.0000 </r>
       <r>    7.9355    0.0000 </r>
       <r>    7.9637    0.0000 </r>
       <r>    8.0068    0.0000 </r>
       <r>    8.0521    0.0000 </r>
       <r>    8.1563    0.0000 </r>
       <r>    8.2514    0.0000 </r>
       <r>    8.3040    0.0000 </r>
       <r>    8.3993    0.0000 </r>
       <r>    8.4639    0.0000 </r>
       <r>    8.6382    0.0000 </r>
       <r>    8.7171    0.0000 </r>
       <r>    8.7286    0.0000 </r>
       <r>    8.7386    0.0000 </r>
       <r>    8.7512    0.0000 </r>
       <r>    8.8325    0.0000 </r>
       <r>    8.9129    0.0000 </r>
       <r>    8.9314    0.0000 </r>
       <r>    9.0634    0.0000 </r>
       <r>    9.2136    0.0000 </r>
       <r>    9.2880    0.0000 </r>
       <r>    9.3304    0.0000 </r>
       <r>    9.4141    0.0000 </r>
       <r>    9.5512    0.0000 </r>
      </set>
      <set comment="kpoint 3">
       <r>  -40.6106    1.0000 </r>
       <r>  -40.3059    1.0000 </r>
       <r>  -39.8639    1.0000 </r>
       <r>  -39.6840    1.0000 </r>
       <r>  -39.5673    1.0000 </r>
       <r>  -39.1343    1.0000 </r>
       <r>  -19.0443    1.0000 </r>
       <r>  -19.0392    1.0000 </r>
       <r>  -18.9669    1.0000 </r>
       <r>  -18.9625    1.0000 </r>
       <r>  -18.9618    1.0000 </r>
       <r>  -18.9578    1.0000 </r>
       <r>  -18.9537    1.0000 </r>
       <r>  -18.9482    1.0000 </r>
       <r>  -18.8846    1.0000 </r>
       <r>  -18.8807    1.0000 </r>
       <r>  -18.8767    1.0000 </r>
       <r>  -18.8729    1.0000 </r>
       <r>  -18.8659    1.0000 </r>
       <r>  -18.8644    1.0000 </r>
       <r>  -18.8579    1.0000 </r>
       <r>  -18.8459    1.0000 </r>
       <r>  -18.7870    1.0000 </r>
       <r>  -18.7829    1.0000 </r>
       <r>  -18.7647    1.0000 </r>
       <r>  -18.7602    1.0000 </r>
       <r>  -18.7522    1.0000 </r>
       <r>  -18.7430    1.0000 </r>
       <r>  -18.7348    1.0000 </r>
       <r>  -18.7293    1.0000 </r>
       <r>  -18.7192    1.0000 </r>
       <r>  -18.7100    1.0000 </r>
       <r>  -18.6770    1.0000 </r>
       <r>  -18.6735    1.0000 </r>
       <r>  -18.6627    1.0000 </r>
       <r>  -18.6609    1.0000 </r>
       <r>  -18.6600    1.0000 </r>
       <r>  -18.6575    1.0000 </r>
       <r>  -18.6485    1.0000 </r>
       <r>  -18.6467    1.0000 </r>
       <r>  -18.6458    1.0000 </r>
       <r>  -18.6433    1.0000 </r>
       <r>  -18.6313    1.0000 </r>
       <r>  -18.6299    1.0000 </r>
       <r>  -18.6064    1.0000 </r>
       <r>  -18.6029    1.0000 </r>
       <r>  -18.5990    1.0000 </r>
       <r>  -18.5951    1.0000 </r>
       <r>  -18.5903    1.0000 </r>
       <r>  -18.5828    1.0000 </r>
       <r>  -18.5827    1.0000 </r>
       <r>  -18.5808    1.0000 </r>
       <r>  -18.5789    1.0000 </r>
       <r>  -18.5491    1.0000 </r>
       <r>  -18.5215    1.0000 </r>
       <r>  -18.5141    1.0000 </r>
       <r>  -18.5097    1.0000 </r>
       <r>  -18.5077    1.0000 </r>
       <r>  -18.4940    1.0000 </r>
       <r>  -18.4924    1.0000 </r>
       <r>  -18.4735    1.0000 </r>
       <r>  -18.4723    1.0000 </r>
       <r>  -18.4509    1.0000 </r>
       <r>  -18.4472    1.0000 </r>
       <r>  -18.4324    1.0000 </r>
       <r>  -18.4310    1.0000 </r>
       <r>  -18.4289    1.0000 </r>
       <r>  -18.4211    1.0000 </r>
       <r>  -18.4202    1.0000 </r>
       <r>  -18.4089    1.0000 </r>
       <r>  -18.3572    1.0000 </r>
       <r>  -18.3554    1.0000 </r>
       <r>  -18.3470    1.0000 </r>
       <r>  -18.3469    1.0000 </r>
       <r>  -18.3371    1.0000 </r>
       <r>  -18.3291    1.0000 </r>
       <r>  -18.2665    1.0000 </r>
       <r>  -18.2641    1.0000 </r>
       <r>  -18.2255    1.0000 </r>
       <r>  -18.2211    1.0000 </r>
       <r>  -18.2113    1.0000 </r>
       <r>  -18.1938    1.0000 </r>
       <r>  -18.1574    1.0000 </r>
       <r>  -18.1545    1.0000 </r>
       <r>  -18.1308    1.0000 </r>
       <r>  -18.1288    1.0000 </r>
       <r>  -13.7411    1.0000 </r>
       <r>  -13.6251    1.0000 </r>
       <r>  -13.5399    1.0000 </r>
       <r>  -13.5243    1.0000 </r>
       <r>  -12.8809    1.0000 </r>
       <r>  -12.8288    1.0000 </r>
       <r>  -12.7889    1.0000 </r>
       <r>  -12.7288    1.0000 </r>
       <r>  -12.7034    1.0000 </r>
       <r>  -12.6833    1.0000 </r>
       <r>  -12.6413    1.0000 </r>
       <r>  -12.6362    1.0000 </r>
       <r>  -12.0215    1.0000 </r>
       <r>  -11.9867    1.0000 </r>
       <r>  -11.9118    1.0000 </r>
       <r>  -11.8924    1.0000 </r>
       <r>   -9.3743    1.0000 </r>
       <r>   -9.0983    1.0000 </r>
       <r>   -8.6065    1.0000 </r>
       <r>   -8.5553    1.0000 </r>
       <r>   -8.5217    1.0000 </r>
       <r>   -8.5159    1.0000 </r>
       <r>   -8.3483    1.0000 </r>
       <r>   -8.3048    1.0000 </r>
       <r>   -8.2652    1.0000 </r>
       <r>   -8.2595    1.0000 </r>
       <r>   -8.0368    1.0000 </r>
       <r>   -8.0225    1.0000 </r>
       <r>   -8.0044    1.0000 </r>
       <r>   -7.9914    1.0000 </r>
       <r>   -7.3809    1.0000 </r>
       <r>   -7.3802    1.0000 </r>
       <r>   -6.4117    1.0000 </r>
       <r>   -6.4057    1.0000 </r>
       <r>   -6.3858    1.0000 </r>
       <r>   -6.3771    1.0000 </r>
       <r>   -5.6143    1.0000 </r>
       <r>   -5.5886    1.0000 </r>
       <r>   -5.4302    1.0000 </r>
       <r>   -5.4272    1.0000 </r>
       <r>   -5.3457    1.0000 </r>
       <r>   -5.2693    1.0000 </r>
       <r>   -5.1458    1.0000 </r>
       <r>   -5.1297    1.0000 </r>
       <r>   -5.0669    1.0000 </r>
       <r>   -5.0000    1.0000 </r>
       <r>   -3.8951    1.0000 </r>
       <r>   -3.5834    1.0000 </r>
       <r>   -1.4343    1.0000 </r>
       <r>   -1.3717    1.0000 </r>
       <r>   -1.2913    1.0000 </r>
       <r>   -1.0839    1.0000 </r>
       <r>   -0.5532    1.0000 </r>
       <r>   -0.5128    1.0000 </r>
       <r>   -0.4795    1.0000 </r>
       <r>   -0.4455    1.0000 </r>
       <r>   -0.4340    1.0000 </r>
       <r>   -0.4111    1.0000 </r>
       <r>   -0.3253    1.0000 </r>
       <r>   -0.3218    1.0000 </r>
       <r>   -0.2653    1.0000 </r>
       <r>   -0.1361    1.0000 </r>
       <r>   -0.1003    1.0000 </r>
       <r>   -0.0369    1.0000 </r>
       <r>    0.1684    1.0000 </r>
       <r>    0.2341    1.0000 </r>
       <r>    0.3042    1.0000 </r>
       <r>    0.3555    1.0000 </r>
       <r>    0.4768    1.0000 </r>
       <r>    0.5672    1.0000 </r>
       <r>    0.6376    1.0000 </r>
       <r>    0.6852    1.0000 </r>
       <r>    0.7283    1.0000 </r>
       <r>    0.7660    1.0000 </r>
       <r>    0.7847    1.0000 </r>
       <r>    0.7965    1.0000 </r>
       <r>    0.8197    1.0000 </r>
       <r>    0.9344    1.0000 </r>
       <r>    1.0230    1.0000 </r>
       <r>    1.0407    1.0000 </r>
       <r>    1.0823    1.0000 </r>
       <r>    1.1784    1.0000 </r>
       <r>    1.1918    1.0000 </r>
       <r>    1.2992    1.0000 </r>
       <r>    1.3230    1.0000 </r>
       <r>    1.3766    1.0000 </r>
       <r>    1.4873    1.0000 </r>
       <r>    1.4911    1.0000 </r>
       <r>    1.5569    1.0000 </r>
       <r>    1.5790    1.0000 </r>
       <r>    1.6024    1.0000 </r>
       <r>    1.7034    1.0000 </r>
       <r>    1.7371    1.0000 </r>
       <r>    1.8074    1.0000 </r>
       <r>    1.8686    1.0000 </r>
       <r>    1.9513    1.0000 </r>
       <r>    1.9727    1.0000 </r>
       <r>    2.0238    1.0000 </r>
       <r>    2.0835    1.0000 </r>
       <r>    2.1611    1.0000 </r>
       <r>    2.2014    1.0000 </r>
       <r>    2.2074    1.0000 </r>
       <r>    2.2885    1.0000 </r>
       <r>    2.3623    1.0000 </r>
       <r>    2.3833    1.0000 </r>
       <r>    2.4285    1.0000 </r>
       <r>    2.4570    1.0000 </r>
       <r>    2.4766    1.0000 </r>
       <r>    2.5035    1.0000 </r>
       <r>    2.5254    1.0000 </r>
       <r>    2.5322    1.0000 </r>
       <r>    2.5550    1.0000 </r>
       <r>    2.5725    1.0000 </r>
       <r>    2.6019    1.0000 </r>
       <r>    2.6341    1.0000 </r>
       <r>    2.6535    1.0000 </r>
       <r>    2.7656    1.0000 </r>
       <r>    2.7842    1.0000 </r>
       <r>    2.7924    1.0000 </r>
       <r>    2.8565    1.0000 </r>
       <r>    2.8712    1.0000 </r>
       <r>    2.9049    1.0000 </r>
       <r>    2.9366    1.0000 </r>
       <r>    2.9587    1.0000 </r>
       <r>    3.0023    1.0000 </r>
       <r>    3.0198    1.0000 </r>
       <r>    3.0475    1.0000 </r>
       <r>    3.0705    1.0000 </r>
       <r>    3.1459    1.0000 </r>
       <r>    3.2165    1.0000 </r>
       <r>    3.3209    1.0000 </r>
       <r>    3.3401    1.0000 </r>
       <r>    3.3602    1.0000 </r>
       <r>    3.3920    1.0000 </r>
       <r>    3.4562    1.0000 </r>
       <r>    3.4805    1.0000 </r>
       <r>    3.4979    1.0000 </r>
       <r>    3.5347    1.0000 </r>
       <r>    3.6906    1.0000 </r>
       <r>    3.7582    1.0000 </r>
       <r>    4.2195    1.0000 </r>
       <r>    4.2215    1.0000 </r>
       <r>    4.2718    1.0000 </r>
       <r>    4.2828    1.0000 </r>
       <r>    5.0511    0.0000 </r>
       <r>    5.0539    0.0000 </r>
       <r>    5.2232    0.0000 </r>
       <r>    5.2244    0.0000 </r>
       <r>    5.6829    0.0000 </r>
       <r>    5.6899    0.0000 </r>
       <r>    5.7936    0.0000 </r>
       <r>    5.7973    0.0000 </r>
       <r>    6.1541    0.0000 </r>
       <r>    6.1552    0.0000 </r>
       <r>    6.1834    0.0000 </r>
       <r>    6.1914    0.0000 </r>
       <r>    6.2433    0.0000 </r>
       <r>    6.2544    0.0000 </r>
       <r>    6.2727    0.0000 </r>
       <r>    6.2808    0.0000 </r>
       <r>    6.5890    0.0000 </r>
       <r>    6.6934    0.0000 </r>
       <r>    6.8725    0.0000 </r>
       <r>    6.9521    0.0000 </r>
       <r>    7.1424    0.0000 </r>
       <r>    7.2312    0.0000 </r>
       <r>    7.4060    0.0000 </r>
       <r>    7.5267    0.0000 </r>
       <r>    7.7487    0.0000 </r>
       <r>    7.8329    0.0000 </r>
       <r>    7.8634    0.0000 </r>
       <r>    7.9224    0.0000 </r>
       <r>    8.0065    0.0000 </r>
       <r>    8.3673    0.0000 </r>
       <r>    8.3929    0.0000 </r>
       <r>    8.4082    0.0000 </r>
       <r>    8.5734    0.0000 </r>
       <r>    8.7465    0.0000 </r>
       <r>    8.8483    0.0000 </r>
       <r>    8.8849    0.0000 </r>
       <r>    8.9482    0.0000 </r>
       <r>    9.0324    0.0000 </r>
       <r>    9.0407    0.0000 </r>
       <r>    9.0437    0.0000 </r>
       <r>    9.0784    0.0000 </r>
       <r>    9.1114    0.0000 </r>
       <r>    9.1272    0.0000 </r>
       <r>    9.2109    0.0000 </r>
       <r>    9.4570    0.0000 </r>
       <r>    9.4844    0.0000 </r>
       <r>    9.5982    0.0000 </r>
       <r>    9.6702    0.0000 </r>
       <r>    9.7127    0.0000 </r>
       <r>    9.7265    0.0000 </r>
      </set>
      <set comment="kpoint 4">
       <r>  -40.6106    1.0000 </r>
       <r>  -40.3059    1.0000 </r>
       <r>  -39.8639    1.0000 </r>
       <r>  -39.6840    1.0000 </r>
       <r>  -39.5673    1.0000 </r>
       <r>  -39.1343    1.0000 </r>
       <r>  -19.0443    1.0000 </r>
       <r>  -19.0392    1.0000 </r>
       <r>  -18.9669    1.0000 </r>
       <r>  -18.9625    1.0000 </r>
       <r>  -18.9617    1.0000 </r>
       <r>  -18.9578    1.0000 </r>
       <r>  -18.9537    1.0000 </r>
       <r>  -18.9482    1.0000 </r>
       <r>  -18.8846    1.0000 </r>
       <r>  -18.8807    1.0000 </r>
       <r>  -18.8767    1.0000 </r>
       <r>  -18.8729    1.0000 </r>
       <r>  -18.8659    1.0000 </r>
       <r>  -18.8644    1.0000 </r>
       <r>  -18.8579    1.0000 </r>
       <r>  -18.8459    1.0000 </r>
       <r>  -18.7870    1.0000 </r>
       <r>  -18.7829    1.0000 </r>
       <r>  -18.7647    1.0000 </r>
       <r>  -18.7602    1.0000 </r>
       <r>  -18.7523    1.0000 </r>
       <r>  -18.7430    1.0000 </r>
       <r>  -18.7348    1.0000 </r>
       <r>  -18.7294    1.0000 </r>
       <r>  -18.7192    1.0000 </r>
       <r>  -18.7100    1.0000 </r>
       <r>  -18.6770    1.0000 </r>
       <r>  -18.6734    1.0000 </r>
       <r>  -18.6630    1.0000 </r>
       <r>  -18.6611    1.0000 </r>
       <r>  -18.6597    1.0000 </r>
       <r>  -18.6574    1.0000 </r>
       <r>  -18.6490    1.0000 </r>
       <r>  -18.6465    1.0000 </r>
       <r>  -18.6461    1.0000 </r>
       <r>  -18.6426    1.0000 </r>
       <r>  -18.6312    1.0000 </r>
       <r>  -18.6298    1.0000 </r>
       <r>  -18.6064    1.0000 </r>
       <r>  -18.6029    1.0000 </r>
       <r>  -18.5990    1.0000 </r>
       <r>  -18.5951    1.0000 </r>
       <r>  -18.5904    1.0000 </r>
       <r>  -18.5828    1.0000 </r>
       <r>  -18.5827    1.0000 </r>
       <r>  -18.5808    1.0000 </r>
       <r>  -18.5789    1.0000 </r>
       <r>  -18.5491    1.0000 </r>
       <r>  -18.5215    1.0000 </r>
       <r>  -18.5141    1.0000 </r>
       <r>  -18.5097    1.0000 </r>
       <r>  -18.5077    1.0000 </r>
       <r>  -18.4940    1.0000 </r>
       <r>  -18.4924    1.0000 </r>
       <r>  -18.4735    1.0000 </r>
       <r>  -18.4723    1.0000 </r>
       <r>  -18.4509    1.0000 </r>
       <r>  -18.4472    1.0000 </r>
       <r>  -18.4324    1.0000 </r>
       <r>  -18.4310    1.0000 </r>
       <r>  -18.4289    1.0000 </r>
       <r>  -18.4211    1.0000 </r>
       <r>  -18.4201    1.0000 </r>
       <r>  -18.4089    1.0000 </r>
       <r>  -18.3572    1.0000 </r>
       <r>  -18.3554    1.0000 </r>
       <r>  -18.3470    1.0000 </r>
       <r>  -18.3469    1.0000 </r>
       <r>  -18.3371    1.0000 </r>
       <r>  -18.3291    1.0000 </r>
       <r>  -18.2665    1.0000 </r>
       <r>  -18.2641    1.0000 </r>
       <r>  -18.2255    1.0000 </r>
       <r>  -18.2211    1.0000 </r>
       <r>  -18.2112    1.0000 </r>
       <r>  -18.1938    1.0000 </r>
       <r>  -18.1574    1.0000 </r>
       <r>  -18.1545    1.0000 </r>
       <r>  -18.1308    1.0000 </r>
       <r>  -18.1288    1.0000 </r>
       <r>  -13.7400    1.0000 </r>
       <r>  -13.6257    1.0000 </r>
       <r>  -13.5438    1.0000 </r>
[...]
       <r>    8.8134    0.0000 </r>
       <r>    8.8250    0.0000 </r>
       <r>    8.8671    0.0000 </r>
       <r>    8.8972    0.0000 </r>
       <r>    8.9181    0.0000 </r>
       <r>    8.9416    0.0000 </r>
       <r>    8.9702    0.0000 </r>
       <r>    9.4407    0.0000 </r>
       <r>    9.7241    0.0000 </r>
      </set>
     </set>
    </set>
   </array>
  </eigenvalues>
  <separator name="orbital magnetization" >
   <v name="MAGDIPOLOUT">      0.00000000      0.00000000      0.00000000</v>
  </separator>
  <dos>
   <i name="efermi">      4.29786951 </i>
   <total>
    <array>
     <dimension dim="1">gridpoints</dimension>
     <dimension dim="2">spin</dimension>
     <field>energy</field>
     <field>total</field>
     <field>integrated</field>
     <set>
      <set comment="spin 1">
       <r>   -43.1426     0.0000     0.0000 </r>
       <r>   -42.9569     0.0000     0.0000 </r>
       <r>   -42.7712     0.0000     0.0000 </r>
       <r>   -42.5856     0.0000     0.0000 </r>
       <r>   -42.3999     0.0000     0.0000 </r>
       <r>   -42.2142     0.0000     0.0000 </r>
       <r>   -42.0285     0.0000     0.0000 </r>
       <r>   -41.8428     0.0000     0.0000 </r>
       <r>   -41.6572     0.0000     0.0000 </r>
       <r>   -41.4715     0.0000     0.0000 </r>
       <r>   -41.2858     0.0000     0.0000 </r>
       <r>   -41.1001     0.0000     0.0000 </r>
       <r>   -40.9145     0.0000     0.0000 </r>
       <r>   -40.7288     0.0000     0.0000 </r>
       <r>   -40.5431     0.0000     2.0000 </r>
       <r>   -40.3574     0.0000     2.0000 </r>
       <r>   -40.1718     0.0000     4.0000 </r>
       <r>   -39.9861     0.0000     4.0000 </r>
       <r>   -39.8004     0.0000     6.0000 </r>
       <r>   -39.6147     0.0000     8.0000 </r>
       <r>   -39.4290     0.0000    10.0000 </r>
       <r>   -39.2434     0.0000    10.0000 </r>
       <r>   -39.0577     0.0000    12.0000 </r>
       <r>   -38.8720     0.0000    12.0000 </r>
       <r>   -38.6863     0.0000    12.0000 </r>
       <r>   -38.5007     0.0000    12.0000 </r>
       <r>   -38.3150     0.0000    12.0000 </r>
       <r>   -38.1293     0.0000    12.0000 </r>
       <r>   -37.9436     0.0000    12.0000 </r>
       <r>   -37.7580     0.0000    12.0000 </r>
       <r>   -37.5723     0.0000    12.0000 </r>
       <r>   -37.3866     0.0000    12.0000 </r>
       <r>   -37.2009     0.0000    12.0000 </r>
       <r>   -37.0152     0.0000    12.0000 </r>
       <r>   -36.8296     0.0000    12.0000 </r>
       <r>   -36.6439     0.0000    12.0000 </r>
       <r>   -36.4582     0.0000    12.0000 </r>
       <r>   -36.2725     0.0000    12.0000 </r>
       <r>   -36.0869     0.0000    12.0000 </r>
       <r>   -35.9012     0.0000    12.0000 </r>
       <r>   -35.7155     0.0000    12.0000 </r>
       <r>   -35.5298     0.0000    12.0000 </r>
       <r>   -35.3442     0.0000    12.0000 </r>
       <r>   -35.1585     0.0000    12.0000 </r>
       <r>   -34.9728     0.0000    12.0000 </r>
       <r>   -34.7871     0.0000    12.0000 </r>
       <r>   -34.6014     0.0000    12.0000 </r>
       <r>   -34.4158     0.0000    12.0000 </r>
       <r>   -34.2301     0.0000    12.0000 </r>
       <r>   -34.0444     0.0000    12.0000 </r>
       <r>   -33.8587     0.0000    12.0000 </r>
       <r>   -33.6731     0.0000    12.0000 </r>
       <r>   -33.4874     0.0000    12.0000 </r>
       <r>   -33.3017     0.0000    12.0000 </r>
       <r>   -33.1160     0.0000    12.0000 </r>
       <r>   -32.9304     0.0000    12.0000 </r>
       <r>   -32.7447     0.0000    12.0000 </r>
       <r>   -32.5590     0.0000    12.0000 </r>
       <r>   -32.3733     0.0000    12.0000 </r>
       <r>   -32.1876     0.0000    12.0000 </r>
       <r>   -32.0020     0.0000    12.0000 </r>
       <r>   -31.8163     0.0000    12.0000 </r>
       <r>   -31.6306     0.0000    12.0000 </r>
       <r>   -31.4449     0.0000    12.0000 </r>
       <r>   -31.2593     0.0000    12.0000 </r>
       <r>   -31.0736     0.0000    12.0000 </r>
       <r>   -30.8879     0.0000    12.0000 </r>
       <r>   -30.7022     0.0000    12.0000 </r>
       <r>   -30.5166     0.0000    12.0000 </r>
       <r>   -30.3309     0.0000    12.0000 </r>
       <r>   -30.1452     0.0000    12.0000 </r>
       <r>   -29.9595     0.0000    12.0000 </r>
       <r>   -29.7738     0.0000    12.0000 </r>
       <r>   -29.5882     0.0000    12.0000 </r>
       <r>   -29.4025     0.0000    12.0000 </r>
       <r>   -29.2168     0.0000    12.0000 </r>
       <r>   -29.0311     0.0000    12.0000 </r>
       <r>   -28.8455     0.0000    12.0000 </r>
       <r>   -28.6598     0.0000    12.0000 </r>
       <r>   -28.4741     0.0000    12.0000 </r>
       <r>   -28.2884     0.0000    12.0000 </r>
       <r>   -28.1028     0.0000    12.0000 </r>
       <r>   -27.9171     0.0000    12.0000 </r>
       <r>   -27.7314     0.0000    12.0000 </r>
       <r>   -27.5457     0.0000    12.0000 </r>
       <r>   -27.3600     0.0000    12.0000 </r>
       <r>   -27.1744     0.0000    12.0000 </r>
       <r>   -26.9887     0.0000    12.0000 </r>
       <r>   -26.8030     0.0000    12.0000 </r>
       <r>   -26.6173     0.0000    12.0000 </r>
       <r>   -26.4317     0.0000    12.0000 </r>
       <r>   -26.2460     0.0000    12.0000 </r>
       <r>   -26.0603     0.0000    12.0000 </r>
       <r>   -25.8746     0.0000    12.0000 </r>
       <r>   -25.6890     0.0000    12.0000 </r>
       <r>   -25.5033     0.0000    12.0000 </r>
       <r>   -25.3176     0.0000    12.0000 </r>
       <r>   -25.1319     0.0000    12.0000 </r>
       <r>   -24.9462     0.0000    12.0000 </r>
       <r>   -24.7606     0.0000    12.0000 </r>
       <r>   -24.5749     0.0000    12.0000 </r>
       <r>   -24.3892     0.0000    12.0000 </r>
       <r>   -24.2035     0.0000    12.0000 </r>
       <r>   -24.0179     0.0000    12.0000 </r>
       <r>   -23.8322     0.0000    12.0000 </r>
       <r>   -23.6465     0.0000    12.0000 </r>
       <r>   -23.4608     0.0000    12.0000 </r>
       <r>   -23.2752     0.0000    12.0000 </r>
       <r>   -23.0895     0.0000    12.0000 </r>
       <r>   -22.9038     0.0000    12.0000 </r>
       <r>   -22.7181     0.0000    12.0000 </r>
       <r>   -22.5324     0.0000    12.0000 </r>
       <r>   -22.3468     0.0000    12.0000 </r>
       <r>   -22.1611     0.0000    12.0000 </r>
       <r>   -21.9754     0.0000    12.0000 </r>
       <r>   -21.7897     0.0000    12.0000 </r>
       <r>   -21.6041     0.0000    12.0000 </r>
       <r>   -21.4184     0.0000    12.0000 </r>
       <r>   -21.2327     0.0000    12.0000 </r>
       <r>   -21.0470     0.0000    12.0000 </r>
       <r>   -20.8614     0.0000    12.0000 </r>
       <r>   -20.6757     0.0000    12.0000 </r>
       <r>   -20.4900     0.0000    12.0000 </r>
       <r>   -20.3043     0.0000    12.0000 </r>
       <r>   -20.1186     0.0000    12.0000 </r>
       <r>   -19.9330     0.0000    12.0000 </r>
       <r>   -19.7473     0.0000    12.0000 </r>
       <r>   -19.5616     0.0000    12.0000 </r>
       <r>   -19.3759     0.0000    12.0000 </r>
       <r>   -19.1903     0.0000    12.0000 </r>
       <r>   -19.0046     0.0000    16.0000 </r>
       <r>   -18.8189     0.0000    44.0000 </r>
       <r>   -18.6332     0.0000    84.0000 </r>
       <r>   -18.4476     0.0000   126.0000 </r>
       <r>   -18.2619     0.0000   156.0000 </r>
       <r>   -18.0762     0.0000   172.0000 </r>
       <r>   -17.8905     0.0000   172.0000 </r>
       <r>   -17.7048     0.0000   172.0000 </r>
       <r>   -17.5192     0.0000   172.0000 </r>
       <r>   -17.3335     0.0000   172.0000 </r>
       <r>   -17.1478     0.0000   172.0000 </r>
       <r>   -16.9621     0.0000   172.0000 </r>
       <r>   -16.7765     0.0000   172.0000 </r>
       <r>   -16.5908     0.0000   172.0000 </r>
       <r>   -16.4051     0.0000   172.0000 </r>
       <r>   -16.2194     0.0000   172.0000 </r>
       <r>   -16.0338     0.0000   172.0000 </r>
       <r>   -15.8481     0.0000   172.0000 </r>
       <r>   -15.6624     0.0000   172.0000 </r>
       <r>   -15.4767     0.0000   172.0000 </r>
       <r>   -15.2910     0.0000   172.0000 </r>
       <r>   -15.1054     0.0000   172.0000 </r>
       <r>   -14.9197     0.0000   172.0000 </r>
       <r>   -14.7340     0.0000   172.0000 </r>
       <r>   -14.5483     0.0000   172.0000 </r>
       <r>   -14.3627     0.0000   172.0000 </r>
       <r>   -14.1770     0.0000   172.0000 </r>
       <r>   -13.9913     0.0000   172.0000 </r>
       <r>   -13.8056     0.0000   172.0000 </r>
       <r>   -13.6200     0.0000   176.0000 </r>
       <r>   -13.4343     0.0000   180.0000 </r>
       <r>   -13.2486     0.0000   180.0000 </r>
       <r>   -13.0629     0.0000   180.0000 </r>
       <r>   -12.8772     0.0000   182.0000 </r>
       <r>   -12.6916     0.0000   190.0000 </r>
       <r>   -12.5059     0.0000   196.0000 </r>
       <r>   -12.3202     0.0000   196.0000 </r>
       <r>   -12.1345     0.0000   196.0000 </r>
       <r>   -11.9489     0.0000   200.0000 </r>
       <r>   -11.7632     0.0000   204.0000 </r>
       <r>   -11.5775     0.0000   204.0000 </r>
       <r>   -11.3918     0.0000   204.0000 </r>
       <r>   -11.2062     0.0000   204.0000 </r>
       <r>   -11.0205     0.0000   204.0000 </r>
       <r>   -10.8348     0.0000   204.0000 </r>
       <r>   -10.6491     0.0000   204.0000 </r>
       <r>   -10.4634     0.0000   204.0000 </r>
       <r>   -10.2778     0.0000   204.0000 </r>
       <r>   -10.0921     0.0000   204.0000 </r>
       <r>    -9.9064     0.0000   204.0000 </r>
       <r>    -9.7207     0.0000   204.0000 </r>
       <r>    -9.5351     0.0000   204.0000 </r>
       <r>    -9.3494     3.6560   204.0549 </r>
       <r>    -9.1637     4.9043   205.9037 </r>
       <r>    -8.9780     5.7512   208.0198 </r>
       <r>    -8.7924    18.6098   210.1306 </r>
       <r>    -8.6067    14.6264   212.6245 </r>
       <r>    -8.4210    14.8974   216.8941 </r>
       <r>    -8.2353    24.8470   220.4870 </r>
       <r>    -8.0496    42.4020   223.9539 </r>
       <r>    -7.8640    19.1870   228.4813 </r>
       <r>    -7.6783    18.4995   231.8834 </r>
       <r>    -7.4926    17.3352   235.0158 </r>
       <r>    -7.3069     0.0000   236.0000 </r>
       <r>    -7.1213     0.0000   236.0000 </r>
       <r>    -6.9356     0.0000   236.0000 </r>
       <r>    -6.7499     0.0000   236.0000 </r>
       <r>    -6.5642     0.0000   236.0000 </r>
       <r>    -6.3786     3.8514   236.0645 </r>
       <r>    -6.1929    26.0615   239.1089 </r>
       <r>    -6.0072    19.1502   243.3108 </r>
       <r>    -5.8215    18.4374   245.8367 </r>
       <r>    -5.6358    20.9383   250.4401 </r>
       <r>    -5.4502    17.7063   253.9067 </r>
       <r>    -5.2645    17.0344   257.7078 </r>
       <r>    -5.0788     4.3036   259.8684 </r>
       <r>    -4.8931     7.1625   260.6831 </r>
       <r>    -4.7075     8.9565   262.2066 </r>
       <r>    -4.5218     7.1173   263.8891 </r>
       <r>    -4.3361     6.4803   265.2856 </r>
       <r>    -4.1504     6.5272   266.5351 </r>
       <r>    -3.9648     3.6236   267.4998 </r>
       <r>    -3.7791     1.1776   267.9078 </r>
       <r>    -3.5934     0.0045   268.0000 </r>
       <r>    -3.4077     0.0000   268.0000 </r>
       <r>    -3.2220     0.0000   268.0000 </r>
       <r>    -3.0364     0.0000   268.0000 </r>
       <r>    -2.8507     0.0000   268.0000 </r>
       <r>    -2.6650     0.0000   268.0000 </r>
       <r>    -2.4793     0.0000   268.0000 </r>
       <r>    -2.2937     0.0000   268.0000 </r>
       <r>    -2.1080     0.0000   268.0000 </r>
       <r>    -1.9223     0.0000   268.0000 </r>
       <r>    -1.7366     0.0000   268.0000 </r>
       <r>    -1.5510     0.0514   268.0004 </r>
       <r>    -1.3653     4.4967   268.3350 </r>
       <r>    -1.1796    10.9561   269.8026 </r>
       <r>    -0.9939    13.0364   271.9897 </r>
       <r>    -0.8082     9.7633   274.1423 </r>
       <r>    -0.6226    11.8161   275.5302 </r>
       <r>    -0.4369    21.3700   278.6705 </r>
       <r>    -0.2512    27.9384   283.0817 </r>
       <r>    -0.0655    35.4729   289.6985 </r>
       <r>     0.1201    24.1549   295.8547 </r>
       <r>     0.3058    34.5831   301.8074 </r>
       <r>     0.4915    41.2046   308.4380 </r>
       <r>     0.6772    38.2717   315.9471 </r>
       <r>     0.8628    45.1306   324.4791 </r>
       <r>     1.0485    21.7255   331.8856 </r>
       <r>     1.2342    21.0455   339.5741 </r>
       <r>     1.4199    42.0569   348.3610 </r>
       <r>     1.6056    58.5218   356.8808 </r>
       <r>     1.7912    43.1859   364.6895 </r>
       <r>     1.9769    40.4291   371.5950 </r>
       <r>     2.1626    41.2668   379.5002 </r>
       <r>     2.3483    51.2911   388.7219 </r>
       <r>     2.5339    60.9574   398.9625 </r>
       <r>     2.7196    55.1667   409.2956 </r>
       <r>     2.9053    58.4246   420.6249 </r>
       <r>     3.0910    49.7716   430.8448 </r>
       <r>     3.2766    36.5652   439.5450 </r>
       <r>     3.4623    37.7449   446.7223 </r>
       <r>     3.6480    24.9037   451.7566 </r>
       <r>     3.8337    19.2171   455.1498 </r>
       <r>     4.0194    13.1940   458.5616 </r>
       <r>     4.2050     1.9756   459.9493 </r>
       <r>     4.3907     0.0000   460.0000 </r>
       <r>     4.5764     0.0000   460.0000 </r>
       <r>     4.7621     0.0000   460.0000 </r>
       <r>     4.9477     0.0000   460.0000 </r>
       <r>     5.1334     1.3804   460.0866 </r>
       <r>     5.3191     5.3295   460.6573 </r>
       <r>     5.5048    10.0368   462.0940 </r>
       <r>     5.6904     9.8273   463.8254 </r>
       <r>     5.8761    25.9197   467.2127 </r>
       <r>     6.0618    12.6885   470.1877 </r>
       <r>     6.2475    11.8534   472.3924 </r>
       <r>     6.4332    14.3169   474.8137 </r>
       <r>     6.6188    16.6993   477.7018 </r>
       <r>     6.8045    19.0272   481.0113 </r>
       <r>     6.9902    22.9220   484.8582 </r>
       <r>     7.1759    28.7431   489.6073 </r>
       <r>     7.3615    34.7484   495.3348 </r>
       <r>     7.5472    25.1860   501.2241 </r>
       <r>     7.7329    43.5129   507.0014 </r>
       <r>     7.9186    46.4359   516.2313 </r>
       <r>     8.1042    24.6315   522.3679 </r>
       <r>     8.2899    18.9666   526.3275 </r>
       <r>     8.4756    21.7463   530.0215 </r>
       <r>     8.6613    27.7498   534.6009 </r>
       <r>     8.8470    44.8725   541.2983 </r>
       <r>     9.0326    25.5585   548.2306 </r>
       <r>     9.2183    16.9444   551.8047 </r>
       <r>     9.4040    16.1963   554.8167 </r>
       <r>     9.5897    13.0029   557.4637 </r>
       <r>     9.7753     7.4249   559.3552 </r>
       <r>     9.9610     0.5381   559.9879 </r>
       <r>    10.1467     0.0000   560.0000 </r>
       <r>    10.3324     0.0000   560.0000 </r>
       <r>    10.5180     0.0000   560.0000 </r>
       <r>    10.7037     0.0000   560.0000 </r>
       <r>    10.8894     0.0000   560.0000 </r>
       <r>    11.0751     0.0000   560.0000 </r>
       <r>    11.2608     0.0000   560.0000 </r>
       <r>    11.4464     0.0000   560.0000 </r>
       <r>    11.6321     0.0000   560.0000 </r>
       <r>    11.8178     0.0000   560.0000 </r>
       <r>    12.0035     0.0000   560.0000 </r>
       <r>    12.1891     0.0000   560.0000 </r>
       <r>    12.3748     0.0000   560.0000 </r>
       <r>    12.5605     0.0000   560.0000 </r>
      </set>
     </set>
    </array>
   </total>
  </dos>
 </calculation>
 <structure name="finalpos" >
  <crystal>
   <varray name="basis" >
    <v>      11.17850000       0.00000000       0.00000000 </v>
    <v>       0.00000000       9.57460000       0.00000000 </v>
    <v>       0.00000000       0.00000000      11.18240000 </v>
   </varray>
   <i name="volume">   1196.84853820 </i>
   <varray name="rec_basis" >
    <v>       0.08945744       0.00000000       0.00000000 </v>
    <v>       0.00000000       0.10444301       0.00000000 </v>
    <v>       0.00000000       0.00000000       0.08942624 </v>
   </varray>
  </crystal>
  <varray name="positions" >
   <v>       0.37539000       0.00017000       0.43687000 </v>
   <v>       0.37461000       0.00017000       0.18687000 </v>
   <v>       0.62539000       0.99984000       0.43687000 </v>
   <v>       0.87539000       0.00017000       0.43687000 </v>
   <v>       0.62461000       0.99984000       0.18687000 </v>
   <v>       0.62539000       0.99984000       0.93687000 </v>
   <v>       0.12461000       0.99984000       0.18687000 </v>
   <v>       0.37539000       0.00017000       0.93687000 </v>
   <v>       0.12461000       0.99984000       0.68687000 </v>
   <v>       0.87539000       0.00017000       0.93687000 </v>
   <v>       0.62461000       0.99984000       0.68687000 </v>
   <v>       0.00013000       0.29519000       0.06281000 </v>
   <v>       0.25013000       0.70481000       0.06281000 </v>
   <v>       0.24987000       0.29519000       0.31282000 </v>
   <v>       0.49987000       0.70481000       0.31282000 </v>
   <v>       0.50013000       0.29519000       0.06281000 </v>
   <v>       0.75013000       0.70481000       0.06281000 </v>
   <v>       0.74987000       0.29519000       0.31282000 </v>
   <v>       0.99987000       0.70481000       0.31282000 </v>
   <v>       0.00013000       0.29519000       0.56281000 </v>
   <v>       0.25013000       0.70481000       0.56281000 </v>
   <v>       0.24987000       0.29519000       0.81282000 </v>
   <v>       0.49987000       0.70481000       0.81282000 </v>
   <v>       0.50013000       0.29519000       0.56281000 </v>
   <v>       0.75013000       0.70481000       0.56281000 </v>
   <v>       0.74987000       0.29519000       0.81282000 </v>
   <v>       0.99987000       0.70481000       0.81282000 </v>
   <v>       0.25005000       0.32677000       0.06286000 </v>
   <v>       0.00005000       0.67323000       0.06286000 </v>
   <v>       0.49995000       0.32677000       0.31286000 </v>
   <v>       0.24995000       0.67323000       0.31286000 </v>
   <v>       0.75005000       0.32677000       0.06286000 </v>
   <v>       0.50005000       0.67323000       0.06286000 </v>
   <v>       0.99995000       0.32677000       0.31286000 </v>
   <v>       0.74995000       0.67323000       0.31286000 </v>
   <v>       0.25005000       0.32677000       0.56286000 </v>
   <v>       0.00005000       0.67323000       0.56286000 </v>
   <v>       0.49995000       0.32677000       0.81286000 </v>
   <v>       0.24995000       0.67323000       0.81286000 </v>
   <v>       0.75005000       0.32677000       0.56286000 </v>
   <v>       0.50005000       0.67323000       0.56286000 </v>
   <v>       0.99995000       0.32677000       0.81286000 </v>
   <v>       0.74995000       0.67323000       0.81286000 </v>
   <v>       0.49987000       0.07798000       0.06246000 </v>
   <v>       0.24987000       0.92202000       0.06246000 </v>
   <v>       0.25013000       0.07798000       0.31246000 </v>
   <v>       0.00013000       0.92202000       0.31246000 </v>
   <v>       0.99987000       0.07798000       0.06246000 </v>
   <v>       0.74987000       0.92202000       0.06246000 </v>
   <v>       0.75013000       0.07798000       0.31246000 </v>
   <v>       0.50013000       0.92202000       0.31246000 </v>
   <v>       0.49987000       0.07798000       0.56246000 </v>
   <v>       0.24987000       0.92202000       0.56246000 </v>
   <v>       0.25013000       0.07798000       0.81246000 </v>
   <v>       0.00013000       0.92202000       0.81246000 </v>
   <v>       0.99987000       0.07798000       0.56246000 </v>
   <v>       0.74987000       0.92202000       0.56246000 </v>
   <v>       0.75013000       0.07798000       0.81246000 </v>
   <v>       0.50013000       0.92202000       0.81246000 </v>
  </varray>
 </structure>
</modeling>
