<?xml version="1.0" encoding="ISO-8859-1"?>
<modeling>
 <generator>
  <i name="program" type="string">vasp </i>
  <i name="version" type="string">5.4.4.18Apr17-6-g9f103f2a35  </i>
  <i name="subversion" type="string">(build Jul 31 2017 11:33:29) complex            parallel </i>
  <i name="platform" type="string">LinuxIFC </i>
  <i name="date" type="string">2021 09 29 </i>
  <i name="time" type="string">12:18:10 </i>
 </generator>
 <incar>
  <i type="string" name="SYSTEM"> La2O2S</i>
  <i type="string" name="PREC">normal</i>
  <i type="int" name="NELMIN">     4</i>
  <i type="int" name="IBRION">     2</i>
  <i type="int" name="NFREE">    10</i>
  <i name="EDIFF">      0.00000100</i>
  <i name="EDIFFG">     -0.01000000</i>
  <i type="int" name="NSW">     1</i>
  <i type="int" name="ISIF">     2</i>
  <i name="ENCUT">    600.00000000</i>
  <i name="ENAUG">    900.00000000</i>
  <i type="int" name="ISMEAR">    -5</i>
  <i type="logical" name="LWAVE"> F  </i>
  <i type="logical" name="LCHARG"> F  </i>
  <v type="int" name="KPOINT_BSE">    -1     0     0     0</v>
 </incar>
 <structure name="primitive_cell" >
  <crystal>
   <varray name="basis" >
    <v>      11.17850000       0.00000000       0.00000000 </v>
    <v>       0.00000000       9.57460000       0.00000000 </v>
    <v>       0.00000000       0.00000000      11.18240000 </v>
   </varray>
   <i name="volume">   1196.84853820 </i>
   <varray name="rec_basis" >
    <v>       0.08945744       0.00000000       0.00000000 </v>
    <v>       0.00000000       0.10444301       0.00000000 </v>
    <v>       0.00000000       0.00000000       0.08942624 </v>
   </varray>
  </crystal>
  <varray name="positions" >
   <v>       0.37539000       0.00017000       0.43687000 </v>
   <v>      -0.49987000      -0.07798000       0.31246000 </v>
   <v>       0.25013000       0.07798000       0.31246000 </v>
   <v>       0.49987000       0.07798000      -0.43754000 </v>
   <v>       0.24987000      -0.07798000      -0.43754000 </v>
   <v>      -0.37461000      -0.00016000       0.43687000 </v>
   <v>       0.37461000       0.00017000       0.18687000 </v>
   <v>       0.37461000       0.00017000      -0.31313000 </v>
   <v>       0.49987000      -0.29519000       0.31282000 </v>
   <v>       0.24987000       0.29519000       0.31282000 </v>
   <v>      -0.49987000       0.29519000      -0.43719000 </v>
   <v>       0.25013000      -0.29519000      -0.43719000 </v>
   <v>       0.49995000       0.32677000       0.31286000 </v>
   <v>       0.24995000      -0.32677000       0.31286000 </v>
   <v>      -0.49995000      -0.32677000      -0.43714000 </v>
   <v>       0.25005000       0.32677000      -0.43714000 </v>
   <v>       0.12461000      -0.00016000       0.18687000 </v>
   <v>       0.49987000       0.07798000       0.06246000 </v>
   <v>      -0.24987000       0.07798000       0.31246000 </v>
   <v>      -0.25013000      -0.07798000      -0.43754000 </v>
   <v>       0.24987000      -0.07798000       0.06246000 </v>
   <v>       0.00013000      -0.07798000       0.31246000 </v>
   <v>      -0.49987000      -0.07798000      -0.18754000 </v>
   <v>      -0.00013000       0.07798000      -0.43754000 </v>
   <v>       0.25013000       0.07798000      -0.18754000 </v>
   <v>      -0.49987000       0.29519000       0.06281000 </v>
   <v>      -0.25013000       0.29519000       0.31282000 </v>
   <v>       0.25013000      -0.29519000       0.06281000 </v>
   <v>      -0.24987000      -0.29519000      -0.43719000 </v>
   <v>      -0.00013000      -0.29519000       0.31282000 </v>
   <v>       0.00013000       0.29519000      -0.43719000 </v>
   <v>       0.49987000      -0.29519000      -0.18718000 </v>
   <v>       0.24987000       0.29519000      -0.18718000 </v>
   <v>      -0.49995000      -0.32677000       0.06286000 </v>
   <v>       0.25005000       0.32677000       0.06286000 </v>
   <v>      -0.25005000      -0.32677000       0.31286000 </v>
   <v>      -0.24995000       0.32677000      -0.43714000 </v>
   <v>      -0.00005000       0.32677000       0.31286000 </v>
   <v>       0.00005000      -0.32677000      -0.43714000 </v>
   <v>       0.49995000       0.32677000      -0.18714000 </v>
   <v>       0.24995000      -0.32677000      -0.18714000 </v>
   <v>      -0.12461000       0.00017000       0.43687000 </v>
   <v>      -0.25013000      -0.07798000       0.06246000 </v>
   <v>      -0.00013000       0.07798000       0.06246000 </v>
   <v>      -0.24987000       0.07798000      -0.18754000 </v>
   <v>       0.00013000      -0.07798000      -0.18754000 </v>
   <v>      -0.12539000       0.00017000       0.18687000 </v>
   <v>      -0.12539000       0.00017000      -0.31313000 </v>
   <v>       0.12539000      -0.00016000      -0.06313000 </v>
   <v>      -0.37461000      -0.00016000      -0.06313000 </v>
   <v>      -0.24987000      -0.29519000       0.06281000 </v>
   <v>       0.00013000       0.29519000       0.06281000 </v>
   <v>      -0.25013000       0.29519000      -0.18718000 </v>
   <v>      -0.00013000      -0.29519000      -0.18718000 </v>
   <v>      -0.24995000       0.32677000       0.06286000 </v>
   <v>       0.00005000      -0.32677000       0.06286000 </v>
   <v>      -0.25005000      -0.32677000      -0.18714000 </v>
   <v>      -0.00005000       0.32677000      -0.18714000 </v>
  </varray>
 </structure>
 <varray name="primitive_index" >
  <v type="int" >        1 </v>
  <v type="int" >       50 </v>
  <v type="int" >       45 </v>
  <v type="int" >       51 </v>
  <v type="int" >       52 </v>
  <v type="int" >        6 </v>
  <v type="int" >        5 </v>
  <v type="int" >        8 </v>
  <v type="int" >       14 </v>
  <v type="int" >       13 </v>
  <v type="int" >       23 </v>
  <v type="int" >       20 </v>
  <v type="int" >       29 </v>
  <v type="int" >       30 </v>
  <v type="int" >       40 </v>
  <v type="int" >       35 </v>
  <v type="int" >        2 </v>
  <v type="int" >       43 </v>
  <v type="int" >       49 </v>
  <v type="int" >       56 </v>
  <v type="int" >       44 </v>
  <v type="int" >       46 </v>
  <v type="int" >       58 </v>
  <v type="int" >       55 </v>
  <v type="int" >       53 </v>
  <v type="int" >       15 </v>
  <v type="int" >       17 </v>
  <v type="int" >       12 </v>
  <v type="int" >       24 </v>
  <v type="int" >       18 </v>
  <v type="int" >       19 </v>
  <v type="int" >       22 </v>
  <v type="int" >       21 </v>
  <v type="int" >       32 </v>
  <v type="int" >       27 </v>
  <v type="int" >       34 </v>
  <v type="int" >       39 </v>
  <v type="int" >       33 </v>
  <v type="int" >       36 </v>
  <v type="int" >       37 </v>
  <v type="int" >       38 </v>
  <v type="int" >        3 </v>
  <v type="int" >       48 </v>
  <v type="int" >       47 </v>
  <v type="int" >       57 </v>
  <v type="int" >       54 </v>
  <v type="int" >        4 </v>
  <v type="int" >       10 </v>
  <v type="int" >        7 </v>
  <v type="int" >        9 </v>
  <v type="int" >       16 </v>
  <v type="int" >       11 </v>
  <v type="int" >       25 </v>
  <v type="int" >       26 </v>
  <v type="int" >       31 </v>
  <v type="int" >       28 </v>
  <v type="int" >       42 </v>
  <v type="int" >       41 </v>
 </varray>
 <kpoints>
  <generation param="Gamma">
   <v type="int" name="divisions">       2        2        2 </v>
   <v name="usershift">      0.00000000       0.00000000       0.00000000 </v>
   <v name="genvec1">      0.50000000       0.00000000       0.00000000 </v>
   <v name="genvec2">      0.00000000       0.50000000       0.00000000 </v>
   <v name="genvec3">      0.00000000       0.00000000       0.50000000 </v>
   <v name="shift">      0.00000000       0.00000000       0.00000000 </v>
  </generation>
  <varray name="kpointlist" >
   <v>       0.00000000       0.00000000       0.00000000 </v>
   <v>       0.50000000       0.00000000       0.00000000 </v>
   <v>       0.00000000       0.50000000       0.00000000 </v>
   <v>       0.50000000       0.50000000       0.00000000 </v>
   <v>       0.00000000       0.00000000       0.50000000 </v>
   <v>       0.50000000       0.00000000       0.50000000 </v>
   <v>       0.00000000       0.50000000       0.50000000 </v>
   <v>       0.50000000       0.50000000       0.50000000 </v>
  </varray>
  <varray name="weights" >
   <v>       0.12500000 </v>
   <v>       0.12500000 </v>
   <v>       0.12500000 </v>
   <v>       0.12500000 </v>
   <v>       0.12500000 </v>
   <v>       0.12500000 </v>
   <v>       0.12500000 </v>
   <v>       0.12500000 </v>
  </varray>
  <varray name="tetrahedronlist"  type="int" >
   <v type="int" >        2        1        2        4        5 </v>
   <v type="int" >        2        1        3        4        5 </v>
   <v type="int" >        2        3        4        5        7 </v>
   <v type="int" >        2        2        4        5        6 </v>
   <v type="int" >        2        4        5        6        8 </v>
   <v type="int" >        2        4        5        7        8 </v>
   <v type="int" >        2        1        2        3        6 </v>
   <v type="int" >        2        2        3        4        6 </v>
   <v type="int" >        2        3        4        6        8 </v>
   <v type="int" >        2        1        3        5        6 </v>
   <v type="int" >        2        3        5        6        7 </v>
   <v type="int" >        2        3        6        7        8 </v>
   <v type="int" >        2        2        3        4        7 </v>
   <v type="int" >        2        1        2        3        7 </v>
   <v type="int" >        2        1        2        5        7 </v>
   <v type="int" >        2        2        4        7        8 </v>
   <v type="int" >        2        2        6        7        8 </v>
   <v type="int" >        2        2        5        6        7 </v>
   <v type="int" >        2        1        3        4        8 </v>
   <v type="int" >        2        1        2        4        8 </v>
   <v type="int" >        2        1        2        6        8 </v>
   <v type="int" >        2        1        3        7        8 </v>
   <v type="int" >        2        1        5        7        8 </v>
   <v type="int" >        2        1        5        6        8 </v>
  </varray>
  <i name="volumeweight">      0.02083333 </i>
 </kpoints>
 <parameters>
  <separator name="general" >
   <i type="string" name="SYSTEM">La2O2S</i>
   <i type="logical" name="LCOMPAT"> F  </i>
  </separator>
  <separator name="electronic" >
   <i type="string" name="PREC">normal</i>
   <i name="ENMAX">    600.00000000</i>
   <i name="ENAUG">    900.00000000</i>
   <i name="EDIFF">      0.00000100</i>
   <i type="int" name="IALGO">    38</i>
   <i type="int" name="IWAVPR">    11</i>
   <i type="int" name="NBANDS">   280</i>
   <i name="NELECT">    456.00000000</i>
   <i type="int" name="TURBO">     0</i>
   <i type="int" name="IRESTART">     0</i>
   <i type="int" name="NREBOOT">     0</i>
   <i type="int" name="NMIN">     0</i>
   <i name="EREF">      0.00000000</i>
   <separator name="electronic smearing" >
    <i type="int" name="ISMEAR">    -5</i>
    <i name="SIGMA">      0.20000000</i>
    <i name="KSPACING">      0.50000000</i>
    <i type="logical" name="KGAMMA"> T  </i>
   </separator>
   <separator name="electronic projectors" >
    <i type="logical" name="LREAL"> F  </i>
    <v name="ROPT">      0.00000000      0.00000000      0.00000000      0.00000000      0.00000000</v>
    <i type="int" name="LMAXPAW">  -100</i>
    <i type="int" name="LMAXMIX">     2</i>
    <i type="logical" name="NLSPLINE"> F  </i>
   </separator>
   <separator name="electronic startup" >
    <i type="int" name="ISTART">     0</i>
    <i type="int" name="ICHARG">     2</i>
    <i type="int" name="INIWAV">     1</i>
   </separator>
   <separator name="electronic spin" >
    <i type="int" name="ISPIN">     1</i>
    <i type="logical" name="LNONCOLLINEAR"> F  </i>
    <v name="MAGMOM">      1.00000000      1.00000000      1.00000000      1.00000000      1.00000000      1.00000000      1.00000000      1.00000000      1.00000000      1.00000000      1.00000000      1.00000000      1.00000000      1.00000000      1.00000000      1.00000000      1.00000000      1.00000000      1.00000000      1.00000000
      1.00000000      1.00000000      1.00000000      1.00000000      1.00000000      1.00000000      1.00000000      1.00000000      1.00000000      1.00000000      1.00000000      1.00000000      1.00000000      1.00000000      1.00000000      1.00000000      1.00000000      1.00000000      1.00000000      1.00000000
      1.00000000      1.00000000      1.00000000      1.00000000      1.00000000      1.00000000      1.00000000      1.00000000      1.00000000      1.00000000      1.00000000      1.00000000      1.00000000      1.00000000      1.00000000      1.00000000      1.00000000      1.00000000</v>
    <i name="NUPDOWN">     -1.00000000</i>
    <i type="logical" name="LSORBIT"> F  </i>
    <v name="SAXIS">      0.00000000      0.00000000      1.00000000</v>
    <i type="logical" name="LSPIRAL"> F  </i>
    <v name="QSPIRAL">      0.00000000      0.00000000      0.00000000</v>
    <i type="logical" name="LZEROZ"> F  </i>
   </separator>
   <separator name="electronic exchange-correlation" >
    <i type="logical" name="LASPH"> F  </i>
    <i type="logical" name="LMETAGGA"> F  </i>
   </separator>
   <separator name="electronic convergence" >
    <i type="int" name="NELM">    60</i>
    <i type="int" name="NELMDL">    -5</i>
    <i type="int" name="NELMIN">     4</i>
    <i name="ENINI">    600.00000000</i>
    <separator name="electronic convergence detail" >
     <i type="logical" name="LDIAG"> T  </i>
     <i type="logical" name="LSUBROT"> F  </i>
     <i name="WEIMIN">      0.00100000</i>
     <i name="EBREAK">      0.00000000</i>
     <i name="DEPER">      0.30000000</i>
     <i type="int" name="NRMM">     4</i>
     <i name="TIME">      0.40000000</i>
    </separator>
   </separator>
   <separator name="electronic mixer" >
    <i name="AMIX">      0.40000000</i>
    <i name="BMIX">      1.00000000</i>
    <i name="AMIN">      0.10000000</i>
    <i name="AMIX_MAG">      1.60000000</i>
    <i name="BMIX_MAG">      1.00000000</i>
    <separator name="electronic mixer details" >
     <i type="int" name="IMIX">     4</i>
     <i type="logical" name="MIXFIRST"> F  </i>
     <i type="int" name="MAXMIX">   -45</i>
     <i name="WC">    100.00000000</i>
     <i type="int" name="INIMIX">     1</i>
     <i type="int" name="MIXPRE">     1</i>
     <i type="int" name="MREMOVE">     5</i>
    </separator>
   </separator>
   <separator name="electronic dipolcorrection" >
    <i type="logical" name="LDIPOL"> F  </i>
    <i type="logical" name="LMONO"> F  </i>
    <i type="int" name="IDIPOL">     0</i>
    <i name="EPSILON">      1.00000000</i>
    <v name="DIPOL">   -100.00000000   -100.00000000   -100.00000000</v>
    <i name="EFIELD">      0.00000000</i>
   </separator>
  </separator>
  <separator name="grids" >
   <i type="int" name="NGX">    70</i>
   <i type="int" name="NGY">    60</i>
   <i type="int" name="NGZ">    70</i>
   <i type="int" name="NGXF">   140</i>
   <i type="int" name="NGYF">   120</i>
   <i type="int" name="NGZF">   140</i>
   <i type="logical" name="ADDGRID"> F  </i>
  </separator>
  <separator name="ionic" >
   <i type="int" name="NSW">     1</i>
   <i type="int" name="IBRION">     2</i>
   <i type="int" name="MDALGO">     0</i>
   <i type="int" name="ISIF">     2</i>
   <i name="PSTRESS">      0.00000000</i>
   <i name="EDIFFG">     -0.01000000</i>
   <i type="int" name="NFREE">    10</i>
   <i name="POTIM">      0.50000000</i>
   <i name="SMASS">     -3.00000000</i>
   <i name="SCALEE">      1.00000000</i>
  </separator>
  <separator name="ionic md" >
   <i name="TEBEG">      0.00010000</i>
   <i name="TEEND">      0.00010000</i>
   <i type="int" name="NBLOCK">     1</i>
   <i type="int" name="KBLOCK">     1</i>
   <i type="int" name="NPACO">   256</i>
   <i name="APACO">     16.00000000</i>
  </separator>
  <separator name="symmetry" >
   <i type="int" name="ISYM">     2</i>
   <i name="SYMPREC">      0.00001000</i>
  </separator>
  <separator name="dos" >
   <i type="int" name="LORBIT">     0</i>
   <v name="RWIGS">     -1.00000000     -1.00000000     -1.00000000     -1.00000000     -1.00000000</v>
   <i type="int" name="NEDOS">   301</i>
   <i name="EMIN">     10.00000000</i>
   <i name="EMAX">    -10.00000000</i>
   <i name="EFERMI">      0.00000000</i>
  </separator>
  <separator name="writing" >
   <i type="int" name="NWRITE">     2</i>
   <i type="logical" name="LWAVE"> F  </i>
   <i type="logical" name="LDOWNSAMPLE"> F  </i>
   <i type="logical" name="LCHARG"> F  </i>
   <i type="logical" name="LPARD"> F  </i>
   <i type="logical" name="LVTOT"> F  </i>
   <i type="logical" name="LVHAR"> F  </i>
   <i type="logical" name="LELF"> F  </i>
   <i type="logical" name="LOPTICS"> F  </i>
   <v name="STM">      0.00000000      0.00000000      0.00000000      0.00000000      0.00000000      0.00000000      0.00000000</v>
  </separator>
  <separator name="performance" >
   <i type="int" name="NPAR">    28</i>
   <i type="int" name="NSIM">     4</i>
   <i type="int" name="NBLK">    -1</i>
   <i type="logical" name="LPLANE"> T  </i>
   <i type="logical" name="LSCALAPACK"> T  </i>
   <i type="logical" name="LSCAAWARE"> F  </i>
   <i type="logical" name="LSCALU"> F  </i>
   <i type="logical" name="LASYNC"> F  </i>
   <i type="logical" name="LORBITALREAL"> F  </i>
  </separator>
  <separator name="miscellaneous" >
   <i type="int" name="IDIOT">     3</i>
   <i type="int" name="ISPECIAL">     0</i>
   <i type="logical" name="LMUSIC"> F  </i>
   <v name="POMASS">      7.01000000     24.30500000    208.98000000     32.06600000     16.00000000</v>
   <v name="DARWINR">      0.00000000      0.00000000      0.00000000      0.00000000      0.00000000</v>
   <v name="DARWINV">      1.00000000      1.00000000      1.00000000      1.00000000      1.00000000</v>
   <i type="logical" name="LCORR"> T  </i>
  </separator>
  <i type="logical" name="GGA_COMPAT"> T  </i>
  <i type="logical" name="LBERRY"> F  </i>
  <i type="int" name="ICORELEVEL">     0</i>
  <i type="logical" name="LDAU"> F  </i>
  <i type="int" name="I_CONSTRAINED_M">     0</i>
  <separator name="electronic exchange-correlation" >
   <i type="string" name="GGA">--</i>
   <i type="int" name="VOSKOWN">     0</i>
   <i type="logical" name="LHFCALC"> F  </i>
   <i type="string" name="PRECFOCK"></i>
   <i type="logical" name="LSYMGRAD"> F  </i>
   <i type="logical" name="LHFONE"> F  </i>
   <i type="logical" name="LRHFCALC"> F  </i>
   <i type="logical" name="LTHOMAS"> F  </i>
   <i type="logical" name="LMODELHF"> F  </i>
   <i name="ENCUT4O">     -1.00000000</i>
   <i type="int" name="EXXOEP">     0</i>
   <i type="int" name="FOURORBIT">     0</i>
   <i name="AEXX">      0.00000000</i>
   <i name="HFALPHA">      0.00000000</i>
   <i name="MCALPHA">      0.00000000</i>
   <i name="ALDAX">      1.00000000</i>
   <i name="AGGAX">      1.00000000</i>
   <i name="ALDAC">      1.00000000</i>
   <i name="AGGAC">      1.00000000</i>
   <i type="int" name="NKREDX">     1</i>
   <i type="int" name="NKREDY">     1</i>
   <i type="int" name="NKREDZ">     1</i>
   <i type="logical" name="SHIFTRED"> F  </i>
   <i type="logical" name="ODDONLY"> F  </i>
   <i type="logical" name="EVENONLY"> F  </i>
   <i type="int" name="LMAXFOCK">     0</i>
   <i type="int" name="NMAXFOCKAE">     0</i>
   <i type="logical" name="LFOCKAEDFT"> F  </i>
   <i name="HFSCREEN">      0.00000000</i>
   <i name="HFSCREENC">      0.00000000</i>
   <i type="int" name="NBANDSGWLOW">     0</i>
  </separator>
  <separator name="vdW DFT" >
   <i type="logical" name="LUSE_VDW"> F  </i>
   <i name="Zab_VDW">     -0.84910000</i>
   <i name="PARAM1">      0.12340000</i>
   <i name="PARAM2">      1.00000000</i>
   <i name="PARAM3">      0.00000000</i>
  </separator>
  <separator name="model GW" >
   <i type="int" name="MODEL_GW">     0</i>
   <i name="MODEL_EPS0">     12.38119177</i>
   <i name="MODEL_ALPHA">      1.00000000</i>
  </separator>
  <separator name="linear response parameters" >
   <i type="logical" name="LEPSILON"> F  </i>
   <i type="logical" name="LRPA"> F  </i>
   <i type="logical" name="LNABLA"> F  </i>
   <i type="logical" name="LVEL"> F  </i>
   <i type="int" name="KINTER">     0</i>
   <i name="CSHIFT">      0.10000000</i>
   <i name="OMEGAMAX">     -1.00000000</i>
   <i name="DEG_THRESHOLD">      0.00200000</i>
   <i name="RTIME">     -0.10000000</i>
   <i name="WPLASMAI">      0.00000000</i>
   <v name="DFIELD">      0.00000000      0.00000000      0.00000000</v>
   <v name="WPLASMA">      0.00000000      0.00000000      0.00000000      0.00000000      0.00000000      0.00000000      0.00000000      0.00000000      0.00000000</v>
  </separator>
  <separator name="orbital magnetization" >
   <i type="logical" name="NUCIND"> F  </i>
   <v name="MAGPOS">      0.00000000      0.00000000      0.00000000</v>
   <i type="logical" name="LNICSALL"> T  </i>
   <i type="logical" name="ORBITALMAG"> F  </i>
   <i type="logical" name="LMAGBLOCH"> F  </i>
   <i type="logical" name="LCHIMAG"> F  </i>
   <i type="logical" name="LGAUGE"> T  </i>
   <i type="int" name="MAGATOM">     0</i>
   <v name="MAGDIPOL">      0.00000000      0.00000000      0.00000000</v>
   <v name="AVECCONST">      0.00000000      0.00000000      0.00000000</v>
  </separator>
  <separator name="response functions" >
   <i type="logical" name="LADDER"> F  </i>
   <i type="logical" name="LRPAFORCE"> F  </i>
   <i type="logical" name="LFXC"> F  </i>
   <i type="logical" name="LHARTREE"> T  </i>
   <i type="int" name="IBSE">     0</i>
   <v type="int" name="KPOINT">    -1     0     0     0</v>
   <i type="logical" name="LTCTE"> F  </i>
   <i type="logical" name="LTETE"> F  </i>
   <i type="logical" name="LTRIPLET"> F  </i>
   <i type="logical" name="LFXCEPS"> F  </i>
   <i type="logical" name="LFXHEG"> F  </i>
   <i type="int" name="NATURALO">     2</i>
   <i type="logical" name="L2ORDER"> F  </i>
   <i type="logical" name="LMP2LT"> F  </i>
   <i type="logical" name="LUSEW"> F  </i>
   <i name="ENCUTGW">     -2.00000000</i>
   <i name="ENCUTGWSOFT">     -2.00000000</i>
   <i name="ENCUTLF">     -1.00000000</i>
   <i type="int" name="LMAXMP2">    -1</i>
   <i name="SCISSOR">      0.00000000</i>
   <i type="int" name="NOMEGA">     0</i>
   <i type="int" name="NOMEGAR">     0</i>
   <i type="int" name="NBANDSGW">    -1</i>
   <i type="int" name="NBANDSO">    -1</i>
   <i type="int" name="NBANDSV">    -1</i>
   <i type="int" name="NELM">     1</i>
   <i type="int" name="NELMHF">     1</i>
   <i type="int" name="DIM">     3</i>
   <i type="int" name="ANTIRES">     0</i>
   <i name="OMEGAMAX">    -30.00000000</i>
   <i name="OMEGAMIN">    -30.00000000</i>
   <i name="OMEGATL">   -200.00000000</i>
   <i type="int" name="OMEGAGRID">   140</i>
   <i name="CSHIFT">     -0.10000000</i>
   <i type="logical" name="SELFENERGY"> F  </i>
   <i type="logical" name="LSPECTRAL"> F  </i>
   <i type="logical" name="LSPECTRALGW"> F  </i>
   <i type="logical" name="LSINGLES"> F  </i>
   <i type="logical" name="LFERMIGW"> F  </i>
   <i type="logical" name="ODDONLYGW"> F  </i>
   <i type="logical" name="EVENONLYGW"> F  </i>
   <i type="int" name="NKREDLFX">     1</i>
   <i type="int" name="NKREDLFY">     1</i>
   <i type="int" name="NKREDLFZ">     1</i>
   <i type="int" name="MAXMEM">  2800</i>
   <i type="int" name="TELESCOPE">     0</i>
   <i type="int" name="TAUPAR">     1</i>
   <i type="int" name="OMEGAPAR">    -1</i>
   <i name="LAMBDA">      1.00000000</i>
  </separator>
  <separator name="External order field" >
   <i name="OFIELD_KAPPA">      0.00000000</i>
   <v name="OFIELD_K">      0.00000000      0.00000000      0.00000000</v>
   <i name="OFIELD_Q6_NEAR">      0.00000000</i>
   <i name="OFIELD_Q6_FAR">      0.00000000</i>
   <i name="OFIELD_A">      0.00000000</i>
  </separator>
 </parameters>
 <atominfo>
  <atoms>      58 </atoms>
  <types>       5 </types>
  <array name="atoms" >
   <dimension dim="1">ion</dimension>
   <field type="string">element</field>
   <field type="int">atomtype</field>
   <set>
    <rc><c>Li</c><c>   1</c></rc>
    <rc><c>Li</c><c>   1</c></rc>
    <rc><c>Li</c><c>   1</c></rc>
    <rc><c>Li</c><c>   1</c></rc>
    <rc><c>Mg</c><c>   2</c></rc>
    <rc><c>Mg</c><c>   2</c></rc>
    <rc><c>Mg</c><c>   2</c></rc>
    <rc><c>Mg</c><c>   2</c></rc>
    <rc><c>Mg</c><c>   2</c></rc>
    <rc><c>Mg</c><c>   2</c></rc>
    <rc><c>Bi</c><c>   3</c></rc>
    <rc><c>Bi</c><c>   3</c></rc>
    <rc><c>Bi</c><c>   3</c></rc>
    <rc><c>Bi</c><c>   3</c></rc>
    <rc><c>Bi</c><c>   3</c></rc>
    <rc><c>Bi</c><c>   3</c></rc>
    <rc><c>Bi</c><c>   3</c></rc>
    <rc><c>Bi</c><c>   3</c></rc>
    <rc><c>Bi</c><c>   3</c></rc>
    <rc><c>Bi</c><c>   3</c></rc>
    <rc><c>Bi</c><c>   3</c></rc>
    <rc><c>Bi</c><c>   3</c></rc>
    <rc><c>Bi</c><c>   3</c></rc>
    <rc><c>Bi</c><c>   3</c></rc>
    <rc><c>Bi</c><c>   3</c></rc>
    <rc><c>Bi</c><c>   3</c></rc>
    <rc><c>S </c><c>   4</c></rc>
    <rc><c>S </c><c>   4</c></rc>
    <rc><c>S </c><c>   4</c></rc>
    <rc><c>S </c><c>   4</c></rc>
    <rc><c>S </c><c>   4</c></rc>
    <rc><c>S </c><c>   4</c></rc>
    <rc><c>S </c><c>   4</c></rc>
    <rc><c>S </c><c>   4</c></rc>
    <rc><c>S </c><c>   4</c></rc>
    <rc><c>S </c><c>   4</c></rc>
    <rc><c>S </c><c>   4</c></rc>
    <rc><c>S </c><c>   4</c></rc>
    <rc><c>S </c><c>   4</c></rc>
    <rc><c>S </c><c>   4</c></rc>
    <rc><c>S </c><c>   4</c></rc>
    <rc><c>S </c><c>   4</c></rc>
    <rc><c>O </c><c>   5</c></rc>
    <rc><c>O </c><c>   5</c></rc>
    <rc><c>O </c><c>   5</c></rc>
    <rc><c>O </c><c>   5</c></rc>
    <rc><c>O </c><c>   5</c></rc>
    <rc><c>O </c><c>   5</c></rc>
    <rc><c>O </c><c>   5</c></rc>
    <rc><c>O </c><c>   5</c></rc>
    <rc><c>O </c><c>   5</c></rc>
    <rc><c>O </c><c>   5</c></rc>
    <rc><c>O </c><c>   5</c></rc>
    <rc><c>O </c><c>   5</c></rc>
    <rc><c>O </c><c>   5</c></rc>
    <rc><c>O </c><c>   5</c></rc>
    <rc><c>O </c><c>   5</c></rc>
    <rc><c>O </c><c>   5</c></rc>
   </set>
  </array>
  <array name="atomtypes" >
   <dimension dim="1">type</dimension>
   <field type="int">atomspertype</field>
   <field type="string">element</field>
   <field>mass</field>
   <field>valence</field>
   <field type="string">pseudopotential</field>
   <set>
    <rc><c>   4</c><c>Li</c><c>      7.01000000</c><c>      3.00000000</c><c>  PAW_PBE Li_sv 10Sep2004               </c></rc>
    <rc><c>   6</c><c>Mg</c><c>     24.30500000</c><c>      2.00000000</c><c>  PAW_PBE Mg 13Apr2007                  </c></rc>
    <rc><c>  16</c><c>Bi</c><c>    208.98000000</c><c>     15.00000000</c><c>  PAW_PBE Bi_d 06Sep2000                </c></rc>
    <rc><c>  16</c><c>S </c><c>     32.06600000</c><c>      6.00000000</c><c>  PAW_PBE S 06Sep2000                   </c></rc>
    <rc><c>  16</c><c>O </c><c>     16.00000000</c><c>      6.00000000</c><c>  PAW_PBE O 08Apr2002                   </c></rc>
   </set>
  </array>
 </atominfo>
 <structure name="initialpos" >
  <crystal>
   <varray name="basis" >
    <v>      11.17850000       0.00000000       0.00000000 </v>
    <v>       0.00000000       9.57460000       0.00000000 </v>
    <v>       0.00000000       0.00000000      11.18240000 </v>
   </varray>
   <i name="volume">   1196.84853820 </i>
   <varray name="rec_basis" >
    <v>       0.08945744       0.00000000       0.00000000 </v>
    <v>       0.00000000       0.10444301       0.00000000 </v>
    <v>       0.00000000       0.00000000       0.08942624 </v>
   </varray>
  </crystal>
  <varray name="positions" >
   <v>       0.37539000       0.00017000       0.43687000 </v>
   <v>       0.12461000       0.99984000       0.18687000 </v>
   <v>       0.87539000       0.00017000       0.43687000 </v>
   <v>       0.87461000       0.00017000       0.18687000 </v>
   <v>       0.37461000       0.00017000       0.18687000 </v>
   <v>       0.62539000       0.99984000       0.43687000 </v>
   <v>       0.12539000       0.99984000       0.93687000 </v>
   <v>       0.37461000       0.00017000       0.68687000 </v>
   <v>       0.62539000       0.99984000       0.93687000 </v>
   <v>       0.87461000       0.00017000       0.68687000 </v>
   <v>       0.00013000       0.29519000       0.06281000 </v>
   <v>       0.25013000       0.70481000       0.06281000 </v>
   <v>       0.24987000       0.29519000       0.31282000 </v>
   <v>       0.49987000       0.70481000       0.31282000 </v>
   <v>       0.50013000       0.29519000       0.06281000 </v>
   <v>       0.75013000       0.70481000       0.06281000 </v>
   <v>       0.74987000       0.29519000       0.31282000 </v>
   <v>       0.99987000       0.70481000       0.31282000 </v>
   <v>       0.00013000       0.29519000       0.56281000 </v>
   <v>       0.25013000       0.70481000       0.56281000 </v>
   <v>       0.24987000       0.29519000       0.81282000 </v>
   <v>       0.49987000       0.70481000       0.81282000 </v>
   <v>       0.50013000       0.29519000       0.56281000 </v>
   <v>       0.75013000       0.70481000       0.56281000 </v>
   <v>       0.74987000       0.29519000       0.81282000 </v>
   <v>       0.99987000       0.70481000       0.81282000 </v>
   <v>       0.25005000       0.32677000       0.06286000 </v>
   <v>       0.00005000       0.67323000       0.06286000 </v>
   <v>       0.49995000       0.32677000       0.31286000 </v>
   <v>       0.24995000       0.67323000       0.31286000 </v>
   <v>       0.75005000       0.32677000       0.06286000 </v>
   <v>       0.50005000       0.67323000       0.06286000 </v>
   <v>       0.99995000       0.32677000       0.31286000 </v>
   <v>       0.74995000       0.67323000       0.31286000 </v>
   <v>       0.25005000       0.32677000       0.56286000 </v>
   <v>       0.00005000       0.67323000       0.56286000 </v>
   <v>       0.49995000       0.32677000       0.81286000 </v>
   <v>       0.24995000       0.67323000       0.81286000 </v>
   <v>       0.75005000       0.32677000       0.56286000 </v>
   <v>       0.50005000       0.67323000       0.56286000 </v>
   <v>       0.99995000       0.32677000       0.81286000 </v>
   <v>       0.74995000       0.67323000       0.81286000 </v>
   <v>       0.49987000       0.07798000       0.06246000 </v>
   <v>       0.24987000       0.92202000       0.06246000 </v>
   <v>       0.25013000       0.07798000       0.31246000 </v>
   <v>       0.00013000       0.92202000       0.31246000 </v>
   <v>       0.99987000       0.07798000       0.06246000 </v>
   <v>       0.74987000       0.92202000       0.06246000 </v>
   <v>       0.75013000       0.07798000       0.31246000 </v>
   <v>       0.50013000       0.92202000       0.31246000 </v>
   <v>       0.49987000       0.07798000       0.56246000 </v>
   <v>       0.24987000       0.92202000       0.56246000 </v>
   <v>       0.25013000       0.07798000       0.81246000 </v>
   <v>       0.00013000       0.92202000       0.81246000 </v>
   <v>       0.99987000       0.07798000       0.56246000 </v>
   <v>       0.74987000       0.92202000       0.56246000 </v>
   <v>       0.75013000       0.07798000       0.81246000 </v>
   <v>       0.50013000       0.92202000       0.81246000 </v>
  </varray>
 </structure>
 <calculation>
  <scstep>
   <time name="dav">   60.60   60.94</time>
   <time name="total">   60.68   61.03</time>
   <energy>
    <i name="alphaZ">   1054.17224280 </i>
    <i name="ewald"> -30178.07921650 </i>
    <i name="hartreedc"> -12706.26329297 </i>
    <i name="XCdc">   1173.27710717 </i>
    <i name="pawpsdc">  36541.05238669 </i>
    <i name="pawaedc"> -35795.85877930 </i>
    <i name="eentropy">      0.00000000 </i>
    <i name="bandstr">   1915.00410711 </i>
    <i name="atom">  43643.51795008 </i>
    <i name="e_fr_energy">   5646.82250507 </i>
    <i name="e_wo_entrp">   5646.82250507 </i>
    <i name="e_0_energy">   5646.82250507 </i>
   </energy>
  </scstep>
  <scstep>
   <time name="dav">   61.97   62.28</time>
   <time name="total">   61.98   62.29</time>
   <energy>
    <i name="e_fr_energy">    732.66488399 </i>
    <i name="e_wo_entrp">    732.66488399 </i>
    <i name="e_0_energy">    732.66488399 </i>
   </energy>
  </scstep>
  <scstep>
   <time name="dav">   70.48   70.79</time>
   <time name="total">   70.48   70.79</time>
   <energy>
    <i name="e_fr_energy">   -247.47654736 </i>
    <i name="e_wo_entrp">   -247.47654736 </i>
    <i name="e_0_energy">   -247.47654736 </i>
   </energy>
  </scstep>
  <scstep>
   <time name="dav">   74.75   75.28</time>
   <time name="total">   74.75   75.29</time>
   <energy>
    <i name="e_fr_energy">   -332.54962045 </i>
    <i name="e_wo_entrp">   -332.54962045 </i>
    <i name="e_0_energy">   -332.54962045 </i>
   </energy>
  </scstep>
  <scstep>
   <time name="dav">   92.16   93.22</time>
   <time name="total">   92.89   93.95</time>
   <energy>
    <i name="e_fr_energy">   -338.38326605 </i>
    <i name="e_wo_entrp">   -338.38326605 </i>
    <i name="e_0_energy">   -338.38326605 </i>
   </energy>
  </scstep>
  <scstep>
   <time name="dav">   86.81   87.60</time>
   <time name="total">   87.59   88.39</time>
   <energy>
    <i name="e_fr_energy">   -284.38439180 </i>
    <i name="e_wo_entrp">   -284.38439180 </i>
    <i name="e_0_energy">   -284.38439180 </i>
   </energy>
  </scstep>
  <scstep>
   <time name="dav">   65.43   65.95</time>
   <time name="total">   66.19   66.74</time>
   <energy>
    <i name="e_fr_energy">   -286.56584526 </i>
    <i name="e_wo_entrp">   -286.56584526 </i>
    <i name="e_0_energy">   -286.56584526 </i>
   </energy>
  </scstep>
  <scstep>
   <time name="dav">   78.06   78.80</time>
   <time name="total">   78.84   79.58</time>
   <energy>
    <i name="e_fr_energy">   -285.70102141 </i>
    <i name="e_wo_entrp">   -285.70102141 </i>
    <i name="e_0_energy">   -285.70102141 </i>
   </energy>
  </scstep>
  <scstep>
   <time name="dav">   78.22   78.66</time>
   <time name="total">   79.00   79.44</time>
   <energy>
    <i name="e_fr_energy">   -285.26558635 </i>
    <i name="e_wo_entrp">   -285.26558635 </i>
    <i name="e_0_energy">   -285.26558635 </i>
   </energy>
  </scstep>
  <scstep>
   <time name="dav">   73.78   74.02</time>
   <time name="total">   74.57   74.80</time>
   <energy>
    <i name="e_fr_energy">   -285.28169928 </i>
    <i name="e_wo_entrp">   -285.28169928 </i>
    <i name="e_0_energy">   -285.28169928 </i>
   </energy>
  </scstep>
  <scstep>
   <time name="dav">   78.42   79.25</time>
   <time name="total">   79.21   80.04</time>
   <energy>
    <i name="e_fr_energy">   -285.28650270 </i>
    <i name="e_wo_entrp">   -285.28650270 </i>
    <i name="e_0_energy">   -285.28650270 </i>
   </energy>
  </scstep>
  <scstep>
   <time name="dav">   74.51   75.52</time>
   <time name="total">   75.23   76.33</time>
   <energy>
    <i name="e_fr_energy">   -285.28952718 </i>
    <i name="e_wo_entrp">   -285.28952718 </i>
    <i name="e_0_energy">   -285.28952718 </i>
   </energy>
  </scstep>
  <scstep>
   <time name="dav">   74.51   74.77</time>
   <time name="total">   75.30   75.56</time>
   <energy>
    <i name="e_fr_energy">   -285.29058936 </i>
    <i name="e_wo_entrp">   -285.29058936 </i>
    <i name="e_0_energy">   -285.29058936 </i>
   </energy>
  </scstep>
  <scstep>
   <time name="dav">   68.75   69.46</time>
   <time name="total">   69.53   70.25</time>
   <energy>
    <i name="e_fr_energy">   -285.29084692 </i>
    <i name="e_wo_entrp">   -285.29084692 </i>
    <i name="e_0_energy">   -285.29084692 </i>
   </energy>
  </scstep>
  <scstep>
   <time name="dav">   82.10   82.67</time>
   <time name="total">   82.89   83.45</time>
   <energy>
    <i name="e_fr_energy">   -285.29088997 </i>
    <i name="e_wo_entrp">   -285.29088997 </i>
    <i name="e_0_energy">   -285.29088997 </i>
   </energy>
  </scstep>
  <scstep>
   <time name="dav">   65.59   66.23</time>
   <time name="total">   66.37   67.01</time>
   <energy>
    <i name="e_fr_energy">   -285.29091052 </i>
    <i name="e_wo_entrp">   -285.29091052 </i>
    <i name="e_0_energy">   -285.29091052 </i>
   </energy>
  </scstep>
  <scstep>
   <time name="dav">   74.37   74.69</time>
   <time name="total">   75.16   75.48</time>
   <energy>
    <i name="e_fr_energy">   -285.29091223 </i>
    <i name="e_wo_entrp">   -285.29091223 </i>
    <i name="e_0_energy">   -285.29091223 </i>
   </energy>
  </scstep>
  <scstep>
   <time name="dav">   59.33   59.64</time>
   <time name="total">   59.40   59.72</time>
   <energy>
    <i name="alphaZ">   1054.17224280 </i>
    <i name="ewald"> -30178.07921650 </i>
    <i name="hartreedc"> -12947.67899966 </i>
    <i name="XCdc">   1198.71833601 </i>
    <i name="pawpsdc">  43570.26863529 </i>
    <i name="pawaedc"> -42797.58231111 </i>
    <i name="eentropy">      0.00000000 </i>
    <i name="bandstr">  -3828.62754964 </i>
    <i name="atom">  43643.51795008 </i>
    <i name="e_fr_energy">   -285.29091273 </i>
    <i name="e_wo_entrp">   -285.29091273 </i>
    <i name="e_0_energy">   -285.29091273 </i>
   </energy>
  </scstep>
  <structure>
   <crystal>
    <varray name="basis" >
     <v>      11.17850000       0.00000000       0.00000000 </v>
     <v>       0.00000000       9.57460000       0.00000000 </v>
     <v>       0.00000000       0.00000000      11.18240000 </v>
    </varray>
    <i name="volume">   1196.84853820 </i>
    <varray name="rec_basis" >
     <v>       0.08945744       0.00000000       0.00000000 </v>
     <v>       0.00000000       0.10444301       0.00000000 </v>
     <v>       0.00000000       0.00000000       0.08942624 </v>
    </varray>
   </crystal>
   <varray name="positions" >
    <v>       0.37539000       0.00017000       0.43687000 </v>
    <v>       0.12461000       0.99984000       0.18687000 </v>
    <v>       0.87539000       0.00017000       0.43687000 </v>
    <v>       0.87461000       0.00017000       0.18687000 </v>
    <v>       0.37461000       0.00017000       0.18687000 </v>
    <v>       0.62539000       0.99984000       0.43687000 </v>
    <v>       0.12539000       0.99984000       0.93687000 </v>
    <v>       0.37461000       0.00017000       0.68687000 </v>
    <v>       0.62539000       0.99984000       0.93687000 </v>
    <v>       0.87461000       0.00017000       0.68687000 </v>
    <v>       0.00013000       0.29519000       0.06281000 </v>
    <v>       0.25013000       0.70481000       0.06281000 </v>
    <v>       0.24987000       0.29519000       0.31282000 </v>
    <v>       0.49987000       0.70481000       0.31282000 </v>
    <v>       0.50013000       0.29519000       0.06281000 </v>
    <v>       0.75013000       0.70481000       0.06281000 </v>
    <v>       0.74987000       0.29519000       0.31282000 </v>
    <v>       0.99987000       0.70481000       0.31282000 </v>
    <v>       0.00013000       0.29519000       0.56281000 </v>
    <v>       0.25013000       0.70481000       0.56281000 </v>
    <v>       0.24987000       0.29519000       0.81282000 </v>
    <v>       0.49987000       0.70481000       0.81282000 </v>
    <v>       0.50013000       0.29519000       0.56281000 </v>
    <v>       0.75013000       0.70481000       0.56281000 </v>
    <v>       0.74987000       0.29519000       0.81282000 </v>
    <v>       0.99987000       0.70481000       0.81282000 </v>
    <v>       0.25005000       0.32677000       0.06286000 </v>
    <v>       0.00005000       0.67323000       0.06286000 </v>
    <v>       0.49995000       0.32677000       0.31286000 </v>
    <v>       0.24995000       0.67323000       0.31286000 </v>
    <v>       0.75005000       0.32677000       0.06286000 </v>
    <v>       0.50005000       0.67323000       0.06286000 </v>
    <v>       0.99995000       0.32677000       0.31286000 </v>
    <v>       0.74995000       0.67323000       0.31286000 </v>
    <v>       0.25005000       0.32677000       0.56286000 </v>
    <v>       0.00005000       0.67323000       0.56286000 </v>
    <v>       0.49995000       0.32677000       0.81286000 </v>
    <v>       0.24995000       0.67323000       0.81286000 </v>
    <v>       0.75005000       0.32677000       0.56286000 </v>
    <v>       0.50005000       0.67323000       0.56286000 </v>
    <v>       0.99995000       0.32677000       0.81286000 </v>
    <v>       0.74995000       0.67323000       0.81286000 </v>
    <v>       0.49987000       0.07798000       0.06246000 </v>
    <v>       0.24987000       0.92202000       0.06246000 </v>
    <v>       0.25013000       0.07798000       0.31246000 </v>
    <v>       0.00013000       0.92202000       0.31246000 </v>
    <v>       0.99987000       0.07798000       0.06246000 </v>
    <v>       0.74987000       0.92202000       0.06246000 </v>
    <v>       0.75013000       0.07798000       0.31246000 </v>
    <v>       0.50013000       0.92202000       0.31246000 </v>
    <v>       0.49987000       0.07798000       0.56246000 </v>
    <v>       0.24987000       0.92202000       0.56246000 </v>
    <v>       0.25013000       0.07798000       0.81246000 </v>
    <v>       0.00013000       0.92202000       0.81246000 </v>
    <v>       0.99987000       0.07798000       0.56246000 </v>
    <v>       0.74987000       0.92202000       0.56246000 </v>
    <v>       0.75013000       0.07798000       0.81246000 </v>
    <v>       0.50013000       0.92202000       0.81246000 </v>
   </varray>
  </structure>
  <varray name="forces" >
   <v>      -0.84334631      -0.06337684       0.16614242 </v>
   <v>      -0.50974168      -0.00374218       0.64994703 </v>
   <v>       0.83504420       0.05447933      -0.30000635 </v>
   <v>      -0.21444637      -0.13427566      -0.24905771 </v>
   <v>       0.56537111       0.22546167      -0.57767006 </v>
   <v>       0.22921135       0.11304825      -0.14695176 </v>
   <v>      -0.27774419       0.11829017      -0.79830207 </v>
   <v>      -0.43033113      -0.24512236       0.64168633 </v>
   <v>       0.20962508      -0.11633874       0.19555613 </v>
   <v>       0.47814810       0.21967723       0.64292712 </v>
   <v>      -0.30308051       0.02144067       0.02188920 </v>
   <v>      -0.04299767      -1.01553121      -0.11142115 </v>
   <v>      -0.44867540       0.06740493       0.28777791 </v>
   <v>       0.13348689      -1.01724820      -0.17405993 </v>
   <v>       0.09715581      -0.06357703      -0.04111533 </v>
   <v>       0.21431501       1.00845672       0.07824901 </v>
   <v>       0.22572452       0.05282369      -0.28922070 </v>
   <v>       0.11322633       0.98962993       0.14922999 </v>
   <v>       0.36563727      -0.96529267      -0.14611140 </v>
   <v>      -0.52810748       0.93464609      -0.08919658 </v>
   <v>      -0.13001305      -0.05773729      -0.10448512 </v>
   <v>      -0.00059343       0.06238870       0.03292866 </v>
   <v>       0.02602521       1.01699310       0.16352604 </v>
   <v>       0.12158692      -1.00557237       0.09823765 </v>
   <v>       0.16529689      -0.06709475       0.09018107 </v>
   <v>      -0.00883194       0.09053191      -0.04279360 </v>
   <v>       0.04226230       0.11154603       0.03982878 </v>
   <v>       0.25907841      -0.17225623      -0.11301548 </v>
   <v>      -0.01175857       0.06296653       0.10790013 </v>
   <v>       0.30330419      -0.11597990      -0.23278245 </v>
   <v>      -0.10622151       0.12611071      -0.02692332 </v>
   <v>      -0.18704199      -0.06190033       0.10345098 </v>
   <v>      -0.00918725       0.20971439      -0.11077786 </v>
   <v>      -0.28455354      -0.12862645       0.25028810 </v>
   <v>       0.32282917       0.10306307       0.02544026 </v>
   <v>      -0.25601450      -0.13680084       0.12112958 </v>
   <v>      -0.00332068       0.06313092      -0.09090704 </v>
   <v>       0.06127695      -0.10103572       0.16776619 </v>
   <v>      -0.23844634       0.12600754      -0.04259668 </v>
   <v>       0.16016966      -0.08744166      -0.11996934 </v>
   <v>       0.01337181       0.13391402       0.09568762 </v>
   <v>      -0.06939460      -0.10022139      -0.17947464 </v>
   <v>      -0.13877815       0.22802510       0.09065055 </v>
   <v>      -0.54150730       0.64057624       0.62864588 </v>
   <v>       1.26370331      -0.13727699      -1.19087723 </v>
   <v>      -0.60585875      -0.82522058      -0.65386143 </v>
   <v>       1.27359490       0.04968695       0.04294656 </v>
   <v>      -0.54504878      -0.93444578      -0.49099861 </v>
   <v>      -0.10986191      -0.00546930       1.25917087 </v>
   <v>      -0.61093375       0.71749629       0.69503507 </v>
   <v>      -0.43204073      -0.68424728      -0.75889210 </v>
   <v>       1.82284023      -0.66198530       0.42949511 </v>
   <v>       0.04710508       0.28072795       0.11853097 </v>
   <v>       0.00458283      -0.32727423       0.06400083 </v>
   <v>      -1.75745181       0.72695944       0.49394855 </v>
   <v>       0.37659374       0.62117913      -0.67406813 </v>
   <v>      -0.06077346       0.28479295      -0.11730520 </v>
   <v>      -0.02446451      -0.22607836      -0.07935337 </v>
  </varray>
  <varray name="stress" >
   <v>     -11.19967822       0.24099991       0.70345458 </v>
   <v>       0.24099982     -13.17510823       0.21606422 </v>
   <v>       0.70345441       0.21606410      -8.16460190 </v>
  </varray>
  <energy>
   <i name="e_fr_energy">   -296.94895822 </i>
   <i name="e_wo_entrp">   -296.94895822 </i>
   <i name="e_0_energy">      0.00000000 </i>
  </energy>
  <time name="totalsc"> 1440.76 1450.96</time>
  <eigenvalues>
   <array>
    <dimension dim="1">band</dimension>
    <dimension dim="2">kpoint</dimension>
    <dimension dim="3">spin</dimension>
    <field>eigene</field>
    <field>occ</field>
    <set>
     <set comment="spin 1">
      <set comment="kpoint 1">
       <r>  -40.1790    1.0000 </r>
       <r>  -39.8862    1.0000 </r>
       <r>  -39.7224    1.0000 </r>
       <r>  -39.4402    1.0000 </r>
       <r>  -18.9769    1.0000 </r>
       <r>  -18.9728    1.0000 </r>
       <r>  -18.9090    1.0000 </r>
       <r>  -18.9055    1.0000 </r>
       <r>  -18.9021    1.0000 </r>
       <r>  -18.9018    1.0000 </r>
       <r>  -18.8961    1.0000 </r>
       <r>  -18.8878    1.0000 </r>
       <r>  -18.8369    1.0000 </r>
       <r>  -18.8289    1.0000 </r>
       <r>  -18.8278    1.0000 </r>
       <r>  -18.8198    1.0000 </r>
       <r>  -18.8080    1.0000 </r>
       <r>  -18.8025    1.0000 </r>
       <r>  -18.7859    1.0000 </r>
       <r>  -18.7801    1.0000 </r>
       <r>  -18.7601    1.0000 </r>
       <r>  -18.7526    1.0000 </r>
       <r>  -18.7395    1.0000 </r>
       <r>  -18.7384    1.0000 </r>
       <r>  -18.7342    1.0000 </r>
       <r>  -18.7303    1.0000 </r>
       <r>  -18.7245    1.0000 </r>
       <r>  -18.7236    1.0000 </r>
       <r>  -18.7186    1.0000 </r>
       <r>  -18.7171    1.0000 </r>
       <r>  -18.7143    1.0000 </r>
       <r>  -18.7137    1.0000 </r>
       <r>  -18.7117    1.0000 </r>
       <r>  -18.7063    1.0000 </r>
       <r>  -18.7038    1.0000 </r>
       <r>  -18.6965    1.0000 </r>
       <r>  -18.6944    1.0000 </r>
       <r>  -18.6886    1.0000 </r>
       <r>  -18.6862    1.0000 </r>
       <r>  -18.6791    1.0000 </r>
       <r>  -18.6720    1.0000 </r>
       <r>  -18.6674    1.0000 </r>
       <r>  -18.6359    1.0000 </r>
       <r>  -18.6233    1.0000 </r>
       <r>  -18.6144    1.0000 </r>
       <r>  -18.6063    1.0000 </r>
       <r>  -18.6057    1.0000 </r>
       <r>  -18.5957    1.0000 </r>
       <r>  -18.5900    1.0000 </r>
       <r>  -18.5799    1.0000 </r>
       <r>  -18.5763    1.0000 </r>
       <r>  -18.5674    1.0000 </r>
       <r>  -18.5664    1.0000 </r>
       <r>  -18.5608    1.0000 </r>
       <r>  -18.5597    1.0000 </r>
       <r>  -18.5441    1.0000 </r>
       <r>  -18.5438    1.0000 </r>
       <r>  -18.5420    1.0000 </r>
       <r>  -18.5362    1.0000 </r>
       <r>  -18.5293    1.0000 </r>
       <r>  -18.5146    1.0000 </r>
       <r>  -18.5116    1.0000 </r>
       <r>  -18.5082    1.0000 </r>
       <r>  -18.4999    1.0000 </r>
       <r>  -18.4810    1.0000 </r>
       <r>  -18.4806    1.0000 </r>
       <r>  -18.4679    1.0000 </r>
       <r>  -18.4676    1.0000 </r>
       <r>  -18.4627    1.0000 </r>
       <r>  -18.4513    1.0000 </r>
       <r>  -18.4505    1.0000 </r>
       <r>  -18.4381    1.0000 </r>
       <r>  -18.4255    1.0000 </r>
       <r>  -18.4202    1.0000 </r>
       <r>  -18.3998    1.0000 </r>
       <r>  -18.3604    1.0000 </r>
       <r>  -18.3422    1.0000 </r>
       <r>  -18.3344    1.0000 </r>
       <r>  -18.3149    1.0000 </r>
       <r>  -18.2897    1.0000 </r>
       <r>  -18.2789    1.0000 </r>
       <r>  -18.2674    1.0000 </r>
       <r>  -18.2449    1.0000 </r>
       <r>  -18.2318    1.0000 </r>
       <r>  -13.6337    1.0000 </r>
       <r>  -13.5237    1.0000 </r>
       <r>  -13.4736    1.0000 </r>
       <r>  -13.4417    1.0000 </r>
       <r>  -12.9008    1.0000 </r>
       <r>  -12.8510    1.0000 </r>
       <r>  -12.8095    1.0000 </r>
       <r>  -12.7849    1.0000 </r>
       <r>  -12.7494    1.0000 </r>
       <r>  -12.7399    1.0000 </r>
       <r>  -12.6721    1.0000 </r>
       <r>  -12.6010    1.0000 </r>
       <r>  -12.2144    1.0000 </r>
       <r>  -12.1161    1.0000 </r>
       <r>  -12.1025    1.0000 </r>
       <r>  -11.9906    1.0000 </r>
       <r>   -9.3843    1.0000 </r>
       <r>   -9.0882    1.0000 </r>
       <r>   -8.6129    1.0000 </r>
       <r>   -8.5734    1.0000 </r>
       <r>   -8.5154    1.0000 </r>
       <r>   -8.4782    1.0000 </r>
       <r>   -8.3890    1.0000 </r>
       <r>   -8.3491    1.0000 </r>
       <r>   -8.2895    1.0000 </r>
       <r>   -8.2558    1.0000 </r>
       <r>   -8.0894    1.0000 </r>
       <r>   -8.0772    1.0000 </r>
       <r>   -8.0558    1.0000 </r>
       <r>   -8.0409    1.0000 </r>
       <r>   -7.4136    1.0000 </r>
       <r>   -7.4045    1.0000 </r>
       <r>   -6.4330    1.0000 </r>
       <r>   -6.4231    1.0000 </r>
       <r>   -6.4070    1.0000 </r>
       <r>   -6.3991    1.0000 </r>
       <r>   -5.5691    1.0000 </r>
       <r>   -5.5229    1.0000 </r>
       <r>   -5.5125    1.0000 </r>
       <r>   -5.4004    1.0000 </r>
       <r>   -5.3603    1.0000 </r>
       <r>   -5.3151    1.0000 </r>
       <r>   -5.2774    1.0000 </r>
       <r>   -5.2119    1.0000 </r>
       <r>   -5.1247    1.0000 </r>
       <r>   -5.0792    1.0000 </r>
       <r>   -3.8634    1.0000 </r>
       <r>   -3.7150    1.0000 </r>
       <r>   -1.5889    1.0000 </r>
       <r>   -1.3361    1.0000 </r>
       <r>   -1.1973    1.0000 </r>
       <r>   -1.0213    1.0000 </r>
       <r>   -0.6906    1.0000 </r>
       <r>   -0.6406    1.0000 </r>
       <r>   -0.5556    1.0000 </r>
       <r>   -0.5123    1.0000 </r>
       <r>   -0.2790    1.0000 </r>
       <r>   -0.2562    1.0000 </r>
       <r>   -0.2160    1.0000 </r>
       <r>   -0.1821    1.0000 </r>
       <r>   -0.0677    1.0000 </r>
       <r>    0.0236    1.0000 </r>
       <r>    0.1654    1.0000 </r>
       <r>    0.2143    1.0000 </r>
       <r>    0.2587    1.0000 </r>
       <r>    0.3414    1.0000 </r>
       <r>    0.3989    1.0000 </r>
       <r>    0.4514    1.0000 </r>
       <r>    0.4882    1.0000 </r>
       <r>    0.6008    1.0000 </r>
       <r>    0.6611    1.0000 </r>
       <r>    0.6958    1.0000 </r>
       <r>    0.7153    1.0000 </r>
       <r>    0.7417    1.0000 </r>
       <r>    0.7520    1.0000 </r>
       <r>    0.8630    1.0000 </r>
       <r>    0.8960    1.0000 </r>
       <r>    0.9072    1.0000 </r>
       <r>    0.9431    1.0000 </r>
       <r>    0.9592    1.0000 </r>
       <r>    1.0348    1.0000 </r>
       <r>    1.0589    1.0000 </r>
       <r>    1.1628    1.0000 </r>
       <r>    1.1937    1.0000 </r>
       <r>    1.2451    1.0000 </r>
       <r>    1.2676    1.0000 </r>
       <r>    1.3234    1.0000 </r>
       <r>    1.3694    1.0000 </r>
       <r>    1.4258    1.0000 </r>
       <r>    1.4421    1.0000 </r>
       <r>    1.4932    1.0000 </r>
       <r>    1.5276    1.0000 </r>
       <r>    1.6184    1.0000 </r>
       <r>    1.6477    1.0000 </r>
       <r>    1.6792    1.0000 </r>
       <r>    1.7234    1.0000 </r>
       <r>    1.8034    1.0000 </r>
       <r>    1.8574    1.0000 </r>
       <r>    1.8912    1.0000 </r>
       <r>    1.9808    1.0000 </r>
       <r>    2.1058    1.0000 </r>
       <r>    2.1389    1.0000 </r>
       <r>    2.1871    1.0000 </r>
       <r>    2.3076    1.0000 </r>
       <r>    2.3489    1.0000 </r>
       <r>    2.4190    1.0000 </r>
       <r>    2.4581    1.0000 </r>
       <r>    2.4995    1.0000 </r>
       <r>    2.5111    1.0000 </r>
       <r>    2.5131    1.0000 </r>
       <r>    2.5328    1.0000 </r>
       <r>    2.5459    1.0000 </r>
       <r>    2.5726    1.0000 </r>
       <r>    2.6291    1.0000 </r>
       <r>    2.6385    1.0000 </r>
       <r>    2.6762    1.0000 </r>
       <r>    2.7345    1.0000 </r>
       <r>    2.7496    1.0000 </r>
       <r>    2.7801    1.0000 </r>
       <r>    2.8847    1.0000 </r>
       <r>    2.9144    1.0000 </r>
       <r>    2.9205    1.0000 </r>
       <r>    2.9658    1.0000 </r>
       <r>    2.9912    1.0000 </r>
       <r>    3.0177    1.0000 </r>
       <r>    3.0452    1.0000 </r>
       <r>    3.0697    1.0000 </r>
       <r>    3.0743    1.0000 </r>
       <r>    3.0939    1.0000 </r>
       <r>    3.1354    1.0000 </r>
       <r>    3.1488    1.0000 </r>
       <r>    3.1576    1.0000 </r>
       <r>    3.1871    1.0000 </r>
       <r>    3.2080    1.0000 </r>
       <r>    3.2902    1.0000 </r>
       <r>    3.3608    1.0000 </r>
       <r>    3.3801    1.0000 </r>
       <r>    3.4368    1.0000 </r>
       <r>    3.5116    1.0000 </r>
       <r>    3.5780    1.0000 </r>
       <r>    4.1168    1.0000 </r>
       <r>    4.1379    1.0000 </r>
       <r>    4.1756    1.0000 </r>
       <r>    4.1938    1.0000 </r>
       <r>    4.9420    0.0000 </r>
       <r>    4.9632    0.0000 </r>
       <r>    5.1386    0.0000 </r>
       <r>    5.1606    0.0000 </r>
       <r>    5.6749    0.0000 </r>
       <r>    5.6942    0.0000 </r>
       <r>    5.7892    0.0000 </r>
       <r>    5.8092    0.0000 </r>
       <r>    6.0389    0.0000 </r>
       <r>    6.0665    0.0000 </r>
       <r>    6.0956    0.0000 </r>
       <r>    6.1058    0.0000 </r>
       <r>    6.1701    0.0000 </r>
       <r>    6.1823    0.0000 </r>
       <r>    6.2074    0.0000 </r>
       <r>    6.2341    0.0000 </r>
       <r>    6.9487    0.0000 </r>
       <r>    6.9942    0.0000 </r>
       <r>    7.2758    0.0000 </r>
       <r>    7.2976    0.0000 </r>
       <r>    7.6303    0.0000 </r>
       <r>    7.7245    0.0000 </r>
       <r>    7.7663    0.0000 </r>
       <r>    7.8678    0.0000 </r>
       <r>    7.8916    0.0000 </r>
       <r>    7.9267    0.0000 </r>
       <r>    8.0437    0.0000 </r>
       <r>    8.2017    0.0000 </r>
       <r>    8.2530    0.0000 </r>
       <r>    8.5826    0.0000 </r>
       <r>    8.6150    0.0000 </r>
       <r>    8.7234    0.0000 </r>
       <r>    8.7357    0.0000 </r>
       <r>    8.7592    0.0000 </r>
       <r>    8.8880    0.0000 </r>
       <r>    8.9011    0.0000 </r>
       <r>    8.9877    0.0000 </r>
       <r>    9.0021    0.0000 </r>
       <r>    9.0178    0.0000 </r>
       <r>    9.0308    0.0000 </r>
       <r>    9.0597    0.0000 </r>
       <r>    9.1081    0.0000 </r>
       <r>    9.1510    0.0000 </r>
       <r>    9.2202    0.0000 </r>
       <r>    9.3482    0.0000 </r>
       <r>    9.3730    0.0000 </r>
       <r>    9.4546    0.0000 </r>
       <r>    9.4746    0.0000 </r>
       <r>    9.6432    0.0000 </r>
       <r>    9.6652    0.0000 </r>
       <r>    9.7723    0.0000 </r>
       <r>    9.7876    0.0000 </r>
      </set>
      <set comment="kpoint 2">
       <r>  -40.1790    1.0000 </r>
       <r>  -39.8862    1.0000 </r>
       <r>  -39.7224    1.0000 </r>
       <r>  -39.4402    1.0000 </r>
       <r>  -18.9769    1.0000 </r>
       <r>  -18.9728    1.0000 </r>
       <r>  -18.9090    1.0000 </r>
       <r>  -18.9053    1.0000 </r>
       <r>  -18.9021    1.0000 </r>
       <r>  -18.9018    1.0000 </r>
       <r>  -18.8964    1.0000 </r>
       <r>  -18.8877    1.0000 </r>
       <r>  -18.8369    1.0000 </r>
       <r>  -18.8289    1.0000 </r>
       <r>  -18.8277    1.0000 </r>
       <r>  -18.8197    1.0000 </r>
       <r>  -18.8080    1.0000 </r>
       <r>  -18.8025    1.0000 </r>
       <r>  -18.7859    1.0000 </r>
       <r>  -18.7801    1.0000 </r>
       <r>  -18.7596    1.0000 </r>
       <r>  -18.7524    1.0000 </r>
       <r>  -18.7395    1.0000 </r>
       <r>  -18.7382    1.0000 </r>
       <r>  -18.7342    1.0000 </r>
       <r>  -18.7303    1.0000 </r>
       <r>  -18.7253    1.0000 </r>
       <r>  -18.7236    1.0000 </r>
       <r>  -18.7184    1.0000 </r>
       <r>  -18.7171    1.0000 </r>
       <r>  -18.7144    1.0000 </r>
       <r>  -18.7139    1.0000 </r>
       <r>  -18.7121    1.0000 </r>
       <r>  -18.7064    1.0000 </r>
       <r>  -18.7038    1.0000 </r>
       <r>  -18.6969    1.0000 </r>
       <r>  -18.6941    1.0000 </r>
       <r>  -18.6880    1.0000 </r>
       <r>  -18.6866    1.0000 </r>
       <r>  -18.6787    1.0000 </r>
       <r>  -18.6718    1.0000 </r>
       <r>  -18.6674    1.0000 </r>
       <r>  -18.6359    1.0000 </r>
       <r>  -18.6234    1.0000 </r>
       <r>  -18.6144    1.0000 </r>
       <r>  -18.6063    1.0000 </r>
       <r>  -18.6058    1.0000 </r>
       <r>  -18.5957    1.0000 </r>
       <r>  -18.5900    1.0000 </r>
       <r>  -18.5799    1.0000 </r>
       <r>  -18.5763    1.0000 </r>
       <r>  -18.5674    1.0000 </r>
       <r>  -18.5664    1.0000 </r>
       <r>  -18.5608    1.0000 </r>
       <r>  -18.5597    1.0000 </r>
       <r>  -18.5441    1.0000 </r>
       <r>  -18.5438    1.0000 </r>
       <r>  -18.5420    1.0000 </r>
       <r>  -18.5362    1.0000 </r>
       <r>  -18.5292    1.0000 </r>
       <r>  -18.5146    1.0000 </r>
       <r>  -18.5116    1.0000 </r>
       <r>  -18.5082    1.0000 </r>
       <r>  -18.4999    1.0000 </r>
       <r>  -18.4810    1.0000 </r>
       <r>  -18.4806    1.0000 </r>
       <r>  -18.4679    1.0000 </r>
       <r>  -18.4676    1.0000 </r>
       <r>  -18.4627    1.0000 </r>
       <r>  -18.4513    1.0000 </r>
       <r>  -18.4505    1.0000 </r>
       <r>  -18.4381    1.0000 </r>
       <r>  -18.4255    1.0000 </r>
       <r>  -18.4202    1.0000 </r>
       <r>  -18.3998    1.0000 </r>
       <r>  -18.3604    1.0000 </r>
       <r>  -18.3422    1.0000 </r>
       <r>  -18.3344    1.0000 </r>
       <r>  -18.3149    1.0000 </r>
       <r>  -18.2897    1.0000 </r>
       <r>  -18.2789    1.0000 </r>
       <r>  -18.2674    1.0000 </r>
       <r>  -18.2449    1.0000 </r>
       <r>  -18.2318    1.0000 </r>
       <r>  -13.6331    1.0000 </r>
       <r>  -13.5241    1.0000 </r>
       <r>  -13.4738    1.0000 </r>
       <r>  -13.4416    1.0000 </r>
       <r>  -12.8931    1.0000 </r>
       <r>  -12.8515    1.0000 </r>
       <r>  -12.8183    1.0000 </r>
       <r>  -12.7945    1.0000 </r>
       <r>  -12.7634    1.0000 </r>
       <r>  -12.7069    1.0000 </r>
       <r>  -12.6793    1.0000 </r>
       <r>  -12.6018    1.0000 </r>
       <r>  -12.2144    1.0000 </r>
       <r>  -12.1163    1.0000 </r>
       <r>  -12.1021    1.0000 </r>
       <r>  -11.9907    1.0000 </r>
       <r>   -9.2369    1.0000 </r>
       <r>   -9.0882    1.0000 </r>
       <r>   -8.9608    1.0000 </r>
       <r>   -8.8097    1.0000 </r>
       <r>   -8.4499    1.0000 </r>
       <r>   -8.4415    1.0000 </r>
       <r>   -8.3230    1.0000 </r>
       <r>   -8.3135    1.0000 </r>
       <r>   -8.2456    1.0000 </r>
       <r>   -8.2441    1.0000 </r>
       <r>   -8.1177    1.0000 </r>
       <r>   -8.1163    1.0000 </r>
       <r>   -7.7998    1.0000 </r>
       <r>   -7.6911    1.0000 </r>
       <r>   -7.6867    1.0000 </r>
       <r>   -7.5774    1.0000 </r>
       <r>   -6.0757    1.0000 </r>
       <r>   -6.0634    1.0000 </r>
       <r>   -5.9639    1.0000 </r>
       <r>   -5.9136    1.0000 </r>
       <r>   -5.8969    1.0000 </r>
       <r>   -5.8571    1.0000 </r>
       <r>   -5.7629    1.0000 </r>
       <r>   -5.7403    1.0000 </r>
       <r>   -5.6865    1.0000 </r>
       <r>   -5.6297    1.0000 </r>
       <r>   -5.5847    1.0000 </r>
       <r>   -5.4750    1.0000 </r>
       <r>   -4.5540    1.0000 </r>
       <r>   -4.4032    1.0000 </r>
       <r>   -4.3957    1.0000 </r>
       <r>   -4.2317    1.0000 </r>
       <r>   -1.3520    1.0000 </r>
       <r>   -1.1370    1.0000 </r>
       <r>   -0.9602    1.0000 </r>
       <r>   -0.7901    1.0000 </r>
       <r>   -0.5502    1.0000 </r>
       <r>   -0.3942    1.0000 </r>
       <r>   -0.2171    1.0000 </r>
       <r>   -0.1580    1.0000 </r>
       <r>   -0.0117    1.0000 </r>
       <r>    0.0013    1.0000 </r>
       <r>    0.0142    1.0000 </r>
       <r>    0.0782    1.0000 </r>
       <r>    0.0953    1.0000 </r>
       <r>    0.1271    1.0000 </r>
       <r>    0.1973    1.0000 </r>
       <r>    0.2612    1.0000 </r>
       <r>    0.3372    1.0000 </r>
       <r>    0.3805    1.0000 </r>
       <r>    0.4092    1.0000 </r>
       <r>    0.4512    1.0000 </r>
       <r>    0.5006    1.0000 </r>
       <r>    0.5351    1.0000 </r>
       <r>    0.5583    1.0000 </r>
       <r>    0.5979    1.0000 </r>
       <r>    0.6637    1.0000 </r>
       <r>    0.7092    1.0000 </r>
       <r>    0.7606    1.0000 </r>
       <r>    0.8032    1.0000 </r>
       <r>    0.8671    1.0000 </r>
       <r>    0.9411    1.0000 </r>
       <r>    1.0262    1.0000 </r>
       <r>    1.0446    1.0000 </r>
       <r>    1.0680    1.0000 </r>
       <r>    1.1032    1.0000 </r>
       <r>    1.1431    1.0000 </r>
       <r>    1.2119    1.0000 </r>
       <r>    1.2254    1.0000 </r>
       <r>    1.2699    1.0000 </r>
       <r>    1.2744    1.0000 </r>
       <r>    1.3481    1.0000 </r>
       <r>    1.3755    1.0000 </r>
       <r>    1.4316    1.0000 </r>
       <r>    1.4470    1.0000 </r>
       <r>    1.4784    1.0000 </r>
       <r>    1.5247    1.0000 </r>
       <r>    1.5756    1.0000 </r>
       <r>    1.5950    1.0000 </r>
       <r>    1.6559    1.0000 </r>
       <r>    1.6927    1.0000 </r>
       <r>    1.7093    1.0000 </r>
       <r>    1.8389    1.0000 </r>
       <r>    1.8454    1.0000 </r>
       <r>    1.9223    1.0000 </r>
       <r>    1.9388    1.0000 </r>
       <r>    2.0100    1.0000 </r>
       <r>    2.0382    1.0000 </r>
       <r>    2.0958    1.0000 </r>
       <r>    2.1702    1.0000 </r>
       <r>    2.2182    1.0000 </r>
       <r>    2.2528    1.0000 </r>
       <r>    2.2995    1.0000 </r>
       <r>    2.3594    1.0000 </r>
       <r>    2.4113    1.0000 </r>
       <r>    2.4460    1.0000 </r>
       <r>    2.4785    1.0000 </r>
       <r>    2.4986    1.0000 </r>
       <r>    2.5352    1.0000 </r>
       <r>    2.5696    1.0000 </r>
       <r>    2.6367    1.0000 </r>
       <r>    2.6439    1.0000 </r>
       <r>    2.6777    1.0000 </r>
       <r>    2.6927    1.0000 </r>
       <r>    2.7114    1.0000 </r>
       <r>    2.7673    1.0000 </r>
       <r>    2.8233    1.0000 </r>
       <r>    2.8794    1.0000 </r>
       <r>    2.9138    1.0000 </r>
       <r>    2.9501    1.0000 </r>
       <r>    3.0139    1.0000 </r>
       <r>    3.0412    1.0000 </r>
       <r>    3.0546    1.0000 </r>
       <r>    3.0728    1.0000 </r>
       <r>    3.1304    1.0000 </r>
       <r>    3.1669    1.0000 </r>
       <r>    3.2184    1.0000 </r>
       <r>    3.2695    1.0000 </r>
       <r>    3.3049    1.0000 </r>
       <r>    3.3786    1.0000 </r>
       <r>    3.4034    1.0000 </r>
       <r>    3.4223    1.0000 </r>
       <r>    3.5242    1.0000 </r>
       <r>    3.5457    1.0000 </r>
       <r>    3.5564    1.0000 </r>
       <r>    3.6045    1.0000 </r>
       <r>    3.6507    1.0000 </r>
       <r>    3.7174    1.0000 </r>
       <r>    5.5071    0.0000 </r>
       <r>    5.5188    0.0000 </r>
       <r>    5.6522    0.0000 </r>
       <r>    5.6639    0.0000 </r>
       <r>    5.6970    0.0000 </r>
       <r>    5.7094    0.0000 </r>
       <r>    5.8328    0.0000 </r>
       <r>    5.8584    0.0000 </r>
       <r>    7.0876    0.0000 </r>
       <r>    7.1125    0.0000 </r>
       <r>    7.2051    0.0000 </r>
       <r>    7.2592    0.0000 </r>
       <r>    7.2828    0.0000 </r>
       <r>    7.3557    0.0000 </r>
       <r>    7.3736    0.0000 </r>
       <r>    7.3969    0.0000 </r>
       <r>    7.4283    0.0000 </r>
       <r>    7.4537    0.0000 </r>
       <r>    7.5459    0.0000 </r>
       <r>    7.5582    0.0000 </r>
       <r>    7.7484    0.0000 </r>
       <r>    7.7525    0.0000 </r>
       <r>    7.7755    0.0000 </r>
       <r>    7.8075    0.0000 </r>
       <r>    7.8294    0.0000 </r>
       <r>    7.8339    0.0000 </r>
       <r>    7.8612    0.0000 </r>
       <r>    7.9009    0.0000 </r>
       <r>    7.9050    0.0000 </r>
       <r>    7.9400    0.0000 </r>
       <r>    7.9651    0.0000 </r>
       <r>    8.0623    0.0000 </r>
       <r>    8.1241    0.0000 </r>
       <r>    8.2353    0.0000 </r>
       <r>    8.3666    0.0000 </r>
       <r>    8.4735    0.0000 </r>
       <r>    8.6279    0.0000 </r>
       <r>    8.6560    0.0000 </r>
       <r>    8.6978    0.0000 </r>
       <r>    8.7059    0.0000 </r>
       <r>    8.7148    0.0000 </r>
       <r>    8.8058    0.0000 </r>
       <r>    8.8776    0.0000 </r>
       <r>    8.8794    0.0000 </r>
       <r>    9.0521    0.0000 </r>
       <r>    9.1948    0.0000 </r>
       <r>    9.2694    0.0000 </r>
       <r>    9.3125    0.0000 </r>
       <r>    9.4630    0.0000 </r>
       <r>    9.5168    0.0000 </r>
       <r>    9.9727    0.0000 </r>
       <r>   10.0272    0.0000 </r>
      </set>
      <set comment="kpoint 3">
       <r>  -40.1790    1.0000 </r>
       <r>  -39.8862    1.0000 </r>
       <r>  -39.7224    1.0000 </r>
       <r>  -39.4402    1.0000 </r>
       <r>  -18.9770    1.0000 </r>
       <r>  -18.9726    1.0000 </r>
       <r>  -18.9090    1.0000 </r>
       <r>  -18.9055    1.0000 </r>
       <r>  -18.9021    1.0000 </r>
       <r>  -18.9018    1.0000 </r>
       <r>  -18.8961    1.0000 </r>
       <r>  -18.8878    1.0000 </r>
       <r>  -18.8369    1.0000 </r>
       <r>  -18.8289    1.0000 </r>
       <r>  -18.8278    1.0000 </r>
       <r>  -18.8198    1.0000 </r>
       <r>  -18.8080    1.0000 </r>
       <r>  -18.8025    1.0000 </r>
       <r>  -18.7859    1.0000 </r>
       <r>  -18.7801    1.0000 </r>
       <r>  -18.7601    1.0000 </r>
       <r>  -18.7526    1.0000 </r>
       <r>  -18.7397    1.0000 </r>
       <r>  -18.7383    1.0000 </r>
       <r>  -18.7342    1.0000 </r>
       <r>  -18.7303    1.0000 </r>
       <r>  -18.7245    1.0000 </r>
       <r>  -18.7237    1.0000 </r>
       <r>  -18.7186    1.0000 </r>
       <r>  -18.7171    1.0000 </r>
       <r>  -18.7143    1.0000 </r>
       <r>  -18.7137    1.0000 </r>
       <r>  -18.7117    1.0000 </r>
       <r>  -18.7063    1.0000 </r>
       <r>  -18.7038    1.0000 </r>
       <r>  -18.6965    1.0000 </r>
       <r>  -18.6944    1.0000 </r>
       <r>  -18.6886    1.0000 </r>
       <r>  -18.6862    1.0000 </r>
       <r>  -18.6791    1.0000 </r>
       <r>  -18.6720    1.0000 </r>
       <r>  -18.6674    1.0000 </r>
       <r>  -18.6359    1.0000 </r>
       <r>  -18.6233    1.0000 </r>
       <r>  -18.6143    1.0000 </r>
       <r>  -18.6063    1.0000 </r>
       <r>  -18.6057    1.0000 </r>
       <r>  -18.5957    1.0000 </r>
       <r>  -18.5900    1.0000 </r>
       <r>  -18.5799    1.0000 </r>
       <r>  -18.5763    1.0000 </r>
       <r>  -18.5674    1.0000 </r>
       <r>  -18.5664    1.0000 </r>
       <r>  -18.5608    1.0000 </r>
       <r>  -18.5597    1.0000 </r>
       <r>  -18.5441    1.0000 </r>
       <r>  -18.5438    1.0000 </r>
       <r>  -18.5420    1.0000 </r>
       <r>  -18.5362    1.0000 </r>
       <r>  -18.5293    1.0000 </r>
       <r>  -18.5146    1.0000 </r>
       <r>  -18.5116    1.0000 </r>
       <r>  -18.5082    1.0000 </r>
       <r>  -18.4999    1.0000 </r>
       <r>  -18.4810    1.0000 </r>
       <r>  -18.4806    1.0000 </r>
       <r>  -18.4679    1.0000 </r>
       <r>  -18.4676    1.0000 </r>
       <r>  -18.4627    1.0000 </r>
       <r>  -18.4513    1.0000 </r>
       <r>  -18.4505    1.0000 </r>
       <r>  -18.4381    1.0000 </r>
       <r>  -18.4255    1.0000 </r>
       <r>  -18.4202    1.0000 </r>
       <r>  -18.3998    1.0000 </r>
       <r>  -18.3604    1.0000 </r>
       <r>  -18.3422    1.0000 </r>
       <r>  -18.3344    1.0000 </r>
       <r>  -18.3149    1.0000 </r>
       <r>  -18.2897    1.0000 </r>
       <r>  -18.2789    1.0000 </r>
       <r>  -18.2674    1.0000 </r>
       <r>  -18.2449    1.0000 </r>
       <r>  -18.2318    1.0000 </r>
       <r>  -13.6334    1.0000 </r>
       <r>  -13.5239    1.0000 </r>
       <r>  -13.4735    1.0000 </r>
       <r>  -13.4418    1.0000 </r>
       <r>  -12.9000    1.0000 </r>
       <r>  -12.8511    1.0000 </r>
       <r>  -12.8096    1.0000 </r>
       <r>  -12.7845    1.0000 </r>
       <r>  -12.7499    1.0000 </r>
       <r>  -12.7398    1.0000 </r>
       <r>  -12.6722    1.0000 </r>
       <r>  -12.6019    1.0000 </r>
       <r>  -12.2143    1.0000 </r>
       <r>  -12.1167    1.0000 </r>
       <r>  -12.1029    1.0000 </r>
       <r>  -11.9912    1.0000 </r>
       <r>   -9.3730    1.0000 </r>
       <r>   -9.0964    1.0000 </r>
       <r>   -8.6315    1.0000 </r>
       <r>   -8.5907    1.0000 </r>
       <r>   -8.5320    1.0000 </r>
       <r>   -8.4950    1.0000 </r>
       <r>   -8.3680    1.0000 </r>
       <r>   -8.3297    1.0000 </r>
       <r>   -8.2707    1.0000 </r>
       <r>   -8.2372    1.0000 </r>
       <r>   -8.0935    1.0000 </r>
       <r>   -8.0813    1.0000 </r>
       <r>   -8.0588    1.0000 </r>
       <r>   -8.0439    1.0000 </r>
       <r>   -7.4163    1.0000 </r>
       <r>   -7.4073    1.0000 </r>
       <r>   -6.4230    1.0000 </r>
       <r>   -6.4127    1.0000 </r>
       <r>   -6.3975    1.0000 </r>
       <r>   -6.3894    1.0000 </r>
       <r>   -5.5894    1.0000 </r>
       <r>   -5.5496    1.0000 </r>
       <r>   -5.5140    1.0000 </r>
       <r>   -5.4357    1.0000 </r>
       <r>   -5.3863    1.0000 </r>
       <r>   -5.3178    1.0000 </r>
       <r>   -5.2399    1.0000 </r>
       <r>   -5.1718    1.0000 </r>
       <r>   -5.0799    1.0000 </r>
       <r>   -5.0334    1.0000 </r>
       <r>   -3.9403    1.0000 </r>
       <r>   -3.6259    1.0000 </r>
       <r>   -1.4477    1.0000 </r>
       <r>   -1.3879    1.0000 </r>
       <r>   -1.2943    1.0000 </r>
       <r>   -1.0763    1.0000 </r>
       <r>   -0.5641    1.0000 </r>
       <r>   -0.5222    1.0000 </r>
       <r>   -0.5103    1.0000 </r>
       <r>   -0.4577    1.0000 </r>
       <r>   -0.4410    1.0000 </r>
       <r>   -0.4211    1.0000 </r>
       <r>   -0.3578    1.0000 </r>
       <r>   -0.3057    1.0000 </r>
       <r>   -0.2074    1.0000 </r>
       <r>   -0.1560    1.0000 </r>
       <r>   -0.0002    1.0000 </r>
       <r>    0.0452    1.0000 </r>
       <r>    0.0881    1.0000 </r>
       <r>    0.2162    1.0000 </r>
       <r>    0.3179    1.0000 </r>
       <r>    0.3580    1.0000 </r>
       <r>    0.4024    1.0000 </r>
       <r>    0.4858    1.0000 </r>
       <r>    0.5153    1.0000 </r>
       <r>    0.5363    1.0000 </r>
       <r>    0.6364    1.0000 </r>
       <r>    0.6954    1.0000 </r>
       <r>    0.7748    1.0000 </r>
       <r>    0.7811    1.0000 </r>
       <r>    0.8167    1.0000 </r>
       <r>    0.9389    1.0000 </r>
       <r>    1.0056    1.0000 </r>
       <r>    1.0582    1.0000 </r>
       <r>    1.1462    1.0000 </r>
       <r>    1.1600    1.0000 </r>
       <r>    1.2408    1.0000 </r>
       <r>    1.3297    1.0000 </r>
       <r>    1.3558    1.0000 </r>
       <r>    1.3924    1.0000 </r>
       <r>    1.4233    1.0000 </r>
       <r>    1.4693    1.0000 </r>
       <r>    1.5129    1.0000 </r>
       <r>    1.5623    1.0000 </r>
       <r>    1.6120    1.0000 </r>
       <r>    1.6373    1.0000 </r>
       <r>    1.7251    1.0000 </r>
       <r>    1.7453    1.0000 </r>
       <r>    1.8074    1.0000 </r>
       <r>    1.8458    1.0000 </r>
       <r>    1.8887    1.0000 </r>
       <r>    2.0443    1.0000 </r>
       <r>    2.0970    1.0000 </r>
       <r>    2.1419    1.0000 </r>
       <r>    2.2047    1.0000 </r>
       <r>    2.2284    1.0000 </r>
       <r>    2.2544    1.0000 </r>
       <r>    2.3003    1.0000 </r>
       <r>    2.3974    1.0000 </r>
       <r>    2.4137    1.0000 </r>
       <r>    2.4472    1.0000 </r>
       <r>    2.4951    1.0000 </r>
       <r>    2.5113    1.0000 </r>
       <r>    2.5215    1.0000 </r>
       <r>    2.5444    1.0000 </r>
       <r>    2.5534    1.0000 </r>
       <r>    2.5782    1.0000 </r>
       <r>    2.6365    1.0000 </r>
       <r>    2.6478    1.0000 </r>
       <r>    2.6764    1.0000 </r>
       <r>    2.7148    1.0000 </r>
       <r>    2.7887    1.0000 </r>
       <r>    2.7932    1.0000 </r>
       <r>    2.8563    1.0000 </r>
       <r>    2.8658    1.0000 </r>
       <r>    2.8988    1.0000 </r>
       <r>    2.9331    1.0000 </r>
       <r>    2.9538    1.0000 </r>
       <r>    2.9831    1.0000 </r>
       <r>    2.9909    1.0000 </r>
       <r>    3.0150    1.0000 </r>
       <r>    3.0681    1.0000 </r>
       <r>    3.0804    1.0000 </r>
       <r>    3.1474    1.0000 </r>
       <r>    3.2420    1.0000 </r>
       <r>    3.2650    1.0000 </r>
       <r>    3.3005    1.0000 </r>
       <r>    3.3157    1.0000 </r>
       <r>    3.3351    1.0000 </r>
       <r>    3.3820    1.0000 </r>
       <r>    3.4390    1.0000 </r>
       <r>    3.4757    1.0000 </r>
       <r>    3.5210    1.0000 </r>
       <r>    3.5705    1.0000 </r>
       <r>    4.1650    1.0000 </r>
       <r>    4.1893    1.0000 </r>
       <r>    4.2249    1.0000 </r>
       <r>    4.2449    1.0000 </r>
       <r>    5.0255    0.0000 </r>
       <r>    5.0464    0.0000 </r>
       <r>    5.1997    0.0000 </r>
       <r>    5.2213    0.0000 </r>
       <r>    5.6826    0.0000 </r>
       <r>    5.7019    0.0000 </r>
       <r>    5.7965    0.0000 </r>
       <r>    5.8165    0.0000 </r>
       <r>    6.0973    0.0000 </r>
       <r>    6.1117    0.0000 </r>
       <r>    6.1357    0.0000 </r>
       <r>    6.1453    0.0000 </r>
       <r>    6.1818    0.0000 </r>
       <r>    6.2023    0.0000 </r>
       <r>    6.2271    0.0000 </r>
       <r>    6.2577    0.0000 </r>
       <r>    6.6315    0.0000 </r>
       <r>    6.7159    0.0000 </r>
       <r>    6.9490    0.0000 </r>
       <r>    7.0113    0.0000 </r>
       <r>    7.0360    0.0000 </r>
       <r>    7.1119    0.0000 </r>
       <r>    7.2703    0.0000 </r>
       <r>    7.5088    0.0000 </r>
       <r>    7.6650    0.0000 </r>
       <r>    7.7707    0.0000 </r>
       <r>    7.8727    0.0000 </r>
       <r>    7.9528    0.0000 </r>
       <r>    8.0247    0.0000 </r>
       <r>    8.2698    0.0000 </r>
       <r>    8.3224    0.0000 </r>
       <r>    8.3805    0.0000 </r>
       <r>    8.5674    0.0000 </r>
       <r>    8.7340    0.0000 </r>
       <r>    8.8851    0.0000 </r>
       <r>    8.9360    0.0000 </r>
       <r>    8.9364    0.0000 </r>
       <r>    8.9755    0.0000 </r>
       <r>    9.0134    0.0000 </r>
       <r>    9.0239    0.0000 </r>
       <r>    9.0366    0.0000 </r>
       <r>    9.0737    0.0000 </r>
       <r>    9.0935    0.0000 </r>
       <r>    9.1869    0.0000 </r>
       <r>    9.4201    0.0000 </r>
       <r>    9.4288    0.0000 </r>
       <r>    9.5355    0.0000 </r>
       <r>    9.6728    0.0000 </r>
       <r>    9.6783    0.0000 </r>
       <r>    9.7574    0.0000 </r>
       <r>    9.8882    0.0000 </r>
       <r>    9.9436    0.0000 </r>
      </set>
      <set comment="kpoint 4">
       <r>  -40.1790    1.0000 </r>
       <r>  -39.8862    1.0000 </r>
       <r>  -39.7224    1.0000 </r>
       <r>  -39.4402    1.0000 </r>
       <r>  -18.9770    1.0000 </r>
       <r>  -18.9726    1.0000 </r>
       <r>  -18.9090    1.0000 </r>
       <r>  -18.9053    1.0000 </r>
       <r>  -18.9021    1.0000 </r>
       <r>  -18.9018    1.0000 </r>
       <r>  -18.8964    1.0000 </r>
       <r>  -18.8877    1.0000 </r>
       <r>  -18.8369    1.0000 </r>
       <r>  -18.8289    1.0000 </r>
       <r>  -18.8277    1.0000 </r>
       <r>  -18.8197    1.0000 </r>
       <r>  -18.8080    1.0000 </r>
       <r>  -18.8025    1.0000 </r>
       <r>  -18.7859    1.0000 </r>
       <r>  -18.7801    1.0000 </r>
       <r>  -18.7596    1.0000 </r>
       <r>  -18.7524    1.0000 </r>
       <r>  -18.7396    1.0000 </r>
       <r>  -18.7381    1.0000 </r>
       <r>  -18.7342    1.0000 </r>
       <r>  -18.7303    1.0000 </r>
       <r>  -18.7253    1.0000 </r>
       <r>  -18.7237    1.0000 </r>
       <r>  -18.7185    1.0000 </r>
       <r>  -18.7171    1.0000 </r>
       <r>  -18.7144    1.0000 </r>
       <r>  -18.7139    1.0000 </r>
       <r>  -18.7121    1.0000 </r>
       <r>  -18.7065    1.0000 </r>
       <r>  -18.7038    1.0000 </r>
       <r>  -18.6969    1.0000 </r>
       <r>  -18.6941    1.0000 </r>
       <r>  -18.6880    1.0000 </r>
       <r>  -18.6866    1.0000 </r>
       <r>  -18.6787    1.0000 </r>
       <r>  -18.6718    1.0000 </r>
       <r>  -18.6674    1.0000 </r>
       <r>  -18.6359    1.0000 </r>
       <r>  -18.6234    1.0000 </r>
       <r>  -18.6144    1.0000 </r>
       <r>  -18.6063    1.0000 </r>
       <r>  -18.6059    1.0000 </r>
       <r>  -18.5957    1.0000 </r>
       <r>  -18.5900    1.0000 </r>
       <r>  -18.5799    1.0000 </r>
       <r>  -18.5763    1.0000 </r>
       <r>  -18.5674    1.0000 </r>
       <r>  -18.5664    1.0000 </r>
       <r>  -18.5608    1.0000 </r>
       <r>  -18.5597    1.0000 </r>
       <r>  -18.5441    1.0000 </r>
       <r>  -18.5438    1.0000 </r>
       <r>  -18.5420    1.0000 </r>
       <r>  -18.5362    1.0000 </r>
       <r>  -18.5292    1.0000 </r>
       <r>  -18.5146    1.0000 </r>
       <r>  -18.5116    1.0000 </r>
       <r>  -18.5082    1.0000 </r>
       <r>  -18.4999    1.0000 </r>
       <r>  -18.4809    1.0000 </r>
       <r>  -18.4806    1.0000 </r>
       <r>  -18.4679    1.0000 </r>
       <r>  -18.4676    1.0000 </r>
       <r>  -18.4627    1.0000 </r>
       <r>  -18.4513    1.0000 </r>
       <r>  -18.4505    1.0000 </r>
       <r>  -18.4381    1.0000 </r>
       <r>  -18.4255    1.0000 </r>
       <r>  -18.4202    1.0000 </r>
       <r>  -18.3998    1.0000 </r>
       <r>  -18.3604    1.0000 </r>
       <r>  -18.3422    1.0000 </r>
       <r>  -18.3344    1.0000 </r>
       <r>  -18.3149    1.0000 </r>
       <r>  -18.2897    1.0000 </r>
       <r>  -18.2789    1.0000 </r>
       <r>  -18.2674    1.0000 </r>
       <r>  -18.2449    1.0000 </r>
       <r>  -18.2318    1.0000 </r>
       <r>  -13.6327    1.0000 </r>
       <r>  -13.5242    1.0000 </r>
       <r>  -13.4737    1.0000 </r>
       <r>  -13.4417    1.0000 </r>
       <r>  -12.8924    1.0000 </r>
       <r>  -12.8516    1.0000 </r>
       <r>  -12.8182    1.0000 </r>
       <r>  -12.7942    1.0000 </r>
       <r>  -12.7635    1.0000 </r>
       <r>  -12.7076    1.0000 </r>
       <r>  -12.6793    1.0000 </r>
       <r>  -12.6026    1.0000 </r>
       <r>  -12.2143    1.0000 </r>
       <r>  -12.1168    1.0000 </r>
[...]
       <r>    8.7893    0.0000 </r>
       <r>    8.8060    0.0000 </r>
       <r>    8.8191    0.0000 </r>
       <r>    8.8462    0.0000 </r>
       <r>    8.8618    0.0000 </r>
       <r>    8.8949    0.0000 </r>
       <r>    8.9433    0.0000 </r>
       <r>    9.5116    0.0000 </r>
       <r>    9.7366    0.0000 </r>
       <r>    9.9233    0.0000 </r>
       <r>   10.0788    0.0000 </r>
      </set>
     </set>
    </set>
   </array>
  </eigenvalues>
  <separator name="orbital magnetization" >
   <v name="MAGDIPOLOUT">      0.00000000      0.00000000      0.00000000</v>
  </separator>
  <dos>
   <i name="efermi">      4.36867903 </i>
   <total>
    <array>
     <dimension dim="1">gridpoints</dimension>
     <dimension dim="2">spin</dimension>
     <field>energy</field>
     <field>total</field>
     <field>integrated</field>
     <set>
      <set comment="spin 1">
       <r>   -42.7037     0.0000     0.0000 </r>
       <r>   -42.5186     0.0000     0.0000 </r>
       <r>   -42.3334     0.0000     0.0000 </r>
       <r>   -42.1483     0.0000     0.0000 </r>
       <r>   -41.9631     0.0000     0.0000 </r>
       <r>   -41.7780     0.0000     0.0000 </r>
       <r>   -41.5928     0.0000     0.0000 </r>
       <r>   -41.4077     0.0000     0.0000 </r>
       <r>   -41.2226     0.0000     0.0000 </r>
       <r>   -41.0374     0.0000     0.0000 </r>
       <r>   -40.8523     0.0000     0.0000 </r>
       <r>   -40.6671     0.0000     0.0000 </r>
       <r>   -40.4820     0.0000     0.0000 </r>
       <r>   -40.2968     0.0000     0.0000 </r>
       <r>   -40.1117     0.0000     2.0000 </r>
       <r>   -39.9266     0.0000     2.0000 </r>
       <r>   -39.7414     0.0000     4.0000 </r>
       <r>   -39.5563     0.0000     6.0000 </r>
       <r>   -39.3711     0.0000     8.0000 </r>
       <r>   -39.1860     0.0000     8.0000 </r>
       <r>   -39.0009     0.0000     8.0000 </r>
       <r>   -38.8157     0.0000     8.0000 </r>
       <r>   -38.6306     0.0000     8.0000 </r>
       <r>   -38.4454     0.0000     8.0000 </r>
       <r>   -38.2603     0.0000     8.0000 </r>
       <r>   -38.0751     0.0000     8.0000 </r>
       <r>   -37.8900     0.0000     8.0000 </r>
       <r>   -37.7049     0.0000     8.0000 </r>
       <r>   -37.5197     0.0000     8.0000 </r>
       <r>   -37.3346     0.0000     8.0000 </r>
       <r>   -37.1494     0.0000     8.0000 </r>
       <r>   -36.9643     0.0000     8.0000 </r>
       <r>   -36.7792     0.0000     8.0000 </r>
       <r>   -36.5940     0.0000     8.0000 </r>
       <r>   -36.4089     0.0000     8.0000 </r>
       <r>   -36.2237     0.0000     8.0000 </r>
       <r>   -36.0386     0.0000     8.0000 </r>
       <r>   -35.8534     0.0000     8.0000 </r>
       <r>   -35.6683     0.0000     8.0000 </r>
       <r>   -35.4832     0.0000     8.0000 </r>
       <r>   -35.2980     0.0000     8.0000 </r>
       <r>   -35.1129     0.0000     8.0000 </r>
       <r>   -34.9277     0.0000     8.0000 </r>
       <r>   -34.7426     0.0000     8.0000 </r>
       <r>   -34.5574     0.0000     8.0000 </r>
       <r>   -34.3723     0.0000     8.0000 </r>
       <r>   -34.1872     0.0000     8.0000 </r>
       <r>   -34.0020     0.0000     8.0000 </r>
       <r>   -33.8169     0.0000     8.0000 </r>
       <r>   -33.6317     0.0000     8.0000 </r>
       <r>   -33.4466     0.0000     8.0000 </r>
       <r>   -33.2615     0.0000     8.0000 </r>
       <r>   -33.0763     0.0000     8.0000 </r>
       <r>   -32.8912     0.0000     8.0000 </r>
       <r>   -32.7060     0.0000     8.0000 </r>
       <r>   -32.5209     0.0000     8.0000 </r>
       <r>   -32.3357     0.0000     8.0000 </r>
       <r>   -32.1506     0.0000     8.0000 </r>
       <r>   -31.9655     0.0000     8.0000 </r>
       <r>   -31.7803     0.0000     8.0000 </r>
       <r>   -31.5952     0.0000     8.0000 </r>
       <r>   -31.4100     0.0000     8.0000 </r>
       <r>   -31.2249     0.0000     8.0000 </r>
       <r>   -31.0397     0.0000     8.0000 </r>
       <r>   -30.8546     0.0000     8.0000 </r>
       <r>   -30.6695     0.0000     8.0000 </r>
       <r>   -30.4843     0.0000     8.0000 </r>
       <r>   -30.2992     0.0000     8.0000 </r>
       <r>   -30.1140     0.0000     8.0000 </r>
       <r>   -29.9289     0.0000     8.0000 </r>
       <r>   -29.7438     0.0000     8.0000 </r>
       <r>   -29.5586     0.0000     8.0000 </r>
       <r>   -29.3735     0.0000     8.0000 </r>
       <r>   -29.1883     0.0000     8.0000 </r>
       <r>   -29.0032     0.0000     8.0000 </r>
       <r>   -28.8180     0.0000     8.0000 </r>
       <r>   -28.6329     0.0000     8.0000 </r>
       <r>   -28.4478     0.0000     8.0000 </r>
       <r>   -28.2626     0.0000     8.0000 </r>
       <r>   -28.0775     0.0000     8.0000 </r>
       <r>   -27.8923     0.0000     8.0000 </r>
       <r>   -27.7072     0.0000     8.0000 </r>
       <r>   -27.5220     0.0000     8.0000 </r>
       <r>   -27.3369     0.0000     8.0000 </r>
       <r>   -27.1518     0.0000     8.0000 </r>
       <r>   -26.9666     0.0000     8.0000 </r>
       <r>   -26.7815     0.0000     8.0000 </r>
       <r>   -26.5963     0.0000     8.0000 </r>
       <r>   -26.4112     0.0000     8.0000 </r>
       <r>   -26.2261     0.0000     8.0000 </r>
       <r>   -26.0409     0.0000     8.0000 </r>
       <r>   -25.8558     0.0000     8.0000 </r>
       <r>   -25.6706     0.0000     8.0000 </r>
       <r>   -25.4855     0.0000     8.0000 </r>
       <r>   -25.3003     0.0000     8.0000 </r>
       <r>   -25.1152     0.0000     8.0000 </r>
       <r>   -24.9301     0.0000     8.0000 </r>
       <r>   -24.7449     0.0000     8.0000 </r>
       <r>   -24.5598     0.0000     8.0000 </r>
       <r>   -24.3746     0.0000     8.0000 </r>
       <r>   -24.1895     0.0000     8.0000 </r>
       <r>   -24.0043     0.0000     8.0000 </r>
       <r>   -23.8192     0.0000     8.0000 </r>
       <r>   -23.6341     0.0000     8.0000 </r>
       <r>   -23.4489     0.0000     8.0000 </r>
       <r>   -23.2638     0.0000     8.0000 </r>
       <r>   -23.0786     0.0000     8.0000 </r>
       <r>   -22.8935     0.0000     8.0000 </r>
       <r>   -22.7084     0.0000     8.0000 </r>
       <r>   -22.5232     0.0000     8.0000 </r>
       <r>   -22.3381     0.0000     8.0000 </r>
       <r>   -22.1529     0.0000     8.0000 </r>
       <r>   -21.9678     0.0000     8.0000 </r>
       <r>   -21.7826     0.0000     8.0000 </r>
       <r>   -21.5975     0.0000     8.0000 </r>
       <r>   -21.4124     0.0000     8.0000 </r>
       <r>   -21.2272     0.0000     8.0000 </r>
       <r>   -21.0421     0.0000     8.0000 </r>
       <r>   -20.8569     0.0000     8.0000 </r>
       <r>   -20.6718     0.0000     8.0000 </r>
       <r>   -20.4866     0.0000     8.0000 </r>
       <r>   -20.3015     0.0000     8.0000 </r>
       <r>   -20.1164     0.0000     8.0000 </r>
       <r>   -19.9312     0.0000     8.0000 </r>
       <r>   -19.7461     0.0000     8.0000 </r>
       <r>   -19.5609     0.0000     8.0000 </r>
       <r>   -19.3758     0.0000     8.0000 </r>
       <r>   -19.1907     0.0000     8.0000 </r>
       <r>   -19.0055     0.0000     8.0000 </r>
       <r>   -18.8204     0.0000    30.0000 </r>
       <r>   -18.6352     0.0000    86.0000 </r>
       <r>   -18.4501     0.0000   142.0000 </r>
       <r>   -18.2649     0.0000   164.0000 </r>
       <r>   -18.0798     0.0000   168.0000 </r>
       <r>   -17.8947     0.0000   168.0000 </r>
       <r>   -17.7095     0.0000   168.0000 </r>
       <r>   -17.5244     0.0000   168.0000 </r>
       <r>   -17.3392     0.0000   168.0000 </r>
       <r>   -17.1541     0.0000   168.0000 </r>
       <r>   -16.9689     0.0000   168.0000 </r>
       <r>   -16.7838     0.0000   168.0000 </r>
       <r>   -16.5987     0.0000   168.0000 </r>
       <r>   -16.4135     0.0000   168.0000 </r>
       <r>   -16.2284     0.0000   168.0000 </r>
       <r>   -16.0432     0.0000   168.0000 </r>
       <r>   -15.8581     0.0000   168.0000 </r>
       <r>   -15.6730     0.0000   168.0000 </r>
       <r>   -15.4878     0.0000   168.0000 </r>
       <r>   -15.3027     0.0000   168.0000 </r>
       <r>   -15.1175     0.0000   168.0000 </r>
       <r>   -14.9324     0.0000   168.0000 </r>
       <r>   -14.7472     0.0000   168.0000 </r>
       <r>   -14.5621     0.0000   168.0000 </r>
       <r>   -14.3770     0.0000   168.0000 </r>
       <r>   -14.1918     0.0000   168.0000 </r>
       <r>   -14.0067     0.0000   168.0000 </r>
       <r>   -13.8215     0.0000   168.0000 </r>
       <r>   -13.6364     0.0000   168.0000 </r>
       <r>   -13.4512     0.0000   174.0000 </r>
       <r>   -13.2661     0.0000   176.0000 </r>
       <r>   -13.0810     0.0000   176.0000 </r>
       <r>   -12.8958   275.7116   177.2455 </r>
       <r>   -12.7107    61.0219   187.7942 </r>
       <r>   -12.5255     0.0000   192.0000 </r>
       <r>   -12.3404     0.0000   192.0000 </r>
       <r>   -12.1553     0.0000   194.0000 </r>
       <r>   -11.9701     0.0000   200.0000 </r>
       <r>   -11.7850     0.0000   200.0000 </r>
       <r>   -11.5998     0.0000   200.0000 </r>
       <r>   -11.4147     0.0000   200.0000 </r>
       <r>   -11.2295     0.0000   200.0000 </r>
       <r>   -11.0444     0.0000   200.0000 </r>
       <r>   -10.8593     0.0000   200.0000 </r>
       <r>   -10.6741     0.0000   200.0000 </r>
       <r>   -10.4890     0.0000   200.0000 </r>
       <r>   -10.3038     0.0000   200.0000 </r>
       <r>   -10.1187     0.0000   200.0000 </r>
       <r>    -9.9335     0.0000   200.0000 </r>
       <r>    -9.7484     0.0000   200.0000 </r>
       <r>    -9.5633     0.0000   200.0000 </r>
       <r>    -9.3781     0.1274   200.0003 </r>
       <r>    -9.1930    11.0481   201.2270 </r>
       <r>    -9.0078     0.0781   203.9999 </r>
       <r>    -8.8227    18.7316   206.0682 </r>
       <r>    -8.6376    10.8497   208.4669 </r>
       <r>    -8.4524    38.6544   212.3646 </r>
       <r>    -8.2673     4.1067   216.0310 </r>
       <r>    -8.0821    28.7990   220.5021 </r>
       <r>    -7.8970    17.2890   224.5297 </r>
       <r>    -7.7118     9.4872   227.9299 </r>
       <r>    -7.5267    13.0635   231.2351 </r>
       <r>    -7.3416     0.0000   232.0000 </r>
       <r>    -7.1564     0.0000   232.0000 </r>
       <r>    -6.9713     0.0000   232.0000 </r>
       <r>    -6.7861     0.0000   232.0000 </r>
       <r>    -6.6010     0.0000   232.0000 </r>
       <r>    -6.4158     0.5036   232.0029 </r>
       <r>    -6.2307    19.5441   233.7984 </r>
       <r>    -6.0456    19.4293   238.5138 </r>
       <r>    -5.8604    23.2419   241.5542 </r>
       <r>    -5.6753    19.8600   246.3745 </r>
       <r>    -5.4901    18.2151   249.9599 </r>
       <r>    -5.3050    18.1156   253.8503 </r>
       <r>    -5.1199     4.1505   255.8399 </r>
       <r>    -4.9347     7.6165   256.6027 </r>
       <r>    -4.7496     8.5666   258.0948 </r>
       <r>    -4.5644    10.1742   259.9309 </r>
       <r>    -4.3793     6.4024   261.2942 </r>
       <r>    -4.1941     6.7427   262.6137 </r>
       <r>    -4.0090     3.4205   263.5571 </r>
       <r>    -3.8239     0.9982   263.9213 </r>
       <r>    -3.6387     0.0060   264.0000 </r>
       <r>    -3.4536     0.0000   264.0000 </r>
       <r>    -3.2684     0.0000   264.0000 </r>
       <r>    -3.0833     0.0000   264.0000 </r>
       <r>    -2.8981     0.0000   264.0000 </r>
       <r>    -2.7130     0.0000   264.0000 </r>
       <r>    -2.5279     0.0000   264.0000 </r>
       <r>    -2.3427     0.0000   264.0000 </r>
       <r>    -2.1576     0.0000   264.0000 </r>
       <r>    -1.9724     0.0000   264.0000 </r>
       <r>    -1.7873     0.0000   264.0000 </r>
       <r>    -1.6022     0.0000   264.0000 </r>
       <r>    -1.4170     2.3221   264.1366 </r>
       <r>    -1.2319    10.6377   265.2541 </r>
       <r>    -1.0467    12.1259   267.3641 </r>
       <r>    -0.8616    10.6604   269.8183 </r>
       <r>    -0.6764     5.2818   271.2064 </r>
       <r>    -0.4913    17.1975   273.1182 </r>
       <r>    -0.3062    23.6574   276.9922 </r>
       <r>    -0.1210    44.4493   283.5369 </r>
       <r>     0.0641    31.2254   290.6931 </r>
       <r>     0.2493    37.7551   296.9412 </r>
       <r>     0.4344    37.8997   303.8261 </r>
       <r>     0.6196    31.8153   311.2507 </r>
       <r>     0.8047    36.3775   317.9974 </r>
       <r>     0.9898    45.4863   325.2550 </r>
       <r>     1.1750    34.3994   333.3937 </r>
       <r>     1.3601    59.0652   342.6835 </r>
       <r>     1.5453    47.8179   351.8926 </r>
       <r>     1.7304    36.0344   360.4545 </r>
       <r>     1.9155    29.9379   366.4359 </r>
       <r>     2.1007    41.8153   373.3819 </r>
       <r>     2.2858    52.7376   381.6722 </r>
       <r>     2.4710    54.3064   391.6177 </r>
       <r>     2.6561    58.6853   402.1115 </r>
       <r>     2.8413    61.1326   412.8237 </r>
       <r>     3.0264    61.4548   424.9659 </r>
       <r>     3.2115    53.9015   434.7009 </r>
       <r>     3.3967    45.5542   442.3379 </r>
       <r>     3.5818    15.7398   449.3275 </r>
       <r>     3.7670    14.6959   452.9141 </r>
       <r>     3.9521     8.1758   455.0315 </r>
       <r>     4.1373     1.6843   455.9415 </r>
       <r>     4.3224     0.0000   456.0000 </r>
       <r>     4.5075     0.0000   456.0000 </r>
       <r>     4.6927     0.0000   456.0000 </r>
       <r>     4.8778     0.0000   456.0000 </r>
       <r>     5.0630     0.6508   456.0256 </r>
       <r>     5.2481     3.2856   456.3413 </r>
       <r>     5.4332     7.4441   457.3344 </r>
       <r>     5.6184     9.7618   459.0191 </r>
       <r>     5.8035    28.9384   462.2643 </r>
       <r>     5.9887    13.2058   465.4830 </r>
       <r>     6.1738    11.7678   467.7398 </r>
       <r>     6.3590    13.4568   470.0526 </r>
       <r>     6.5441    15.4631   472.7302 </r>
       <r>     6.7292    17.5681   475.7822 </r>
       <r>     6.9144    20.8458   479.3096 </r>
       <r>     7.0995    26.0231   483.6023 </r>
       <r>     7.2847    35.5687   489.3714 </r>
       <r>     7.4698    32.8655   496.1340 </r>
       <r>     7.6550    41.5179   501.4077 </r>
       <r>     7.8401    49.9183   510.1659 </r>
       <r>     8.0252    30.0834   517.2935 </r>
       <r>     8.2104    18.9715   521.5390 </r>
       <r>     8.3955    20.3157   525.1003 </r>
       <r>     8.5807    25.1255   529.3389 </r>
       <r>     8.7658    44.0345   534.9766 </r>
       <r>     8.9509    30.1405   542.7320 </r>
       <r>     9.1361    17.8922   546.9263 </r>
       <r>     9.3212    14.4244   549.8395 </r>
       <r>     9.5064    14.6134   552.6489 </r>
       <r>     9.6915     6.3594   555.1608 </r>
       <r>     9.8767     7.7534   556.4982 </r>
       <r>    10.0618    12.0173   558.4755 </r>
       <r>    10.2469     2.6864   559.9300 </r>
       <r>    10.4321     0.0000   560.0000 </r>
       <r>    10.6172     0.0000   560.0000 </r>
       <r>    10.8024     0.0000   560.0000 </r>
       <r>    10.9875     0.0000   560.0000 </r>
       <r>    11.1727     0.0000   560.0000 </r>
       <r>    11.3578     0.0000   560.0000 </r>
       <r>    11.5429     0.0000   560.0000 </r>
       <r>    11.7281     0.0000   560.0000 </r>
       <r>    11.9132     0.0000   560.0000 </r>
       <r>    12.0984     0.0000   560.0000 </r>
       <r>    12.2835     0.0000   560.0000 </r>
       <r>    12.4686     0.0000   560.0000 </r>
       <r>    12.6538     0.0000   560.0000 </r>
       <r>    12.8389     0.0000   560.0000 </r>
      </set>
     </set>
    </array>
   </total>
  </dos>
 </calculation>
 <structure name="finalpos" >
  <crystal>
   <varray name="basis" >
    <v>      11.17850000       0.00000000       0.00000000 </v>
    <v>       0.00000000       9.57460000       0.00000000 </v>
    <v>       0.00000000       0.00000000      11.18240000 </v>
   </varray>
   <i name="volume">   1196.84853820 </i>
   <varray name="rec_basis" >
    <v>       0.08945744       0.00000000       0.00000000 </v>
    <v>       0.00000000       0.10444301       0.00000000 </v>
    <v>       0.00000000       0.00000000       0.08942624 </v>
   </varray>
  </crystal>
  <varray name="positions" >
   <v>       0.37539000       0.00017000       0.43687000 </v>
   <v>       0.12461000       0.99984000       0.18687000 </v>
   <v>       0.87539000       0.00017000       0.43687000 </v>
   <v>       0.87461000       0.00017000       0.18687000 </v>
   <v>       0.37461000       0.00017000       0.18687000 </v>
   <v>       0.62539000       0.99984000       0.43687000 </v>
   <v>       0.12539000       0.99984000       0.93687000 </v>
   <v>       0.37461000       0.00017000       0.68687000 </v>
   <v>       0.62539000       0.99984000       0.93687000 </v>
   <v>       0.87461000       0.00017000       0.68687000 </v>
   <v>       0.00013000       0.29519000       0.06281000 </v>
   <v>       0.25013000       0.70481000       0.06281000 </v>
   <v>       0.24987000       0.29519000       0.31282000 </v>
   <v>       0.49987000       0.70481000       0.31282000 </v>
   <v>       0.50013000       0.29519000       0.06281000 </v>
   <v>       0.75013000       0.70481000       0.06281000 </v>
   <v>       0.74987000       0.29519000       0.31282000 </v>
   <v>       0.99987000       0.70481000       0.31282000 </v>
   <v>       0.00013000       0.29519000       0.56281000 </v>
   <v>       0.25013000       0.70481000       0.56281000 </v>
   <v>       0.24987000       0.29519000       0.81282000 </v>
   <v>       0.49987000       0.70481000       0.81282000 </v>
   <v>       0.50013000       0.29519000       0.56281000 </v>
   <v>       0.75013000       0.70481000       0.56281000 </v>
   <v>       0.74987000       0.29519000       0.81282000 </v>
   <v>       0.99987000       0.70481000       0.81282000 </v>
   <v>       0.25005000       0.32677000       0.06286000 </v>
   <v>       0.00005000       0.67323000       0.06286000 </v>
   <v>       0.49995000       0.32677000       0.31286000 </v>
   <v>       0.24995000       0.67323000       0.31286000 </v>
   <v>       0.75005000       0.32677000       0.06286000 </v>
   <v>       0.50005000       0.67323000       0.06286000 </v>
   <v>       0.99995000       0.32677000       0.31286000 </v>
   <v>       0.74995000       0.67323000       0.31286000 </v>
   <v>       0.25005000       0.32677000       0.56286000 </v>
   <v>       0.00005000       0.67323000       0.56286000 </v>
   <v>       0.49995000       0.32677000       0.81286000 </v>
   <v>       0.24995000       0.67323000       0.81286000 </v>
   <v>       0.75005000       0.32677000       0.56286000 </v>
   <v>       0.50005000       0.67323000       0.56286000 </v>
   <v>       0.99995000       0.32677000       0.81286000 </v>
   <v>       0.74995000       0.67323000       0.81286000 </v>
   <v>       0.49987000       0.07798000       0.06246000 </v>
   <v>       0.24987000       0.92202000       0.06246000 </v>
   <v>       0.25013000       0.07798000       0.31246000 </v>
   <v>       0.00013000       0.92202000       0.31246000 </v>
   <v>       0.99987000       0.07798000       0.06246000 </v>
   <v>       0.74987000       0.92202000       0.06246000 </v>
   <v>       0.75013000       0.07798000       0.31246000 </v>
   <v>       0.50013000       0.92202000       0.31246000 </v>
   <v>       0.49987000       0.07798000       0.56246000 </v>
   <v>       0.24987000       0.92202000       0.56246000 </v>
   <v>       0.25013000       0.07798000       0.81246000 </v>
   <v>       0.00013000       0.92202000       0.81246000 </v>
   <v>       0.99987000       0.07798000       0.56246000 </v>
   <v>       0.74987000       0.92202000       0.56246000 </v>
   <v>       0.75013000       0.07798000       0.81246000 </v>
   <v>       0.50013000       0.92202000       0.81246000 </v>
  </varray>
 </structure>
</modeling>
