<?xml version="1.0" encoding="ISO-8859-1"?>
<modeling>
 <generator>
  <i name="program" type="string">vasp </i>
  <i name="version" type="string">5.4.4.18Apr17-6-g9f103f2a35  </i>
  <i name="subversion" type="string">(build Jul 31 2017 11:33:29) complex            parallel </i>
  <i name="platform" type="string">LinuxIFC </i>
  <i name="date" type="string">2021 09 29 </i>
  <i name="time" type="string">11:49:05 </i>
 </generator>
 <incar>
  <i type="string" name="SYSTEM"> La2O2S</i>
  <i type="string" name="PREC">normal</i>
  <i type="int" name="NELMIN">     4</i>
  <i type="int" name="IBRION">     2</i>
  <i type="int" name="NFREE">    10</i>
  <i name="EDIFF">      0.00000100</i>
  <i name="EDIFFG">     -0.01000000</i>
  <i type="int" name="NSW">     1</i>
  <i type="int" name="ISIF">     2</i>
  <i name="ENCUT">    600.00000000</i>
  <i name="ENAUG">    900.00000000</i>
  <i type="int" name="ISMEAR">    -5</i>
  <i type="logical" name="LWAVE"> F  </i>
  <i type="logical" name="LCHARG"> F  </i>
  <v type="int" name="KPOINT_BSE">    -1     0     0     0</v>
 </incar>
 <structure name="primitive_cell" >
  <crystal>
   <varray name="basis" >
    <v>      11.17850000       0.00000000       0.00000000 </v>
    <v>       0.00000000       9.57460000       0.00000000 </v>
    <v>       0.00000000       0.00000000      11.18240000 </v>
   </varray>
   <i name="volume">   1196.84853820 </i>
   <varray name="rec_basis" >
    <v>       0.08945744       0.00000000       0.00000000 </v>
    <v>       0.00000000       0.10444301       0.00000000 </v>
    <v>       0.00000000       0.00000000       0.08942624 </v>
   </varray>
  </crystal>
  <varray name="positions" >
   <v>       0.37461000       0.00017000       0.18687000 </v>
   <v>       0.24987000      -0.07798000       0.06246000 </v>
   <v>       0.49987000       0.07798000       0.06246000 </v>
   <v>       0.25013000       0.07798000       0.31246000 </v>
   <v>      -0.49987000      -0.07798000       0.31246000 </v>
   <v>       0.12461000      -0.00016000       0.18687000 </v>
   <v>      -0.37539000      -0.00016000       0.18687000 </v>
   <v>       0.37539000       0.00017000      -0.06313000 </v>
   <v>       0.25013000      -0.29519000       0.06281000 </v>
   <v>      -0.49987000       0.29519000       0.06281000 </v>
   <v>       0.24987000       0.29519000       0.31282000 </v>
   <v>       0.49987000      -0.29519000       0.31282000 </v>
   <v>       0.25005000       0.32677000       0.06286000 </v>
   <v>      -0.49995000      -0.32677000       0.06286000 </v>
   <v>       0.24995000      -0.32677000       0.31286000 </v>
   <v>       0.49995000       0.32677000       0.31286000 </v>
   <v>      -0.37461000      -0.00016000       0.43687000 </v>
   <v>       0.25013000       0.07798000      -0.18754000 </v>
   <v>      -0.00013000       0.07798000       0.06246000 </v>
   <v>       0.00013000      -0.07798000       0.31246000 </v>
   <v>      -0.49987000      -0.07798000      -0.18754000 </v>
   <v>      -0.25013000      -0.07798000       0.06246000 </v>
   <v>       0.24987000      -0.07798000      -0.43754000 </v>
   <v>      -0.24987000       0.07798000       0.31246000 </v>
   <v>       0.49987000       0.07798000      -0.43754000 </v>
   <v>       0.24987000       0.29519000      -0.18718000 </v>
   <v>       0.00013000       0.29519000       0.06281000 </v>
   <v>       0.49987000      -0.29519000      -0.18718000 </v>
   <v>      -0.00013000      -0.29519000       0.31282000 </v>
   <v>      -0.24987000      -0.29519000       0.06281000 </v>
   <v>      -0.25013000       0.29519000       0.31282000 </v>
   <v>       0.25013000      -0.29519000      -0.43719000 </v>
   <v>      -0.49987000       0.29519000      -0.43719000 </v>
   <v>       0.24995000      -0.32677000      -0.18714000 </v>
   <v>       0.49995000       0.32677000      -0.18714000 </v>
   <v>       0.00005000      -0.32677000       0.06286000 </v>
   <v>      -0.00005000       0.32677000       0.31286000 </v>
   <v>      -0.24995000       0.32677000       0.06286000 </v>
   <v>      -0.25005000      -0.32677000       0.31286000 </v>
   <v>       0.25005000       0.32677000      -0.43714000 </v>
   <v>      -0.49995000      -0.32677000      -0.43714000 </v>
   <v>       0.37461000       0.00017000      -0.31313000 </v>
   <v>       0.00013000      -0.07798000      -0.18754000 </v>
   <v>      -0.24987000       0.07798000      -0.18754000 </v>
   <v>      -0.00013000       0.07798000      -0.43754000 </v>
   <v>      -0.25013000      -0.07798000      -0.43754000 </v>
   <v>      -0.12461000       0.00017000       0.43687000 </v>
   <v>      -0.12461000       0.00017000      -0.06313000 </v>
   <v>      -0.37539000      -0.00016000      -0.31313000 </v>
   <v>       0.12461000      -0.00016000      -0.31313000 </v>
   <v>      -0.00013000      -0.29519000      -0.18718000 </v>
   <v>      -0.25013000       0.29519000      -0.18718000 </v>
   <v>       0.00013000       0.29519000      -0.43719000 </v>
   <v>      -0.24987000      -0.29519000      -0.43719000 </v>
   <v>      -0.00005000       0.32677000      -0.18714000 </v>
   <v>      -0.25005000      -0.32677000      -0.18714000 </v>
   <v>       0.00005000      -0.32677000      -0.43714000 </v>
   <v>      -0.24995000       0.32677000      -0.43714000 </v>
  </varray>
 </structure>
 <varray name="primitive_index" >
  <v type="int" >        1 </v>
  <v type="int" >       44 </v>
  <v type="int" >       43 </v>
  <v type="int" >       45 </v>
  <v type="int" >       50 </v>
  <v type="int" >        5 </v>
  <v type="int" >        7 </v>
  <v type="int" >        8 </v>
  <v type="int" >       12 </v>
  <v type="int" >       15 </v>
  <v type="int" >       13 </v>
  <v type="int" >       14 </v>
  <v type="int" >       27 </v>
  <v type="int" >       32 </v>
  <v type="int" >       30 </v>
  <v type="int" >       29 </v>
  <v type="int" >        2 </v>
  <v type="int" >       53 </v>
  <v type="int" >       47 </v>
  <v type="int" >       46 </v>
  <v type="int" >       58 </v>
  <v type="int" >       48 </v>
  <v type="int" >       52 </v>
  <v type="int" >       49 </v>
  <v type="int" >       51 </v>
  <v type="int" >       21 </v>
  <v type="int" >       11 </v>
  <v type="int" >       22 </v>
  <v type="int" >       18 </v>
  <v type="int" >       16 </v>
  <v type="int" >       17 </v>
  <v type="int" >       20 </v>
  <v type="int" >       23 </v>
  <v type="int" >       38 </v>
  <v type="int" >       37 </v>
  <v type="int" >       28 </v>
  <v type="int" >       33 </v>
  <v type="int" >       31 </v>
  <v type="int" >       34 </v>
  <v type="int" >       35 </v>
  <v type="int" >       40 </v>
  <v type="int" >        3 </v>
  <v type="int" >       54 </v>
  <v type="int" >       57 </v>
  <v type="int" >       55 </v>
  <v type="int" >       56 </v>
  <v type="int" >        6 </v>
  <v type="int" >       10 </v>
  <v type="int" >        4 </v>
  <v type="int" >        9 </v>
  <v type="int" >       26 </v>
  <v type="int" >       25 </v>
  <v type="int" >       19 </v>
  <v type="int" >       24 </v>
  <v type="int" >       41 </v>
  <v type="int" >       42 </v>
  <v type="int" >       36 </v>
  <v type="int" >       39 </v>
 </varray>
 <kpoints>
  <generation param="Gamma">
   <v type="int" name="divisions">       2        2        2 </v>
   <v name="usershift">      0.00000000       0.00000000       0.00000000 </v>
   <v name="genvec1">      0.50000000       0.00000000       0.00000000 </v>
   <v name="genvec2">      0.00000000       0.50000000       0.00000000 </v>
   <v name="genvec3">      0.00000000       0.00000000       0.50000000 </v>
   <v name="shift">      0.00000000       0.00000000       0.00000000 </v>
  </generation>
  <varray name="kpointlist" >
   <v>       0.00000000       0.00000000       0.00000000 </v>
   <v>       0.50000000       0.00000000       0.00000000 </v>
   <v>       0.00000000       0.50000000       0.00000000 </v>
   <v>       0.50000000       0.50000000       0.00000000 </v>
   <v>       0.00000000       0.00000000       0.50000000 </v>
   <v>       0.50000000       0.00000000       0.50000000 </v>
   <v>       0.00000000       0.50000000       0.50000000 </v>
   <v>       0.50000000       0.50000000       0.50000000 </v>
  </varray>
  <varray name="weights" >
   <v>       0.12500000 </v>
   <v>       0.12500000 </v>
   <v>       0.12500000 </v>
   <v>       0.12500000 </v>
   <v>       0.12500000 </v>
   <v>       0.12500000 </v>
   <v>       0.12500000 </v>
   <v>       0.12500000 </v>
  </varray>
  <varray name="tetrahedronlist"  type="int" >
   <v type="int" >        2        1        2        4        5 </v>
   <v type="int" >        2        1        3        4        5 </v>
   <v type="int" >        2        3        4        5        7 </v>
   <v type="int" >        2        2        4        5        6 </v>
   <v type="int" >        2        4        5        6        8 </v>
   <v type="int" >        2        4        5        7        8 </v>
   <v type="int" >        2        1        2        3        6 </v>
   <v type="int" >        2        2        3        4        6 </v>
   <v type="int" >        2        3        4        6        8 </v>
   <v type="int" >        2        1        3        5        6 </v>
   <v type="int" >        2        3        5        6        7 </v>
   <v type="int" >        2        3        6        7        8 </v>
   <v type="int" >        2        2        3        4        7 </v>
   <v type="int" >        2        1        2        3        7 </v>
   <v type="int" >        2        1        2        5        7 </v>
   <v type="int" >        2        2        4        7        8 </v>
   <v type="int" >        2        2        6        7        8 </v>
   <v type="int" >        2        2        5        6        7 </v>
   <v type="int" >        2        1        3        4        8 </v>
   <v type="int" >        2        1        2        4        8 </v>
   <v type="int" >        2        1        2        6        8 </v>
   <v type="int" >        2        1        3        7        8 </v>
   <v type="int" >        2        1        5        7        8 </v>
   <v type="int" >        2        1        5        6        8 </v>
  </varray>
  <i name="volumeweight">      0.02083333 </i>
 </kpoints>
 <parameters>
  <separator name="general" >
   <i type="string" name="SYSTEM">La2O2S</i>
   <i type="logical" name="LCOMPAT"> F  </i>
  </separator>
  <separator name="electronic" >
   <i type="string" name="PREC">normal</i>
   <i name="ENMAX">    600.00000000</i>
   <i name="ENAUG">    900.00000000</i>
   <i name="EDIFF">      0.00000100</i>
   <i type="int" name="IALGO">    38</i>
   <i type="int" name="IWAVPR">    11</i>
   <i type="int" name="NBANDS">   280</i>
   <i name="NELECT">    456.00000000</i>
   <i type="int" name="TURBO">     0</i>
   <i type="int" name="IRESTART">     0</i>
   <i type="int" name="NREBOOT">     0</i>
   <i type="int" name="NMIN">     0</i>
   <i name="EREF">      0.00000000</i>
   <separator name="electronic smearing" >
    <i type="int" name="ISMEAR">    -5</i>
    <i name="SIGMA">      0.20000000</i>
    <i name="KSPACING">      0.50000000</i>
    <i type="logical" name="KGAMMA"> T  </i>
   </separator>
   <separator name="electronic projectors" >
    <i type="logical" name="LREAL"> F  </i>
    <v name="ROPT">      0.00000000      0.00000000      0.00000000      0.00000000      0.00000000</v>
    <i type="int" name="LMAXPAW">  -100</i>
    <i type="int" name="LMAXMIX">     2</i>
    <i type="logical" name="NLSPLINE"> F  </i>
   </separator>
   <separator name="electronic startup" >
    <i type="int" name="ISTART">     0</i>
    <i type="int" name="ICHARG">     2</i>
    <i type="int" name="INIWAV">     1</i>
   </separator>
   <separator name="electronic spin" >
    <i type="int" name="ISPIN">     1</i>
    <i type="logical" name="LNONCOLLINEAR"> F  </i>
    <v name="MAGMOM">      1.00000000      1.00000000      1.00000000      1.00000000      1.00000000      1.00000000      1.00000000      1.00000000      1.00000000      1.00000000      1.00000000      1.00000000      1.00000000      1.00000000      1.00000000      1.00000000      1.00000000      1.00000000      1.00000000      1.00000000
      1.00000000      1.00000000      1.00000000      1.00000000      1.00000000      1.00000000      1.00000000      1.00000000      1.00000000      1.00000000      1.00000000      1.00000000      1.00000000      1.00000000      1.00000000      1.00000000      1.00000000      1.00000000      1.00000000      1.00000000
      1.00000000      1.00000000      1.00000000      1.00000000      1.00000000      1.00000000      1.00000000      1.00000000      1.00000000      1.00000000      1.00000000      1.00000000      1.00000000      1.00000000      1.00000000      1.00000000      1.00000000      1.00000000</v>
    <i name="NUPDOWN">     -1.00000000</i>
    <i type="logical" name="LSORBIT"> F  </i>
    <v name="SAXIS">      0.00000000      0.00000000      1.00000000</v>
    <i type="logical" name="LSPIRAL"> F  </i>
    <v name="QSPIRAL">      0.00000000      0.00000000      0.00000000</v>
    <i type="logical" name="LZEROZ"> F  </i>
   </separator>
   <separator name="electronic exchange-correlation" >
    <i type="logical" name="LASPH"> F  </i>
    <i type="logical" name="LMETAGGA"> F  </i>
   </separator>
   <separator name="electronic convergence" >
    <i type="int" name="NELM">    60</i>
    <i type="int" name="NELMDL">    -5</i>
    <i type="int" name="NELMIN">     4</i>
    <i name="ENINI">    600.00000000</i>
    <separator name="electronic convergence detail" >
     <i type="logical" name="LDIAG"> T  </i>
     <i type="logical" name="LSUBROT"> F  </i>
     <i name="WEIMIN">      0.00100000</i>
     <i name="EBREAK">      0.00000000</i>
     <i name="DEPER">      0.30000000</i>
     <i type="int" name="NRMM">     4</i>
     <i name="TIME">      0.40000000</i>
    </separator>
   </separator>
   <separator name="electronic mixer" >
    <i name="AMIX">      0.40000000</i>
    <i name="BMIX">      1.00000000</i>
    <i name="AMIN">      0.10000000</i>
    <i name="AMIX_MAG">      1.60000000</i>
    <i name="BMIX_MAG">      1.00000000</i>
    <separator name="electronic mixer details" >
     <i type="int" name="IMIX">     4</i>
     <i type="logical" name="MIXFIRST"> F  </i>
     <i type="int" name="MAXMIX">   -45</i>
     <i name="WC">    100.00000000</i>
     <i type="int" name="INIMIX">     1</i>
     <i type="int" name="MIXPRE">     1</i>
     <i type="int" name="MREMOVE">     5</i>
    </separator>
   </separator>
   <separator name="electronic dipolcorrection" >
    <i type="logical" name="LDIPOL"> F  </i>
    <i type="logical" name="LMONO"> F  </i>
    <i type="int" name="IDIPOL">     0</i>
    <i name="EPSILON">      1.00000000</i>
    <v name="DIPOL">   -100.00000000   -100.00000000   -100.00000000</v>
    <i name="EFIELD">      0.00000000</i>
   </separator>
  </separator>
  <separator name="grids" >
   <i type="int" name="NGX">    70</i>
   <i type="int" name="NGY">    60</i>
   <i type="int" name="NGZ">    70</i>
   <i type="int" name="NGXF">   140</i>
   <i type="int" name="NGYF">   120</i>
   <i type="int" name="NGZF">   140</i>
   <i type="logical" name="ADDGRID"> F  </i>
  </separator>
  <separator name="ionic" >
   <i type="int" name="NSW">     1</i>
   <i type="int" name="IBRION">     2</i>
   <i type="int" name="MDALGO">     0</i>
   <i type="int" name="ISIF">     2</i>
   <i name="PSTRESS">      0.00000000</i>
   <i name="EDIFFG">     -0.01000000</i>
   <i type="int" name="NFREE">    10</i>
   <i name="POTIM">      0.50000000</i>
   <i name="SMASS">     -3.00000000</i>
   <i name="SCALEE">      1.00000000</i>
  </separator>
  <separator name="ionic md" >
   <i name="TEBEG">      0.00010000</i>
   <i name="TEEND">      0.00010000</i>
   <i type="int" name="NBLOCK">     1</i>
   <i type="int" name="KBLOCK">     1</i>
   <i type="int" name="NPACO">   256</i>
   <i name="APACO">     16.00000000</i>
  </separator>
  <separator name="symmetry" >
   <i type="int" name="ISYM">     2</i>
   <i name="SYMPREC">      0.00001000</i>
  </separator>
  <separator name="dos" >
   <i type="int" name="LORBIT">     0</i>
   <v name="RWIGS">     -1.00000000     -1.00000000     -1.00000000     -1.00000000     -1.00000000</v>
   <i type="int" name="NEDOS">   301</i>
   <i name="EMIN">     10.00000000</i>
   <i name="EMAX">    -10.00000000</i>
   <i name="EFERMI">      0.00000000</i>
  </separator>
  <separator name="writing" >
   <i type="int" name="NWRITE">     2</i>
   <i type="logical" name="LWAVE"> F  </i>
   <i type="logical" name="LDOWNSAMPLE"> F  </i>
   <i type="logical" name="LCHARG"> F  </i>
   <i type="logical" name="LPARD"> F  </i>
   <i type="logical" name="LVTOT"> F  </i>
   <i type="logical" name="LVHAR"> F  </i>
   <i type="logical" name="LELF"> F  </i>
   <i type="logical" name="LOPTICS"> F  </i>
   <v name="STM">      0.00000000      0.00000000      0.00000000      0.00000000      0.00000000      0.00000000      0.00000000</v>
  </separator>
  <separator name="performance" >
   <i type="int" name="NPAR">    28</i>
   <i type="int" name="NSIM">     4</i>
   <i type="int" name="NBLK">    -1</i>
   <i type="logical" name="LPLANE"> T  </i>
   <i type="logical" name="LSCALAPACK"> T  </i>
   <i type="logical" name="LSCAAWARE"> F  </i>
   <i type="logical" name="LSCALU"> F  </i>
   <i type="logical" name="LASYNC"> F  </i>
   <i type="logical" name="LORBITALREAL"> F  </i>
  </separator>
  <separator name="miscellaneous" >
   <i type="int" name="IDIOT">     3</i>
   <i type="int" name="ISPECIAL">     0</i>
   <i type="logical" name="LMUSIC"> F  </i>
   <v name="POMASS">      7.01000000     24.30500000    208.98000000     32.06600000     16.00000000</v>
   <v name="DARWINR">      0.00000000      0.00000000      0.00000000      0.00000000      0.00000000</v>
   <v name="DARWINV">      1.00000000      1.00000000      1.00000000      1.00000000      1.00000000</v>
   <i type="logical" name="LCORR"> T  </i>
  </separator>
  <i type="logical" name="GGA_COMPAT"> T  </i>
  <i type="logical" name="LBERRY"> F  </i>
  <i type="int" name="ICORELEVEL">     0</i>
  <i type="logical" name="LDAU"> F  </i>
  <i type="int" name="I_CONSTRAINED_M">     0</i>
  <separator name="electronic exchange-correlation" >
   <i type="string" name="GGA">--</i>
   <i type="int" name="VOSKOWN">     0</i>
   <i type="logical" name="LHFCALC"> F  </i>
   <i type="string" name="PRECFOCK"></i>
   <i type="logical" name="LSYMGRAD"> F  </i>
   <i type="logical" name="LHFONE"> F  </i>
   <i type="logical" name="LRHFCALC"> F  </i>
   <i type="logical" name="LTHOMAS"> F  </i>
   <i type="logical" name="LMODELHF"> F  </i>
   <i name="ENCUT4O">     -1.00000000</i>
   <i type="int" name="EXXOEP">     0</i>
   <i type="int" name="FOURORBIT">     0</i>
   <i name="AEXX">      0.00000000</i>
   <i name="HFALPHA">      0.00000000</i>
   <i name="MCALPHA">      0.00000000</i>
   <i name="ALDAX">      1.00000000</i>
   <i name="AGGAX">      1.00000000</i>
   <i name="ALDAC">      1.00000000</i>
   <i name="AGGAC">      1.00000000</i>
   <i type="int" name="NKREDX">     1</i>
   <i type="int" name="NKREDY">     1</i>
   <i type="int" name="NKREDZ">     1</i>
   <i type="logical" name="SHIFTRED"> F  </i>
   <i type="logical" name="ODDONLY"> F  </i>
   <i type="logical" name="EVENONLY"> F  </i>
   <i type="int" name="LMAXFOCK">     0</i>
   <i type="int" name="NMAXFOCKAE">     0</i>
   <i type="logical" name="LFOCKAEDFT"> F  </i>
   <i name="HFSCREEN">      0.00000000</i>
   <i name="HFSCREENC">      0.00000000</i>
   <i type="int" name="NBANDSGWLOW">     0</i>
  </separator>
  <separator name="vdW DFT" >
   <i type="logical" name="LUSE_VDW"> F  </i>
   <i name="Zab_VDW">     -0.84910000</i>
   <i name="PARAM1">      0.12340000</i>
   <i name="PARAM2">      1.00000000</i>
   <i name="PARAM3">      0.00000000</i>
  </separator>
  <separator name="model GW" >
   <i type="int" name="MODEL_GW">     0</i>
   <i name="MODEL_EPS0">     12.38119177</i>
   <i name="MODEL_ALPHA">      1.00000000</i>
  </separator>
  <separator name="linear response parameters" >
   <i type="logical" name="LEPSILON"> F  </i>
   <i type="logical" name="LRPA"> F  </i>
   <i type="logical" name="LNABLA"> F  </i>
   <i type="logical" name="LVEL"> F  </i>
   <i type="int" name="KINTER">     0</i>
   <i name="CSHIFT">      0.10000000</i>
   <i name="OMEGAMAX">     -1.00000000</i>
   <i name="DEG_THRESHOLD">      0.00200000</i>
   <i name="RTIME">     -0.10000000</i>
   <i name="WPLASMAI">      0.00000000</i>
   <v name="DFIELD">      0.00000000      0.00000000      0.00000000</v>
   <v name="WPLASMA">      0.00000000      0.00000000      0.00000000      0.00000000      0.00000000      0.00000000      0.00000000      0.00000000      0.00000000</v>
  </separator>
  <separator name="orbital magnetization" >
   <i type="logical" name="NUCIND"> F  </i>
   <v name="MAGPOS">      0.00000000      0.00000000      0.00000000</v>
   <i type="logical" name="LNICSALL"> T  </i>
   <i type="logical" name="ORBITALMAG"> F  </i>
   <i type="logical" name="LMAGBLOCH"> F  </i>
   <i type="logical" name="LCHIMAG"> F  </i>
   <i type="logical" name="LGAUGE"> T  </i>
   <i type="int" name="MAGATOM">     0</i>
   <v name="MAGDIPOL">      0.00000000      0.00000000      0.00000000</v>
   <v name="AVECCONST">      0.00000000      0.00000000      0.00000000</v>
  </separator>
  <separator name="response functions" >
   <i type="logical" name="LADDER"> F  </i>
   <i type="logical" name="LRPAFORCE"> F  </i>
   <i type="logical" name="LFXC"> F  </i>
   <i type="logical" name="LHARTREE"> T  </i>
   <i type="int" name="IBSE">     0</i>
   <v type="int" name="KPOINT">    -1     0     0     0</v>
   <i type="logical" name="LTCTE"> F  </i>
   <i type="logical" name="LTETE"> F  </i>
   <i type="logical" name="LTRIPLET"> F  </i>
   <i type="logical" name="LFXCEPS"> F  </i>
   <i type="logical" name="LFXHEG"> F  </i>
   <i type="int" name="NATURALO">     2</i>
   <i type="logical" name="L2ORDER"> F  </i>
   <i type="logical" name="LMP2LT"> F  </i>
   <i type="logical" name="LUSEW"> F  </i>
   <i name="ENCUTGW">     -2.00000000</i>
   <i name="ENCUTGWSOFT">     -2.00000000</i>
   <i name="ENCUTLF">     -1.00000000</i>
   <i type="int" name="LMAXMP2">    -1</i>
   <i name="SCISSOR">      0.00000000</i>
   <i type="int" name="NOMEGA">     0</i>
   <i type="int" name="NOMEGAR">     0</i>
   <i type="int" name="NBANDSGW">    -1</i>
   <i type="int" name="NBANDSO">    -1</i>
   <i type="int" name="NBANDSV">    -1</i>
   <i type="int" name="NELM">     1</i>
   <i type="int" name="NELMHF">     1</i>
   <i type="int" name="DIM">     3</i>
   <i type="int" name="ANTIRES">     0</i>
   <i name="OMEGAMAX">    -30.00000000</i>
   <i name="OMEGAMIN">    -30.00000000</i>
   <i name="OMEGATL">   -200.00000000</i>
   <i type="int" name="OMEGAGRID">   140</i>
   <i name="CSHIFT">     -0.10000000</i>
   <i type="logical" name="SELFENERGY"> F  </i>
   <i type="logical" name="LSPECTRAL"> F  </i>
   <i type="logical" name="LSPECTRALGW"> F  </i>
   <i type="logical" name="LSINGLES"> F  </i>
   <i type="logical" name="LFERMIGW"> F  </i>
   <i type="logical" name="ODDONLYGW"> F  </i>
   <i type="logical" name="EVENONLYGW"> F  </i>
   <i type="int" name="NKREDLFX">     1</i>
   <i type="int" name="NKREDLFY">     1</i>
   <i type="int" name="NKREDLFZ">     1</i>
   <i type="int" name="MAXMEM">  2800</i>
   <i type="int" name="TELESCOPE">     0</i>
   <i type="int" name="TAUPAR">     1</i>
   <i type="int" name="OMEGAPAR">    -1</i>
   <i name="LAMBDA">      1.00000000</i>
  </separator>
  <separator name="External order field" >
   <i name="OFIELD_KAPPA">      0.00000000</i>
   <v name="OFIELD_K">      0.00000000      0.00000000      0.00000000</v>
   <i name="OFIELD_Q6_NEAR">      0.00000000</i>
   <i name="OFIELD_Q6_FAR">      0.00000000</i>
   <i name="OFIELD_A">      0.00000000</i>
  </separator>
 </parameters>
 <atominfo>
  <atoms>      58 </atoms>
  <types>       5 </types>
  <array name="atoms" >
   <dimension dim="1">ion</dimension>
   <field type="string">element</field>
   <field type="int">atomtype</field>
   <set>
    <rc><c>Li</c><c>   1</c></rc>
    <rc><c>Li</c><c>   1</c></rc>
    <rc><c>Li</c><c>   1</c></rc>
    <rc><c>Li</c><c>   1</c></rc>
    <rc><c>Mg</c><c>   2</c></rc>
    <rc><c>Mg</c><c>   2</c></rc>
    <rc><c>Mg</c><c>   2</c></rc>
    <rc><c>Mg</c><c>   2</c></rc>
    <rc><c>Mg</c><c>   2</c></rc>
    <rc><c>Mg</c><c>   2</c></rc>
    <rc><c>Bi</c><c>   3</c></rc>
    <rc><c>Bi</c><c>   3</c></rc>
    <rc><c>Bi</c><c>   3</c></rc>
    <rc><c>Bi</c><c>   3</c></rc>
    <rc><c>Bi</c><c>   3</c></rc>
    <rc><c>Bi</c><c>   3</c></rc>
    <rc><c>Bi</c><c>   3</c></rc>
    <rc><c>Bi</c><c>   3</c></rc>
    <rc><c>Bi</c><c>   3</c></rc>
    <rc><c>Bi</c><c>   3</c></rc>
    <rc><c>Bi</c><c>   3</c></rc>
    <rc><c>Bi</c><c>   3</c></rc>
    <rc><c>Bi</c><c>   3</c></rc>
    <rc><c>Bi</c><c>   3</c></rc>
    <rc><c>Bi</c><c>   3</c></rc>
    <rc><c>Bi</c><c>   3</c></rc>
    <rc><c>S </c><c>   4</c></rc>
    <rc><c>S </c><c>   4</c></rc>
    <rc><c>S </c><c>   4</c></rc>
    <rc><c>S </c><c>   4</c></rc>
    <rc><c>S </c><c>   4</c></rc>
    <rc><c>S </c><c>   4</c></rc>
    <rc><c>S </c><c>   4</c></rc>
    <rc><c>S </c><c>   4</c></rc>
    <rc><c>S </c><c>   4</c></rc>
    <rc><c>S </c><c>   4</c></rc>
    <rc><c>S </c><c>   4</c></rc>
    <rc><c>S </c><c>   4</c></rc>
    <rc><c>S </c><c>   4</c></rc>
    <rc><c>S </c><c>   4</c></rc>
    <rc><c>S </c><c>   4</c></rc>
    <rc><c>S </c><c>   4</c></rc>
    <rc><c>O </c><c>   5</c></rc>
    <rc><c>O </c><c>   5</c></rc>
    <rc><c>O </c><c>   5</c></rc>
    <rc><c>O </c><c>   5</c></rc>
    <rc><c>O </c><c>   5</c></rc>
    <rc><c>O </c><c>   5</c></rc>
    <rc><c>O </c><c>   5</c></rc>
    <rc><c>O </c><c>   5</c></rc>
    <rc><c>O </c><c>   5</c></rc>
    <rc><c>O </c><c>   5</c></rc>
    <rc><c>O </c><c>   5</c></rc>
    <rc><c>O </c><c>   5</c></rc>
    <rc><c>O </c><c>   5</c></rc>
    <rc><c>O </c><c>   5</c></rc>
    <rc><c>O </c><c>   5</c></rc>
    <rc><c>O </c><c>   5</c></rc>
   </set>
  </array>
  <array name="atomtypes" >
   <dimension dim="1">type</dimension>
   <field type="int">atomspertype</field>
   <field type="string">element</field>
   <field>mass</field>
   <field>valence</field>
   <field type="string">pseudopotential</field>
   <set>
    <rc><c>   4</c><c>Li</c><c>      7.01000000</c><c>      3.00000000</c><c>  PAW_PBE Li_sv 10Sep2004               </c></rc>
    <rc><c>   6</c><c>Mg</c><c>     24.30500000</c><c>      2.00000000</c><c>  PAW_PBE Mg 13Apr2007                  </c></rc>
    <rc><c>  16</c><c>Bi</c><c>    208.98000000</c><c>     15.00000000</c><c>  PAW_PBE Bi_d 06Sep2000                </c></rc>
    <rc><c>  16</c><c>S </c><c>     32.06600000</c><c>      6.00000000</c><c>  PAW_PBE S 06Sep2000                   </c></rc>
    <rc><c>  16</c><c>O </c><c>     16.00000000</c><c>      6.00000000</c><c>  PAW_PBE O 08Apr2002                   </c></rc>
   </set>
  </array>
 </atominfo>
 <structure name="initialpos" >
  <crystal>
   <varray name="basis" >
    <v>      11.17850000       0.00000000       0.00000000 </v>
    <v>       0.00000000       9.57460000       0.00000000 </v>
    <v>       0.00000000       0.00000000      11.18240000 </v>
   </varray>
   <i name="volume">   1196.84853820 </i>
   <varray name="rec_basis" >
    <v>       0.08945744       0.00000000       0.00000000 </v>
    <v>       0.00000000       0.10444301       0.00000000 </v>
    <v>       0.00000000       0.00000000       0.08942624 </v>
   </varray>
  </crystal>
  <varray name="positions" >
   <v>       0.37461000       0.00017000       0.18687000 </v>
   <v>       0.62539000       0.99984000       0.43687000 </v>
   <v>       0.37461000       0.00017000       0.68687000 </v>
   <v>       0.62461000       0.99984000       0.68687000 </v>
   <v>       0.12461000       0.99984000       0.18687000 </v>
   <v>       0.87539000       0.00017000       0.43687000 </v>
   <v>       0.62461000       0.99984000       0.18687000 </v>
   <v>       0.37539000       0.00017000       0.93687000 </v>
   <v>       0.12461000       0.99984000       0.68687000 </v>
   <v>       0.87539000       0.00017000       0.93687000 </v>
   <v>       0.00013000       0.29519000       0.06281000 </v>
   <v>       0.25013000       0.70481000       0.06281000 </v>
   <v>       0.24987000       0.29519000       0.31282000 </v>
   <v>       0.49987000       0.70481000       0.31282000 </v>
   <v>       0.50013000       0.29519000       0.06281000 </v>
   <v>       0.75013000       0.70481000       0.06281000 </v>
   <v>       0.74987000       0.29519000       0.31282000 </v>
   <v>       0.99987000       0.70481000       0.31282000 </v>
   <v>       0.00013000       0.29519000       0.56281000 </v>
   <v>       0.25013000       0.70481000       0.56281000 </v>
   <v>       0.24987000       0.29519000       0.81282000 </v>
   <v>       0.49987000       0.70481000       0.81282000 </v>
   <v>       0.50013000       0.29519000       0.56281000 </v>
   <v>       0.75013000       0.70481000       0.56281000 </v>
   <v>       0.74987000       0.29519000       0.81282000 </v>
   <v>       0.99987000       0.70481000       0.81282000 </v>
   <v>       0.25005000       0.32677000       0.06286000 </v>
   <v>       0.00005000       0.67323000       0.06286000 </v>
   <v>       0.49995000       0.32677000       0.31286000 </v>
   <v>       0.24995000       0.67323000       0.31286000 </v>
   <v>       0.75005000       0.32677000       0.06286000 </v>
   <v>       0.50005000       0.67323000       0.06286000 </v>
   <v>       0.99995000       0.32677000       0.31286000 </v>
   <v>       0.74995000       0.67323000       0.31286000 </v>
   <v>       0.25005000       0.32677000       0.56286000 </v>
   <v>       0.00005000       0.67323000       0.56286000 </v>
   <v>       0.49995000       0.32677000       0.81286000 </v>
   <v>       0.24995000       0.67323000       0.81286000 </v>
   <v>       0.75005000       0.32677000       0.56286000 </v>
   <v>       0.50005000       0.67323000       0.56286000 </v>
   <v>       0.99995000       0.32677000       0.81286000 </v>
   <v>       0.74995000       0.67323000       0.81286000 </v>
   <v>       0.49987000       0.07798000       0.06246000 </v>
   <v>       0.24987000       0.92202000       0.06246000 </v>
   <v>       0.25013000       0.07798000       0.31246000 </v>
   <v>       0.00013000       0.92202000       0.31246000 </v>
   <v>       0.99987000       0.07798000       0.06246000 </v>
   <v>       0.74987000       0.92202000       0.06246000 </v>
   <v>       0.75013000       0.07798000       0.31246000 </v>
   <v>       0.50013000       0.92202000       0.31246000 </v>
   <v>       0.49987000       0.07798000       0.56246000 </v>
   <v>       0.24987000       0.92202000       0.56246000 </v>
   <v>       0.25013000       0.07798000       0.81246000 </v>
   <v>       0.00013000       0.92202000       0.81246000 </v>
   <v>       0.99987000       0.07798000       0.56246000 </v>
   <v>       0.74987000       0.92202000       0.56246000 </v>
   <v>       0.75013000       0.07798000       0.81246000 </v>
   <v>       0.50013000       0.92202000       0.81246000 </v>
  </varray>
 </structure>
 <calculation>
  <scstep>
   <time name="dav">   61.08   61.17</time>
   <time name="total">   61.16   61.25</time>
   <energy>
    <i name="alphaZ">   1054.17224280 </i>
    <i name="ewald"> -30178.19281883 </i>
    <i name="hartreedc"> -12706.15247476 </i>
    <i name="XCdc">   1173.27714554 </i>
    <i name="pawpsdc">  36541.05238669 </i>
    <i name="pawaedc"> -35795.85877930 </i>
    <i name="eentropy">      0.00000000 </i>
    <i name="bandstr">   1908.23751589 </i>
    <i name="atom">  43643.51795008 </i>
    <i name="e_fr_energy">   5640.05316811 </i>
    <i name="e_wo_entrp">   5640.05316811 </i>
    <i name="e_0_energy">   5640.05316811 </i>
   </energy>
  </scstep>
  <scstep>
   <time name="dav">   62.68   62.74</time>
   <time name="total">   62.69   62.75</time>
   <energy>
    <i name="e_fr_energy">    720.12084097 </i>
    <i name="e_wo_entrp">    720.12084097 </i>
    <i name="e_0_energy">    720.12084097 </i>
   </energy>
  </scstep>
  <scstep>
   <time name="dav">   71.51   71.52</time>
   <time name="total">   71.51   71.53</time>
   <energy>
    <i name="e_fr_energy">   -248.92401814 </i>
    <i name="e_wo_entrp">   -248.92401814 </i>
    <i name="e_0_energy">   -248.92401814 </i>
   </energy>
  </scstep>
  <scstep>
   <time name="dav">   75.79   75.81</time>
   <time name="total">   75.79   75.81</time>
   <energy>
    <i name="e_fr_energy">   -332.95741557 </i>
    <i name="e_wo_entrp">   -332.95741557 </i>
    <i name="e_0_energy">   -332.95741557 </i>
   </energy>
  </scstep>
  <scstep>
   <time name="dav">   95.01   95.01</time>
   <time name="total">   95.73   95.73</time>
   <energy>
    <i name="e_fr_energy">   -338.39733329 </i>
    <i name="e_wo_entrp">   -338.39733329 </i>
    <i name="e_0_energy">   -338.39733329 </i>
   </energy>
  </scstep>
  <scstep>
   <time name="dav">   87.26   87.44</time>
   <time name="total">   88.05   88.23</time>
   <energy>
    <i name="e_fr_energy">   -284.38065456 </i>
    <i name="e_wo_entrp">   -284.38065456 </i>
    <i name="e_0_energy">   -284.38065456 </i>
   </energy>
  </scstep>
  <scstep>
   <time name="dav">   66.00   66.26</time>
   <time name="total">   66.79   67.05</time>
   <energy>
    <i name="e_fr_energy">   -286.56178008 </i>
    <i name="e_wo_entrp">   -286.56178008 </i>
    <i name="e_0_energy">   -286.56178008 </i>
   </energy>
  </scstep>
  <scstep>
   <time name="dav">   77.87   78.22</time>
   <time name="total">   78.67   79.10</time>
   <energy>
    <i name="e_fr_energy">   -285.69792423 </i>
    <i name="e_wo_entrp">   -285.69792423 </i>
    <i name="e_0_energy">   -285.69792423 </i>
   </energy>
  </scstep>
  <scstep>
   <time name="dav">   80.58   80.93</time>
   <time name="total">   81.37   81.73</time>
   <energy>
    <i name="e_fr_energy">   -285.26581007 </i>
    <i name="e_wo_entrp">   -285.26581007 </i>
    <i name="e_0_energy">   -285.26581007 </i>
   </energy>
  </scstep>
  <scstep>
   <time name="dav">   73.92   74.02</time>
   <time name="total">   74.74   74.84</time>
   <energy>
    <i name="e_fr_energy">   -285.28011839 </i>
    <i name="e_wo_entrp">   -285.28011839 </i>
    <i name="e_0_energy">   -285.28011839 </i>
   </energy>
  </scstep>
  <scstep>
   <time name="dav">   78.96   79.00</time>
   <time name="total">   79.74   79.79</time>
   <energy>
    <i name="e_fr_energy">   -285.28454842 </i>
    <i name="e_wo_entrp">   -285.28454842 </i>
    <i name="e_0_energy">   -285.28454842 </i>
   </energy>
  </scstep>
  <scstep>
   <time name="dav">   75.32   75.49</time>
   <time name="total">   76.12   76.29</time>
   <energy>
    <i name="e_fr_energy">   -285.28764769 </i>
    <i name="e_wo_entrp">   -285.28764769 </i>
    <i name="e_0_energy">   -285.28764769 </i>
   </energy>
  </scstep>
  <scstep>
   <time name="dav">   76.09   76.50</time>
   <time name="total">   76.86   77.32</time>
   <energy>
    <i name="e_fr_energy">   -285.28871316 </i>
    <i name="e_wo_entrp">   -285.28871316 </i>
    <i name="e_0_energy">   -285.28871316 </i>
   </energy>
  </scstep>
  <scstep>
   <time name="dav">   67.89   68.70</time>
   <time name="total">   68.68   69.48</time>
   <energy>
    <i name="e_fr_energy">   -285.28897368 </i>
    <i name="e_wo_entrp">   -285.28897368 </i>
    <i name="e_0_energy">   -285.28897368 </i>
   </energy>
  </scstep>
  <scstep>
   <time name="dav">   84.73   85.10</time>
   <time name="total">   85.52   85.89</time>
   <energy>
    <i name="e_fr_energy">   -285.28901315 </i>
    <i name="e_wo_entrp">   -285.28901315 </i>
    <i name="e_0_energy">   -285.28901315 </i>
   </energy>
  </scstep>
  <scstep>
   <time name="dav">   63.96   64.19</time>
   <time name="total">   64.74   64.98</time>
   <energy>
    <i name="e_fr_energy">   -285.28903270 </i>
    <i name="e_wo_entrp">   -285.28903270 </i>
    <i name="e_0_energy">   -285.28903270 </i>
   </energy>
  </scstep>
  <scstep>
   <time name="dav">   74.09   74.36</time>
   <time name="total">   74.88   75.15</time>
   <energy>
    <i name="e_fr_energy">   -285.28903468 </i>
    <i name="e_wo_entrp">   -285.28903468 </i>
    <i name="e_0_energy">   -285.28903468 </i>
   </energy>
  </scstep>
  <scstep>
   <time name="dav">   59.49   59.70</time>
   <time name="total">   59.56   59.78</time>
   <energy>
    <i name="alphaZ">   1054.17224280 </i>
    <i name="ewald"> -30178.19281883 </i>
    <i name="hartreedc"> -12947.57291477 </i>
    <i name="XCdc">   1198.71816774 </i>
    <i name="pawpsdc">  43570.25474078 </i>
    <i name="pawaedc"> -42797.56840554 </i>
    <i name="eentropy">      0.00000000 </i>
    <i name="bandstr">  -3828.61799733 </i>
    <i name="atom">  43643.51795008 </i>
    <i name="e_fr_energy">   -285.28903506 </i>
    <i name="e_wo_entrp">   -285.28903506 </i>
    <i name="e_0_energy">   -285.28903506 </i>
   </energy>
  </scstep>
  <structure>
   <crystal>
    <varray name="basis" >
     <v>      11.17850000       0.00000000       0.00000000 </v>
     <v>       0.00000000       9.57460000       0.00000000 </v>
     <v>       0.00000000       0.00000000      11.18240000 </v>
    </varray>
    <i name="volume">   1196.84853820 </i>
    <varray name="rec_basis" >
     <v>       0.08945744       0.00000000       0.00000000 </v>
     <v>       0.00000000       0.10444301       0.00000000 </v>
     <v>       0.00000000       0.00000000       0.08942624 </v>
    </varray>
   </crystal>
   <varray name="positions" >
    <v>       0.37461000       0.00017000       0.18687000 </v>
    <v>       0.62539000       0.99984000       0.43687000 </v>
    <v>       0.37461000       0.00017000       0.68687000 </v>
    <v>       0.62461000       0.99984000       0.68687000 </v>
    <v>       0.12461000       0.99984000       0.18687000 </v>
    <v>       0.87539000       0.00017000       0.43687000 </v>
    <v>       0.62461000       0.99984000       0.18687000 </v>
    <v>       0.37539000       0.00017000       0.93687000 </v>
    <v>       0.12461000       0.99984000       0.68687000 </v>
    <v>       0.87539000       0.00017000       0.93687000 </v>
    <v>       0.00013000       0.29519000       0.06281000 </v>
    <v>       0.25013000       0.70481000       0.06281000 </v>
    <v>       0.24987000       0.29519000       0.31282000 </v>
    <v>       0.49987000       0.70481000       0.31282000 </v>
    <v>       0.50013000       0.29519000       0.06281000 </v>
    <v>       0.75013000       0.70481000       0.06281000 </v>
    <v>       0.74987000       0.29519000       0.31282000 </v>
    <v>       0.99987000       0.70481000       0.31282000 </v>
    <v>       0.00013000       0.29519000       0.56281000 </v>
    <v>       0.25013000       0.70481000       0.56281000 </v>
    <v>       0.24987000       0.29519000       0.81282000 </v>
    <v>       0.49987000       0.70481000       0.81282000 </v>
    <v>       0.50013000       0.29519000       0.56281000 </v>
    <v>       0.75013000       0.70481000       0.56281000 </v>
    <v>       0.74987000       0.29519000       0.81282000 </v>
    <v>       0.99987000       0.70481000       0.81282000 </v>
    <v>       0.25005000       0.32677000       0.06286000 </v>
    <v>       0.00005000       0.67323000       0.06286000 </v>
    <v>       0.49995000       0.32677000       0.31286000 </v>
    <v>       0.24995000       0.67323000       0.31286000 </v>
    <v>       0.75005000       0.32677000       0.06286000 </v>
    <v>       0.50005000       0.67323000       0.06286000 </v>
    <v>       0.99995000       0.32677000       0.31286000 </v>
    <v>       0.74995000       0.67323000       0.31286000 </v>
    <v>       0.25005000       0.32677000       0.56286000 </v>
    <v>       0.00005000       0.67323000       0.56286000 </v>
    <v>       0.49995000       0.32677000       0.81286000 </v>
    <v>       0.24995000       0.67323000       0.81286000 </v>
    <v>       0.75005000       0.32677000       0.56286000 </v>
    <v>       0.50005000       0.67323000       0.56286000 </v>
    <v>       0.99995000       0.32677000       0.81286000 </v>
    <v>       0.74995000       0.67323000       0.81286000 </v>
    <v>       0.49987000       0.07798000       0.06246000 </v>
    <v>       0.24987000       0.92202000       0.06246000 </v>
    <v>       0.25013000       0.07798000       0.31246000 </v>
    <v>       0.00013000       0.92202000       0.31246000 </v>
    <v>       0.99987000       0.07798000       0.06246000 </v>
    <v>       0.74987000       0.92202000       0.06246000 </v>
    <v>       0.75013000       0.07798000       0.31246000 </v>
    <v>       0.50013000       0.92202000       0.31246000 </v>
    <v>       0.49987000       0.07798000       0.56246000 </v>
    <v>       0.24987000       0.92202000       0.56246000 </v>
    <v>       0.25013000       0.07798000       0.81246000 </v>
    <v>       0.00013000       0.92202000       0.81246000 </v>
    <v>       0.99987000       0.07798000       0.56246000 </v>
    <v>       0.74987000       0.92202000       0.56246000 </v>
    <v>       0.75013000       0.07798000       0.81246000 </v>
    <v>       0.50013000       0.92202000       0.81246000 </v>
   </varray>
  </structure>
  <varray name="forces" >
   <v>      -0.15885970       0.06256052       0.85197114 </v>
   <v>      -0.64743418       0.00418077       0.51959567 </v>
   <v>       0.31397056      -0.05652733      -0.82971173 </v>
   <v>       0.25895047       0.13292384       0.22303755 </v>
   <v>      -0.58786027       0.24467224       0.48373436 </v>
   <v>       0.79793797      -0.11879337       0.28062826 </v>
   <v>       0.63524585      -0.22607549      -0.50648019 </v>
   <v>       0.15444453      -0.11663181      -0.23120325 </v>
   <v>      -0.58700290      -0.22081988      -0.42351628 </v>
   <v>      -0.19413403       0.11457306      -0.20807725 </v>
   <v>      -0.04912662      -0.04421677      -0.00093002 </v>
   <v>      -0.16707263      -1.02463032      -0.03108115 </v>
   <v>       0.09030869      -0.95359400       0.51401009 </v>
   <v>      -0.28634226      -0.06684386       0.45146977 </v>
   <v>       0.16221493       1.03361176      -0.13588529 </v>
   <v>       0.03296214       0.06284791      -0.10253559 </v>
   <v>       0.10745914       0.99980832       0.03204785 </v>
   <v>       0.11018219       0.05811933       0.13614905 </v>
   <v>       0.02601740      -0.07212099       0.00465340 </v>
   <v>       0.13840444       0.95819659      -0.37731253 </v>
   <v>      -0.09828454       0.99409204      -0.13472729 </v>
   <v>       0.29229124      -0.04086423      -0.22405433 </v>
   <v>      -0.15908830      -0.98742158      -0.10943649 </v>
   <v>      -0.03308866      -0.01231779       0.29380538 </v>
   <v>      -0.08047548      -1.01070147      -0.23071545 </v>
   <v>      -0.08494805       0.06561592      -0.16081498 </v>
   <v>       0.11721024       0.08610407      -0.16367453 </v>
   <v>       0.09194873      -0.06056352       0.00490876 </v>
   <v>       0.23247502       0.11613780      -0.30567765 </v>
   <v>      -0.02425330      -0.10608992      -0.32412784 </v>
   <v>      -0.10460630       0.06149683       0.18339829 </v>
   <v>      -0.10781355      -0.06178049       0.01435156 </v>
   <v>      -0.16865006       0.10095389      -0.06242400 </v>
   <v>      -0.03755265      -0.11389675      -0.04301064 </v>
   <v>      -0.12596959       0.13571689       0.25517822 </v>
   <v>      -0.09430400      -0.13257000      -0.01110953 </v>
   <v>      -0.25020245       0.12918440       0.28609231 </v>
   <v>       0.04241131      -0.12757757       0.23835965 </v>
   <v>       0.11350188       0.17309371      -0.25949465 </v>
   <v>       0.10770787      -0.20964887       0.00919007 </v>
   <v>       0.17861472       0.09918703       0.06925291 </v>
   <v>       0.03023899      -0.12666654       0.10660512 </v>
   <v>      -0.71011336      -0.71891058       0.58912035 </v>
   <v>       0.75683889       0.68962840       0.43473405 </v>
   <v>      -0.45477842       0.66057521      -1.83636140 </v>
   <v>      -0.12527026      -0.28018712      -0.05492874 </v>
   <v>       0.06985308       0.22182682       0.00348752 </v>
   <v>      -0.08704339      -0.22688750       0.14062814 </v>
   <v>      -0.64977940      -0.63796337       0.52586900 </v>
   <v>       1.17897675       0.13721145      -1.27665677 </v>
   <v>       0.65600736       0.82641426       0.59868073 </v>
   <v>      -0.49399753      -0.72245539       1.76299112 </v>
   <v>       0.64629268      -0.61956326      -0.38961415 </v>
   <v>       0.10995487      -0.28294920       0.05382982 </v>
   <v>      -0.07259655       0.32373343      -0.02368966 </v>
   <v>      -0.03422859      -0.05426652      -1.27091145 </v>
   <v>       0.48804825       0.94011680       0.55367819 </v>
   <v>      -1.26559317       0.00095219       0.10670451 </v>
  </varray>
  <varray name="stress" >
   <v>      -7.56417492      -0.10753068       0.73106911 </v>
   <v>      -0.10753061     -13.17206619      -0.07567630 </v>
   <v>       0.73106901      -0.07567620     -11.81751932 </v>
  </varray>
  <energy>
   <i name="e_fr_energy">   -296.94836769 </i>
   <i name="e_wo_entrp">   -296.94836769 </i>
   <i name="e_0_energy">      0.00000000 </i>
  </energy>
  <time name="totalsc"> 1452.99 1457.60</time>
  <eigenvalues>
   <array>
    <dimension dim="1">band</dimension>
    <dimension dim="2">kpoint</dimension>
    <dimension dim="3">spin</dimension>
    <field>eigene</field>
    <field>occ</field>
    <set>
     <set comment="spin 1">
      <set comment="kpoint 1">
       <r>  -40.1799    1.0000 </r>
       <r>  -39.8835    1.0000 </r>
       <r>  -39.7201    1.0000 </r>
       <r>  -39.4350    1.0000 </r>
       <r>  -18.9790    1.0000 </r>
       <r>  -18.9783    1.0000 </r>
       <r>  -18.9103    1.0000 </r>
       <r>  -18.9062    1.0000 </r>
       <r>  -18.9035    1.0000 </r>
       <r>  -18.9031    1.0000 </r>
       <r>  -18.8941    1.0000 </r>
       <r>  -18.8864    1.0000 </r>
       <r>  -18.8327    1.0000 </r>
       <r>  -18.8258    1.0000 </r>
       <r>  -18.8248    1.0000 </r>
       <r>  -18.8178    1.0000 </r>
       <r>  -18.8097    1.0000 </r>
       <r>  -18.8075    1.0000 </r>
       <r>  -18.7876    1.0000 </r>
       <r>  -18.7852    1.0000 </r>
       <r>  -18.7601    1.0000 </r>
       <r>  -18.7525    1.0000 </r>
       <r>  -18.7459    1.0000 </r>
       <r>  -18.7384    1.0000 </r>
       <r>  -18.7369    1.0000 </r>
       <r>  -18.7288    1.0000 </r>
       <r>  -18.7244    1.0000 </r>
       <r>  -18.7233    1.0000 </r>
       <r>  -18.7208    1.0000 </r>
       <r>  -18.7171    1.0000 </r>
       <r>  -18.7124    1.0000 </r>
       <r>  -18.7090    1.0000 </r>
       <r>  -18.7088    1.0000 </r>
       <r>  -18.7027    1.0000 </r>
       <r>  -18.7010    1.0000 </r>
       <r>  -18.6945    1.0000 </r>
       <r>  -18.6930    1.0000 </r>
       <r>  -18.6886    1.0000 </r>
       <r>  -18.6864    1.0000 </r>
       <r>  -18.6794    1.0000 </r>
       <r>  -18.6721    1.0000 </r>
       <r>  -18.6678    1.0000 </r>
       <r>  -18.6339    1.0000 </r>
       <r>  -18.6213    1.0000 </r>
       <r>  -18.6122    1.0000 </r>
       <r>  -18.6110    1.0000 </r>
       <r>  -18.6065    1.0000 </r>
       <r>  -18.6011    1.0000 </r>
       <r>  -18.5974    1.0000 </r>
       <r>  -18.5865    1.0000 </r>
       <r>  -18.5764    1.0000 </r>
       <r>  -18.5684    1.0000 </r>
       <r>  -18.5661    1.0000 </r>
       <r>  -18.5649    1.0000 </r>
       <r>  -18.5559    1.0000 </r>
       <r>  -18.5442    1.0000 </r>
       <r>  -18.5399    1.0000 </r>
       <r>  -18.5382    1.0000 </r>
       <r>  -18.5365    1.0000 </r>
       <r>  -18.5255    1.0000 </r>
       <r>  -18.5147    1.0000 </r>
       <r>  -18.5096    1.0000 </r>
       <r>  -18.5086    1.0000 </r>
       <r>  -18.4980    1.0000 </r>
       <r>  -18.4815    1.0000 </r>
       <r>  -18.4783    1.0000 </r>
       <r>  -18.4685    1.0000 </r>
       <r>  -18.4624    1.0000 </r>
       <r>  -18.4603    1.0000 </r>
       <r>  -18.4579    1.0000 </r>
       <r>  -18.4510    1.0000 </r>
       <r>  -18.4381    1.0000 </r>
       <r>  -18.4268    1.0000 </r>
       <r>  -18.4230    1.0000 </r>
       <r>  -18.4008    1.0000 </r>
       <r>  -18.3610    1.0000 </r>
       <r>  -18.3372    1.0000 </r>
       <r>  -18.3296    1.0000 </r>
       <r>  -18.3124    1.0000 </r>
       <r>  -18.2873    1.0000 </r>
       <r>  -18.2798    1.0000 </r>
       <r>  -18.2683    1.0000 </r>
       <r>  -18.2455    1.0000 </r>
       <r>  -18.2324    1.0000 </r>
       <r>  -13.6431    1.0000 </r>
       <r>  -13.5301    1.0000 </r>
       <r>  -13.4618    1.0000 </r>
       <r>  -13.4328    1.0000 </r>
       <r>  -12.9070    1.0000 </r>
       <r>  -12.8520    1.0000 </r>
       <r>  -12.8030    1.0000 </r>
       <r>  -12.7849    1.0000 </r>
       <r>  -12.7578    1.0000 </r>
       <r>  -12.7407    1.0000 </r>
       <r>  -12.6690    1.0000 </r>
       <r>  -12.6141    1.0000 </r>
       <r>  -12.2012    1.0000 </r>
       <r>  -12.1184    1.0000 </r>
       <r>  -12.0982    1.0000 </r>
       <r>  -11.9920    1.0000 </r>
       <r>   -9.3845    1.0000 </r>
       <r>   -9.0884    1.0000 </r>
       <r>   -8.6117    1.0000 </r>
       <r>   -8.5745    1.0000 </r>
       <r>   -8.5160    1.0000 </r>
       <r>   -8.4779    1.0000 </r>
       <r>   -8.3880    1.0000 </r>
       <r>   -8.3503    1.0000 </r>
       <r>   -8.2901    1.0000 </r>
       <r>   -8.2557    1.0000 </r>
       <r>   -8.0870    1.0000 </r>
       <r>   -8.0774    1.0000 </r>
       <r>   -8.0568    1.0000 </r>
       <r>   -8.0410    1.0000 </r>
       <r>   -7.4131    1.0000 </r>
       <r>   -7.4050    1.0000 </r>
       <r>   -6.4331    1.0000 </r>
       <r>   -6.4189    1.0000 </r>
       <r>   -6.4127    1.0000 </r>
       <r>   -6.3981    1.0000 </r>
       <r>   -5.5694    1.0000 </r>
       <r>   -5.5231    1.0000 </r>
       <r>   -5.5101    1.0000 </r>
       <r>   -5.4032    1.0000 </r>
       <r>   -5.3603    1.0000 </r>
       <r>   -5.3121    1.0000 </r>
       <r>   -5.2788    1.0000 </r>
       <r>   -5.2135    1.0000 </r>
       <r>   -5.1250    1.0000 </r>
       <r>   -5.0774    1.0000 </r>
       <r>   -3.8633    1.0000 </r>
       <r>   -3.7149    1.0000 </r>
       <r>   -1.5894    1.0000 </r>
       <r>   -1.3361    1.0000 </r>
       <r>   -1.1976    1.0000 </r>
       <r>   -1.0213    1.0000 </r>
       <r>   -0.6882    1.0000 </r>
       <r>   -0.6429    1.0000 </r>
       <r>   -0.5554    1.0000 </r>
       <r>   -0.5134    1.0000 </r>
       <r>   -0.2781    1.0000 </r>
       <r>   -0.2563    1.0000 </r>
       <r>   -0.2158    1.0000 </r>
       <r>   -0.1838    1.0000 </r>
       <r>   -0.0694    1.0000 </r>
       <r>    0.0211    1.0000 </r>
       <r>    0.1637    1.0000 </r>
       <r>    0.2241    1.0000 </r>
       <r>    0.2598    1.0000 </r>
       <r>    0.3403    1.0000 </r>
       <r>    0.3960    1.0000 </r>
       <r>    0.4564    1.0000 </r>
       <r>    0.4883    1.0000 </r>
       <r>    0.5980    1.0000 </r>
       <r>    0.6588    1.0000 </r>
       <r>    0.6934    1.0000 </r>
       <r>    0.7104    1.0000 </r>
       <r>    0.7437    1.0000 </r>
       <r>    0.7513    1.0000 </r>
       <r>    0.8627    1.0000 </r>
       <r>    0.8945    1.0000 </r>
       <r>    0.9045    1.0000 </r>
       <r>    0.9416    1.0000 </r>
       <r>    0.9587    1.0000 </r>
       <r>    1.0329    1.0000 </r>
       <r>    1.0589    1.0000 </r>
       <r>    1.1623    1.0000 </r>
       <r>    1.1961    1.0000 </r>
       <r>    1.2451    1.0000 </r>
       <r>    1.2683    1.0000 </r>
       <r>    1.3192    1.0000 </r>
       <r>    1.3713    1.0000 </r>
       <r>    1.4272    1.0000 </r>
       <r>    1.4433    1.0000 </r>
       <r>    1.4949    1.0000 </r>
       <r>    1.5274    1.0000 </r>
       <r>    1.6205    1.0000 </r>
       <r>    1.6506    1.0000 </r>
       <r>    1.6756    1.0000 </r>
       <r>    1.7229    1.0000 </r>
       <r>    1.7991    1.0000 </r>
       <r>    1.8594    1.0000 </r>
       <r>    1.8908    1.0000 </r>
       <r>    1.9797    1.0000 </r>
       <r>    2.1064    1.0000 </r>
       <r>    2.1393    1.0000 </r>
       <r>    2.1876    1.0000 </r>
       <r>    2.3095    1.0000 </r>
       <r>    2.3497    1.0000 </r>
       <r>    2.4192    1.0000 </r>
       <r>    2.4568    1.0000 </r>
       <r>    2.5007    1.0000 </r>
       <r>    2.5117    1.0000 </r>
       <r>    2.5131    1.0000 </r>
       <r>    2.5330    1.0000 </r>
       <r>    2.5462    1.0000 </r>
       <r>    2.5730    1.0000 </r>
       <r>    2.6303    1.0000 </r>
       <r>    2.6375    1.0000 </r>
       <r>    2.6765    1.0000 </r>
       <r>    2.7355    1.0000 </r>
       <r>    2.7487    1.0000 </r>
       <r>    2.7803    1.0000 </r>
       <r>    2.8858    1.0000 </r>
       <r>    2.9158    1.0000 </r>
       <r>    2.9189    1.0000 </r>
       <r>    2.9695    1.0000 </r>
       <r>    2.9926    1.0000 </r>
       <r>    3.0162    1.0000 </r>
       <r>    3.0466    1.0000 </r>
       <r>    3.0702    1.0000 </r>
       <r>    3.0735    1.0000 </r>
       <r>    3.0946    1.0000 </r>
       <r>    3.1365    1.0000 </r>
       <r>    3.1470    1.0000 </r>
       <r>    3.1566    1.0000 </r>
       <r>    3.1876    1.0000 </r>
       <r>    3.2077    1.0000 </r>
       <r>    3.2920    1.0000 </r>
       <r>    3.3588    1.0000 </r>
       <r>    3.3799    1.0000 </r>
       <r>    3.4337    1.0000 </r>
       <r>    3.5098    1.0000 </r>
       <r>    3.5805    1.0000 </r>
       <r>    4.1175    1.0000 </r>
       <r>    4.1381    1.0000 </r>
       <r>    4.1761    1.0000 </r>
       <r>    4.1931    1.0000 </r>
       <r>    4.9424    0.0000 </r>
       <r>    4.9627    0.0000 </r>
       <r>    5.1391    0.0000 </r>
       <r>    5.1602    0.0000 </r>
       <r>    5.6750    0.0000 </r>
       <r>    5.6933    0.0000 </r>
       <r>    5.7898    0.0000 </r>
       <r>    5.8086    0.0000 </r>
       <r>    6.0382    0.0000 </r>
       <r>    6.0660    0.0000 </r>
       <r>    6.0976    0.0000 </r>
       <r>    6.1068    0.0000 </r>
       <r>    6.1687    0.0000 </r>
       <r>    6.1822    0.0000 </r>
       <r>    6.2093    0.0000 </r>
       <r>    6.2328    0.0000 </r>
       <r>    6.9477    0.0000 </r>
       <r>    6.9938    0.0000 </r>
       <r>    7.2756    0.0000 </r>
       <r>    7.2976    0.0000 </r>
       <r>    7.6341    0.0000 </r>
       <r>    7.7245    0.0000 </r>
       <r>    7.7625    0.0000 </r>
       <r>    7.8675    0.0000 </r>
       <r>    7.8916    0.0000 </r>
       <r>    7.9263    0.0000 </r>
       <r>    8.0420    0.0000 </r>
       <r>    8.2045    0.0000 </r>
       <r>    8.2522    0.0000 </r>
       <r>    8.5825    0.0000 </r>
       <r>    8.6164    0.0000 </r>
       <r>    8.7232    0.0000 </r>
       <r>    8.7356    0.0000 </r>
       <r>    8.7590    0.0000 </r>
       <r>    8.8901    0.0000 </r>
       <r>    8.9016    0.0000 </r>
       <r>    8.9868    0.0000 </r>
       <r>    8.9967    0.0000 </r>
       <r>    9.0150    0.0000 </r>
       <r>    9.0325    0.0000 </r>
       <r>    9.0634    0.0000 </r>
       <r>    9.1070    0.0000 </r>
       <r>    9.1521    0.0000 </r>
       <r>    9.2208    0.0000 </r>
       <r>    9.3483    0.0000 </r>
       <r>    9.3754    0.0000 </r>
       <r>    9.4472    0.0000 </r>
       <r>    9.4798    0.0000 </r>
       <r>    9.6326    0.0000 </r>
       <r>    9.6728    0.0000 </r>
       <r>    9.7577    0.0000 </r>
       <r>    9.7882    0.0000 </r>
      </set>
      <set comment="kpoint 2">
       <r>  -40.1799    1.0000 </r>
       <r>  -39.8835    1.0000 </r>
       <r>  -39.7201    1.0000 </r>
       <r>  -39.4350    1.0000 </r>
       <r>  -18.9790    1.0000 </r>
       <r>  -18.9782    1.0000 </r>
       <r>  -18.9102    1.0000 </r>
       <r>  -18.9061    1.0000 </r>
       <r>  -18.9033    1.0000 </r>
       <r>  -18.9030    1.0000 </r>
       <r>  -18.8945    1.0000 </r>
       <r>  -18.8861    1.0000 </r>
       <r>  -18.8330    1.0000 </r>
       <r>  -18.8256    1.0000 </r>
       <r>  -18.8253    1.0000 </r>
       <r>  -18.8173    1.0000 </r>
       <r>  -18.8097    1.0000 </r>
       <r>  -18.8075    1.0000 </r>
       <r>  -18.7876    1.0000 </r>
       <r>  -18.7852    1.0000 </r>
       <r>  -18.7601    1.0000 </r>
       <r>  -18.7524    1.0000 </r>
       <r>  -18.7460    1.0000 </r>
       <r>  -18.7383    1.0000 </r>
       <r>  -18.7369    1.0000 </r>
       <r>  -18.7288    1.0000 </r>
       <r>  -18.7244    1.0000 </r>
       <r>  -18.7232    1.0000 </r>
       <r>  -18.7208    1.0000 </r>
       <r>  -18.7171    1.0000 </r>
       <r>  -18.7125    1.0000 </r>
       <r>  -18.7089    1.0000 </r>
       <r>  -18.7087    1.0000 </r>
       <r>  -18.7029    1.0000 </r>
       <r>  -18.7010    1.0000 </r>
       <r>  -18.6947    1.0000 </r>
       <r>  -18.6932    1.0000 </r>
       <r>  -18.6883    1.0000 </r>
       <r>  -18.6867    1.0000 </r>
       <r>  -18.6793    1.0000 </r>
       <r>  -18.6719    1.0000 </r>
       <r>  -18.6677    1.0000 </r>
       <r>  -18.6338    1.0000 </r>
       <r>  -18.6213    1.0000 </r>
       <r>  -18.6122    1.0000 </r>
       <r>  -18.6110    1.0000 </r>
       <r>  -18.6065    1.0000 </r>
       <r>  -18.6011    1.0000 </r>
       <r>  -18.5974    1.0000 </r>
       <r>  -18.5865    1.0000 </r>
       <r>  -18.5764    1.0000 </r>
       <r>  -18.5684    1.0000 </r>
       <r>  -18.5661    1.0000 </r>
       <r>  -18.5649    1.0000 </r>
       <r>  -18.5559    1.0000 </r>
       <r>  -18.5442    1.0000 </r>
       <r>  -18.5399    1.0000 </r>
       <r>  -18.5383    1.0000 </r>
       <r>  -18.5365    1.0000 </r>
       <r>  -18.5256    1.0000 </r>
       <r>  -18.5147    1.0000 </r>
       <r>  -18.5096    1.0000 </r>
       <r>  -18.5086    1.0000 </r>
       <r>  -18.4977    1.0000 </r>
       <r>  -18.4815    1.0000 </r>
       <r>  -18.4783    1.0000 </r>
       <r>  -18.4685    1.0000 </r>
       <r>  -18.4625    1.0000 </r>
       <r>  -18.4603    1.0000 </r>
       <r>  -18.4579    1.0000 </r>
       <r>  -18.4510    1.0000 </r>
       <r>  -18.4381    1.0000 </r>
       <r>  -18.4268    1.0000 </r>
       <r>  -18.4231    1.0000 </r>
       <r>  -18.4008    1.0000 </r>
       <r>  -18.3610    1.0000 </r>
       <r>  -18.3372    1.0000 </r>
       <r>  -18.3296    1.0000 </r>
       <r>  -18.3124    1.0000 </r>
       <r>  -18.2873    1.0000 </r>
       <r>  -18.2798    1.0000 </r>
       <r>  -18.2683    1.0000 </r>
       <r>  -18.2455    1.0000 </r>
       <r>  -18.2324    1.0000 </r>
       <r>  -13.6409    1.0000 </r>
       <r>  -13.5342    1.0000 </r>
       <r>  -13.4600    1.0000 </r>
       <r>  -13.4325    1.0000 </r>
       <r>  -12.9071    1.0000 </r>
       <r>  -12.8552    1.0000 </r>
       <r>  -12.7981    1.0000 </r>
       <r>  -12.7835    1.0000 </r>
       <r>  -12.7605    1.0000 </r>
       <r>  -12.7412    1.0000 </r>
       <r>  -12.6687    1.0000 </r>
       <r>  -12.6145    1.0000 </r>
       <r>  -12.2013    1.0000 </r>
       <r>  -12.1192    1.0000 </r>
       <r>  -12.0968    1.0000 </r>
       <r>  -11.9924    1.0000 </r>
       <r>   -9.1817    1.0000 </r>
       <r>   -9.1611    1.0000 </r>
       <r>   -8.9070    1.0000 </r>
       <r>   -8.8836    1.0000 </r>
       <r>   -8.3847    1.0000 </r>
       <r>   -8.3815    1.0000 </r>
       <r>   -8.3649    1.0000 </r>
       <r>   -8.3565    1.0000 </r>
       <r>   -8.1970    1.0000 </r>
       <r>   -8.1944    1.0000 </r>
       <r>   -8.1778    1.0000 </r>
       <r>   -8.1685    1.0000 </r>
       <r>   -7.7436    1.0000 </r>
       <r>   -7.7407    1.0000 </r>
       <r>   -7.6335    1.0000 </r>
       <r>   -7.6291    1.0000 </r>
       <r>   -6.0434    1.0000 </r>
       <r>   -6.0115    1.0000 </r>
       <r>   -5.9862    1.0000 </r>
       <r>   -5.9458    1.0000 </r>
       <r>   -5.8921    1.0000 </r>
       <r>   -5.8490    1.0000 </r>
       <r>   -5.8179    1.0000 </r>
       <r>   -5.7942    1.0000 </r>
       <r>   -5.6782    1.0000 </r>
       <r>   -5.5997    1.0000 </r>
       <r>   -5.5480    1.0000 </r>
       <r>   -5.4936    1.0000 </r>
       <r>   -4.4770    1.0000 </r>
       <r>   -4.4736    1.0000 </r>
       <r>   -4.3142    1.0000 </r>
       <r>   -4.3056    1.0000 </r>
       <r>   -1.2563    1.0000 </r>
       <r>   -1.2394    1.0000 </r>
       <r>   -0.8826    1.0000 </r>
       <r>   -0.8668    1.0000 </r>
       <r>   -0.5816    1.0000 </r>
       <r>   -0.4591    1.0000 </r>
       <r>   -0.1281    1.0000 </r>
       <r>   -0.1016    1.0000 </r>
       <r>   -0.0411    1.0000 </r>
       <r>   -0.0203    1.0000 </r>
       <r>    0.0157    1.0000 </r>
       <r>    0.0461    1.0000 </r>
       <r>    0.1055    1.0000 </r>
       <r>    0.1197    1.0000 </r>
       <r>    0.1808    1.0000 </r>
       <r>    0.2470    1.0000 </r>
       <r>    0.3709    1.0000 </r>
       <r>    0.4214    1.0000 </r>
       <r>    0.4714    1.0000 </r>
       <r>    0.5031    1.0000 </r>
       <r>    0.5259    1.0000 </r>
       <r>    0.5455    1.0000 </r>
       <r>    0.5673    1.0000 </r>
       <r>    0.6250    1.0000 </r>
       <r>    0.6532    1.0000 </r>
       <r>    0.6897    1.0000 </r>
       <r>    0.7042    1.0000 </r>
       <r>    0.7618    1.0000 </r>
       <r>    0.8971    1.0000 </r>
       <r>    0.9039    1.0000 </r>
       <r>    0.9638    1.0000 </r>
       <r>    1.0172    1.0000 </r>
       <r>    1.0544    1.0000 </r>
       <r>    1.0882    1.0000 </r>
       <r>    1.1329    1.0000 </r>
       <r>    1.1966    1.0000 </r>
       <r>    1.2189    1.0000 </r>
       <r>    1.2640    1.0000 </r>
       <r>    1.2800    1.0000 </r>
       <r>    1.3414    1.0000 </r>
       <r>    1.3840    1.0000 </r>
       <r>    1.4392    1.0000 </r>
       <r>    1.4502    1.0000 </r>
       <r>    1.4753    1.0000 </r>
       <r>    1.5057    1.0000 </r>
       <r>    1.5546    1.0000 </r>
       <r>    1.5601    1.0000 </r>
       <r>    1.6255    1.0000 </r>
       <r>    1.6796    1.0000 </r>
       <r>    1.7613    1.0000 </r>
       <r>    1.8138    1.0000 </r>
       <r>    1.8795    1.0000 </r>
       <r>    1.9571    1.0000 </r>
       <r>    1.9929    1.0000 </r>
       <r>    2.0310    1.0000 </r>
       <r>    2.0718    1.0000 </r>
       <r>    2.1443    1.0000 </r>
       <r>    2.2125    1.0000 </r>
       <r>    2.2222    1.0000 </r>
       <r>    2.2479    1.0000 </r>
       <r>    2.2681    1.0000 </r>
       <r>    2.3101    1.0000 </r>
       <r>    2.4040    1.0000 </r>
       <r>    2.4399    1.0000 </r>
       <r>    2.4700    1.0000 </r>
       <r>    2.5196    1.0000 </r>
       <r>    2.5433    1.0000 </r>
       <r>    2.5884    1.0000 </r>
       <r>    2.6087    1.0000 </r>
       <r>    2.6571    1.0000 </r>
       <r>    2.6697    1.0000 </r>
       <r>    2.7071    1.0000 </r>
       <r>    2.7664    1.0000 </r>
       <r>    2.7801    1.0000 </r>
       <r>    2.8141    1.0000 </r>
       <r>    2.8707    1.0000 </r>
       <r>    2.8960    1.0000 </r>
       <r>    2.9252    1.0000 </r>
       <r>    2.9827    1.0000 </r>
       <r>    3.0199    1.0000 </r>
       <r>    3.0526    1.0000 </r>
       <r>    3.0861    1.0000 </r>
       <r>    3.1242    1.0000 </r>
       <r>    3.1950    1.0000 </r>
       <r>    3.2116    1.0000 </r>
       <r>    3.2331    1.0000 </r>
       <r>    3.2796    1.0000 </r>
       <r>    3.3705    1.0000 </r>
       <r>    3.4308    1.0000 </r>
       <r>    3.4368    1.0000 </r>
       <r>    3.5017    1.0000 </r>
       <r>    3.5278    1.0000 </r>
       <r>    3.5778    1.0000 </r>
       <r>    3.6230    1.0000 </r>
       <r>    3.6768    1.0000 </r>
       <r>    3.7027    1.0000 </r>
       <r>    5.6073    0.0000 </r>
       <r>    5.6201    0.0000 </r>
       <r>    5.6340    0.0000 </r>
       <r>    5.6357    0.0000 </r>
       <r>    5.7130    0.0000 </r>
       <r>    5.7294    0.0000 </r>
       <r>    5.7449    0.0000 </r>
       <r>    5.7521    0.0000 </r>
       <r>    7.1346    0.0000 </r>
       <r>    7.1591    0.0000 </r>
       <r>    7.1970    0.0000 </r>
       <r>    7.2184    0.0000 </r>
       <r>    7.2534    0.0000 </r>
       <r>    7.2918    0.0000 </r>
       <r>    7.3643    0.0000 </r>
       <r>    7.3877    0.0000 </r>
       <r>    7.4191    0.0000 </r>
       <r>    7.4602    0.0000 </r>
       <r>    7.4999    0.0000 </r>
       <r>    7.5102    0.0000 </r>
       <r>    7.7521    0.0000 </r>
       <r>    7.7759    0.0000 </r>
       <r>    7.8008    0.0000 </r>
       <r>    7.8099    0.0000 </r>
       <r>    7.8238    0.0000 </r>
       <r>    7.8337    0.0000 </r>
       <r>    7.8431    0.0000 </r>
       <r>    7.8828    0.0000 </r>
       <r>    7.9484    0.0000 </r>
       <r>    7.9934    0.0000 </r>
       <r>    8.0075    0.0000 </r>
       <r>    8.0877    0.0000 </r>
       <r>    8.1720    0.0000 </r>
       <r>    8.2582    0.0000 </r>
       <r>    8.3006    0.0000 </r>
       <r>    8.4146    0.0000 </r>
       <r>    8.6297    0.0000 </r>
       <r>    8.6697    0.0000 </r>
       <r>    8.7169    0.0000 </r>
       <r>    8.7349    0.0000 </r>
       <r>    8.7384    0.0000 </r>
       <r>    8.7761    0.0000 </r>
       <r>    8.8720    0.0000 </r>
       <r>    8.8791    0.0000 </r>
       <r>    9.1281    0.0000 </r>
       <r>    9.1625    0.0000 </r>
       <r>    9.2674    0.0000 </r>
       <r>    9.3377    0.0000 </r>
       <r>    9.3897    0.0000 </r>
       <r>    9.4184    0.0000 </r>
       <r>   10.1093    0.0000 </r>
       <r>   10.1384    0.0000 </r>
      </set>
      <set comment="kpoint 3">
       <r>  -40.1799    1.0000 </r>
       <r>  -39.8835    1.0000 </r>
       <r>  -39.7201    1.0000 </r>
       <r>  -39.4350    1.0000 </r>
       <r>  -18.9795    1.0000 </r>
       <r>  -18.9778    1.0000 </r>
       <r>  -18.9103    1.0000 </r>
       <r>  -18.9062    1.0000 </r>
       <r>  -18.9035    1.0000 </r>
       <r>  -18.9031    1.0000 </r>
       <r>  -18.8941    1.0000 </r>
       <r>  -18.8864    1.0000 </r>
       <r>  -18.8327    1.0000 </r>
       <r>  -18.8258    1.0000 </r>
       <r>  -18.8248    1.0000 </r>
       <r>  -18.8178    1.0000 </r>
       <r>  -18.8097    1.0000 </r>
       <r>  -18.8076    1.0000 </r>
       <r>  -18.7876    1.0000 </r>
       <r>  -18.7852    1.0000 </r>
       <r>  -18.7601    1.0000 </r>
       <r>  -18.7525    1.0000 </r>
       <r>  -18.7459    1.0000 </r>
       <r>  -18.7383    1.0000 </r>
       <r>  -18.7370    1.0000 </r>
       <r>  -18.7288    1.0000 </r>
       <r>  -18.7244    1.0000 </r>
       <r>  -18.7233    1.0000 </r>
       <r>  -18.7208    1.0000 </r>
       <r>  -18.7171    1.0000 </r>
       <r>  -18.7124    1.0000 </r>
       <r>  -18.7090    1.0000 </r>
       <r>  -18.7088    1.0000 </r>
       <r>  -18.7028    1.0000 </r>
       <r>  -18.7010    1.0000 </r>
       <r>  -18.6945    1.0000 </r>
       <r>  -18.6930    1.0000 </r>
       <r>  -18.6886    1.0000 </r>
       <r>  -18.6864    1.0000 </r>
       <r>  -18.6794    1.0000 </r>
       <r>  -18.6720    1.0000 </r>
       <r>  -18.6678    1.0000 </r>
       <r>  -18.6339    1.0000 </r>
       <r>  -18.6213    1.0000 </r>
       <r>  -18.6120    1.0000 </r>
       <r>  -18.6111    1.0000 </r>
       <r>  -18.6065    1.0000 </r>
       <r>  -18.6011    1.0000 </r>
       <r>  -18.5974    1.0000 </r>
       <r>  -18.5865    1.0000 </r>
       <r>  -18.5764    1.0000 </r>
       <r>  -18.5684    1.0000 </r>
       <r>  -18.5661    1.0000 </r>
       <r>  -18.5649    1.0000 </r>
       <r>  -18.5559    1.0000 </r>
       <r>  -18.5442    1.0000 </r>
       <r>  -18.5399    1.0000 </r>
       <r>  -18.5382    1.0000 </r>
       <r>  -18.5365    1.0000 </r>
       <r>  -18.5255    1.0000 </r>
       <r>  -18.5147    1.0000 </r>
       <r>  -18.5096    1.0000 </r>
       <r>  -18.5086    1.0000 </r>
       <r>  -18.4980    1.0000 </r>
       <r>  -18.4815    1.0000 </r>
       <r>  -18.4783    1.0000 </r>
       <r>  -18.4685    1.0000 </r>
       <r>  -18.4624    1.0000 </r>
       <r>  -18.4603    1.0000 </r>
       <r>  -18.4579    1.0000 </r>
       <r>  -18.4510    1.0000 </r>
       <r>  -18.4381    1.0000 </r>
       <r>  -18.4268    1.0000 </r>
       <r>  -18.4230    1.0000 </r>
       <r>  -18.4008    1.0000 </r>
       <r>  -18.3610    1.0000 </r>
       <r>  -18.3372    1.0000 </r>
       <r>  -18.3296    1.0000 </r>
       <r>  -18.3124    1.0000 </r>
       <r>  -18.2873    1.0000 </r>
       <r>  -18.2798    1.0000 </r>
       <r>  -18.2683    1.0000 </r>
       <r>  -18.2455    1.0000 </r>
       <r>  -18.2324    1.0000 </r>
       <r>  -13.6428    1.0000 </r>
       <r>  -13.5303    1.0000 </r>
       <r>  -13.4617    1.0000 </r>
       <r>  -13.4328    1.0000 </r>
       <r>  -12.9061    1.0000 </r>
       <r>  -12.8522    1.0000 </r>
       <r>  -12.8032    1.0000 </r>
       <r>  -12.7845    1.0000 </r>
       <r>  -12.7582    1.0000 </r>
       <r>  -12.7407    1.0000 </r>
       <r>  -12.6691    1.0000 </r>
       <r>  -12.6150    1.0000 </r>
       <r>  -12.2009    1.0000 </r>
       <r>  -12.1190    1.0000 </r>
       <r>  -12.0986    1.0000 </r>
       <r>  -11.9926    1.0000 </r>
       <r>   -9.3732    1.0000 </r>
       <r>   -9.0967    1.0000 </r>
       <r>   -8.6303    1.0000 </r>
       <r>   -8.5918    1.0000 </r>
       <r>   -8.5326    1.0000 </r>
       <r>   -8.4947    1.0000 </r>
       <r>   -8.3670    1.0000 </r>
       <r>   -8.3308    1.0000 </r>
       <r>   -8.2714    1.0000 </r>
       <r>   -8.2372    1.0000 </r>
       <r>   -8.0911    1.0000 </r>
       <r>   -8.0815    1.0000 </r>
       <r>   -8.0597    1.0000 </r>
       <r>   -8.0440    1.0000 </r>
       <r>   -7.4158    1.0000 </r>
       <r>   -7.4077    1.0000 </r>
       <r>   -6.4230    1.0000 </r>
       <r>   -6.4087    1.0000 </r>
       <r>   -6.4030    1.0000 </r>
       <r>   -6.3885    1.0000 </r>
       <r>   -5.5896    1.0000 </r>
       <r>   -5.5474    1.0000 </r>
       <r>   -5.5142    1.0000 </r>
       <r>   -5.4395    1.0000 </r>
       <r>   -5.3848    1.0000 </r>
       <r>   -5.3170    1.0000 </r>
       <r>   -5.2389    1.0000 </r>
       <r>   -5.1741    1.0000 </r>
       <r>   -5.0799    1.0000 </r>
       <r>   -5.0319    1.0000 </r>
       <r>   -3.9401    1.0000 </r>
       <r>   -3.6258    1.0000 </r>
       <r>   -1.4481    1.0000 </r>
       <r>   -1.3885    1.0000 </r>
       <r>   -1.2942    1.0000 </r>
       <r>   -1.0764    1.0000 </r>
       <r>   -0.5602    1.0000 </r>
       <r>   -0.5265    1.0000 </r>
       <r>   -0.5098    1.0000 </r>
       <r>   -0.4564    1.0000 </r>
       <r>   -0.4428    1.0000 </r>
       <r>   -0.4214    1.0000 </r>
       <r>   -0.3588    1.0000 </r>
       <r>   -0.3068    1.0000 </r>
       <r>   -0.2092    1.0000 </r>
       <r>   -0.1574    1.0000 </r>
       <r>    0.0080    1.0000 </r>
       <r>    0.0430    1.0000 </r>
       <r>    0.0888    1.0000 </r>
       <r>    0.2167    1.0000 </r>
       <r>    0.3185    1.0000 </r>
       <r>    0.3610    1.0000 </r>
       <r>    0.3987    1.0000 </r>
       <r>    0.4857    1.0000 </r>
       <r>    0.5161    1.0000 </r>
       <r>    0.5341    1.0000 </r>
       <r>    0.6335    1.0000 </r>
       <r>    0.6959    1.0000 </r>
       <r>    0.7750    1.0000 </r>
       <r>    0.7780    1.0000 </r>
       <r>    0.8163    1.0000 </r>
       <r>    0.9350    1.0000 </r>
       <r>    1.0024    1.0000 </r>
       <r>    1.0588    1.0000 </r>
       <r>    1.1484    1.0000 </r>
       <r>    1.1606    1.0000 </r>
       <r>    1.2424    1.0000 </r>
       <r>    1.3274    1.0000 </r>
       <r>    1.3558    1.0000 </r>
       <r>    1.3875    1.0000 </r>
       <r>    1.4214    1.0000 </r>
       <r>    1.4668    1.0000 </r>
       <r>    1.5111    1.0000 </r>
       <r>    1.5674    1.0000 </r>
       <r>    1.6173    1.0000 </r>
       <r>    1.6375    1.0000 </r>
       <r>    1.7255    1.0000 </r>
       <r>    1.7468    1.0000 </r>
       <r>    1.8040    1.0000 </r>
       <r>    1.8452    1.0000 </r>
       <r>    1.8892    1.0000 </r>
       <r>    2.0458    1.0000 </r>
       <r>    2.0986    1.0000 </r>
       <r>    2.1434    1.0000 </r>
       <r>    2.2053    1.0000 </r>
       <r>    2.2267    1.0000 </r>
       <r>    2.2524    1.0000 </r>
       <r>    2.3002    1.0000 </r>
       <r>    2.3995    1.0000 </r>
       <r>    2.4136    1.0000 </r>
       <r>    2.4462    1.0000 </r>
       <r>    2.4954    1.0000 </r>
       <r>    2.5113    1.0000 </r>
       <r>    2.5209    1.0000 </r>
       <r>    2.5445    1.0000 </r>
       <r>    2.5530    1.0000 </r>
       <r>    2.5790    1.0000 </r>
       <r>    2.6361    1.0000 </r>
       <r>    2.6499    1.0000 </r>
       <r>    2.6773    1.0000 </r>
       <r>    2.7162    1.0000 </r>
       <r>    2.7929    1.0000 </r>
       <r>    2.7941    1.0000 </r>
       <r>    2.8564    1.0000 </r>
       <r>    2.8671    1.0000 </r>
       <r>    2.8960    1.0000 </r>
       <r>    2.9332    1.0000 </r>
       <r>    2.9536    1.0000 </r>
       <r>    2.9838    1.0000 </r>
       <r>    2.9907    1.0000 </r>
       <r>    3.0168    1.0000 </r>
       <r>    3.0703    1.0000 </r>
       <r>    3.0782    1.0000 </r>
       <r>    3.1434    1.0000 </r>
       <r>    3.2442    1.0000 </r>
       <r>    3.2636    1.0000 </r>
       <r>    3.2995    1.0000 </r>
       <r>    3.3155    1.0000 </r>
       <r>    3.3359    1.0000 </r>
       <r>    3.3825    1.0000 </r>
       <r>    3.4369    1.0000 </r>
       <r>    3.4751    1.0000 </r>
       <r>    3.5219    1.0000 </r>
       <r>    3.5711    1.0000 </r>
       <r>    4.1657    1.0000 </r>
       <r>    4.1895    1.0000 </r>
       <r>    4.2254    1.0000 </r>
       <r>    4.2442    1.0000 </r>
       <r>    5.0259    0.0000 </r>
       <r>    5.0458    0.0000 </r>
       <r>    5.2002    0.0000 </r>
       <r>    5.2209    0.0000 </r>
       <r>    5.6827    0.0000 </r>
       <r>    5.7010    0.0000 </r>
       <r>    5.7971    0.0000 </r>
       <r>    5.8159    0.0000 </r>
       <r>    6.0968    0.0000 </r>
       <r>    6.1104    0.0000 </r>
       <r>    6.1382    0.0000 </r>
       <r>    6.1467    0.0000 </r>
       <r>    6.1805    0.0000 </r>
       <r>    6.2026    0.0000 </r>
       <r>    6.2288    0.0000 </r>
       <r>    6.2561    0.0000 </r>
       <r>    6.6304    0.0000 </r>
       <r>    6.7155    0.0000 </r>
       <r>    6.9494    0.0000 </r>
       <r>    7.0100    0.0000 </r>
       <r>    7.0393    0.0000 </r>
       <r>    7.1104    0.0000 </r>
       <r>    7.2677    0.0000 </r>
       <r>    7.5100    0.0000 </r>
       <r>    7.6672    0.0000 </r>
       <r>    7.7699    0.0000 </r>
       <r>    7.8724    0.0000 </r>
       <r>    7.9499    0.0000 </r>
       <r>    8.0274    0.0000 </r>
       <r>    8.2696    0.0000 </r>
       <r>    8.3232    0.0000 </r>
       <r>    8.3804    0.0000 </r>
       <r>    8.5673    0.0000 </r>
       <r>    8.7338    0.0000 </r>
       <r>    8.8867    0.0000 </r>
       <r>    8.9348    0.0000 </r>
       <r>    8.9373    0.0000 </r>
       <r>    8.9749    0.0000 </r>
       <r>    9.0120    0.0000 </r>
       <r>    9.0247    0.0000 </r>
       <r>    9.0312    0.0000 </r>
       <r>    9.0762    0.0000 </r>
       <r>    9.0962    0.0000 </r>
       <r>    9.1871    0.0000 </r>
       <r>    9.4152    0.0000 </r>
       <r>    9.4339    0.0000 </r>
       <r>    9.5355    0.0000 </r>
       <r>    9.6652    0.0000 </r>
       <r>    9.6846    0.0000 </r>
       <r>    9.7580    0.0000 </r>
       <r>    9.8842    0.0000 </r>
       <r>    9.9522    0.0000 </r>
      </set>
      <set comment="kpoint 4">
       <r>  -40.1799    1.0000 </r>
       <r>  -39.8835    1.0000 </r>
       <r>  -39.7201    1.0000 </r>
       <r>  -39.4350    1.0000 </r>
       <r>  -18.9795    1.0000 </r>
       <r>  -18.9778    1.0000 </r>
       <r>  -18.9102    1.0000 </r>
       <r>  -18.9061    1.0000 </r>
       <r>  -18.9033    1.0000 </r>
       <r>  -18.9030    1.0000 </r>
       <r>  -18.8945    1.0000 </r>
       <r>  -18.8861    1.0000 </r>
       <r>  -18.8330    1.0000 </r>
       <r>  -18.8256    1.0000 </r>
       <r>  -18.8253    1.0000 </r>
       <r>  -18.8173    1.0000 </r>
       <r>  -18.8097    1.0000 </r>
       <r>  -18.8076    1.0000 </r>
       <r>  -18.7876    1.0000 </r>
       <r>  -18.7852    1.0000 </r>
       <r>  -18.7602    1.0000 </r>
       <r>  -18.7524    1.0000 </r>
       <r>  -18.7460    1.0000 </r>
       <r>  -18.7382    1.0000 </r>
       <r>  -18.7370    1.0000 </r>
       <r>  -18.7288    1.0000 </r>
       <r>  -18.7244    1.0000 </r>
       <r>  -18.7232    1.0000 </r>
       <r>  -18.7208    1.0000 </r>
       <r>  -18.7171    1.0000 </r>
       <r>  -18.7125    1.0000 </r>
       <r>  -18.7089    1.0000 </r>
       <r>  -18.7087    1.0000 </r>
       <r>  -18.7029    1.0000 </r>
       <r>  -18.7010    1.0000 </r>
       <r>  -18.6947    1.0000 </r>
       <r>  -18.6932    1.0000 </r>
       <r>  -18.6883    1.0000 </r>
       <r>  -18.6867    1.0000 </r>
       <r>  -18.6793    1.0000 </r>
       <r>  -18.6719    1.0000 </r>
       <r>  -18.6677    1.0000 </r>
       <r>  -18.6338    1.0000 </r>
       <r>  -18.6213    1.0000 </r>
       <r>  -18.6120    1.0000 </r>
       <r>  -18.6111    1.0000 </r>
       <r>  -18.6065    1.0000 </r>
       <r>  -18.6011    1.0000 </r>
       <r>  -18.5974    1.0000 </r>
       <r>  -18.5865    1.0000 </r>
       <r>  -18.5764    1.0000 </r>
       <r>  -18.5684    1.0000 </r>
       <r>  -18.5661    1.0000 </r>
       <r>  -18.5649    1.0000 </r>
       <r>  -18.5559    1.0000 </r>
       <r>  -18.5442    1.0000 </r>
       <r>  -18.5399    1.0000 </r>
       <r>  -18.5383    1.0000 </r>
       <r>  -18.5365    1.0000 </r>
       <r>  -18.5256    1.0000 </r>
       <r>  -18.5147    1.0000 </r>
       <r>  -18.5096    1.0000 </r>
       <r>  -18.5086    1.0000 </r>
       <r>  -18.4977    1.0000 </r>
       <r>  -18.4815    1.0000 </r>
       <r>  -18.4783    1.0000 </r>
       <r>  -18.4685    1.0000 </r>
       <r>  -18.4625    1.0000 </r>
       <r>  -18.4603    1.0000 </r>
       <r>  -18.4579    1.0000 </r>
       <r>  -18.4510    1.0000 </r>
       <r>  -18.4381    1.0000 </r>
       <r>  -18.4268    1.0000 </r>
       <r>  -18.4230    1.0000 </r>
       <r>  -18.4008    1.0000 </r>
       <r>  -18.3610    1.0000 </r>
       <r>  -18.3372    1.0000 </r>
       <r>  -18.3296    1.0000 </r>
       <r>  -18.3124    1.0000 </r>
       <r>  -18.2873    1.0000 </r>
       <r>  -18.2798    1.0000 </r>
       <r>  -18.2683    1.0000 </r>
       <r>  -18.2455    1.0000 </r>
       <r>  -18.2324    1.0000 </r>
       <r>  -13.6407    1.0000 </r>
       <r>  -13.5342    1.0000 </r>
       <r>  -13.4599    1.0000 </r>
       <r>  -13.4325    1.0000 </r>
       <r>  -12.9063    1.0000 </r>
       <r>  -12.8552    1.0000 </r>
       <r>  -12.7982    1.0000 </r>
       <r>  -12.7832    1.0000 </r>
       <r>  -12.7611    1.0000 </r>
       <r>  -12.7412    1.0000 </r>
       <r>  -12.6688    1.0000 </r>
       <r>  -12.6155    1.0000 </r>
       <r>  -12.2010    1.0000 </r>
       <r>  -12.1197    1.0000 </r>
[...]
       <r>    8.7894    0.0000 </r>
       <r>    8.8050    0.0000 </r>
       <r>    8.8189    0.0000 </r>
       <r>    8.8463    0.0000 </r>
       <r>    8.8626    0.0000 </r>
       <r>    8.8954    0.0000 </r>
       <r>    8.9434    0.0000 </r>
       <r>    9.5110    0.0000 </r>
       <r>    9.7376    0.0000 </r>
       <r>    9.9229    0.0000 </r>
       <r>   10.0769    0.0000 </r>
      </set>
     </set>
    </set>
   </array>
  </eigenvalues>
  <separator name="orbital magnetization" >
   <v name="MAGDIPOLOUT">      0.00000000      0.00000000      0.00000000</v>
  </separator>
  <dos>
   <i name="efermi">      4.24489846 </i>
   <total>
    <array>
     <dimension dim="1">gridpoints</dimension>
     <dimension dim="2">spin</dimension>
     <field>energy</field>
     <field>total</field>
     <field>integrated</field>
     <set>
      <set comment="spin 1">
       <r>   -42.7055     0.0000     0.0000 </r>
       <r>   -42.5202     0.0000     0.0000 </r>
       <r>   -42.3350     0.0000     0.0000 </r>
       <r>   -42.1498     0.0000     0.0000 </r>
       <r>   -41.9646     0.0000     0.0000 </r>
       <r>   -41.7794     0.0000     0.0000 </r>
       <r>   -41.5942     0.0000     0.0000 </r>
       <r>   -41.4090     0.0000     0.0000 </r>
       <r>   -41.2238     0.0000     0.0000 </r>
       <r>   -41.0386     0.0000     0.0000 </r>
       <r>   -40.8534     0.0000     0.0000 </r>
       <r>   -40.6682     0.0000     0.0000 </r>
       <r>   -40.4830     0.0000     0.0000 </r>
       <r>   -40.2977     0.0000     0.0000 </r>
       <r>   -40.1125     0.0000     2.0000 </r>
       <r>   -39.9273     0.0000     2.0000 </r>
       <r>   -39.7421     0.0000     4.0000 </r>
       <r>   -39.5569     0.0000     6.0000 </r>
       <r>   -39.3717     0.0000     8.0000 </r>
       <r>   -39.1865     0.0000     8.0000 </r>
       <r>   -39.0013     0.0000     8.0000 </r>
       <r>   -38.8161     0.0000     8.0000 </r>
       <r>   -38.6309     0.0000     8.0000 </r>
       <r>   -38.4457     0.0000     8.0000 </r>
       <r>   -38.2605     0.0000     8.0000 </r>
       <r>   -38.0752     0.0000     8.0000 </r>
       <r>   -37.8900     0.0000     8.0000 </r>
       <r>   -37.7048     0.0000     8.0000 </r>
       <r>   -37.5196     0.0000     8.0000 </r>
       <r>   -37.3344     0.0000     8.0000 </r>
       <r>   -37.1492     0.0000     8.0000 </r>
       <r>   -36.9640     0.0000     8.0000 </r>
       <r>   -36.7788     0.0000     8.0000 </r>
       <r>   -36.5936     0.0000     8.0000 </r>
       <r>   -36.4084     0.0000     8.0000 </r>
       <r>   -36.2232     0.0000     8.0000 </r>
       <r>   -36.0379     0.0000     8.0000 </r>
       <r>   -35.8527     0.0000     8.0000 </r>
       <r>   -35.6675     0.0000     8.0000 </r>
       <r>   -35.4823     0.0000     8.0000 </r>
       <r>   -35.2971     0.0000     8.0000 </r>
       <r>   -35.1119     0.0000     8.0000 </r>
       <r>   -34.9267     0.0000     8.0000 </r>
       <r>   -34.7415     0.0000     8.0000 </r>
       <r>   -34.5563     0.0000     8.0000 </r>
       <r>   -34.3711     0.0000     8.0000 </r>
       <r>   -34.1859     0.0000     8.0000 </r>
       <r>   -34.0007     0.0000     8.0000 </r>
       <r>   -33.8154     0.0000     8.0000 </r>
       <r>   -33.6302     0.0000     8.0000 </r>
       <r>   -33.4450     0.0000     8.0000 </r>
       <r>   -33.2598     0.0000     8.0000 </r>
       <r>   -33.0746     0.0000     8.0000 </r>
       <r>   -32.8894     0.0000     8.0000 </r>
       <r>   -32.7042     0.0000     8.0000 </r>
       <r>   -32.5190     0.0000     8.0000 </r>
       <r>   -32.3338     0.0000     8.0000 </r>
       <r>   -32.1486     0.0000     8.0000 </r>
       <r>   -31.9634     0.0000     8.0000 </r>
       <r>   -31.7782     0.0000     8.0000 </r>
       <r>   -31.5929     0.0000     8.0000 </r>
       <r>   -31.4077     0.0000     8.0000 </r>
       <r>   -31.2225     0.0000     8.0000 </r>
       <r>   -31.0373     0.0000     8.0000 </r>
       <r>   -30.8521     0.0000     8.0000 </r>
       <r>   -30.6669     0.0000     8.0000 </r>
       <r>   -30.4817     0.0000     8.0000 </r>
       <r>   -30.2965     0.0000     8.0000 </r>
       <r>   -30.1113     0.0000     8.0000 </r>
       <r>   -29.9261     0.0000     8.0000 </r>
       <r>   -29.7409     0.0000     8.0000 </r>
       <r>   -29.5557     0.0000     8.0000 </r>
       <r>   -29.3704     0.0000     8.0000 </r>
       <r>   -29.1852     0.0000     8.0000 </r>
       <r>   -29.0000     0.0000     8.0000 </r>
       <r>   -28.8148     0.0000     8.0000 </r>
       <r>   -28.6296     0.0000     8.0000 </r>
       <r>   -28.4444     0.0000     8.0000 </r>
       <r>   -28.2592     0.0000     8.0000 </r>
       <r>   -28.0740     0.0000     8.0000 </r>
       <r>   -27.8888     0.0000     8.0000 </r>
       <r>   -27.7036     0.0000     8.0000 </r>
       <r>   -27.5184     0.0000     8.0000 </r>
       <r>   -27.3331     0.0000     8.0000 </r>
       <r>   -27.1479     0.0000     8.0000 </r>
       <r>   -26.9627     0.0000     8.0000 </r>
       <r>   -26.7775     0.0000     8.0000 </r>
       <r>   -26.5923     0.0000     8.0000 </r>
       <r>   -26.4071     0.0000     8.0000 </r>
       <r>   -26.2219     0.0000     8.0000 </r>
       <r>   -26.0367     0.0000     8.0000 </r>
       <r>   -25.8515     0.0000     8.0000 </r>
       <r>   -25.6663     0.0000     8.0000 </r>
       <r>   -25.4811     0.0000     8.0000 </r>
       <r>   -25.2959     0.0000     8.0000 </r>
       <r>   -25.1106     0.0000     8.0000 </r>
       <r>   -24.9254     0.0000     8.0000 </r>
       <r>   -24.7402     0.0000     8.0000 </r>
       <r>   -24.5550     0.0000     8.0000 </r>
       <r>   -24.3698     0.0000     8.0000 </r>
       <r>   -24.1846     0.0000     8.0000 </r>
       <r>   -23.9994     0.0000     8.0000 </r>
       <r>   -23.8142     0.0000     8.0000 </r>
       <r>   -23.6290     0.0000     8.0000 </r>
       <r>   -23.4438     0.0000     8.0000 </r>
       <r>   -23.2586     0.0000     8.0000 </r>
       <r>   -23.0734     0.0000     8.0000 </r>
       <r>   -22.8881     0.0000     8.0000 </r>
       <r>   -22.7029     0.0000     8.0000 </r>
       <r>   -22.5177     0.0000     8.0000 </r>
       <r>   -22.3325     0.0000     8.0000 </r>
       <r>   -22.1473     0.0000     8.0000 </r>
       <r>   -21.9621     0.0000     8.0000 </r>
       <r>   -21.7769     0.0000     8.0000 </r>
       <r>   -21.5917     0.0000     8.0000 </r>
       <r>   -21.4065     0.0000     8.0000 </r>
       <r>   -21.2213     0.0000     8.0000 </r>
       <r>   -21.0361     0.0000     8.0000 </r>
       <r>   -20.8509     0.0000     8.0000 </r>
       <r>   -20.6656     0.0000     8.0000 </r>
       <r>   -20.4804     0.0000     8.0000 </r>
       <r>   -20.2952     0.0000     8.0000 </r>
       <r>   -20.1100     0.0000     8.0000 </r>
       <r>   -19.9248     0.0000     8.0000 </r>
       <r>   -19.7396     0.0000     8.0000 </r>
       <r>   -19.5544     0.0000     8.0000 </r>
       <r>   -19.3692     0.0000     8.0000 </r>
       <r>   -19.1840     0.0000     8.0000 </r>
       <r>   -18.9988     0.0000     8.0000 </r>
       <r>   -18.8136     0.0000    32.0000 </r>
       <r>   -18.6284     0.0000    86.0000 </r>
       <r>   -18.4431     0.0000   142.0000 </r>
       <r>   -18.2579     0.0000   164.0000 </r>
       <r>   -18.0727     0.0000   168.0000 </r>
       <r>   -17.8875     0.0000   168.0000 </r>
       <r>   -17.7023     0.0000   168.0000 </r>
       <r>   -17.5171     0.0000   168.0000 </r>
       <r>   -17.3319     0.0000   168.0000 </r>
       <r>   -17.1467     0.0000   168.0000 </r>
       <r>   -16.9615     0.0000   168.0000 </r>
       <r>   -16.7763     0.0000   168.0000 </r>
       <r>   -16.5911     0.0000   168.0000 </r>
       <r>   -16.4058     0.0000   168.0000 </r>
       <r>   -16.2206     0.0000   168.0000 </r>
       <r>   -16.0354     0.0000   168.0000 </r>
       <r>   -15.8502     0.0000   168.0000 </r>
       <r>   -15.6650     0.0000   168.0000 </r>
       <r>   -15.4798     0.0000   168.0000 </r>
       <r>   -15.2946     0.0000   168.0000 </r>
       <r>   -15.1094     0.0000   168.0000 </r>
       <r>   -14.9242     0.0000   168.0000 </r>
       <r>   -14.7390     0.0000   168.0000 </r>
       <r>   -14.5538     0.0000   168.0000 </r>
       <r>   -14.3686     0.0000   168.0000 </r>
       <r>   -14.1833     0.0000   168.0000 </r>
       <r>   -13.9981     0.0000   168.0000 </r>
       <r>   -13.8129     0.0000   168.0000 </r>
       <r>   -13.6277     0.0000   170.0000 </r>
       <r>   -13.4425     0.0000   174.0000 </r>
       <r>   -13.2573     0.0000   176.0000 </r>
       <r>   -13.0721     0.0000   176.0000 </r>
       <r>   -12.8869     0.0000   178.0000 </r>
       <r>   -12.7017     0.0000   188.0000 </r>
       <r>   -12.5165     0.0000   192.0000 </r>
       <r>   -12.3313     0.0000   192.0000 </r>
       <r>   -12.1461     0.0000   194.0000 </r>
       <r>   -11.9608     0.0000   200.0000 </r>
       <r>   -11.7756     0.0000   200.0000 </r>
       <r>   -11.5904     0.0000   200.0000 </r>
       <r>   -11.4052     0.0000   200.0000 </r>
       <r>   -11.2200     0.0000   200.0000 </r>
       <r>   -11.0348     0.0000   200.0000 </r>
       <r>   -10.8496     0.0000   200.0000 </r>
       <r>   -10.6644     0.0000   200.0000 </r>
       <r>   -10.4792     0.0000   200.0000 </r>
       <r>   -10.2940     0.0000   200.0000 </r>
       <r>   -10.1088     0.0000   200.0000 </r>
       <r>    -9.9236     0.0000   200.0000 </r>
       <r>    -9.7383     0.0000   200.0000 </r>
       <r>    -9.5531     0.0000   200.0000 </r>
       <r>    -9.3679     0.8164   200.0049 </r>
       <r>    -9.1827    11.1186   201.3427 </r>
       <r>    -8.9975     0.0000   204.0000 </r>
       <r>    -8.8123    16.8591   206.2488 </r>
       <r>    -8.6271    10.7727   208.5841 </r>
       <r>    -8.4419    36.3744   212.7575 </r>
       <r>    -8.2567     7.5088   216.0951 </r>
       <r>    -8.0715    26.7982   220.7892 </r>
       <r>    -7.8863    16.7745   224.7158 </r>
       <r>    -7.7010     2.1344   227.9936 </r>
       <r>    -7.5158    11.8646   231.3698 </r>
       <r>    -7.3306     0.0000   232.0000 </r>
       <r>    -7.1454     0.0000   232.0000 </r>
       <r>    -6.9602     0.0000   232.0000 </r>
       <r>    -6.7750     0.0000   232.0000 </r>
       <r>    -6.5898     0.0000   232.0000 </r>
       <r>    -6.4046     1.1992   232.0116 </r>
       <r>    -6.2194    20.8567   234.0375 </r>
       <r>    -6.0342    17.9778   238.7116 </r>
       <r>    -5.8490    24.3938   241.8267 </r>
       <r>    -5.6638    21.8203   246.6185 </r>
       <r>    -5.4785    19.2477   250.1856 </r>
       <r>    -5.2933    17.2481   254.0549 </r>
       <r>    -5.1081     3.5088   255.8844 </r>
       <r>    -4.9229     7.8147   256.6906 </r>
       <r>    -4.7377     8.7350   258.1953 </r>
       <r>    -4.5525     9.7367   260.0490 </r>
       <r>    -4.3673     6.5725   261.3716 </r>
       <r>    -4.1821     6.5392   262.6930 </r>
       <r>    -3.9969     3.2055   263.5964 </r>
       <r>    -3.8117     0.9212   263.9328 </r>
       <r>    -3.6265     0.0000   264.0000 </r>
       <r>    -3.4413     0.0000   264.0000 </r>
       <r>    -3.2560     0.0000   264.0000 </r>
       <r>    -3.0708     0.0000   264.0000 </r>
       <r>    -2.8856     0.0000   264.0000 </r>
       <r>    -2.7004     0.0000   264.0000 </r>
       <r>    -2.5152     0.0000   264.0000 </r>
       <r>    -2.3300     0.0000   264.0000 </r>
       <r>    -2.1448     0.0000   264.0000 </r>
       <r>    -1.9596     0.0000   264.0000 </r>
       <r>    -1.7744     0.0000   264.0000 </r>
       <r>    -1.5892     0.0000   264.0000 </r>
       <r>    -1.4040     2.6438   264.1708 </r>
       <r>    -1.2188    11.1472   265.4020 </r>
       <r>    -1.0335    12.8795   267.5352 </r>
       <r>    -0.8483    10.0403   269.9583 </r>
       <r>    -0.6631     5.2013   271.2769 </r>
       <r>    -0.4779    17.9786   273.3731 </r>
       <r>    -0.2927    24.6355   277.3158 </r>
       <r>    -0.1075    44.0312   284.1295 </r>
       <r>     0.0777    31.2800   291.0989 </r>
       <r>     0.2629    25.6253   297.3296 </r>
       <r>     0.4481    37.9687   304.3273 </r>
       <r>     0.6333    32.8067   311.7310 </r>
       <r>     0.8185    30.1559   318.4974 </r>
       <r>     1.0037    43.4007   325.9203 </r>
       <r>     1.1890    39.0465   333.8843 </r>
       <r>     1.3742    57.3326   343.5325 </r>
       <r>     1.5594    46.3523   352.5244 </r>
       <r>     1.7446    35.7597   360.9548 </r>
       <r>     1.9298    33.0372   366.8903 </r>
       <r>     2.1150    41.6693   373.9824 </r>
       <r>     2.3002    53.4376   382.4255 </r>
       <r>     2.4854    54.9865   392.3904 </r>
       <r>     2.6706    60.2792   402.9478 </r>
       <r>     2.8558    61.6454   413.6999 </r>
       <r>     3.0410    63.7690   425.8760 </r>
       <r>     3.2263    48.1938   435.4536 </r>
       <r>     3.4115    44.4185   443.0016 </r>
       <r>     3.5967    18.9033   449.6007 </r>
       <r>     3.7819    14.1760   453.1271 </r>
       <r>     3.9671     7.6547   455.1488 </r>
       <r>     4.1523     1.2414   455.9634 </r>
       <r>     4.3375     0.0000   456.0000 </r>
       <r>     4.5227     0.0000   456.0000 </r>
       <r>     4.7079     0.0000   456.0000 </r>
       <r>     4.8931     0.0000   456.0000 </r>
       <r>     5.0783     0.7985   456.0368 </r>
       <r>     5.2635     3.6357   456.3953 </r>
       <r>     5.4488     7.7977   457.4539 </r>
       <r>     5.6340     9.7789   459.1724 </r>
       <r>     5.8192    27.9360   462.7331 </r>
       <r>     6.0044    12.9917   465.6898 </r>
       <r>     6.1896    11.8183   467.9271 </r>
       <r>     6.3748    13.6327   470.2687 </r>
       <r>     6.5600    15.6391   472.9799 </r>
       <r>     6.7452    17.7879   476.0679 </r>
       <r>     6.9304    21.2224   479.6511 </r>
       <r>     7.1156    26.6898   484.0319 </r>
       <r>     7.3008    34.6107   489.9368 </r>
       <r>     7.4860    29.6253   496.6461 </r>
       <r>     7.6713    43.2278   502.1027 </r>
       <r>     7.8565    45.8324   510.9566 </r>
       <r>     8.0417    28.4300   517.7686 </r>
       <r>     8.2269    18.8489   521.8488 </r>
       <r>     8.4121    20.6961   525.4385 </r>
       <r>     8.5973    25.4563   529.7584 </r>
       <r>     8.7825    49.4234   535.7526 </r>
       <r>     8.9677    28.8170   543.2233 </r>
       <r>     9.1529    17.5362   547.2231 </r>
       <r>     9.3381    14.5684   550.0843 </r>
       <r>     9.5233    14.5851   552.9061 </r>
       <r>     9.7085     6.8473   555.2657 </r>
       <r>     9.8938     8.5308   556.6613 </r>
       <r>    10.0790    11.6913   558.7258 </r>
       <r>    10.2642     1.3474   559.9719 </r>
       <r>    10.4494     0.0000   560.0000 </r>
       <r>    10.6346     0.0000   560.0000 </r>
       <r>    10.8198     0.0000   560.0000 </r>
       <r>    11.0050     0.0000   560.0000 </r>
       <r>    11.1902     0.0000   560.0000 </r>
       <r>    11.3754     0.0000   560.0000 </r>
       <r>    11.5606     0.0000   560.0000 </r>
       <r>    11.7458     0.0000   560.0000 </r>
       <r>    11.9311     0.0000   560.0000 </r>
       <r>    12.1163     0.0000   560.0000 </r>
       <r>    12.3015     0.0000   560.0000 </r>
       <r>    12.4867     0.0000   560.0000 </r>
       <r>    12.6719     0.0000   560.0000 </r>
       <r>    12.8571     0.0000   560.0000 </r>
      </set>
     </set>
    </array>
   </total>
  </dos>
 </calculation>
 <structure name="finalpos" >
  <crystal>
   <varray name="basis" >
    <v>      11.17850000       0.00000000       0.00000000 </v>
    <v>       0.00000000       9.57460000       0.00000000 </v>
    <v>       0.00000000       0.00000000      11.18240000 </v>
   </varray>
   <i name="volume">   1196.84853820 </i>
   <varray name="rec_basis" >
    <v>       0.08945744       0.00000000       0.00000000 </v>
    <v>       0.00000000       0.10444301       0.00000000 </v>
    <v>       0.00000000       0.00000000       0.08942624 </v>
   </varray>
  </crystal>
  <varray name="positions" >
   <v>       0.37461000       0.00017000       0.18687000 </v>
   <v>       0.62539000       0.99984000       0.43687000 </v>
   <v>       0.37461000       0.00017000       0.68687000 </v>
   <v>       0.62461000       0.99984000       0.68687000 </v>
   <v>       0.12461000       0.99984000       0.18687000 </v>
   <v>       0.87539000       0.00017000       0.43687000 </v>
   <v>       0.62461000       0.99984000       0.18687000 </v>
   <v>       0.37539000       0.00017000       0.93687000 </v>
   <v>       0.12461000       0.99984000       0.68687000 </v>
   <v>       0.87539000       0.00017000       0.93687000 </v>
   <v>       0.00013000       0.29519000       0.06281000 </v>
   <v>       0.25013000       0.70481000       0.06281000 </v>
   <v>       0.24987000       0.29519000       0.31282000 </v>
   <v>       0.49987000       0.70481000       0.31282000 </v>
   <v>       0.50013000       0.29519000       0.06281000 </v>
   <v>       0.75013000       0.70481000       0.06281000 </v>
   <v>       0.74987000       0.29519000       0.31282000 </v>
   <v>       0.99987000       0.70481000       0.31282000 </v>
   <v>       0.00013000       0.29519000       0.56281000 </v>
   <v>       0.25013000       0.70481000       0.56281000 </v>
   <v>       0.24987000       0.29519000       0.81282000 </v>
   <v>       0.49987000       0.70481000       0.81282000 </v>
   <v>       0.50013000       0.29519000       0.56281000 </v>
   <v>       0.75013000       0.70481000       0.56281000 </v>
   <v>       0.74987000       0.29519000       0.81282000 </v>
   <v>       0.99987000       0.70481000       0.81282000 </v>
   <v>       0.25005000       0.32677000       0.06286000 </v>
   <v>       0.00005000       0.67323000       0.06286000 </v>
   <v>       0.49995000       0.32677000       0.31286000 </v>
   <v>       0.24995000       0.67323000       0.31286000 </v>
   <v>       0.75005000       0.32677000       0.06286000 </v>
   <v>       0.50005000       0.67323000       0.06286000 </v>
   <v>       0.99995000       0.32677000       0.31286000 </v>
   <v>       0.74995000       0.67323000       0.31286000 </v>
   <v>       0.25005000       0.32677000       0.56286000 </v>
   <v>       0.00005000       0.67323000       0.56286000 </v>
   <v>       0.49995000       0.32677000       0.81286000 </v>
   <v>       0.24995000       0.67323000       0.81286000 </v>
   <v>       0.75005000       0.32677000       0.56286000 </v>
   <v>       0.50005000       0.67323000       0.56286000 </v>
   <v>       0.99995000       0.32677000       0.81286000 </v>
   <v>       0.74995000       0.67323000       0.81286000 </v>
   <v>       0.49987000       0.07798000       0.06246000 </v>
   <v>       0.24987000       0.92202000       0.06246000 </v>
   <v>       0.25013000       0.07798000       0.31246000 </v>
   <v>       0.00013000       0.92202000       0.31246000 </v>
   <v>       0.99987000       0.07798000       0.06246000 </v>
   <v>       0.74987000       0.92202000       0.06246000 </v>
   <v>       0.75013000       0.07798000       0.31246000 </v>
   <v>       0.50013000       0.92202000       0.31246000 </v>
   <v>       0.49987000       0.07798000       0.56246000 </v>
   <v>       0.24987000       0.92202000       0.56246000 </v>
   <v>       0.25013000       0.07798000       0.81246000 </v>
   <v>       0.00013000       0.92202000       0.81246000 </v>
   <v>       0.99987000       0.07798000       0.56246000 </v>
   <v>       0.74987000       0.92202000       0.56246000 </v>
   <v>       0.75013000       0.07798000       0.81246000 </v>
   <v>       0.50013000       0.92202000       0.81246000 </v>
  </varray>
 </structure>
</modeling>
