<?xml version="1.0" encoding="ISO-8859-1"?>
<modeling>
 <generator>
  <i name="program" type="string">vasp </i>
  <i name="version" type="string">5.4.4.18Apr17-6-g9f103f2a35  </i>
  <i name="subversion" type="string">(build Jul 31 2017 11:33:29) complex            parallel </i>
  <i name="platform" type="string">LinuxIFC </i>
  <i name="date" type="string">2021 09 29 </i>
  <i name="time" type="string">07:04:42 </i>
 </generator>
 <incar>
  <i type="string" name="SYSTEM"> La2O2S</i>
  <i type="string" name="PREC">normal</i>
  <i type="int" name="NELMIN">     4</i>
  <i type="int" name="IBRION">     2</i>
  <i type="int" name="NFREE">    10</i>
  <i name="EDIFF">      0.00000100</i>
  <i name="EDIFFG">     -0.01000000</i>
  <i type="int" name="NSW">     1</i>
  <i type="int" name="ISIF">     2</i>
  <i name="ENCUT">    600.00000000</i>
  <i name="ENAUG">    900.00000000</i>
  <i type="int" name="ISMEAR">    -5</i>
  <i type="logical" name="LWAVE"> F  </i>
  <i type="logical" name="LCHARG"> F  </i>
  <v type="int" name="KPOINT_BSE">    -1     0     0     0</v>
 </incar>
 <structure name="primitive_cell" >
  <crystal>
   <varray name="basis" >
    <v>      11.17850000       0.00000000       0.00000000 </v>
    <v>       0.00000000       9.57460000       0.00000000 </v>
    <v>       0.00000000       0.00000000      11.18240000 </v>
   </varray>
   <i name="volume">   1196.84853820 </i>
   <varray name="rec_basis" >
    <v>       0.08945744       0.00000000       0.00000000 </v>
    <v>       0.00000000       0.10444301       0.00000000 </v>
    <v>       0.00000000       0.00000000       0.08942624 </v>
   </varray>
  </crystal>
  <varray name="positions" >
   <v>       0.37539000       0.00017000       0.43687000 </v>
   <v>      -0.49987000      -0.07798000       0.31246000 </v>
   <v>       0.25013000       0.07798000       0.31246000 </v>
   <v>       0.49987000       0.07798000      -0.43754000 </v>
   <v>       0.24987000      -0.07798000      -0.43754000 </v>
   <v>      -0.37461000      -0.00016000       0.43687000 </v>
   <v>       0.37461000       0.00017000       0.18687000 </v>
   <v>       0.37461000       0.00017000      -0.31313000 </v>
   <v>       0.49987000      -0.29519000       0.31282000 </v>
   <v>       0.24987000       0.29519000       0.31282000 </v>
   <v>      -0.49987000       0.29519000      -0.43719000 </v>
   <v>       0.25013000      -0.29519000      -0.43719000 </v>
   <v>       0.49995000       0.32677000       0.31286000 </v>
   <v>       0.24995000      -0.32677000       0.31286000 </v>
   <v>      -0.49995000      -0.32677000      -0.43714000 </v>
   <v>       0.25005000       0.32677000      -0.43714000 </v>
   <v>      -0.37539000      -0.00016000       0.18687000 </v>
   <v>      -0.37539000      -0.00016000      -0.31313000 </v>
   <v>       0.12461000      -0.00016000      -0.31313000 </v>
   <v>       0.12461000      -0.00016000       0.18687000 </v>
   <v>       0.49987000       0.07798000       0.06246000 </v>
   <v>      -0.24987000       0.07798000       0.31246000 </v>
   <v>      -0.25013000      -0.07798000      -0.43754000 </v>
   <v>       0.24987000      -0.07798000       0.06246000 </v>
   <v>       0.00013000      -0.07798000       0.31246000 </v>
   <v>      -0.49987000      -0.07798000      -0.18754000 </v>
   <v>      -0.00013000       0.07798000      -0.43754000 </v>
   <v>       0.25013000       0.07798000      -0.18754000 </v>
   <v>      -0.49987000       0.29519000       0.06281000 </v>
   <v>      -0.25013000       0.29519000       0.31282000 </v>
   <v>       0.25013000      -0.29519000       0.06281000 </v>
   <v>      -0.24987000      -0.29519000      -0.43719000 </v>
   <v>      -0.00013000      -0.29519000       0.31282000 </v>
   <v>       0.00013000       0.29519000      -0.43719000 </v>
   <v>       0.49987000      -0.29519000      -0.18718000 </v>
   <v>       0.24987000       0.29519000      -0.18718000 </v>
   <v>      -0.49995000      -0.32677000       0.06286000 </v>
   <v>       0.25005000       0.32677000       0.06286000 </v>
   <v>      -0.25005000      -0.32677000       0.31286000 </v>
   <v>      -0.24995000       0.32677000      -0.43714000 </v>
   <v>      -0.00005000       0.32677000       0.31286000 </v>
   <v>       0.00005000      -0.32677000      -0.43714000 </v>
   <v>       0.49995000       0.32677000      -0.18714000 </v>
   <v>       0.24995000      -0.32677000      -0.18714000 </v>
   <v>      -0.12461000       0.00017000       0.43687000 </v>
   <v>      -0.25013000      -0.07798000       0.06246000 </v>
   <v>      -0.00013000       0.07798000       0.06246000 </v>
   <v>      -0.24987000       0.07798000      -0.18754000 </v>
   <v>       0.00013000      -0.07798000      -0.18754000 </v>
   <v>      -0.12539000       0.00017000       0.18687000 </v>
   <v>      -0.12539000       0.00017000      -0.31313000 </v>
   <v>       0.12539000      -0.00016000      -0.06313000 </v>
   <v>      -0.37461000      -0.00016000      -0.06313000 </v>
   <v>      -0.24987000      -0.29519000       0.06281000 </v>
   <v>       0.00013000       0.29519000       0.06281000 </v>
   <v>      -0.25013000       0.29519000      -0.18718000 </v>
   <v>      -0.00013000      -0.29519000      -0.18718000 </v>
   <v>      -0.24995000       0.32677000       0.06286000 </v>
   <v>       0.00005000      -0.32677000       0.06286000 </v>
   <v>      -0.25005000      -0.32677000      -0.18714000 </v>
   <v>      -0.00005000       0.32677000      -0.18714000 </v>
   <v>      -0.12461000       0.00017000      -0.06313000 </v>
  </varray>
 </structure>
 <varray name="primitive_index" >
  <v type="int" >        1 </v>
  <v type="int" >       54 </v>
  <v type="int" >       49 </v>
  <v type="int" >       55 </v>
  <v type="int" >       56 </v>
  <v type="int" >        3 </v>
  <v type="int" >        2 </v>
  <v type="int" >       14 </v>
  <v type="int" >       18 </v>
  <v type="int" >       17 </v>
  <v type="int" >       27 </v>
  <v type="int" >       24 </v>
  <v type="int" >       33 </v>
  <v type="int" >       34 </v>
  <v type="int" >       44 </v>
  <v type="int" >       39 </v>
  <v type="int" >        5 </v>
  <v type="int" >       11 </v>
  <v type="int" >        8 </v>
  <v type="int" >       13 </v>
  <v type="int" >       47 </v>
  <v type="int" >       53 </v>
  <v type="int" >       60 </v>
  <v type="int" >       48 </v>
  <v type="int" >       50 </v>
  <v type="int" >       62 </v>
  <v type="int" >       59 </v>
  <v type="int" >       57 </v>
  <v type="int" >       19 </v>
  <v type="int" >       21 </v>
  <v type="int" >       16 </v>
  <v type="int" >       28 </v>
  <v type="int" >       22 </v>
  <v type="int" >       23 </v>
  <v type="int" >       26 </v>
  <v type="int" >       25 </v>
  <v type="int" >       36 </v>
  <v type="int" >       31 </v>
  <v type="int" >       38 </v>
  <v type="int" >       43 </v>
  <v type="int" >       37 </v>
  <v type="int" >       40 </v>
  <v type="int" >       41 </v>
  <v type="int" >       42 </v>
  <v type="int" >        4 </v>
  <v type="int" >       52 </v>
  <v type="int" >       51 </v>
  <v type="int" >       61 </v>
  <v type="int" >       58 </v>
  <v type="int" >        6 </v>
  <v type="int" >       12 </v>
  <v type="int" >        7 </v>
  <v type="int" >        9 </v>
  <v type="int" >       20 </v>
  <v type="int" >       15 </v>
  <v type="int" >       29 </v>
  <v type="int" >       30 </v>
  <v type="int" >       35 </v>
  <v type="int" >       32 </v>
  <v type="int" >       46 </v>
  <v type="int" >       45 </v>
  <v type="int" >       10 </v>
 </varray>
 <kpoints>
  <generation param="Gamma">
   <v type="int" name="divisions">       2        2        2 </v>
   <v name="usershift">      0.00000000       0.00000000       0.00000000 </v>
   <v name="genvec1">      0.50000000       0.00000000       0.00000000 </v>
   <v name="genvec2">      0.00000000       0.50000000       0.00000000 </v>
   <v name="genvec3">      0.00000000       0.00000000       0.50000000 </v>
   <v name="shift">      0.00000000       0.00000000       0.00000000 </v>
  </generation>
  <varray name="kpointlist" >
   <v>       0.00000000       0.00000000       0.00000000 </v>
   <v>       0.50000000       0.00000000       0.00000000 </v>
   <v>       0.00000000       0.50000000       0.00000000 </v>
   <v>       0.50000000       0.50000000       0.00000000 </v>
   <v>       0.00000000       0.00000000       0.50000000 </v>
   <v>       0.50000000       0.00000000       0.50000000 </v>
   <v>       0.00000000       0.50000000       0.50000000 </v>
   <v>       0.50000000       0.50000000       0.50000000 </v>
  </varray>
  <varray name="weights" >
   <v>       0.12500000 </v>
   <v>       0.12500000 </v>
   <v>       0.12500000 </v>
   <v>       0.12500000 </v>
   <v>       0.12500000 </v>
   <v>       0.12500000 </v>
   <v>       0.12500000 </v>
   <v>       0.12500000 </v>
  </varray>
  <varray name="tetrahedronlist"  type="int" >
   <v type="int" >        2        1        2        4        5 </v>
   <v type="int" >        2        1        3        4        5 </v>
   <v type="int" >        2        3        4        5        7 </v>
   <v type="int" >        2        2        4        5        6 </v>
   <v type="int" >        2        4        5        6        8 </v>
   <v type="int" >        2        4        5        7        8 </v>
   <v type="int" >        2        1        2        3        6 </v>
   <v type="int" >        2        2        3        4        6 </v>
   <v type="int" >        2        3        4        6        8 </v>
   <v type="int" >        2        1        3        5        6 </v>
   <v type="int" >        2        3        5        6        7 </v>
   <v type="int" >        2        3        6        7        8 </v>
   <v type="int" >        2        2        3        4        7 </v>
   <v type="int" >        2        1        2        3        7 </v>
   <v type="int" >        2        1        2        5        7 </v>
   <v type="int" >        2        2        4        7        8 </v>
   <v type="int" >        2        2        6        7        8 </v>
   <v type="int" >        2        2        5        6        7 </v>
   <v type="int" >        2        1        3        4        8 </v>
   <v type="int" >        2        1        2        4        8 </v>
   <v type="int" >        2        1        2        6        8 </v>
   <v type="int" >        2        1        3        7        8 </v>
   <v type="int" >        2        1        5        7        8 </v>
   <v type="int" >        2        1        5        6        8 </v>
  </varray>
  <i name="volumeweight">      0.02083333 </i>
 </kpoints>
 <parameters>
  <separator name="general" >
   <i type="string" name="SYSTEM">La2O2S</i>
   <i type="logical" name="LCOMPAT"> F  </i>
  </separator>
  <separator name="electronic" >
   <i type="string" name="PREC">normal</i>
   <i name="ENMAX">    600.00000000</i>
   <i name="ENAUG">    900.00000000</i>
   <i name="EDIFF">      0.00000100</i>
   <i type="int" name="IALGO">    38</i>
   <i type="int" name="IWAVPR">    11</i>
   <i type="int" name="NBANDS">   308</i>
   <i name="NELECT">    472.00000000</i>
   <i type="int" name="TURBO">     0</i>
   <i type="int" name="IRESTART">     0</i>
   <i type="int" name="NREBOOT">     0</i>
   <i type="int" name="NMIN">     0</i>
   <i name="EREF">      0.00000000</i>
   <separator name="electronic smearing" >
    <i type="int" name="ISMEAR">    -5</i>
    <i name="SIGMA">      0.20000000</i>
    <i name="KSPACING">      0.50000000</i>
    <i type="logical" name="KGAMMA"> T  </i>
   </separator>
   <separator name="electronic projectors" >
    <i type="logical" name="LREAL"> F  </i>
    <v name="ROPT">      0.00000000      0.00000000      0.00000000      0.00000000      0.00000000</v>
    <i type="int" name="LMAXPAW">  -100</i>
    <i type="int" name="LMAXMIX">     2</i>
    <i type="logical" name="NLSPLINE"> F  </i>
   </separator>
   <separator name="electronic startup" >
    <i type="int" name="ISTART">     0</i>
    <i type="int" name="ICHARG">     2</i>
    <i type="int" name="INIWAV">     1</i>
   </separator>
   <separator name="electronic spin" >
    <i type="int" name="ISPIN">     1</i>
    <i type="logical" name="LNONCOLLINEAR"> F  </i>
    <v name="MAGMOM">      1.00000000      1.00000000      1.00000000      1.00000000      1.00000000      1.00000000      1.00000000      1.00000000      1.00000000      1.00000000      1.00000000      1.00000000      1.00000000      1.00000000      1.00000000      1.00000000      1.00000000      1.00000000      1.00000000      1.00000000
      1.00000000      1.00000000      1.00000000      1.00000000      1.00000000      1.00000000      1.00000000      1.00000000      1.00000000      1.00000000      1.00000000      1.00000000      1.00000000      1.00000000      1.00000000      1.00000000      1.00000000      1.00000000      1.00000000      1.00000000
      1.00000000      1.00000000      1.00000000      1.00000000      1.00000000      1.00000000      1.00000000      1.00000000      1.00000000      1.00000000      1.00000000      1.00000000      1.00000000      1.00000000      1.00000000      1.00000000      1.00000000      1.00000000      1.00000000      1.00000000
      1.00000000      1.00000000</v>
    <i name="NUPDOWN">     -1.00000000</i>
    <i type="logical" name="LSORBIT"> F  </i>
    <v name="SAXIS">      0.00000000      0.00000000      1.00000000</v>
    <i type="logical" name="LSPIRAL"> F  </i>
    <v name="QSPIRAL">      0.00000000      0.00000000      0.00000000</v>
    <i type="logical" name="LZEROZ"> F  </i>
   </separator>
   <separator name="electronic exchange-correlation" >
    <i type="logical" name="LASPH"> F  </i>
    <i type="logical" name="LMETAGGA"> F  </i>
   </separator>
   <separator name="electronic convergence" >
    <i type="int" name="NELM">    60</i>
    <i type="int" name="NELMDL">    -5</i>
    <i type="int" name="NELMIN">     4</i>
    <i name="ENINI">    600.00000000</i>
    <separator name="electronic convergence detail" >
     <i type="logical" name="LDIAG"> T  </i>
     <i type="logical" name="LSUBROT"> F  </i>
     <i name="WEIMIN">      0.00100000</i>
     <i name="EBREAK">      0.00000000</i>
     <i name="DEPER">      0.30000000</i>
     <i type="int" name="NRMM">     4</i>
     <i name="TIME">      0.40000000</i>
    </separator>
   </separator>
   <separator name="electronic mixer" >
    <i name="AMIX">      0.40000000</i>
    <i name="BMIX">      1.00000000</i>
    <i name="AMIN">      0.10000000</i>
    <i name="AMIX_MAG">      1.60000000</i>
    <i name="BMIX_MAG">      1.00000000</i>
    <separator name="electronic mixer details" >
     <i type="int" name="IMIX">     4</i>
     <i type="logical" name="MIXFIRST"> F  </i>
     <i type="int" name="MAXMIX">   -45</i>
     <i name="WC">    100.00000000</i>
     <i type="int" name="INIMIX">     1</i>
     <i type="int" name="MIXPRE">     1</i>
     <i type="int" name="MREMOVE">     5</i>
    </separator>
   </separator>
   <separator name="electronic dipolcorrection" >
    <i type="logical" name="LDIPOL"> F  </i>
    <i type="logical" name="LMONO"> F  </i>
    <i type="int" name="IDIPOL">     0</i>
    <i name="EPSILON">      1.00000000</i>
    <v name="DIPOL">   -100.00000000   -100.00000000   -100.00000000</v>
    <i name="EFIELD">      0.00000000</i>
   </separator>
  </separator>
  <separator name="grids" >
   <i type="int" name="NGX">    70</i>
   <i type="int" name="NGY">    60</i>
   <i type="int" name="NGZ">    70</i>
   <i type="int" name="NGXF">   140</i>
   <i type="int" name="NGYF">   120</i>
   <i type="int" name="NGZF">   140</i>
   <i type="logical" name="ADDGRID"> F  </i>
  </separator>
  <separator name="ionic" >
   <i type="int" name="NSW">     1</i>
   <i type="int" name="IBRION">     2</i>
   <i type="int" name="MDALGO">     0</i>
   <i type="int" name="ISIF">     2</i>
   <i name="PSTRESS">      0.00000000</i>
   <i name="EDIFFG">     -0.01000000</i>
   <i type="int" name="NFREE">    10</i>
   <i name="POTIM">      0.50000000</i>
   <i name="SMASS">     -3.00000000</i>
   <i name="SCALEE">      1.00000000</i>
  </separator>
  <separator name="ionic md" >
   <i name="TEBEG">      0.00010000</i>
   <i name="TEEND">      0.00010000</i>
   <i type="int" name="NBLOCK">     1</i>
   <i type="int" name="KBLOCK">     1</i>
   <i type="int" name="NPACO">   256</i>
   <i name="APACO">     16.00000000</i>
  </separator>
  <separator name="symmetry" >
   <i type="int" name="ISYM">     2</i>
   <i name="SYMPREC">      0.00001000</i>
  </separator>
  <separator name="dos" >
   <i type="int" name="LORBIT">     0</i>
   <v name="RWIGS">     -1.00000000     -1.00000000     -1.00000000     -1.00000000     -1.00000000</v>
   <i type="int" name="NEDOS">   301</i>
   <i name="EMIN">     10.00000000</i>
   <i name="EMAX">    -10.00000000</i>
   <i name="EFERMI">      0.00000000</i>
  </separator>
  <separator name="writing" >
   <i type="int" name="NWRITE">     2</i>
   <i type="logical" name="LWAVE"> F  </i>
   <i type="logical" name="LDOWNSAMPLE"> F  </i>
   <i type="logical" name="LCHARG"> F  </i>
   <i type="logical" name="LPARD"> F  </i>
   <i type="logical" name="LVTOT"> F  </i>
   <i type="logical" name="LVHAR"> F  </i>
   <i type="logical" name="LELF"> F  </i>
   <i type="logical" name="LOPTICS"> F  </i>
   <v name="STM">      0.00000000      0.00000000      0.00000000      0.00000000      0.00000000      0.00000000      0.00000000</v>
  </separator>
  <separator name="performance" >
   <i type="int" name="NPAR">    28</i>
   <i type="int" name="NSIM">     4</i>
   <i type="int" name="NBLK">    -1</i>
   <i type="logical" name="LPLANE"> T  </i>
   <i type="logical" name="LSCALAPACK"> T  </i>
   <i type="logical" name="LSCAAWARE"> F  </i>
   <i type="logical" name="LSCALU"> F  </i>
   <i type="logical" name="LASYNC"> F  </i>
   <i type="logical" name="LORBITALREAL"> F  </i>
  </separator>
  <separator name="miscellaneous" >
   <i type="int" name="IDIOT">     3</i>
   <i type="int" name="ISPECIAL">     0</i>
   <i type="logical" name="LMUSIC"> F  </i>
   <v name="POMASS">      7.01000000     24.30500000    208.98000000     32.06600000     16.00000000</v>
   <v name="DARWINR">      0.00000000      0.00000000      0.00000000      0.00000000      0.00000000</v>
   <v name="DARWINV">      1.00000000      1.00000000      1.00000000      1.00000000      1.00000000</v>
   <i type="logical" name="LCORR"> T  </i>
  </separator>
  <i type="logical" name="GGA_COMPAT"> T  </i>
  <i type="logical" name="LBERRY"> F  </i>
  <i type="int" name="ICORELEVEL">     0</i>
  <i type="logical" name="LDAU"> F  </i>
  <i type="int" name="I_CONSTRAINED_M">     0</i>
  <separator name="electronic exchange-correlation" >
   <i type="string" name="GGA">--</i>
   <i type="int" name="VOSKOWN">     0</i>
   <i type="logical" name="LHFCALC"> F  </i>
   <i type="string" name="PRECFOCK"></i>
   <i type="logical" name="LSYMGRAD"> F  </i>
   <i type="logical" name="LHFONE"> F  </i>
   <i type="logical" name="LRHFCALC"> F  </i>
   <i type="logical" name="LTHOMAS"> F  </i>
   <i type="logical" name="LMODELHF"> F  </i>
   <i name="ENCUT4O">     -1.00000000</i>
   <i type="int" name="EXXOEP">     0</i>
   <i type="int" name="FOURORBIT">     0</i>
   <i name="AEXX">      0.00000000</i>
   <i name="HFALPHA">      0.00000000</i>
   <i name="MCALPHA">      0.00000000</i>
   <i name="ALDAX">      1.00000000</i>
   <i name="AGGAX">      1.00000000</i>
   <i name="ALDAC">      1.00000000</i>
   <i name="AGGAC">      1.00000000</i>
   <i type="int" name="NKREDX">     1</i>
   <i type="int" name="NKREDY">     1</i>
   <i type="int" name="NKREDZ">     1</i>
   <i type="logical" name="SHIFTRED"> F  </i>
   <i type="logical" name="ODDONLY"> F  </i>
   <i type="logical" name="EVENONLY"> F  </i>
   <i type="int" name="LMAXFOCK">     0</i>
   <i type="int" name="NMAXFOCKAE">     0</i>
   <i type="logical" name="LFOCKAEDFT"> F  </i>
   <i name="HFSCREEN">      0.00000000</i>
   <i name="HFSCREENC">      0.00000000</i>
   <i type="int" name="NBANDSGWLOW">     0</i>
  </separator>
  <separator name="vdW DFT" >
   <i type="logical" name="LUSE_VDW"> F  </i>
   <i name="Zab_VDW">     -0.84910000</i>
   <i name="PARAM1">      0.12340000</i>
   <i name="PARAM2">      1.00000000</i>
   <i name="PARAM3">      0.00000000</i>
  </separator>
  <separator name="model GW" >
   <i type="int" name="MODEL_GW">     0</i>
   <i name="MODEL_EPS0">     11.58240521</i>
   <i name="MODEL_ALPHA">      1.00000000</i>
  </separator>
  <separator name="linear response parameters" >
   <i type="logical" name="LEPSILON"> F  </i>
   <i type="logical" name="LRPA"> F  </i>
   <i type="logical" name="LNABLA"> F  </i>
   <i type="logical" name="LVEL"> F  </i>
   <i type="int" name="KINTER">     0</i>
   <i name="CSHIFT">      0.10000000</i>
   <i name="OMEGAMAX">     -1.00000000</i>
   <i name="DEG_THRESHOLD">      0.00200000</i>
   <i name="RTIME">     -0.10000000</i>
   <i name="WPLASMAI">      0.00000000</i>
   <v name="DFIELD">      0.00000000      0.00000000      0.00000000</v>
   <v name="WPLASMA">      0.00000000      0.00000000      0.00000000      0.00000000      0.00000000      0.00000000      0.00000000      0.00000000      0.00000000</v>
  </separator>
  <separator name="orbital magnetization" >
   <i type="logical" name="NUCIND"> F  </i>
   <v name="MAGPOS">      0.00000000      0.00000000      0.00000000</v>
   <i type="logical" name="LNICSALL"> T  </i>
   <i type="logical" name="ORBITALMAG"> F  </i>
   <i type="logical" name="LMAGBLOCH"> F  </i>
   <i type="logical" name="LCHIMAG"> F  </i>
   <i type="logical" name="LGAUGE"> T  </i>
   <i type="int" name="MAGATOM">     0</i>
   <v name="MAGDIPOL">      0.00000000      0.00000000      0.00000000</v>
   <v name="AVECCONST">      0.00000000      0.00000000      0.00000000</v>
  </separator>
  <separator name="response functions" >
   <i type="logical" name="LADDER"> F  </i>
   <i type="logical" name="LRPAFORCE"> F  </i>
   <i type="logical" name="LFXC"> F  </i>
   <i type="logical" name="LHARTREE"> T  </i>
   <i type="int" name="IBSE">     0</i>
   <v type="int" name="KPOINT">    -1     0     0     0</v>
   <i type="logical" name="LTCTE"> F  </i>
   <i type="logical" name="LTETE"> F  </i>
   <i type="logical" name="LTRIPLET"> F  </i>
   <i type="logical" name="LFXCEPS"> F  </i>
   <i type="logical" name="LFXHEG"> F  </i>
   <i type="int" name="NATURALO">     2</i>
   <i type="logical" name="L2ORDER"> F  </i>
   <i type="logical" name="LMP2LT"> F  </i>
   <i type="logical" name="LUSEW"> F  </i>
   <i name="ENCUTGW">     -2.00000000</i>
   <i name="ENCUTGWSOFT">     -2.00000000</i>
   <i name="ENCUTLF">     -1.00000000</i>
   <i type="int" name="LMAXMP2">    -1</i>
   <i name="SCISSOR">      0.00000000</i>
   <i type="int" name="NOMEGA">     0</i>
   <i type="int" name="NOMEGAR">     0</i>
   <i type="int" name="NBANDSGW">    -1</i>
   <i type="int" name="NBANDSO">    -1</i>
   <i type="int" name="NBANDSV">    -1</i>
   <i type="int" name="NELM">     1</i>
   <i type="int" name="NELMHF">     1</i>
   <i type="int" name="DIM">     3</i>
   <i type="int" name="ANTIRES">     0</i>
   <i name="OMEGAMAX">    -30.00000000</i>
   <i name="OMEGAMIN">    -30.00000000</i>
   <i name="OMEGATL">   -200.00000000</i>
   <i type="int" name="OMEGAGRID">   140</i>
   <i name="CSHIFT">     -0.10000000</i>
   <i type="logical" name="SELFENERGY"> F  </i>
   <i type="logical" name="LSPECTRAL"> F  </i>
   <i type="logical" name="LSPECTRALGW"> F  </i>
   <i type="logical" name="LSINGLES"> F  </i>
   <i type="logical" name="LFERMIGW"> F  </i>
   <i type="logical" name="ODDONLYGW"> F  </i>
   <i type="logical" name="EVENONLYGW"> F  </i>
   <i type="int" name="NKREDLFX">     1</i>
   <i type="int" name="NKREDLFY">     1</i>
   <i type="int" name="NKREDLFZ">     1</i>
   <i type="int" name="MAXMEM">  2800</i>
   <i type="int" name="TELESCOPE">     0</i>
   <i type="int" name="TAUPAR">     1</i>
   <i type="int" name="OMEGAPAR">    -1</i>
   <i name="LAMBDA">      1.00000000</i>
  </separator>
  <separator name="External order field" >
   <i name="OFIELD_KAPPA">      0.00000000</i>
   <v name="OFIELD_K">      0.00000000      0.00000000      0.00000000</v>
   <i name="OFIELD_Q6_NEAR">      0.00000000</i>
   <i name="OFIELD_Q6_FAR">      0.00000000</i>
   <i name="OFIELD_A">      0.00000000</i>
  </separator>
 </parameters>
 <atominfo>
  <atoms>      62 </atoms>
  <types>       5 </types>
  <array name="atoms" >
   <dimension dim="1">ion</dimension>
   <field type="string">element</field>
   <field type="int">atomtype</field>
   <set>
    <rc><c>Li</c><c>   1</c></rc>
    <rc><c>Li</c><c>   1</c></rc>
    <rc><c>Li</c><c>   1</c></rc>
    <rc><c>Li</c><c>   1</c></rc>
    <rc><c>Li</c><c>   1</c></rc>
    <rc><c>Li</c><c>   1</c></rc>
    <rc><c>Li</c><c>   1</c></rc>
    <rc><c>Li</c><c>   1</c></rc>
    <rc><c>Li</c><c>   1</c></rc>
    <rc><c>Li</c><c>   1</c></rc>
    <rc><c>Li</c><c>   1</c></rc>
    <rc><c>Li</c><c>   1</c></rc>
    <rc><c>Mg</c><c>   2</c></rc>
    <rc><c>Mg</c><c>   2</c></rc>
    <rc><c>Bi</c><c>   3</c></rc>
    <rc><c>Bi</c><c>   3</c></rc>
    <rc><c>Bi</c><c>   3</c></rc>
    <rc><c>Bi</c><c>   3</c></rc>
    <rc><c>Bi</c><c>   3</c></rc>
    <rc><c>Bi</c><c>   3</c></rc>
    <rc><c>Bi</c><c>   3</c></rc>
    <rc><c>Bi</c><c>   3</c></rc>
    <rc><c>Bi</c><c>   3</c></rc>
    <rc><c>Bi</c><c>   3</c></rc>
    <rc><c>Bi</c><c>   3</c></rc>
    <rc><c>Bi</c><c>   3</c></rc>
    <rc><c>Bi</c><c>   3</c></rc>
    <rc><c>Bi</c><c>   3</c></rc>
    <rc><c>Bi</c><c>   3</c></rc>
    <rc><c>Bi</c><c>   3</c></rc>
    <rc><c>S </c><c>   4</c></rc>
    <rc><c>S </c><c>   4</c></rc>
    <rc><c>S </c><c>   4</c></rc>
    <rc><c>S </c><c>   4</c></rc>
    <rc><c>S </c><c>   4</c></rc>
    <rc><c>S </c><c>   4</c></rc>
    <rc><c>S </c><c>   4</c></rc>
    <rc><c>S </c><c>   4</c></rc>
    <rc><c>S </c><c>   4</c></rc>
    <rc><c>S </c><c>   4</c></rc>
    <rc><c>S </c><c>   4</c></rc>
    <rc><c>S </c><c>   4</c></rc>
    <rc><c>S </c><c>   4</c></rc>
    <rc><c>S </c><c>   4</c></rc>
    <rc><c>S </c><c>   4</c></rc>
    <rc><c>S </c><c>   4</c></rc>
    <rc><c>O </c><c>   5</c></rc>
    <rc><c>O </c><c>   5</c></rc>
    <rc><c>O </c><c>   5</c></rc>
    <rc><c>O </c><c>   5</c></rc>
    <rc><c>O </c><c>   5</c></rc>
    <rc><c>O </c><c>   5</c></rc>
    <rc><c>O </c><c>   5</c></rc>
    <rc><c>O </c><c>   5</c></rc>
    <rc><c>O </c><c>   5</c></rc>
    <rc><c>O </c><c>   5</c></rc>
    <rc><c>O </c><c>   5</c></rc>
    <rc><c>O </c><c>   5</c></rc>
    <rc><c>O </c><c>   5</c></rc>
    <rc><c>O </c><c>   5</c></rc>
    <rc><c>O </c><c>   5</c></rc>
    <rc><c>O </c><c>   5</c></rc>
   </set>
  </array>
  <array name="atomtypes" >
   <dimension dim="1">type</dimension>
   <field type="int">atomspertype</field>
   <field type="string">element</field>
   <field>mass</field>
   <field>valence</field>
   <field type="string">pseudopotential</field>
   <set>
    <rc><c>  12</c><c>Li</c><c>      7.01000000</c><c>      3.00000000</c><c>  PAW_PBE Li_sv 10Sep2004               </c></rc>
    <rc><c>   2</c><c>Mg</c><c>     24.30500000</c><c>      2.00000000</c><c>  PAW_PBE Mg 13Apr2007                  </c></rc>
    <rc><c>  16</c><c>Bi</c><c>    208.98000000</c><c>     15.00000000</c><c>  PAW_PBE Bi_d 06Sep2000                </c></rc>
    <rc><c>  16</c><c>S </c><c>     32.06600000</c><c>      6.00000000</c><c>  PAW_PBE S 06Sep2000                   </c></rc>
    <rc><c>  16</c><c>O </c><c>     16.00000000</c><c>      6.00000000</c><c>  PAW_PBE O 08Apr2002                   </c></rc>
   </set>
  </array>
 </atominfo>
 <structure name="initialpos" >
  <crystal>
   <varray name="basis" >
    <v>      11.17850000       0.00000000       0.00000000 </v>
    <v>       0.00000000       9.57460000       0.00000000 </v>
    <v>       0.00000000       0.00000000      11.18240000 </v>
   </varray>
   <i name="volume">   1196.84853820 </i>
   <varray name="rec_basis" >
    <v>       0.08945744       0.00000000       0.00000000 </v>
    <v>       0.00000000       0.10444301       0.00000000 </v>
    <v>       0.00000000       0.00000000       0.08942624 </v>
   </varray>
  </crystal>
  <varray name="positions" >
   <v>       0.37539000       0.00017000       0.43687000 </v>
   <v>       0.37461000       0.00017000       0.18687000 </v>
   <v>       0.62539000       0.99984000       0.43687000 </v>
   <v>       0.87539000       0.00017000       0.43687000 </v>
   <v>       0.62461000       0.99984000       0.18687000 </v>
   <v>       0.87461000       0.00017000       0.18687000 </v>
   <v>       0.12539000       0.99984000       0.93687000 </v>
   <v>       0.12461000       0.99984000       0.68687000 </v>
   <v>       0.62539000       0.99984000       0.93687000 </v>
   <v>       0.87539000       0.00017000       0.93687000 </v>
   <v>       0.62461000       0.99984000       0.68687000 </v>
   <v>       0.87461000       0.00017000       0.68687000 </v>
   <v>       0.12461000       0.99984000       0.18687000 </v>
   <v>       0.37461000       0.00017000       0.68687000 </v>
   <v>       0.00013000       0.29519000       0.06281000 </v>
   <v>       0.25013000       0.70481000       0.06281000 </v>
   <v>       0.24987000       0.29519000       0.31282000 </v>
   <v>       0.49987000       0.70481000       0.31282000 </v>
   <v>       0.50013000       0.29519000       0.06281000 </v>
   <v>       0.75013000       0.70481000       0.06281000 </v>
   <v>       0.74987000       0.29519000       0.31282000 </v>
   <v>       0.99987000       0.70481000       0.31282000 </v>
   <v>       0.00013000       0.29519000       0.56281000 </v>
   <v>       0.25013000       0.70481000       0.56281000 </v>
   <v>       0.24987000       0.29519000       0.81282000 </v>
   <v>       0.49987000       0.70481000       0.81282000 </v>
   <v>       0.50013000       0.29519000       0.56281000 </v>
   <v>       0.75013000       0.70481000       0.56281000 </v>
   <v>       0.74987000       0.29519000       0.81282000 </v>
   <v>       0.99987000       0.70481000       0.81282000 </v>
   <v>       0.25005000       0.32677000       0.06286000 </v>
   <v>       0.00005000       0.67323000       0.06286000 </v>
   <v>       0.49995000       0.32677000       0.31286000 </v>
   <v>       0.24995000       0.67323000       0.31286000 </v>
   <v>       0.75005000       0.32677000       0.06286000 </v>
   <v>       0.50005000       0.67323000       0.06286000 </v>
   <v>       0.99995000       0.32677000       0.31286000 </v>
   <v>       0.74995000       0.67323000       0.31286000 </v>
   <v>       0.25005000       0.32677000       0.56286000 </v>
   <v>       0.00005000       0.67323000       0.56286000 </v>
   <v>       0.49995000       0.32677000       0.81286000 </v>
   <v>       0.24995000       0.67323000       0.81286000 </v>
   <v>       0.75005000       0.32677000       0.56286000 </v>
   <v>       0.50005000       0.67323000       0.56286000 </v>
   <v>       0.99995000       0.32677000       0.81286000 </v>
   <v>       0.74995000       0.67323000       0.81286000 </v>
   <v>       0.49987000       0.07798000       0.06246000 </v>
   <v>       0.24987000       0.92202000       0.06246000 </v>
   <v>       0.25013000       0.07798000       0.31246000 </v>
   <v>       0.00013000       0.92202000       0.31246000 </v>
   <v>       0.99987000       0.07798000       0.06246000 </v>
   <v>       0.74987000       0.92202000       0.06246000 </v>
   <v>       0.75013000       0.07798000       0.31246000 </v>
   <v>       0.50013000       0.92202000       0.31246000 </v>
   <v>       0.49987000       0.07798000       0.56246000 </v>
   <v>       0.24987000       0.92202000       0.56246000 </v>
   <v>       0.25013000       0.07798000       0.81246000 </v>
   <v>       0.00013000       0.92202000       0.81246000 </v>
   <v>       0.99987000       0.07798000       0.56246000 </v>
   <v>       0.74987000       0.92202000       0.56246000 </v>
   <v>       0.75013000       0.07798000       0.81246000 </v>
   <v>       0.50013000       0.92202000       0.81246000 </v>
  </varray>
 </structure>
 <calculation>
  <scstep>
   <time name="dav">   64.63   64.63</time>
   <time name="total">   64.71   64.72</time>
   <energy>
    <i name="alphaZ">   1079.87189334 </i>
    <i name="ewald"> -31109.64585882 </i>
    <i name="hartreedc"> -12715.35689470 </i>
    <i name="XCdc">   1468.88536626 </i>
    <i name="pawpsdc">  36917.91861236 </i>
    <i name="pawaedc"> -36503.41947684 </i>
    <i name="eentropy">      0.00000000 </i>
    <i name="bandstr">   1589.57020867 </i>
    <i name="atom">  45173.57650906 </i>
    <i name="e_fr_energy">   5901.40035933 </i>
    <i name="e_wo_entrp">   5901.40035933 </i>
    <i name="e_0_energy">   5901.40035933 </i>
   </energy>
  </scstep>
  <scstep>
   <time name="dav">   64.59   64.59</time>
   <time name="total">   64.60   64.60</time>
   <energy>
    <i name="e_fr_energy">    763.00219819 </i>
    <i name="e_wo_entrp">    763.00219819 </i>
    <i name="e_0_energy">    763.00219819 </i>
   </energy>
  </scstep>
  <scstep>
   <time name="dav">   71.77   71.77</time>
   <time name="total">   71.78   71.77</time>
   <energy>
    <i name="e_fr_energy">   -242.47344357 </i>
    <i name="e_wo_entrp">   -242.47344357 </i>
    <i name="e_0_energy">   -242.47344357 </i>
   </energy>
  </scstep>
  <scstep>
   <time name="dav">   79.50   79.49</time>
   <time name="total">   79.50   79.49</time>
   <energy>
    <i name="e_fr_energy">   -352.33674368 </i>
    <i name="e_wo_entrp">   -352.33674368 </i>
    <i name="e_0_energy">   -352.33674368 </i>
   </energy>
  </scstep>
  <scstep>
   <time name="dav">  103.73  103.72</time>
   <time name="total">  104.46  104.44</time>
   <energy>
    <i name="e_fr_energy">   -361.16328570 </i>
    <i name="e_wo_entrp">   -361.16328570 </i>
    <i name="e_0_energy">   -361.16328570 </i>
   </energy>
  </scstep>
  <scstep>
   <time name="dav">   91.51   91.49</time>
   <time name="total">   92.31   92.29</time>
   <energy>
    <i name="e_fr_energy">   -301.43272570 </i>
    <i name="e_wo_entrp">   -301.43272570 </i>
    <i name="e_0_energy">   -301.43272570 </i>
   </energy>
  </scstep>
  <scstep>
   <time name="dav">   71.24   71.23</time>
   <time name="total">   72.04   72.03</time>
   <energy>
    <i name="e_fr_energy">   -303.63256891 </i>
    <i name="e_wo_entrp">   -303.63256891 </i>
    <i name="e_0_energy">   -303.63256891 </i>
   </energy>
  </scstep>
  <scstep>
   <time name="dav">   82.58   82.57</time>
   <time name="total">   83.39   83.38</time>
   <energy>
    <i name="e_fr_energy">   -302.26631562 </i>
    <i name="e_wo_entrp">   -302.26631562 </i>
    <i name="e_0_energy">   -302.26631562 </i>
   </energy>
  </scstep>
  <scstep>
   <time name="dav">   93.49   93.62</time>
   <time name="total">   94.29   94.43</time>
   <energy>
    <i name="e_fr_energy">   -301.65253483 </i>
    <i name="e_wo_entrp">   -301.65253483 </i>
    <i name="e_0_energy">   -301.65253483 </i>
   </energy>
  </scstep>
  <scstep>
   <time name="dav">   77.29   77.34</time>
   <time name="total">   78.09   78.15</time>
   <energy>
    <i name="e_fr_energy">   -301.62427606 </i>
    <i name="e_wo_entrp">   -301.62427606 </i>
    <i name="e_0_energy">   -301.62427606 </i>
   </energy>
  </scstep>
  <scstep>
   <time name="dav">   84.68   84.74</time>
   <time name="total">   85.48   85.55</time>
   <energy>
    <i name="e_fr_energy">   -301.63766689 </i>
    <i name="e_wo_entrp">   -301.63766689 </i>
    <i name="e_0_energy">   -301.63766689 </i>
   </energy>
  </scstep>
  <scstep>
   <time name="dav">   81.74   81.76</time>
   <time name="total">   82.54   82.56</time>
   <energy>
    <i name="e_fr_energy">   -301.64206496 </i>
    <i name="e_wo_entrp">   -301.64206496 </i>
    <i name="e_0_energy">   -301.64206496 </i>
   </energy>
  </scstep>
  <scstep>
   <time name="dav">   80.33   80.45</time>
   <time name="total">   81.13   81.25</time>
   <energy>
    <i name="e_fr_energy">   -301.64308822 </i>
    <i name="e_wo_entrp">   -301.64308822 </i>
    <i name="e_0_energy">   -301.64308822 </i>
   </energy>
  </scstep>
  <scstep>
   <time name="dav">   80.24   80.37</time>
   <time name="total">   81.03   81.17</time>
   <energy>
    <i name="e_fr_energy">   -301.64327646 </i>
    <i name="e_wo_entrp">   -301.64327646 </i>
    <i name="e_0_energy">   -301.64327646 </i>
   </energy>
  </scstep>
  <scstep>
   <time name="dav">   90.68   90.72</time>
   <time name="total">   91.47   91.52</time>
   <energy>
    <i name="e_fr_energy">   -301.64330400 </i>
    <i name="e_wo_entrp">   -301.64330400 </i>
    <i name="e_0_energy">   -301.64330400 </i>
   </energy>
  </scstep>
  <scstep>
   <time name="dav">   71.01   71.03</time>
   <time name="total">   71.80   71.83</time>
   <energy>
    <i name="e_fr_energy">   -301.64332059 </i>
    <i name="e_wo_entrp">   -301.64332059 </i>
    <i name="e_0_energy">   -301.64332059 </i>
   </energy>
  </scstep>
  <scstep>
   <time name="dav">   71.76   71.89</time>
   <time name="total">   72.55   72.69</time>
   <energy>
    <i name="e_fr_energy">   -301.64332209 </i>
    <i name="e_wo_entrp">   -301.64332209 </i>
    <i name="e_0_energy">   -301.64332209 </i>
   </energy>
  </scstep>
  <scstep>
   <time name="dav">   55.03   55.16</time>
   <time name="total">   55.11   55.23</time>
   <energy>
    <i name="alphaZ">   1079.87189334 </i>
    <i name="ewald"> -31109.64585882 </i>
    <i name="hartreedc"> -12951.23420783 </i>
    <i name="XCdc">   1491.85493074 </i>
    <i name="pawpsdc">  43944.13170123 </i>
    <i name="pawaedc"> -43504.99559361 </i>
    <i name="eentropy">      0.00000000 </i>
    <i name="bandstr">  -4425.20269658 </i>
    <i name="atom">  45173.57650906 </i>
    <i name="e_fr_energy">   -301.64332245 </i>
    <i name="e_wo_entrp">   -301.64332245 </i>
    <i name="e_0_energy">   -301.64332245 </i>
   </energy>
  </scstep>
  <structure>
   <crystal>
    <varray name="basis" >
     <v>      11.17850000       0.00000000       0.00000000 </v>
     <v>       0.00000000       9.57460000       0.00000000 </v>
     <v>       0.00000000       0.00000000      11.18240000 </v>
    </varray>
    <i name="volume">   1196.84853820 </i>
    <varray name="rec_basis" >
     <v>       0.08945744       0.00000000       0.00000000 </v>
     <v>       0.00000000       0.10444301       0.00000000 </v>
     <v>       0.00000000       0.00000000       0.08942624 </v>
    </varray>
   </crystal>
   <varray name="positions" >
    <v>       0.37539000       0.00017000       0.43687000 </v>
    <v>       0.37461000       0.00017000       0.18687000 </v>
    <v>       0.62539000       0.99984000       0.43687000 </v>
    <v>       0.87539000       0.00017000       0.43687000 </v>
    <v>       0.62461000       0.99984000       0.18687000 </v>
    <v>       0.87461000       0.00017000       0.18687000 </v>
    <v>       0.12539000       0.99984000       0.93687000 </v>
    <v>       0.12461000       0.99984000       0.68687000 </v>
    <v>       0.62539000       0.99984000       0.93687000 </v>
    <v>       0.87539000       0.00017000       0.93687000 </v>
    <v>       0.62461000       0.99984000       0.68687000 </v>
    <v>       0.87461000       0.00017000       0.68687000 </v>
    <v>       0.12461000       0.99984000       0.18687000 </v>
    <v>       0.37461000       0.00017000       0.68687000 </v>
    <v>       0.00013000       0.29519000       0.06281000 </v>
    <v>       0.25013000       0.70481000       0.06281000 </v>
    <v>       0.24987000       0.29519000       0.31282000 </v>
    <v>       0.49987000       0.70481000       0.31282000 </v>
    <v>       0.50013000       0.29519000       0.06281000 </v>
    <v>       0.75013000       0.70481000       0.06281000 </v>
    <v>       0.74987000       0.29519000       0.31282000 </v>
    <v>       0.99987000       0.70481000       0.31282000 </v>
    <v>       0.00013000       0.29519000       0.56281000 </v>
    <v>       0.25013000       0.70481000       0.56281000 </v>
    <v>       0.24987000       0.29519000       0.81282000 </v>
    <v>       0.49987000       0.70481000       0.81282000 </v>
    <v>       0.50013000       0.29519000       0.56281000 </v>
    <v>       0.75013000       0.70481000       0.56281000 </v>
    <v>       0.74987000       0.29519000       0.81282000 </v>
    <v>       0.99987000       0.70481000       0.81282000 </v>
    <v>       0.25005000       0.32677000       0.06286000 </v>
    <v>       0.00005000       0.67323000       0.06286000 </v>
    <v>       0.49995000       0.32677000       0.31286000 </v>
    <v>       0.24995000       0.67323000       0.31286000 </v>
    <v>       0.75005000       0.32677000       0.06286000 </v>
    <v>       0.50005000       0.67323000       0.06286000 </v>
    <v>       0.99995000       0.32677000       0.31286000 </v>
    <v>       0.74995000       0.67323000       0.31286000 </v>
    <v>       0.25005000       0.32677000       0.56286000 </v>
    <v>       0.00005000       0.67323000       0.56286000 </v>
    <v>       0.49995000       0.32677000       0.81286000 </v>
    <v>       0.24995000       0.67323000       0.81286000 </v>
    <v>       0.75005000       0.32677000       0.56286000 </v>
    <v>       0.50005000       0.67323000       0.56286000 </v>
    <v>       0.99995000       0.32677000       0.81286000 </v>
    <v>       0.74995000       0.67323000       0.81286000 </v>
    <v>       0.49987000       0.07798000       0.06246000 </v>
    <v>       0.24987000       0.92202000       0.06246000 </v>
    <v>       0.25013000       0.07798000       0.31246000 </v>
    <v>       0.00013000       0.92202000       0.31246000 </v>
    <v>       0.99987000       0.07798000       0.06246000 </v>
    <v>       0.74987000       0.92202000       0.06246000 </v>
    <v>       0.75013000       0.07798000       0.31246000 </v>
    <v>       0.50013000       0.92202000       0.31246000 </v>
    <v>       0.49987000       0.07798000       0.56246000 </v>
    <v>       0.24987000       0.92202000       0.56246000 </v>
    <v>       0.25013000       0.07798000       0.81246000 </v>
    <v>       0.00013000       0.92202000       0.81246000 </v>
    <v>       0.99987000       0.07798000       0.56246000 </v>
    <v>       0.74987000       0.92202000       0.56246000 </v>
    <v>       0.75013000       0.07798000       0.81246000 </v>
    <v>       0.50013000       0.92202000       0.81246000 </v>
   </varray>
  </structure>
  <varray name="forces" >
   <v>      -0.43223708      -0.06362178      -0.39879863 </v>
   <v>       0.32068436       0.06809629      -0.32483538 </v>
   <v>       0.08547211      -0.06370493      -0.07653543 </v>
   <v>       0.41014256       0.06661111       0.08022510 </v>
   <v>      -0.14993934       0.06572205      -0.16385543 </v>
   <v>      -0.31352430      -0.06312427       0.17893595 </v>
   <v>       0.41990360      -0.06204290      -0.39977771 </v>
   <v>      -0.30423150       0.06765642      -0.32911160 </v>
   <v>      -0.42625073       0.06800473       0.08096537 </v>
   <v>      -0.10093693      -0.06442501      -0.07581653 </v>
   <v>       0.32581653      -0.06344559       0.18304921 </v>
   <v>       0.16240308       0.06431661      -0.15966788 </v>
   <v>       0.24444092      -0.10575444       0.82002302 </v>
   <v>      -0.19804606      -0.11551770       0.81660155 </v>
   <v>      -0.11532435       1.03612523      -0.09402821 </v>
   <v>       0.29309597      -0.02704886      -0.18850838 </v>
   <v>      -0.02760282      -0.04009992       0.17817293 </v>
   <v>       0.03470264      -0.02269358      -0.11641484 </v>
   <v>      -0.09091885      -1.01368324      -0.09043354 </v>
   <v>      -0.11041048      -0.00688780       0.00479060 </v>
   <v>      -0.01780303       0.00444626      -0.01444878 </v>
   <v>       0.03365145       0.03715799       0.28182957 </v>
   <v>       0.07648440      -1.00653683      -0.09020568 </v>
   <v>      -0.30206851      -0.02250721      -0.19021128 </v>
   <v>       0.04204777      -0.03002436       0.17926692 </v>
   <v>      -0.02128594       0.04761768       0.28054439 </v>
   <v>       0.10532269       1.03242707      -0.09323443 </v>
   <v>       0.09550264      -0.00684443       0.00561254 </v>
   <v>       0.02720753       0.00374805      -0.01353829 </v>
   <v>      -0.02316302      -0.02357695      -0.11712062 </v>
   <v>      -0.24376689       0.12459502       0.05523234 </v>
   <v>       0.04120487      -0.14944987       0.03236893 </v>
   <v>       0.00749979       0.19272482       0.18869370 </v>
   <v>      -0.02155925      -0.13987776      -0.05961628 </v>
   <v>       0.18626279       0.18818633      -0.00314130 </v>
   <v>       0.01839418      -0.16641025       0.02440773 </v>
   <v>       0.02376653       0.11887238      -0.24033727 </v>
   <v>      -0.00547244      -0.18374468       0.00224248 </v>
   <v>       0.24089576       0.12370083       0.05815170 </v>
   <v>      -0.02043997      -0.16622498       0.02323914 </v>
   <v>      -0.02308782       0.11954378      -0.24154987 </v>
   <v>       0.02110446      -0.13979171      -0.05779971 </v>
   <v>      -0.18531456       0.18779313      -0.00317465 </v>
   <v>      -0.04162235      -0.15115243       0.03062952 </v>
   <v>      -0.00519010       0.19200070       0.18753429 </v>
   <v>       0.00885353      -0.18394484       0.00250570 </v>
   <v>       0.61521008       0.79854259       0.61497288 </v>
   <v>      -1.19833724       0.07285752       1.04758887 </v>
   <v>       0.11455578       0.05113570      -1.10269127 </v>
   <v>      -0.14586366      -0.02110251      -1.23932683 </v>
   <v>       0.46206279      -0.77741140       0.45706895 </v>
   <v>       0.15814743       0.01653684       0.00167689 </v>
   <v>      -0.00636557      -0.02146830      -0.00379543 </v>
   <v>      -0.00003087       0.01904208       0.14785290 </v>
   <v>      -0.45682933      -0.77579080       0.45935210 </v>
   <v>       1.19877175       0.06971108       1.04594436 </v>
   <v>      -0.14166502       0.05094363      -1.09334060 </v>
   <v>      -0.00977747       0.02025850       0.14792931 </v>
   <v>      -0.60676599       0.79523859       0.61476195 </v>
   <v>      -0.14506698       0.01708185       0.00089346 </v>
   <v>      -0.00247679      -0.02070416      -0.00370044 </v>
   <v>       0.11976723      -0.02208139      -1.24804805 </v>
  </varray>
  <varray name="stress" >
   <v>      -6.91963471      -0.00048751      -0.05231749 </v>
   <v>      -0.00048734     -14.68807126       0.06795254 </v>
   <v>      -0.05231709       0.06795245     -10.49583462 </v>
  </varray>
  <energy>
   <i name="e_fr_energy">   -317.49457007 </i>
   <i name="e_wo_entrp">   -317.49457007 </i>
   <i name="e_0_energy">      0.00000000 </i>
  </energy>
  <time name="totalsc"> 1542.05 1543.03</time>
  <eigenvalues>
   <array>
    <dimension dim="1">band</dimension>
    <dimension dim="2">kpoint</dimension>
    <dimension dim="3">spin</dimension>
    <field>eigene</field>
    <field>occ</field>
    <set>
     <set comment="spin 1">
      <set comment="kpoint 1">
       <r>  -39.9859    1.0000 </r>
       <r>  -39.9834    1.0000 </r>
       <r>  -39.9562    1.0000 </r>
       <r>  -39.9540    1.0000 </r>
       <r>  -39.9413    1.0000 </r>
       <r>  -39.9386    1.0000 </r>
       <r>  -39.6292    1.0000 </r>
       <r>  -39.6269    1.0000 </r>
       <r>  -39.6165    1.0000 </r>
       <r>  -39.6143    1.0000 </r>
       <r>  -39.5800    1.0000 </r>
       <r>  -39.5780    1.0000 </r>
       <r>  -18.8214    1.0000 </r>
       <r>  -18.8193    1.0000 </r>
       <r>  -18.7578    1.0000 </r>
       <r>  -18.7547    1.0000 </r>
       <r>  -18.7516    1.0000 </r>
       <r>  -18.7467    1.0000 </r>
       <r>  -18.6583    1.0000 </r>
       <r>  -18.6478    1.0000 </r>
       <r>  -18.6455    1.0000 </r>
       <r>  -18.6439    1.0000 </r>
       <r>  -18.6402    1.0000 </r>
       <r>  -18.6387    1.0000 </r>
       <r>  -18.6350    1.0000 </r>
       <r>  -18.6338    1.0000 </r>
       <r>  -18.6337    1.0000 </r>
       <r>  -18.6320    1.0000 </r>
       <r>  -18.6275    1.0000 </r>
       <r>  -18.6222    1.0000 </r>
       <r>  -18.6206    1.0000 </r>
       <r>  -18.6177    1.0000 </r>
       <r>  -18.6174    1.0000 </r>
       <r>  -18.6165    1.0000 </r>
       <r>  -18.6157    1.0000 </r>
       <r>  -18.6136    1.0000 </r>
       <r>  -18.6126    1.0000 </r>
       <r>  -18.6113    1.0000 </r>
       <r>  -18.6103    1.0000 </r>
       <r>  -18.6102    1.0000 </r>
       <r>  -18.6097    1.0000 </r>
       <r>  -18.6086    1.0000 </r>
       <r>  -18.6053    1.0000 </r>
       <r>  -18.6049    1.0000 </r>
       <r>  -18.6021    1.0000 </r>
       <r>  -18.6000    1.0000 </r>
       <r>  -18.5999    1.0000 </r>
       <r>  -18.5988    1.0000 </r>
       <r>  -18.5987    1.0000 </r>
       <r>  -18.5986    1.0000 </r>
       <r>  -18.5952    1.0000 </r>
       <r>  -18.5924    1.0000 </r>
       <r>  -18.5904    1.0000 </r>
       <r>  -18.5893    1.0000 </r>
       <r>  -18.5883    1.0000 </r>
       <r>  -18.5875    1.0000 </r>
       <r>  -18.5874    1.0000 </r>
       <r>  -18.5803    1.0000 </r>
       <r>  -18.4778    1.0000 </r>
       <r>  -18.4766    1.0000 </r>
       <r>  -18.4759    1.0000 </r>
       <r>  -18.4747    1.0000 </r>
       <r>  -18.4662    1.0000 </r>
       <r>  -18.4631    1.0000 </r>
       <r>  -18.4584    1.0000 </r>
       <r>  -18.4583    1.0000 </r>
       <r>  -18.4560    1.0000 </r>
       <r>  -18.4554    1.0000 </r>
       <r>  -18.4549    1.0000 </r>
       <r>  -18.4547    1.0000 </r>
       <r>  -18.4546    1.0000 </r>
       <r>  -18.4527    1.0000 </r>
       <r>  -18.4503    1.0000 </r>
       <r>  -18.4498    1.0000 </r>
       <r>  -18.4493    1.0000 </r>
       <r>  -18.4476    1.0000 </r>
       <r>  -18.4438    1.0000 </r>
       <r>  -18.4435    1.0000 </r>
       <r>  -18.4430    1.0000 </r>
       <r>  -18.4427    1.0000 </r>
       <r>  -18.4411    1.0000 </r>
       <r>  -18.4386    1.0000 </r>
       <r>  -18.4350    1.0000 </r>
       <r>  -18.4314    1.0000 </r>
       <r>  -18.4226    1.0000 </r>
       <r>  -18.4177    1.0000 </r>
       <r>  -18.3479    1.0000 </r>
       <r>  -18.3443    1.0000 </r>
       <r>  -18.2290    1.0000 </r>
       <r>  -18.2256    1.0000 </r>
       <r>  -18.2203    1.0000 </r>
       <r>  -18.2170    1.0000 </r>
       <r>  -13.3901    1.0000 </r>
       <r>  -13.3833    1.0000 </r>
       <r>  -12.8368    1.0000 </r>
       <r>  -12.7579    1.0000 </r>
       <r>  -12.7314    1.0000 </r>
       <r>  -12.7212    1.0000 </r>
       <r>  -12.6596    1.0000 </r>
       <r>  -12.6526    1.0000 </r>
       <r>  -12.6385    1.0000 </r>
       <r>  -12.6342    1.0000 </r>
       <r>  -12.6316    1.0000 </r>
       <r>  -12.6009    1.0000 </r>
       <r>  -12.5797    1.0000 </r>
       <r>  -12.5730    1.0000 </r>
       <r>  -11.9949    1.0000 </r>
       <r>  -11.9881    1.0000 </r>
       <r>   -9.2831    1.0000 </r>
       <r>   -8.9873    1.0000 </r>
       <r>   -8.5185    1.0000 </r>
       <r>   -8.4545    1.0000 </r>
       <r>   -8.4535    1.0000 </r>
       <r>   -8.3914    1.0000 </r>
       <r>   -8.2929    1.0000 </r>
       <r>   -8.2278    1.0000 </r>
       <r>   -8.2269    1.0000 </r>
       <r>   -8.1642    1.0000 </r>
       <r>   -8.0041    1.0000 </r>
       <r>   -8.0018    1.0000 </r>
       <r>   -7.9901    1.0000 </r>
       <r>   -7.9895    1.0000 </r>
       <r>   -7.3329    1.0000 </r>
       <r>   -7.3249    1.0000 </r>
       <r>   -6.3354    1.0000 </r>
       <r>   -6.3233    1.0000 </r>
       <r>   -6.3142    1.0000 </r>
       <r>   -6.3028    1.0000 </r>
       <r>   -5.4356    1.0000 </r>
       <r>   -5.4304    1.0000 </r>
       <r>   -5.3827    1.0000 </r>
       <r>   -5.3115    1.0000 </r>
       <r>   -5.3049    1.0000 </r>
       <r>   -5.2477    1.0000 </r>
       <r>   -5.2110    1.0000 </r>
       <r>   -5.1408    1.0000 </r>
       <r>   -5.1335    1.0000 </r>
       <r>   -4.9903    1.0000 </r>
       <r>   -3.7842    1.0000 </r>
       <r>   -3.6289    1.0000 </r>
       <r>   -1.3290    1.0000 </r>
       <r>   -1.3285    1.0000 </r>
       <r>   -1.0133    1.0000 </r>
       <r>   -1.0125    1.0000 </r>
       <r>   -0.5045    1.0000 </r>
       <r>   -0.4716    1.0000 </r>
       <r>   -0.4470    1.0000 </r>
       <r>   -0.4024    1.0000 </r>
       <r>   -0.1535    1.0000 </r>
       <r>   -0.1336    1.0000 </r>
       <r>   -0.1326    1.0000 </r>
       <r>   -0.0905    1.0000 </r>
       <r>    0.2345    1.0000 </r>
       <r>    0.2456    1.0000 </r>
       <r>    0.4668    1.0000 </r>
       <r>    0.4697    1.0000 </r>
       <r>    0.5867    1.0000 </r>
       <r>    0.6389    1.0000 </r>
       <r>    0.6723    1.0000 </r>
       <r>    0.7444    1.0000 </r>
       <r>    0.7691    1.0000 </r>
       <r>    0.7712    1.0000 </r>
       <r>    0.7751    1.0000 </r>
       <r>    0.8121    1.0000 </r>
       <r>    0.8191    1.0000 </r>
       <r>    0.8416    1.0000 </r>
       <r>    0.9966    1.0000 </r>
       <r>    1.0013    1.0000 </r>
       <r>    1.0406    1.0000 </r>
       <r>    1.0482    1.0000 </r>
       <r>    1.1951    1.0000 </r>
       <r>    1.2185    1.0000 </r>
       <r>    1.2339    1.0000 </r>
       <r>    1.2559    1.0000 </r>
       <r>    1.2738    1.0000 </r>
       <r>    1.2952    1.0000 </r>
       <r>    1.3459    1.0000 </r>
       <r>    1.3604    1.0000 </r>
       <r>    1.4828    1.0000 </r>
       <r>    1.5859    1.0000 </r>
       <r>    1.6113    1.0000 </r>
       <r>    1.6155    1.0000 </r>
       <r>    1.6349    1.0000 </r>
       <r>    1.6487    1.0000 </r>
       <r>    1.6721    1.0000 </r>
       <r>    1.7235    1.0000 </r>
       <r>    1.7930    1.0000 </r>
       <r>    1.8224    1.0000 </r>
       <r>    1.8764    1.0000 </r>
       <r>    1.9540    1.0000 </r>
       <r>    1.9862    1.0000 </r>
       <r>    2.0109    1.0000 </r>
       <r>    2.0573    1.0000 </r>
       <r>    2.1046    1.0000 </r>
       <r>    2.2278    1.0000 </r>
       <r>    2.2421    1.0000 </r>
       <r>    2.3233    1.0000 </r>
       <r>    2.5250    1.0000 </r>
       <r>    2.5482    1.0000 </r>
       <r>    2.5775    1.0000 </r>
       <r>    2.6093    1.0000 </r>
       <r>    2.6160    1.0000 </r>
       <r>    2.6182    1.0000 </r>
       <r>    2.6252    1.0000 </r>
       <r>    2.6582    1.0000 </r>
       <r>    2.6669    1.0000 </r>
       <r>    2.7140    1.0000 </r>
       <r>    2.7430    1.0000 </r>
       <r>    2.7485    1.0000 </r>
       <r>    2.7968    1.0000 </r>
       <r>    2.8299    1.0000 </r>
       <r>    2.8808    1.0000 </r>
       <r>    2.9125    1.0000 </r>
       <r>    2.9142    1.0000 </r>
       <r>    2.9407    1.0000 </r>
       <r>    2.9457    1.0000 </r>
       <r>    2.9881    1.0000 </r>
       <r>    2.9982    1.0000 </r>
       <r>    3.0672    1.0000 </r>
       <r>    3.0901    1.0000 </r>
       <r>    3.0924    1.0000 </r>
       <r>    3.1002    1.0000 </r>
       <r>    3.1547    1.0000 </r>
       <r>    3.2022    1.0000 </r>
       <r>    3.2170    1.0000 </r>
       <r>    3.2470    1.0000 </r>
       <r>    3.2617    1.0000 </r>
       <r>    3.2911    1.0000 </r>
       <r>    3.3738    1.0000 </r>
       <r>    3.4907    1.0000 </r>
       <r>    3.5108    1.0000 </r>
       <r>    3.5250    1.0000 </r>
       <r>    4.2189    1.0000 </r>
       <r>    4.2220    1.0000 </r>
       <r>    4.2333    1.0000 </r>
       <r>    4.2472    1.0000 </r>
       <r>    5.1381    0.0000 </r>
       <r>    5.1389    0.0000 </r>
       <r>    5.1585    0.0000 </r>
       <r>    5.1594    0.0000 </r>
       <r>    5.8113    0.0000 </r>
       <r>    5.8119    0.0000 </r>
       <r>    5.8311    0.0000 </r>
       <r>    5.8322    0.0000 </r>
       <r>    6.1124    0.0000 </r>
       <r>    6.1397    0.0000 </r>
       <r>    6.1434    0.0000 </r>
       <r>    6.1656    0.0000 </r>
       <r>    6.2513    0.0000 </r>
       <r>    6.2711    0.0000 </r>
       <r>    6.2733    0.0000 </r>
       <r>    6.2915    0.0000 </r>
       <r>    7.2367    0.0000 </r>
       <r>    7.2722    0.0000 </r>
       <r>    7.3139    0.0000 </r>
       <r>    7.3240    0.0000 </r>
       <r>    7.7282    0.0000 </r>
       <r>    7.9517    0.0000 </r>
       <r>    7.9566    0.0000 </r>
       <r>    7.9828    0.0000 </r>
       <r>    8.0460    0.0000 </r>
       <r>    8.0926    0.0000 </r>
       <r>    8.1352    0.0000 </r>
       <r>    8.3524    0.0000 </r>
       <r>    8.5342    0.0000 </r>
       <r>    8.5894    0.0000 </r>
       <r>    8.7076    0.0000 </r>
       <r>    8.7465    0.0000 </r>
       <r>    8.7934    0.0000 </r>
       <r>    8.9982    0.0000 </r>
       <r>    9.0241    0.0000 </r>
       <r>    9.0549    0.0000 </r>
       <r>    9.0694    0.0000 </r>
       <r>    9.0728    0.0000 </r>
       <r>    9.0821    0.0000 </r>
       <r>    9.1505    0.0000 </r>
       <r>    9.1542    0.0000 </r>
       <r>    9.2074    0.0000 </r>
       <r>    9.2194    0.0000 </r>
       <r>    9.2748    0.0000 </r>
       <r>    9.5280    0.0000 </r>
       <r>    9.5333    0.0000 </r>
       <r>    9.5418    0.0000 </r>
       <r>    9.6580    0.0000 </r>
       <r>    9.6778    0.0000 </r>
       <r>    9.6885    0.0000 </r>
       <r>    9.6975    0.0000 </r>
       <r>    9.8492    0.0000 </r>
       <r>   10.1707    0.0000 </r>
       <r>   10.2614    0.0000 </r>
       <r>   10.2857    0.0000 </r>
       <r>   10.2999    0.0000 </r>
       <r>   10.5126    0.0000 </r>
       <r>   10.5750    0.0000 </r>
       <r>   10.6145    0.0000 </r>
       <r>   10.6192    0.0000 </r>
       <r>   10.7111    0.0000 </r>
       <r>   10.8608    0.0000 </r>
       <r>   11.1234    0.0000 </r>
       <r>   11.3069    0.0000 </r>
       <r>   11.4179    0.0000 </r>
       <r>   11.4892    0.0000 </r>
       <r>   11.6024    0.0000 </r>
       <r>   11.6051    0.0000 </r>
       <r>   11.6826    0.0000 </r>
       <r>   11.8004    0.0000 </r>
       <r>   11.9423    0.0000 </r>
       <r>   11.9581    0.0000 </r>
      </set>
      <set comment="kpoint 2">
       <r>  -39.9859    1.0000 </r>
       <r>  -39.9834    1.0000 </r>
       <r>  -39.9562    1.0000 </r>
       <r>  -39.9540    1.0000 </r>
       <r>  -39.9413    1.0000 </r>
       <r>  -39.9386    1.0000 </r>
       <r>  -39.6292    1.0000 </r>
       <r>  -39.6269    1.0000 </r>
       <r>  -39.6165    1.0000 </r>
       <r>  -39.6143    1.0000 </r>
       <r>  -39.5800    1.0000 </r>
       <r>  -39.5780    1.0000 </r>
       <r>  -18.8212    1.0000 </r>
       <r>  -18.8195    1.0000 </r>
       <r>  -18.7568    1.0000 </r>
       <r>  -18.7555    1.0000 </r>
       <r>  -18.7498    1.0000 </r>
       <r>  -18.7485    1.0000 </r>
       <r>  -18.6519    1.0000 </r>
       <r>  -18.6455    1.0000 </r>
       <r>  -18.6439    1.0000 </r>
       <r>  -18.6427    1.0000 </r>
       <r>  -18.6423    1.0000 </r>
       <r>  -18.6402    1.0000 </r>
       <r>  -18.6387    1.0000 </r>
       <r>  -18.6342    1.0000 </r>
       <r>  -18.6335    1.0000 </r>
       <r>  -18.6325    1.0000 </r>
       <r>  -18.6320    1.0000 </r>
       <r>  -18.6306    1.0000 </r>
       <r>  -18.6210    1.0000 </r>
       <r>  -18.6202    1.0000 </r>
       <r>  -18.6197    1.0000 </r>
       <r>  -18.6178    1.0000 </r>
       <r>  -18.6176    1.0000 </r>
       <r>  -18.6134    1.0000 </r>
       <r>  -18.6128    1.0000 </r>
       <r>  -18.6102    1.0000 </r>
       <r>  -18.6089    1.0000 </r>
       <r>  -18.6085    1.0000 </r>
       <r>  -18.6063    1.0000 </r>
       <r>  -18.6029    1.0000 </r>
       <r>  -18.6021    1.0000 </r>
       <r>  -18.6020    1.0000 </r>
       <r>  -18.6002    1.0000 </r>
       <r>  -18.5996    1.0000 </r>
       <r>  -18.5986    1.0000 </r>
       <r>  -18.5981    1.0000 </r>
       <r>  -18.5956    1.0000 </r>
       <r>  -18.5951    1.0000 </r>
       <r>  -18.5942    1.0000 </r>
       <r>  -18.5928    1.0000 </r>
       <r>  -18.5922    1.0000 </r>
       <r>  -18.5900    1.0000 </r>
       <r>  -18.5898    1.0000 </r>
       <r>  -18.5895    1.0000 </r>
       <r>  -18.5879    1.0000 </r>
       <r>  -18.5870    1.0000 </r>
       <r>  -18.4777    1.0000 </r>
       <r>  -18.4765    1.0000 </r>
       <r>  -18.4758    1.0000 </r>
       <r>  -18.4746    1.0000 </r>
       <r>  -18.4664    1.0000 </r>
       <r>  -18.4634    1.0000 </r>
       <r>  -18.4589    1.0000 </r>
       <r>  -18.4587    1.0000 </r>
       <r>  -18.4556    1.0000 </r>
       <r>  -18.4553    1.0000 </r>
       <r>  -18.4546    1.0000 </r>
       <r>  -18.4539    1.0000 </r>
       <r>  -18.4538    1.0000 </r>
       <r>  -18.4527    1.0000 </r>
       <r>  -18.4505    1.0000 </r>
       <r>  -18.4502    1.0000 </r>
       <r>  -18.4496    1.0000 </r>
       <r>  -18.4477    1.0000 </r>
       <r>  -18.4438    1.0000 </r>
       <r>  -18.4435    1.0000 </r>
       <r>  -18.4430    1.0000 </r>
       <r>  -18.4427    1.0000 </r>
       <r>  -18.4411    1.0000 </r>
       <r>  -18.4387    1.0000 </r>
       <r>  -18.4346    1.0000 </r>
       <r>  -18.4318    1.0000 </r>
       <r>  -18.4216    1.0000 </r>
       <r>  -18.4187    1.0000 </r>
       <r>  -18.3478    1.0000 </r>
       <r>  -18.3444    1.0000 </r>
       <r>  -18.2290    1.0000 </r>
       <r>  -18.2256    1.0000 </r>
       <r>  -18.2203    1.0000 </r>
       <r>  -18.2170    1.0000 </r>
       <r>  -13.3889    1.0000 </r>
       <r>  -13.3843    1.0000 </r>
       <r>  -12.8308    1.0000 </r>
       <r>  -12.7557    1.0000 </r>
       <r>  -12.7493    1.0000 </r>
       <r>  -12.7050    1.0000 </r>
       <r>  -12.6910    1.0000 </r>
       <r>  -12.6480    1.0000 </r>
       <r>  -12.6323    1.0000 </r>
       <r>  -12.6260    1.0000 </r>
       <r>  -12.6169    1.0000 </r>
       <r>  -12.6013    1.0000 </r>
       <r>  -12.5876    1.0000 </r>
       <r>  -12.5737    1.0000 </r>
       <r>  -11.9949    1.0000 </r>
       <r>  -11.9881    1.0000 </r>
       <r>   -9.0764    1.0000 </r>
       <r>   -9.0668    1.0000 </r>
       <r>   -8.7994    1.0000 </r>
       <r>   -8.7908    1.0000 </r>
       <r>   -8.2988    1.0000 </r>
       <r>   -8.2877    1.0000 </r>
       <r>   -8.2867    1.0000 </r>
       <r>   -8.2857    1.0000 </r>
       <r>   -8.1095    1.0000 </r>
       <r>   -8.0997    1.0000 </r>
       <r>   -8.0989    1.0000 </r>
       <r>   -8.0983    1.0000 </r>
       <r>   -7.6666    1.0000 </r>
       <r>   -7.6617    1.0000 </r>
       <r>   -7.5536    1.0000 </r>
       <r>   -7.5488    1.0000 </r>
       <r>   -5.9070    1.0000 </r>
       <r>   -5.9013    1.0000 </r>
       <r>   -5.8568    1.0000 </r>
       <r>   -5.8533    1.0000 </r>
       <r>   -5.7674    1.0000 </r>
       <r>   -5.7487    1.0000 </r>
       <r>   -5.7069    1.0000 </r>
       <r>   -5.7013    1.0000 </r>
       <r>   -5.6194    1.0000 </r>
       <r>   -5.6112    1.0000 </r>
       <r>   -5.4851    1.0000 </r>
       <r>   -5.4825    1.0000 </r>
       <r>   -4.4044    1.0000 </r>
       <r>   -4.3946    1.0000 </r>
       <r>   -4.2367    1.0000 </r>
       <r>   -4.2217    1.0000 </r>
       <r>   -1.1048    1.0000 </r>
       <r>   -1.0769    1.0000 </r>
       <r>   -0.7749    1.0000 </r>
       <r>   -0.7685    1.0000 </r>
       <r>   -0.3237    1.0000 </r>
       <r>   -0.2387    1.0000 </r>
       <r>    0.0451    1.0000 </r>
       <r>    0.1219    1.0000 </r>
       <r>    0.1459    1.0000 </r>
       <r>    0.2032    1.0000 </r>
       <r>    0.2473    1.0000 </r>
       <r>    0.2821    1.0000 </r>
       <r>    0.3127    1.0000 </r>
       <r>    0.3227    1.0000 </r>
       <r>    0.3513    1.0000 </r>
       <r>    0.3533    1.0000 </r>
       <r>    0.5090    1.0000 </r>
       <r>    0.5478    1.0000 </r>
       <r>    0.6062    1.0000 </r>
       <r>    0.6223    1.0000 </r>
       <r>    0.6250    1.0000 </r>
       <r>    0.6410    1.0000 </r>
       <r>    0.6424    1.0000 </r>
       <r>    0.6740    1.0000 </r>
       <r>    0.7845    1.0000 </r>
       <r>    0.9308    1.0000 </r>
       <r>    1.0390    1.0000 </r>
       <r>    1.0392    1.0000 </r>
       <r>    1.0761    1.0000 </r>
       <r>    1.1281    1.0000 </r>
       <r>    1.1515    1.0000 </r>
       <r>    1.1725    1.0000 </r>
       <r>    1.2316    1.0000 </r>
       <r>    1.2557    1.0000 </r>
       <r>    1.2686    1.0000 </r>
       <r>    1.3190    1.0000 </r>
       <r>    1.3791    1.0000 </r>
       <r>    1.3839    1.0000 </r>
       <r>    1.4375    1.0000 </r>
       <r>    1.4921    1.0000 </r>
       <r>    1.5361    1.0000 </r>
       <r>    1.5733    1.0000 </r>
       <r>    1.6151    1.0000 </r>
       <r>    1.6362    1.0000 </r>
       <r>    1.6911    1.0000 </r>
       <r>    1.7231    1.0000 </r>
       <r>    1.7542    1.0000 </r>
       <r>    1.8004    1.0000 </r>
       <r>    1.8681    1.0000 </r>
       <r>    1.8946    1.0000 </r>
       <r>    1.8986    1.0000 </r>
       <r>    1.9389    1.0000 </r>
       <r>    1.9739    1.0000 </r>
       <r>    2.0215    1.0000 </r>
       <r>    2.0722    1.0000 </r>
       <r>    2.1170    1.0000 </r>
       <r>    2.1436    1.0000 </r>
       <r>    2.1638    1.0000 </r>
       <r>    2.2335    1.0000 </r>
       <r>    2.2684    1.0000 </r>
       <r>    2.3202    1.0000 </r>
       <r>    2.3709    1.0000 </r>
       <r>    2.4439    1.0000 </r>
       <r>    2.4558    1.0000 </r>
       <r>    2.5201    1.0000 </r>
       <r>    2.5215    1.0000 </r>
       <r>    2.5844    1.0000 </r>
       <r>    2.6516    1.0000 </r>
       <r>    2.6554    1.0000 </r>
       <r>    2.6864    1.0000 </r>
       <r>    2.7107    1.0000 </r>
       <r>    2.7330    1.0000 </r>
       <r>    2.8093    1.0000 </r>
       <r>    2.8809    1.0000 </r>
       <r>    2.8907    1.0000 </r>
       <r>    2.9060    1.0000 </r>
       <r>    2.9095    1.0000 </r>
       <r>    2.9409    1.0000 </r>
       <r>    2.9521    1.0000 </r>
       <r>    2.9751    1.0000 </r>
       <r>    3.0282    1.0000 </r>
       <r>    3.0323    1.0000 </r>
       <r>    3.0972    1.0000 </r>
       <r>    3.1345    1.0000 </r>
       <r>    3.1754    1.0000 </r>
       <r>    3.1859    1.0000 </r>
       <r>    3.2980    1.0000 </r>
       <r>    3.3445    1.0000 </r>
       <r>    3.5320    1.0000 </r>
       <r>    3.5413    1.0000 </r>
       <r>    3.5446    1.0000 </r>
       <r>    3.5719    1.0000 </r>
       <r>    3.5838    1.0000 </r>
       <r>    3.5959    1.0000 </r>
       <r>    3.6202    1.0000 </r>
       <r>    3.6563    1.0000 </r>
       <r>    5.7079    0.0000 </r>
       <r>    5.7152    0.0000 </r>
       <r>    5.7191    0.0000 </r>
       <r>    5.7205    0.0000 </r>
       <r>    5.7954    0.0000 </r>
       <r>    5.8042    0.0000 </r>
       <r>    5.8182    0.0000 </r>
       <r>    5.8244    0.0000 </r>
       <r>    7.3291    0.0000 </r>
       <r>    7.3312    0.0000 </r>
       <r>    7.3615    0.0000 </r>
       <r>    7.3954    0.0000 </r>
       <r>    7.4537    0.0000 </r>
       <r>    7.4565    0.0000 </r>
       <r>    7.4863    0.0000 </r>
       <r>    7.5049    0.0000 </r>
       <r>    7.5158    0.0000 </r>
       <r>    7.5185    0.0000 </r>
       <r>    7.5329    0.0000 </r>
       <r>    7.5506    0.0000 </r>
       <r>    7.8554    0.0000 </r>
       <r>    7.8812    0.0000 </r>
       <r>    7.8922    0.0000 </r>
       <r>    7.8956    0.0000 </r>
       <r>    7.8990    0.0000 </r>
       <r>    7.9316    0.0000 </r>
       <r>    7.9777    0.0000 </r>
       <r>    7.9923    0.0000 </r>
       <r>    8.0136    0.0000 </r>
       <r>    8.0344    0.0000 </r>
       <r>    8.1275    0.0000 </r>
       <r>    8.1595    0.0000 </r>
       <r>    8.3386    0.0000 </r>
       <r>    8.3687    0.0000 </r>
       <r>    8.4922    0.0000 </r>
       <r>    8.6129    0.0000 </r>
       <r>    8.6978    0.0000 </r>
       <r>    8.7025    0.0000 </r>
       <r>    8.7948    0.0000 </r>
       <r>    8.7975    0.0000 </r>
       <r>    8.8501    0.0000 </r>
       <r>    8.8510    0.0000 </r>
       <r>    8.9483    0.0000 </r>
       <r>    8.9503    0.0000 </r>
       <r>    9.2037    0.0000 </r>
       <r>    9.2615    0.0000 </r>
       <r>    9.4789    0.0000 </r>
       <r>    9.5118    0.0000 </r>
       <r>    9.5870    0.0000 </r>
       <r>    9.6862    0.0000 </r>
       <r>   10.2917    0.0000 </r>
       <r>   10.2969    0.0000 </r>
       <r>   10.3070    0.0000 </r>
       <r>   10.5427    0.0000 </r>
       <r>   10.5477    0.0000 </r>
       <r>   10.7750    0.0000 </r>
       <r>   10.7868    0.0000 </r>
       <r>   10.8194    0.0000 </r>
       <r>   10.8485    0.0000 </r>
       <r>   10.8537    0.0000 </r>
       <r>   10.9089    0.0000 </r>
       <r>   10.9277    0.0000 </r>
       <r>   10.9616    0.0000 </r>
       <r>   11.0127    0.0000 </r>
       <r>   11.2308    0.0000 </r>
       <r>   11.2544    0.0000 </r>
       <r>   11.3323    0.0000 </r>
       <r>   11.3502    0.0000 </r>
       <r>   11.4345    0.0000 </r>
       <r>   11.4713    0.0000 </r>
       <r>   11.5691    0.0000 </r>
       <r>   11.6505    0.0000 </r>
      </set>
      <set comment="kpoint 3">
       <r>  -39.9859    1.0000 </r>
       <r>  -39.9834    1.0000 </r>
       <r>  -39.9562    1.0000 </r>
       <r>  -39.9540    1.0000 </r>
       <r>  -39.9413    1.0000 </r>
       <r>  -39.9386    1.0000 </r>
       <r>  -39.6292    1.0000 </r>
       <r>  -39.6269    1.0000 </r>
       <r>  -39.6165    1.0000 </r>
       <r>  -39.6143    1.0000 </r>
       <r>  -39.5800    1.0000 </r>
       <r>  -39.5780    1.0000 </r>
       <r>  -18.8214    1.0000 </r>
       <r>  -18.8193    1.0000 </r>
       <r>  -18.7578    1.0000 </r>
       <r>  -18.7547    1.0000 </r>
       <r>  -18.7516    1.0000 </r>
       <r>  -18.7467    1.0000 </r>
       <r>  -18.6583    1.0000 </r>
       <r>  -18.6478    1.0000 </r>
       <r>  -18.6455    1.0000 </r>
       <r>  -18.6440    1.0000 </r>
       <r>  -18.6402    1.0000 </r>
       <r>  -18.6387    1.0000 </r>
       <r>  -18.6350    1.0000 </r>
       <r>  -18.6338    1.0000 </r>
       <r>  -18.6337    1.0000 </r>
       <r>  -18.6320    1.0000 </r>
       <r>  -18.6274    1.0000 </r>
       <r>  -18.6222    1.0000 </r>
       <r>  -18.6206    1.0000 </r>
       <r>  -18.6177    1.0000 </r>
       <r>  -18.6174    1.0000 </r>
       <r>  -18.6165    1.0000 </r>
       <r>  -18.6157    1.0000 </r>
       <r>  -18.6136    1.0000 </r>
       <r>  -18.6126    1.0000 </r>
       <r>  -18.6113    1.0000 </r>
       <r>  -18.6102    1.0000 </r>
       <r>  -18.6102    1.0000 </r>
       <r>  -18.6097    1.0000 </r>
       <r>  -18.6086    1.0000 </r>
       <r>  -18.6053    1.0000 </r>
       <r>  -18.6049    1.0000 </r>
       <r>  -18.6021    1.0000 </r>
       <r>  -18.6000    1.0000 </r>
       <r>  -18.5999    1.0000 </r>
       <r>  -18.5988    1.0000 </r>
       <r>  -18.5987    1.0000 </r>
       <r>  -18.5986    1.0000 </r>
       <r>  -18.5952    1.0000 </r>
       <r>  -18.5924    1.0000 </r>
       <r>  -18.5904    1.0000 </r>
       <r>  -18.5893    1.0000 </r>
       <r>  -18.5883    1.0000 </r>
       <r>  -18.5875    1.0000 </r>
       <r>  -18.5874    1.0000 </r>
       <r>  -18.5803    1.0000 </r>
       <r>  -18.4778    1.0000 </r>
       <r>  -18.4766    1.0000 </r>
       <r>  -18.4759    1.0000 </r>
       <r>  -18.4747    1.0000 </r>
       <r>  -18.4662    1.0000 </r>
       <r>  -18.4631    1.0000 </r>
       <r>  -18.4584    1.0000 </r>
       <r>  -18.4583    1.0000 </r>
       <r>  -18.4560    1.0000 </r>
       <r>  -18.4554    1.0000 </r>
       <r>  -18.4549    1.0000 </r>
       <r>  -18.4547    1.0000 </r>
       <r>  -18.4546    1.0000 </r>
       <r>  -18.4527    1.0000 </r>
       <r>  -18.4503    1.0000 </r>
       <r>  -18.4498    1.0000 </r>
       <r>  -18.4493    1.0000 </r>
       <r>  -18.4476    1.0000 </r>
       <r>  -18.4438    1.0000 </r>
       <r>  -18.4435    1.0000 </r>
       <r>  -18.4430    1.0000 </r>
       <r>  -18.4427    1.0000 </r>
       <r>  -18.4411    1.0000 </r>
       <r>  -18.4386    1.0000 </r>
       <r>  -18.4350    1.0000 </r>
       <r>  -18.4314    1.0000 </r>
       <r>  -18.4226    1.0000 </r>
       <r>  -18.4177    1.0000 </r>
       <r>  -18.3479    1.0000 </r>
       <r>  -18.3443    1.0000 </r>
       <r>  -18.2290    1.0000 </r>
       <r>  -18.2256    1.0000 </r>
       <r>  -18.2203    1.0000 </r>
       <r>  -18.2170    1.0000 </r>
       <r>  -13.3899    1.0000 </r>
       <r>  -13.3833    1.0000 </r>
       <r>  -12.8355    1.0000 </r>
       <r>  -12.7576    1.0000 </r>
       <r>  -12.7304    1.0000 </r>
       <r>  -12.7209    1.0000 </r>
       <r>  -12.6595    1.0000 </r>
       <r>  -12.6526    1.0000 </r>
       <r>  -12.6387    1.0000 </r>
       <r>  -12.6346    1.0000 </r>
       <r>  -12.6315    1.0000 </r>
       <r>  -12.6021    1.0000 </r>
       <r>  -12.5804    1.0000 </r>
       <r>  -12.5744    1.0000 </r>
       <r>  -11.9953    1.0000 </r>
       <r>  -11.9885    1.0000 </r>
       <r>   -9.2734    1.0000 </r>
       <r>   -8.9941    1.0000 </r>
       <r>   -8.5373    1.0000 </r>
       <r>   -8.4727    1.0000 </r>
       <r>   -8.4718    1.0000 </r>
       <r>   -8.4089    1.0000 </r>
       <r>   -8.2713    1.0000 </r>
       <r>   -8.2070    1.0000 </r>
       <r>   -8.2060    1.0000 </r>
       <r>   -8.1442    1.0000 </r>
       <r>   -8.0081    1.0000 </r>
       <r>   -8.0057    1.0000 </r>
       <r>   -7.9941    1.0000 </r>
       <r>   -7.9934    1.0000 </r>
       <r>   -7.3357    1.0000 </r>
       <r>   -7.3278    1.0000 </r>
       <r>   -6.3258    1.0000 </r>
       <r>   -6.3140    1.0000 </r>
       <r>   -6.3040    1.0000 </r>
       <r>   -6.2927    1.0000 </r>
       <r>   -5.4772    1.0000 </r>
       <r>   -5.4220    1.0000 </r>
       <r>   -5.3743    1.0000 </r>
       <r>   -5.3580    1.0000 </r>
       <r>   -5.3508    1.0000 </r>
       <r>   -5.2784    1.0000 </r>
       <r>   -5.1594    1.0000 </r>
       <r>   -5.0847    1.0000 </r>
       <r>   -5.0782    1.0000 </r>
       <r>   -4.9509    1.0000 </r>
       <r>   -3.8559    1.0000 </r>
       <r>   -3.5458    1.0000 </r>
       <r>   -1.2767    1.0000 </r>
       <r>   -1.2761    1.0000 </r>
       <r>   -1.0841    1.0000 </r>
       <r>   -1.0837    1.0000 </r>
       <r>   -0.3979    1.0000 </r>
       <r>   -0.3788    1.0000 </r>
       <r>   -0.3777    1.0000 </r>
       <r>   -0.3434    1.0000 </r>
       <r>   -0.3062    1.0000 </r>
       <r>   -0.2728    1.0000 </r>
       <r>   -0.2281    1.0000 </r>
       <r>   -0.1713    1.0000 </r>
       <r>    0.0440    1.0000 </r>
       <r>    0.0582    1.0000 </r>
       <r>    0.2436    1.0000 </r>
       <r>    0.2722    1.0000 </r>
       <r>    0.3399    1.0000 </r>
       <r>    0.3448    1.0000 </r>
       <r>    0.4234    1.0000 </r>
       <r>    0.4746    1.0000 </r>
       <r>    0.4848    1.0000 </r>
       <r>    0.6765    1.0000 </r>
       <r>    0.7791    1.0000 </r>
       <r>    0.7901    1.0000 </r>
       <r>    0.8262    1.0000 </r>
       <r>    0.8269    1.0000 </r>
       <r>    0.8413    1.0000 </r>
       <r>    0.9166    1.0000 </r>
       <r>    1.1819    1.0000 </r>
       <r>    1.2354    1.0000 </r>
       <r>    1.2419    1.0000 </r>
       <r>    1.2881    1.0000 </r>
       <r>    1.2906    1.0000 </r>
       <r>    1.4009    1.0000 </r>
       <r>    1.4505    1.0000 </r>
       <r>    1.4522    1.0000 </r>
       <r>    1.5715    1.0000 </r>
       <r>    1.6363    1.0000 </r>
       <r>    1.6430    1.0000 </r>
       <r>    1.7289    1.0000 </r>
       <r>    1.7691    1.0000 </r>
       <r>    1.7996    1.0000 </r>
       <r>    1.8213    1.0000 </r>
       <r>    1.8321    1.0000 </r>
       <r>    1.8455    1.0000 </r>
       <r>    1.8481    1.0000 </r>
       <r>    1.8859    1.0000 </r>
       <r>    1.8966    1.0000 </r>
       <r>    1.9556    1.0000 </r>
       <r>    1.9740    1.0000 </r>
       <r>    2.0227    1.0000 </r>
       <r>    2.0444    1.0000 </r>
       <r>    2.0911    1.0000 </r>
       <r>    2.1513    1.0000 </r>
       <r>    2.2617    1.0000 </r>
       <r>    2.2745    1.0000 </r>
       <r>    2.5350    1.0000 </r>
       <r>    2.5372    1.0000 </r>
       <r>    2.5586    1.0000 </r>
       <r>    2.5754    1.0000 </r>
       <r>    2.5902    1.0000 </r>
       <r>    2.6053    1.0000 </r>
       <r>    2.6066    1.0000 </r>
       <r>    2.6176    1.0000 </r>
       <r>    2.6184    1.0000 </r>
       <r>    2.6576    1.0000 </r>
       <r>    2.6983    1.0000 </r>
       <r>    2.7029    1.0000 </r>
       <r>    2.7809    1.0000 </r>
       <r>    2.8008    1.0000 </r>
       <r>    2.8280    1.0000 </r>
       <r>    2.8480    1.0000 </r>
       <r>    2.8569    1.0000 </r>
       <r>    2.8654    1.0000 </r>
       <r>    2.8806    1.0000 </r>
       <r>    2.9100    1.0000 </r>
       <r>    2.9686    1.0000 </r>
       <r>    2.9871    1.0000 </r>
       <r>    3.0109    1.0000 </r>
       <r>    3.0202    1.0000 </r>
       <r>    3.0455    1.0000 </r>
       <r>    3.0673    1.0000 </r>
       <r>    3.1843    1.0000 </r>
       <r>    3.2032    1.0000 </r>
       <r>    3.3312    1.0000 </r>
       <r>    3.3918    1.0000 </r>
       <r>    3.4241    1.0000 </r>
       <r>    3.4274    1.0000 </r>
       <r>    3.4422    1.0000 </r>
       <r>    3.5173    1.0000 </r>
       <r>    3.5239    1.0000 </r>
       <r>    3.6187    1.0000 </r>
       <r>    4.2669    1.0000 </r>
       <r>    4.2707    1.0000 </r>
       <r>    4.2821    1.0000 </r>
       <r>    4.2993    1.0000 </r>
       <r>    5.2049    0.0000 </r>
       <r>    5.2060    0.0000 </r>
       <r>    5.2253    0.0000 </r>
       <r>    5.2256    0.0000 </r>
       <r>    5.8183    0.0000 </r>
       <r>    5.8190    0.0000 </r>
       <r>    5.8388    0.0000 </r>
       <r>    5.8395    0.0000 </r>
       <r>    6.1763    0.0000 </r>
       <r>    6.1967    0.0000 </r>
       <r>    6.2009    0.0000 </r>
       <r>    6.2154    0.0000 </r>
       <r>    6.2572    0.0000 </r>
       <r>    6.2790    0.0000 </r>
       <r>    6.2817    0.0000 </r>
       <r>    6.3051    0.0000 </r>
       <r>    6.9269    0.0000 </r>
       <r>    6.9547    0.0000 </r>
       <r>    7.0792    0.0000 </r>
       <r>    7.0965    0.0000 </r>
       <r>    7.2037    0.0000 </r>
       <r>    7.4300    0.0000 </r>
       <r>    7.4626    0.0000 </r>
       <r>    7.6293    0.0000 </r>
       <r>    7.7537    0.0000 </r>
       <r>    7.8768    0.0000 </r>
       <r>    7.9642    0.0000 </r>
       <r>    7.9686    0.0000 </r>
       <r>    8.1272    0.0000 </r>
       <r>    8.2640    0.0000 </r>
       <r>    8.3172    0.0000 </r>
       <r>    8.5129    0.0000 </r>
       <r>    8.7361    0.0000 </r>
       <r>    8.9254    0.0000 </r>
       <r>    8.9386    0.0000 </r>
       <r>    9.0317    0.0000 </r>
       <r>    9.0358    0.0000 </r>
       <r>    9.0781    0.0000 </r>
       <r>    9.1084    0.0000 </r>
       <r>    9.1128    0.0000 </r>
       <r>    9.1589    0.0000 </r>
       <r>    9.1622    0.0000 </r>
       <r>    9.1707    0.0000 </r>
       <r>    9.2386    0.0000 </r>
       <r>    9.4941    0.0000 </r>
       <r>    9.5033    0.0000 </r>
       <r>    9.7312    0.0000 </r>
       <r>    9.7401    0.0000 </r>
       <r>    9.8055    0.0000 </r>
       <r>    9.8132    0.0000 </r>
[...]
       <r>   11.3392    0.0000 </r>
       <r>   11.3397    0.0000 </r>
       <r>   11.4953    0.0000 </r>
       <r>   11.4967    0.0000 </r>
      </set>
     </set>
    </set>
   </array>
  </eigenvalues>
  <separator name="orbital magnetization" >
   <v name="MAGDIPOLOUT">      0.00000000      0.00000000      0.00000000</v>
  </separator>
  <dos>
   <i name="efermi">      4.46210034 </i>
   <total>
    <array>
     <dimension dim="1">gridpoints</dimension>
     <dimension dim="2">spin</dimension>
     <field>energy</field>
     <field>total</field>
     <field>integrated</field>
     <set>
      <set comment="spin 1">
       <r>   -42.6042     0.0000     0.0000 </r>
       <r>   -42.4122     0.0000     0.0000 </r>
       <r>   -42.2202     0.0000     0.0000 </r>
       <r>   -42.0282     0.0000     0.0000 </r>
       <r>   -41.8362     0.0000     0.0000 </r>
       <r>   -41.6442     0.0000     0.0000 </r>
       <r>   -41.4522     0.0000     0.0000 </r>
       <r>   -41.2602     0.0000     0.0000 </r>
       <r>   -41.0682     0.0000     0.0000 </r>
       <r>   -40.8762     0.0000     0.0000 </r>
       <r>   -40.6841     0.0000     0.0000 </r>
       <r>   -40.4921     0.0000     0.0000 </r>
       <r>   -40.3001     0.0000     0.0000 </r>
       <r>   -40.1081     0.0000     0.0000 </r>
       <r>   -39.9161     0.0000    12.0000 </r>
       <r>   -39.7241     0.0000    12.0000 </r>
       <r>   -39.5321     0.0000    24.0000 </r>
       <r>   -39.3401     0.0000    24.0000 </r>
       <r>   -39.1481     0.0000    24.0000 </r>
       <r>   -38.9561     0.0000    24.0000 </r>
       <r>   -38.7640     0.0000    24.0000 </r>
       <r>   -38.5720     0.0000    24.0000 </r>
       <r>   -38.3800     0.0000    24.0000 </r>
       <r>   -38.1880     0.0000    24.0000 </r>
       <r>   -37.9960     0.0000    24.0000 </r>
       <r>   -37.8040     0.0000    24.0000 </r>
       <r>   -37.6120     0.0000    24.0000 </r>
       <r>   -37.4200     0.0000    24.0000 </r>
       <r>   -37.2280     0.0000    24.0000 </r>
       <r>   -37.0360     0.0000    24.0000 </r>
       <r>   -36.8440     0.0000    24.0000 </r>
       <r>   -36.6519     0.0000    24.0000 </r>
       <r>   -36.4599     0.0000    24.0000 </r>
       <r>   -36.2679     0.0000    24.0000 </r>
       <r>   -36.0759     0.0000    24.0000 </r>
       <r>   -35.8839     0.0000    24.0000 </r>
       <r>   -35.6919     0.0000    24.0000 </r>
       <r>   -35.4999     0.0000    24.0000 </r>
       <r>   -35.3079     0.0000    24.0000 </r>
       <r>   -35.1159     0.0000    24.0000 </r>
       <r>   -34.9239     0.0000    24.0000 </r>
       <r>   -34.7318     0.0000    24.0000 </r>
       <r>   -34.5398     0.0000    24.0000 </r>
       <r>   -34.3478     0.0000    24.0000 </r>
       <r>   -34.1558     0.0000    24.0000 </r>
       <r>   -33.9638     0.0000    24.0000 </r>
       <r>   -33.7718     0.0000    24.0000 </r>
       <r>   -33.5798     0.0000    24.0000 </r>
       <r>   -33.3878     0.0000    24.0000 </r>
       <r>   -33.1958     0.0000    24.0000 </r>
       <r>   -33.0038     0.0000    24.0000 </r>
       <r>   -32.8118     0.0000    24.0000 </r>
       <r>   -32.6197     0.0000    24.0000 </r>
       <r>   -32.4277     0.0000    24.0000 </r>
       <r>   -32.2357     0.0000    24.0000 </r>
       <r>   -32.0437     0.0000    24.0000 </r>
       <r>   -31.8517     0.0000    24.0000 </r>
       <r>   -31.6597     0.0000    24.0000 </r>
       <r>   -31.4677     0.0000    24.0000 </r>
       <r>   -31.2757     0.0000    24.0000 </r>
       <r>   -31.0837     0.0000    24.0000 </r>
       <r>   -30.8917     0.0000    24.0000 </r>
       <r>   -30.6996     0.0000    24.0000 </r>
       <r>   -30.5076     0.0000    24.0000 </r>
       <r>   -30.3156     0.0000    24.0000 </r>
       <r>   -30.1236     0.0000    24.0000 </r>
       <r>   -29.9316     0.0000    24.0000 </r>
       <r>   -29.7396     0.0000    24.0000 </r>
       <r>   -29.5476     0.0000    24.0000 </r>
       <r>   -29.3556     0.0000    24.0000 </r>
       <r>   -29.1636     0.0000    24.0000 </r>
       <r>   -28.9716     0.0000    24.0000 </r>
       <r>   -28.7796     0.0000    24.0000 </r>
       <r>   -28.5875     0.0000    24.0000 </r>
       <r>   -28.3955     0.0000    24.0000 </r>
       <r>   -28.2035     0.0000    24.0000 </r>
       <r>   -28.0115     0.0000    24.0000 </r>
       <r>   -27.8195     0.0000    24.0000 </r>
       <r>   -27.6275     0.0000    24.0000 </r>
       <r>   -27.4355     0.0000    24.0000 </r>
       <r>   -27.2435     0.0000    24.0000 </r>
       <r>   -27.0515     0.0000    24.0000 </r>
       <r>   -26.8595     0.0000    24.0000 </r>
       <r>   -26.6674     0.0000    24.0000 </r>
       <r>   -26.4754     0.0000    24.0000 </r>
       <r>   -26.2834     0.0000    24.0000 </r>
       <r>   -26.0914     0.0000    24.0000 </r>
       <r>   -25.8994     0.0000    24.0000 </r>
       <r>   -25.7074     0.0000    24.0000 </r>
       <r>   -25.5154     0.0000    24.0000 </r>
       <r>   -25.3234     0.0000    24.0000 </r>
       <r>   -25.1314     0.0000    24.0000 </r>
       <r>   -24.9394     0.0000    24.0000 </r>
       <r>   -24.7474     0.0000    24.0000 </r>
       <r>   -24.5553     0.0000    24.0000 </r>
       <r>   -24.3633     0.0000    24.0000 </r>
       <r>   -24.1713     0.0000    24.0000 </r>
       <r>   -23.9793     0.0000    24.0000 </r>
       <r>   -23.7873     0.0000    24.0000 </r>
       <r>   -23.5953     0.0000    24.0000 </r>
       <r>   -23.4033     0.0000    24.0000 </r>
       <r>   -23.2113     0.0000    24.0000 </r>
       <r>   -23.0193     0.0000    24.0000 </r>
       <r>   -22.8273     0.0000    24.0000 </r>
       <r>   -22.6352     0.0000    24.0000 </r>
       <r>   -22.4432     0.0000    24.0000 </r>
       <r>   -22.2512     0.0000    24.0000 </r>
       <r>   -22.0592     0.0000    24.0000 </r>
       <r>   -21.8672     0.0000    24.0000 </r>
       <r>   -21.6752     0.0000    24.0000 </r>
       <r>   -21.4832     0.0000    24.0000 </r>
       <r>   -21.2912     0.0000    24.0000 </r>
       <r>   -21.0992     0.0000    24.0000 </r>
       <r>   -20.9072     0.0000    24.0000 </r>
       <r>   -20.7152     0.0000    24.0000 </r>
       <r>   -20.5231     0.0000    24.0000 </r>
       <r>   -20.3311     0.0000    24.0000 </r>
       <r>   -20.1391     0.0000    24.0000 </r>
       <r>   -19.9471     0.0000    24.0000 </r>
       <r>   -19.7551     0.0000    24.0000 </r>
       <r>   -19.5631     0.0000    24.0000 </r>
       <r>   -19.3711     0.0000    24.0000 </r>
       <r>   -19.1791     0.0000    24.0000 </r>
       <r>   -18.9871     0.0000    24.0000 </r>
       <r>   -18.7951     0.0000    28.0000 </r>
       <r>   -18.6030  1440.5189    86.7646 </r>
       <r>   -18.4110     0.0000   172.0000 </r>
       <r>   -18.2190     0.0000   182.0000 </r>
       <r>   -18.0270     0.0000   184.0000 </r>
       <r>   -17.8350     0.0000   184.0000 </r>
       <r>   -17.6430     0.0000   184.0000 </r>
       <r>   -17.4510     0.0000   184.0000 </r>
       <r>   -17.2590     0.0000   184.0000 </r>
       <r>   -17.0670     0.0000   184.0000 </r>
       <r>   -16.8750     0.0000   184.0000 </r>
       <r>   -16.6830     0.0000   184.0000 </r>
       <r>   -16.4909     0.0000   184.0000 </r>
       <r>   -16.2989     0.0000   184.0000 </r>
       <r>   -16.1069     0.0000   184.0000 </r>
       <r>   -15.9149     0.0000   184.0000 </r>
       <r>   -15.7229     0.0000   184.0000 </r>
       <r>   -15.5309     0.0000   184.0000 </r>
       <r>   -15.3389     0.0000   184.0000 </r>
       <r>   -15.1469     0.0000   184.0000 </r>
       <r>   -14.9549     0.0000   184.0000 </r>
       <r>   -14.7629     0.0000   184.0000 </r>
       <r>   -14.5708     0.0000   184.0000 </r>
       <r>   -14.3788     0.0000   184.0000 </r>
       <r>   -14.1868     0.0000   184.0000 </r>
       <r>   -13.9948     0.0000   184.0000 </r>
       <r>   -13.8028     0.0000   184.0000 </r>
       <r>   -13.6108     0.0000   184.0000 </r>
       <r>   -13.4188     0.0000   184.0000 </r>
       <r>   -13.2268     0.0000   188.0000 </r>
       <r>   -13.0348     0.0000   188.0000 </r>
       <r>   -12.8428     0.0000   188.0000 </r>
       <r>   -12.6507   110.6671   199.8447 </r>
       <r>   -12.4587     0.0000   212.0000 </r>
       <r>   -12.2667     0.0000   212.0000 </r>
       <r>   -12.0747     0.0000   212.0000 </r>
       <r>   -11.8827     0.0000   216.0000 </r>
       <r>   -11.6907     0.0000   216.0000 </r>
       <r>   -11.4987     0.0000   216.0000 </r>
       <r>   -11.3067     0.0000   216.0000 </r>
       <r>   -11.1147     0.0000   216.0000 </r>
       <r>   -10.9227     0.0000   216.0000 </r>
       <r>   -10.7307     0.0000   216.0000 </r>
       <r>   -10.5386     0.0000   216.0000 </r>
       <r>   -10.3466     0.0000   216.0000 </r>
       <r>   -10.1546     0.0000   216.0000 </r>
       <r>    -9.9626     0.0000   216.0000 </r>
       <r>    -9.7706     0.0000   216.0000 </r>
       <r>    -9.5786     0.0000   216.0000 </r>
       <r>    -9.3866     0.0000   216.0000 </r>
       <r>    -9.1946     4.2265   216.1770 </r>
       <r>    -9.0026    22.1528   218.8450 </r>
       <r>    -8.8106    34.6524   220.3983 </r>
       <r>    -8.6185     8.9170   223.5447 </r>
       <r>    -8.4265    25.6398   226.4130 </r>
       <r>    -8.2345     3.8590   231.9630 </r>
       <r>    -8.0425    33.6295   235.2165 </r>
       <r>    -7.8505    20.2826   239.7734 </r>
       <r>    -7.6585     1.0602   244.0024 </r>
       <r>    -7.4665    13.4916   247.0812 </r>
       <r>    -7.2745     0.0000   248.0000 </r>
       <r>    -7.0825     0.0000   248.0000 </r>
       <r>    -6.8905     0.0000   248.0000 </r>
       <r>    -6.6985     0.0000   248.0000 </r>
       <r>    -6.5064     0.0000   248.0000 </r>
       <r>    -6.3144     0.4889   248.0035 </r>
       <r>    -6.1224    16.7207   249.6176 </r>
       <r>    -5.9304    34.9185   254.4889 </r>
       <r>    -5.7384    29.7218   258.3829 </r>
       <r>    -5.5464    23.6425   263.5781 </r>
       <r>    -5.3544    19.8692   267.7103 </r>
       <r>    -5.1624    12.6485   270.9872 </r>
       <r>    -4.9704     1.9659   272.1248 </r>
       <r>    -4.7784     7.7986   273.2156 </r>
       <r>    -4.5863    10.1630   274.8981 </r>
       <r>    -4.3943     4.7639   276.8262 </r>
       <r>    -4.2023     7.4245   277.9953 </r>
       <r>    -4.0103     4.8587   279.2569 </r>
       <r>    -3.8183     1.4094   279.8464 </r>
       <r>    -3.6263     0.2204   279.9941 </r>
       <r>    -3.4343     0.0000   280.0000 </r>
       <r>    -3.2423     0.0000   280.0000 </r>
       <r>    -3.0503     0.0000   280.0000 </r>
       <r>    -2.8583     0.0000   280.0000 </r>
       <r>    -2.6663     0.0000   280.0000 </r>
       <r>    -2.4742     0.0000   280.0000 </r>
       <r>    -2.2822     0.0000   280.0000 </r>
       <r>    -2.0902     0.0000   280.0000 </r>
       <r>    -1.8982     0.0000   280.0000 </r>
       <r>    -1.7062     0.0000   280.0000 </r>
       <r>    -1.5142     0.0000   280.0000 </r>
       <r>    -1.3222     0.0214   280.0000 </r>
       <r>    -1.1302     8.8305   280.7684 </r>
       <r>    -0.9382    11.6417   282.5828 </r>
       <r>    -0.7462    10.3478   285.1012 </r>
       <r>    -0.5541     6.6952   286.7376 </r>
       <r>    -0.3621    11.7666   288.0398 </r>
       <r>    -0.1701    28.4382   292.1944 </r>
       <r>     0.0219    39.9513   298.7225 </r>
       <r>     0.2139    35.5153   305.6971 </r>
       <r>     0.4059    41.2062   313.2882 </r>
       <r>     0.5979    37.6421   320.6264 </r>
       <r>     0.7899    13.4036   327.4648 </r>
       <r>     0.9819    24.7283   333.1034 </r>
       <r>     1.1739    57.7964   341.3067 </r>
       <r>     1.3659    50.4303   350.9451 </r>
       <r>     1.5580    45.2955   360.0681 </r>
       <r>     1.7500    58.7072   370.4605 </r>
       <r>     1.9420    59.2522   381.4349 </r>
       <r>     2.1340    48.4018   390.0645 </r>
       <r>     2.3260    32.6076   396.6751 </r>
       <r>     2.5180    67.9064   406.2003 </r>
       <r>     2.7100    67.9267   419.2119 </r>
       <r>     2.9020    57.8531   431.0550 </r>
       <r>     3.0940    50.4502   446.5230 </r>
       <r>     3.2860    34.4972   454.4234 </r>
       <r>     3.4781    35.0404   460.5842 </r>
       <r>     3.6701    14.6018   467.7168 </r>
       <r>     3.8621     9.8189   470.0613 </r>
       <r>     4.0541     5.0343   471.4873 </r>
       <r>     4.2461     0.3364   471.9952 </r>
       <r>     4.4381     0.0000   472.0000 </r>
       <r>     4.6301     0.0000   472.0000 </r>
       <r>     4.8221     0.0000   472.0000 </r>
       <r>     5.0141     0.0000   472.0000 </r>
       <r>     5.2061     0.5156   472.0105 </r>
       <r>     5.3981     4.3871   472.4785 </r>
       <r>     5.5902     8.2920   473.6957 </r>
       <r>     5.7822     7.1850   475.4869 </r>
       <r>     5.9742    13.8935   479.9858 </r>
       <r>     6.1662    11.6545   482.4306 </r>
       <r>     6.3582    12.0841   484.6589 </r>
       <r>     6.5502    13.6518   487.1299 </r>
       <r>     6.7422    15.2021   489.9003 </r>
       <r>     6.9342    16.8480   492.9700 </r>
       <r>     7.1262    21.3520   496.5219 </r>
       <r>     7.3182    38.1923   501.8998 </r>
       <r>     7.5103    39.0496   510.8100 </r>
       <r>     7.7023    31.8892   516.0155 </r>
       <r>     7.8943    39.8030   523.9035 </r>
       <r>     8.0863    32.7363   532.3967 </r>
       <r>     8.2783    19.0712   537.0119 </r>
       <r>     8.4703    19.8133   540.5229 </r>
       <r>     8.6623    27.0221   545.0494 </r>
       <r>     8.8543    51.3179   550.6715 </r>
       <r>     9.0463    30.0062   559.1272 </r>
       <r>     9.2383    14.7656   563.1871 </r>
       <r>     9.4303    10.4248   565.5812 </r>
       <r>     9.6224    15.0079   567.7559 </r>
       <r>     9.8144    16.5945   571.2176 </r>
       <r>    10.0064     4.2234   572.3843 </r>
       <r>    10.1984    16.0396   574.0502 </r>
       <r>    10.3904    19.3065   577.8863 </r>
       <r>    10.5824    21.3523   582.7703 </r>
       <r>    10.7744    51.3604   589.8467 </r>
       <r>    10.9664    23.6973   597.0552 </r>
       <r>    11.1584    18.4381   601.1912 </r>
       <r>    11.3504    22.8504   605.4315 </r>
       <r>    11.5425    20.2887   609.6336 </r>
       <r>    11.7345    12.5702   612.7453 </r>
       <r>    11.9265     7.6858   614.6854 </r>
       <r>    12.1185     3.1806   615.7132 </r>
       <r>    12.3105     0.2027   615.9956 </r>
       <r>    12.5025     0.0000   616.0000 </r>
       <r>    12.6945     0.0000   616.0000 </r>
       <r>    12.8865     0.0000   616.0000 </r>
       <r>    13.0785     0.0000   616.0000 </r>
       <r>    13.2705     0.0000   616.0000 </r>
       <r>    13.4625     0.0000   616.0000 </r>
       <r>    13.6546     0.0000   616.0000 </r>
       <r>    13.8466     0.0000   616.0000 </r>
       <r>    14.0386     0.0000   616.0000 </r>
       <r>    14.2306     0.0000   616.0000 </r>
       <r>    14.4226     0.0000   616.0000 </r>
       <r>    14.6146     0.0000   616.0000 </r>
       <r>    14.8066     0.0000   616.0000 </r>
       <r>    14.9986     0.0000   616.0000 </r>
      </set>
     </set>
    </array>
   </total>
  </dos>
 </calculation>
 <structure name="finalpos" >
  <crystal>
   <varray name="basis" >
    <v>      11.17850000       0.00000000       0.00000000 </v>
    <v>       0.00000000       9.57460000       0.00000000 </v>
    <v>       0.00000000       0.00000000      11.18240000 </v>
   </varray>
   <i name="volume">   1196.84853820 </i>
   <varray name="rec_basis" >
    <v>       0.08945744       0.00000000       0.00000000 </v>
    <v>       0.00000000       0.10444301       0.00000000 </v>
    <v>       0.00000000       0.00000000       0.08942624 </v>
   </varray>
  </crystal>
  <varray name="positions" >
   <v>       0.37539000       0.00017000       0.43687000 </v>
   <v>       0.37461000       0.00017000       0.18687000 </v>
   <v>       0.62539000       0.99984000       0.43687000 </v>
   <v>       0.87539000       0.00017000       0.43687000 </v>
   <v>       0.62461000       0.99984000       0.18687000 </v>
   <v>       0.87461000       0.00017000       0.18687000 </v>
   <v>       0.12539000       0.99984000       0.93687000 </v>
   <v>       0.12461000       0.99984000       0.68687000 </v>
   <v>       0.62539000       0.99984000       0.93687000 </v>
   <v>       0.87539000       0.00017000       0.93687000 </v>
   <v>       0.62461000       0.99984000       0.68687000 </v>
   <v>       0.87461000       0.00017000       0.68687000 </v>
   <v>       0.12461000       0.99984000       0.18687000 </v>
   <v>       0.37461000       0.00017000       0.68687000 </v>
   <v>       0.00013000       0.29519000       0.06281000 </v>
   <v>       0.25013000       0.70481000       0.06281000 </v>
   <v>       0.24987000       0.29519000       0.31282000 </v>
   <v>       0.49987000       0.70481000       0.31282000 </v>
   <v>       0.50013000       0.29519000       0.06281000 </v>
   <v>       0.75013000       0.70481000       0.06281000 </v>
   <v>       0.74987000       0.29519000       0.31282000 </v>
   <v>       0.99987000       0.70481000       0.31282000 </v>
   <v>       0.00013000       0.29519000       0.56281000 </v>
   <v>       0.25013000       0.70481000       0.56281000 </v>
   <v>       0.24987000       0.29519000       0.81282000 </v>
   <v>       0.49987000       0.70481000       0.81282000 </v>
   <v>       0.50013000       0.29519000       0.56281000 </v>
   <v>       0.75013000       0.70481000       0.56281000 </v>
   <v>       0.74987000       0.29519000       0.81282000 </v>
   <v>       0.99987000       0.70481000       0.81282000 </v>
   <v>       0.25005000       0.32677000       0.06286000 </v>
   <v>       0.00005000       0.67323000       0.06286000 </v>
   <v>       0.49995000       0.32677000       0.31286000 </v>
   <v>       0.24995000       0.67323000       0.31286000 </v>
   <v>       0.75005000       0.32677000       0.06286000 </v>
   <v>       0.50005000       0.67323000       0.06286000 </v>
   <v>       0.99995000       0.32677000       0.31286000 </v>
   <v>       0.74995000       0.67323000       0.31286000 </v>
   <v>       0.25005000       0.32677000       0.56286000 </v>
   <v>       0.00005000       0.67323000       0.56286000 </v>
   <v>       0.49995000       0.32677000       0.81286000 </v>
   <v>       0.24995000       0.67323000       0.81286000 </v>
   <v>       0.75005000       0.32677000       0.56286000 </v>
   <v>       0.50005000       0.67323000       0.56286000 </v>
   <v>       0.99995000       0.32677000       0.81286000 </v>
   <v>       0.74995000       0.67323000       0.81286000 </v>
   <v>       0.49987000       0.07798000       0.06246000 </v>
   <v>       0.24987000       0.92202000       0.06246000 </v>
   <v>       0.25013000       0.07798000       0.31246000 </v>
   <v>       0.00013000       0.92202000       0.31246000 </v>
   <v>       0.99987000       0.07798000       0.06246000 </v>
   <v>       0.74987000       0.92202000       0.06246000 </v>
   <v>       0.75013000       0.07798000       0.31246000 </v>
   <v>       0.50013000       0.92202000       0.31246000 </v>
   <v>       0.49987000       0.07798000       0.56246000 </v>
   <v>       0.24987000       0.92202000       0.56246000 </v>
   <v>       0.25013000       0.07798000       0.81246000 </v>
   <v>       0.00013000       0.92202000       0.81246000 </v>
   <v>       0.99987000       0.07798000       0.56246000 </v>
   <v>       0.74987000       0.92202000       0.56246000 </v>
   <v>       0.75013000       0.07798000       0.81246000 </v>
   <v>       0.50013000       0.92202000       0.81246000 </v>
  </varray>
 </structure>
</modeling>
