<?xml version="1.0" encoding="ISO-8859-1"?>
<modeling>
 <generator>
  <i name="program" type="string">vasp </i>
  <i name="version" type="string">5.3.3  </i>
  <i name="subversion" type="string">18Dez12 (build Nov 19 2020 19:34:37) complex                          parallel </i>
  <i name="platform" type="string">LinuxIFC </i>
  <i name="date" type="string">2021 10 01 </i>
  <i name="time" type="string">13:08:41 </i>
 </generator>
 <incar>
  <i type="string" name="SYSTEM"> La2O2S</i>
  <i type="string" name="PREC">normal</i>
  <i type="int" name="NELMIN">     4</i>
  <i type="int" name="IBRION">     2</i>
  <i type="int" name="NFREE">    10</i>
  <i name="EDIFF">      0.00000100</i>
  <i name="EDIFFG">     -0.01000000</i>
  <i type="int" name="NSW">    10</i>
  <i type="int" name="ISIF">     2</i>
  <i name="ENCUT">    600.00000000</i>
  <i name="ENAUG">    900.00000000</i>
  <i type="int" name="ISMEAR">    -5</i>
  <i type="logical" name="LWAVE"> F  </i>
  <i type="logical" name="LCHARG"> F  </i>
 </incar>
 <kpoints>
  <generation param="Gamma">
   <v type="int" name="divisions">       2        2        2 </v>
   <v name="usershift">      0.00000000       0.00000000       0.00000000 </v>
   <v name="genvec1">      0.50000000       0.00000000       0.00000000 </v>
   <v name="genvec2">      0.00000000       0.50000000       0.00000000 </v>
   <v name="genvec3">      0.00000000       0.00000000       0.50000000 </v>
   <v name="shift">      0.00000000       0.00000000       0.00000000 </v>
  </generation>
  <varray name="kpointlist" >
   <v>       0.00000000       0.00000000       0.00000000 </v>
   <v>       0.50000000       0.00000000       0.00000000 </v>
   <v>       0.00000000       0.50000000       0.00000000 </v>
   <v>       0.50000000       0.50000000       0.00000000 </v>
   <v>       0.00000000       0.00000000       0.50000000 </v>
   <v>       0.50000000       0.00000000       0.50000000 </v>
   <v>       0.00000000       0.50000000       0.50000000 </v>
   <v>       0.50000000       0.50000000       0.50000000 </v>
  </varray>
  <varray name="weights" >
   <v>       0.12500000 </v>
   <v>       0.12500000 </v>
   <v>       0.12500000 </v>
   <v>       0.12500000 </v>
   <v>       0.12500000 </v>
   <v>       0.12500000 </v>
   <v>       0.12500000 </v>
   <v>       0.12500000 </v>
  </varray>
  <varray name="tetrahedronlist"  type="int" >
   <v type="int" >        2        1        2        4        5 </v>
   <v type="int" >        2        1        3        4        5 </v>
   <v type="int" >        2        3        4        5        7 </v>
   <v type="int" >        2        2        4        5        6 </v>
   <v type="int" >        2        4        5        6        8 </v>
   <v type="int" >        2        4        5        7        8 </v>
   <v type="int" >        2        1        2        3        6 </v>
   <v type="int" >        2        2        3        4        6 </v>
   <v type="int" >        2        3        4        6        8 </v>
   <v type="int" >        2        1        3        5        6 </v>
   <v type="int" >        2        3        5        6        7 </v>
   <v type="int" >        2        3        6        7        8 </v>
   <v type="int" >        2        2        3        4        7 </v>
   <v type="int" >        2        1        2        3        7 </v>
   <v type="int" >        2        1        2        5        7 </v>
   <v type="int" >        2        2        4        7        8 </v>
   <v type="int" >        2        2        6        7        8 </v>
   <v type="int" >        2        2        5        6        7 </v>
   <v type="int" >        2        1        3        4        8 </v>
   <v type="int" >        2        1        2        4        8 </v>
   <v type="int" >        2        1        2        6        8 </v>
   <v type="int" >        2        1        3        7        8 </v>
   <v type="int" >        2        1        5        7        8 </v>
   <v type="int" >        2        1        5        6        8 </v>
  </varray>
  <i name="volumeweight">      0.02083333 </i>
 </kpoints>
 <parameters>
  <separator name="general" >
   <i type="string" name="SYSTEM">La2O2S</i>
   <i type="logical" name="LCOMPAT"> F  </i>
  </separator>
  <separator name="electronic" >
   <i type="string" name="PREC">normal</i>
   <i name="ENMAX">    600.00000000</i>
   <i name="ENAUG">    900.00000000</i>
   <i name="EDIFF">      0.00000100</i>
   <i type="int" name="IALGO">    38</i>
   <i type="int" name="IWAVPR">    11</i>
   <i type="int" name="NBANDS">   280</i>
   <i name="NELECT">    456.00000000</i>
   <i type="int" name="TURBO">     0</i>
   <i type="int" name="IRESTART">     0</i>
   <i type="int" name="NREBOOT">     0</i>
   <i type="int" name="NMIN">     0</i>
   <i name="EREF">      0.00000000</i>
   <separator name="electronic smearing" >
    <i type="int" name="ISMEAR">    -5</i>
    <i name="SIGMA">      0.20000000</i>
    <i name="KSPACING">      0.50000000</i>
    <i type="logical" name="KGAMMA"> T  </i>
   </separator>
   <separator name="electronic projectors" >
    <i type="logical" name="LREAL"> F  </i>
    <v name="ROPT">      0.00000000      0.00000000      0.00000000      0.00000000      0.00000000</v>
    <i type="int" name="LMAXPAW">  -100</i>
    <i type="int" name="LMAXMIX">     2</i>
    <i type="logical" name="NLSPLINE"> F  </i>
   </separator>
   <separator name="electronic startup" >
    <i type="int" name="ISTART">     0</i>
    <i type="int" name="ICHARG">     2</i>
    <i type="int" name="INIWAV">     1</i>
   </separator>
   <separator name="electronic spin" >
    <i type="int" name="ISPIN">     1</i>
    <i type="logical" name="LNONCOLLINEAR"> F  </i>
    <v name="MAGMOM">      1.00000000      1.00000000      1.00000000      1.00000000      1.00000000      1.00000000      1.00000000      1.00000000      1.00000000      1.00000000      1.00000000      1.00000000      1.00000000      1.00000000      1.00000000      1.00000000      1.00000000      1.00000000      1.00000000      1.00000000
      1.00000000      1.00000000      1.00000000      1.00000000      1.00000000      1.00000000      1.00000000      1.00000000      1.00000000      1.00000000      1.00000000      1.00000000      1.00000000      1.00000000      1.00000000      1.00000000      1.00000000      1.00000000      1.00000000      1.00000000
      1.00000000      1.00000000      1.00000000      1.00000000      1.00000000      1.00000000      1.00000000      1.00000000      1.00000000      1.00000000      1.00000000      1.00000000      1.00000000      1.00000000      1.00000000      1.00000000      1.00000000      1.00000000</v>
    <i name="NUPDOWN">     -1.00000000</i>
    <i type="logical" name="LSORBIT"> F  </i>
    <v name="SAXIS">      0.00000000      0.00000000      1.00000000</v>
    <i type="logical" name="LSPIRAL"> F  </i>
    <v name="QSPIRAL">      0.00000000      0.00000000      0.00000000</v>
    <i type="logical" name="LZEROZ"> F  </i>
   </separator>
   <separator name="electronic exchange-correlation" >
    <i type="logical" name="LASPH"> F  </i>
    <i type="logical" name="LMETAGGA"> F  </i>
   </separator>
   <separator name="electronic convergence" >
    <i type="int" name="NELM">    60</i>
    <i type="int" name="NELMDL">    -5</i>
    <i type="int" name="NELMIN">     4</i>
    <i name="ENINI">    600.00000000</i>
    <separator name="electronic convergence detail" >
     <i type="logical" name="LDIAG"> T  </i>
     <i type="logical" name="LSUBROT"> T  </i>
     <i name="WEIMIN">      0.00100000</i>
     <i name="EBREAK">      0.00000000</i>
     <i name="DEPER">      0.30000000</i>
     <i type="int" name="NRMM">     4</i>
     <i name="TIME">      0.40000000</i>
    </separator>
   </separator>
   <separator name="electronic mixer" >
    <i name="AMIX">      0.40000000</i>
    <i name="BMIX">      1.00000000</i>
    <i name="AMIN">      0.10000000</i>
    <i name="AMIX_MAG">      1.60000000</i>
    <i name="BMIX_MAG">      1.00000000</i>
    <separator name="electronic mixer details" >
     <i type="int" name="IMIX">     4</i>
     <i type="int" name="MAXMIX">   -45</i>
     <i name="WC">    100.00000000</i>
     <i type="int" name="INIMIX">     1</i>
     <i type="int" name="MIXPRE">     1</i>
     <i type="int" name="MREMOVE">     5</i>
    </separator>
   </separator>
   <separator name="electronic dipolcorrection" >
    <i type="logical" name="LDIPOL"> F  </i>
    <i type="logical" name="LMONO"> F  </i>
    <i type="int" name="IDIPOL">     0</i>
    <i name="EPSILON">      1.00000000</i>
    <v name="DIPOL">   -100.00000000   -100.00000000   -100.00000000</v>
    <i name="EFIELD">      0.00000000</i>
   </separator>
  </separator>
  <separator name="grids" >
   <i type="int" name="NGX">    70</i>
   <i type="int" name="NGY">    60</i>
   <i type="int" name="NGZ">    70</i>
   <i type="int" name="NGXF">   140</i>
   <i type="int" name="NGYF">   120</i>
   <i type="int" name="NGZF">   140</i>
   <i type="logical" name="ADDGRID"> F  </i>
  </separator>
  <separator name="ionic" >
   <i type="int" name="NSW">    10</i>
   <i type="int" name="IBRION">     2</i>
   <i type="int" name="ISIF">     2</i>
   <i name="PSTRESS">      0.00000000</i>
   <i name="EDIFFG">     -0.01000000</i>
   <i type="int" name="NFREE">    10</i>
   <i name="POTIM">      0.50000000</i>
   <i name="SMASS">     -3.00000000</i>
   <i name="SCALEE">      1.00000000</i>
  </separator>
  <separator name="ionic md" >
   <i name="TEBEG">      0.00010000</i>
   <i name="TEEND">      0.00010000</i>
   <i type="int" name="NBLOCK">     1</i>
   <i type="int" name="KBLOCK">    10</i>
   <i type="int" name="NPACO">   256</i>
   <i name="APACO">     16.00000000</i>
  </separator>
  <separator name="symmetry" >
   <i type="int" name="ISYM">     2</i>
   <i name="SYMPREC">      0.00001000</i>
  </separator>
  <separator name="dos" >
   <i type="logical" name="LORBIT"> F  </i>
   <v name="RWIGS">     -1.00000000     -1.00000000     -1.00000000     -1.00000000     -1.00000000</v>
   <i type="int" name="NEDOS">   301</i>
   <i name="EMIN">     10.00000000</i>
   <i name="EMAX">    -10.00000000</i>
   <i name="EFERMI">      0.00000000</i>
  </separator>
  <separator name="writing" >
   <i type="int" name="NWRITE">     2</i>
   <i type="logical" name="LWAVE"> F  </i>
   <i type="logical" name="LCHARG"> F  </i>
   <i type="logical" name="LPARD"> F  </i>
   <i type="logical" name="LVTOT"> F  </i>
   <i type="logical" name="LVHAR"> F  </i>
   <i type="logical" name="LELF"> F  </i>
   <i type="logical" name="LOPTICS"> F  </i>
   <v name="STM">      0.00000000      0.00000000      0.00000000      0.00000000      0.00000000      0.00000000      0.00000000</v>
  </separator>
  <separator name="performance" >
   <i type="int" name="NPAR">    40</i>
   <i type="int" name="NSIM">     4</i>
   <i type="int" name="NBLK">    -1</i>
   <i type="logical" name="LPLANE"> T  </i>
   <i type="logical" name="LSCALAPACK"> F  </i>
   <i type="logical" name="LSCAAWARE"> F  </i>
   <i type="logical" name="LSCALU"> F  </i>
   <i type="logical" name="LASYNC"> F  </i>
   <i type="logical" name="LORBITALREAL"> F  </i>
  </separator>
  <separator name="miscellaneous" >
   <i type="int" name="IDIOT">     3</i>
   <i type="logical" name="LMUSIC"> F  </i>
   <v name="POMASS">      7.01000000     24.30500000    208.98000000     32.06600000     16.00000000</v>
   <v name="DARWINR">      0.00000000      0.00000000      0.00000000      0.00000000      0.00000000</v>
   <v name="DARWINV">      1.00000000      1.00000000      1.00000000      1.00000000      1.00000000</v>
   <i type="logical" name="LCORR"> T  </i>
  </separator>
  <i type="logical" name="GGA_COMPAT"> T  </i>
  <i type="logical" name="LBERRY"> F  </i>
  <i type="int" name="ICORELEVEL">     0</i>
  <i type="logical" name="LDAU"> F  </i>
  <i type="int" name="I_CONSTRAINED_M">     0</i>
  <separator name="electronic exchange-correlation" >
   <i type="string" name="GGA">--</i>
   <i type="int" name="VOSKOWN">     0</i>
   <i type="logical" name="LHFCALC"> F  </i>
   <i type="string" name="PRECFOCK"></i>
   <i type="logical" name="LSYMGRAD"> F  </i>
   <i type="logical" name="LHFONE"> F  </i>
   <i type="logical" name="LRHFCALC"> F  </i>
   <i type="logical" name="LTHOMAS"> F  </i>
   <i type="logical" name="LMODELHF"> F  </i>
   <i name="ENCUT4O">     -1.00000000</i>
   <i type="int" name="EXXOEP">     0</i>
   <i type="int" name="FOURORBIT">     0</i>
   <i name="AEXX">      0.00000000</i>
   <i name="HFALPHA">      0.00000000</i>
   <i name="MCALPHA">      0.00000000</i>
   <i name="ALDAX">      1.00000000</i>
   <i name="AGGAX">      1.00000000</i>
   <i name="ALDAC">      1.00000000</i>
   <i name="AGGAC">      1.00000000</i>
   <i type="int" name="NKREDX">     1</i>
   <i type="int" name="NKREDY">     1</i>
   <i type="int" name="NKREDZ">     1</i>
   <i type="logical" name="SHIFTRED"> F  </i>
   <i type="logical" name="ODDONLY"> F  </i>
   <i type="logical" name="EVENONLY"> F  </i>
   <i type="int" name="LMAXFOCK">     0</i>
   <i type="int" name="NMAXFOCKAE">     0</i>
   <i type="logical" name="LFOCKAEDFT"> F  </i>
   <i name="HFSCREEN">      0.00000000</i>
   <i name="HFSCREENC">      0.00000000</i>
   <i type="int" name="NBANDSGWLOW">     0</i>
  </separator>
  <separator name="vdW DFT" >
   <i type="logical" name="LUSE_VDW"> F  </i>
   <i name="Zab_VDW">     -0.84910000</i>
   <i name="PARAM1">      0.12340000</i>
   <i name="PARAM2">      1.00000000</i>
   <i name="PARAM3">      0.00000000</i>
  </separator>
  <separator name="model GW" >
   <i type="int" name="MODEL_GW">     0</i>
   <i name="MODEL_EPS0">     12.38119177</i>
   <i name="MODEL_ALPHA">      1.00000000</i>
  </separator>
  <separator name="linear response parameters" >
   <i type="logical" name="LEPSILON"> F  </i>
   <i type="logical" name="LRPA"> F  </i>
   <i type="logical" name="LNABLA"> F  </i>
   <i type="logical" name="LVEL"> F  </i>
   <i type="int" name="KINTER">     0</i>
   <i name="CSHIFT">      0.10000000</i>
   <i name="OMEGAMAX">     -1.00000000</i>
   <i name="DEG_THRESHOLD">      0.00200000</i>
  </separator>
  <separator name="orbital magnetization" >
   <i type="logical" name="NUCIND"> F  </i>
   <v name="MAGPOS">      0.00000000      0.00000000      0.00000000</v>
   <i type="logical" name="LNICSALL"> T  </i>
   <i type="logical" name="ORBITALMAG"> F  </i>
   <i type="logical" name="LMAGBLOCH"> F  </i>
   <i type="logical" name="LCHIMAG"> F  </i>
   <i type="logical" name="LGAUGE"> T  </i>
   <i type="int" name="MAGATOM">     0</i>
   <v name="MAGDIPOL">      0.00000000      0.00000000      0.00000000</v>
   <v name="AVECCONST">      0.00000000      0.00000000      0.00000000</v>
  </separator>
  <separator name="response functions" >
   <i type="logical" name="LADDER"> F  </i>
   <i type="logical" name="LFXC"> F  </i>
   <i type="logical" name="LHARTREE"> T  </i>
   <i type="int" name="IBSE">     0</i>
   <i type="logical" name="LTCTE"> F  </i>
   <i type="logical" name="LTETE"> F  </i>
   <i type="logical" name="LTRIPLET"> F  </i>
   <i type="logical" name="LFXCEPS"> F  </i>
   <i type="logical" name="L2ORDER"> F  </i>
   <i type="logical" name="LUSEW"> F  </i>
   <i name="ENCUTGW">     -2.00000000</i>
   <i name="ENCUTGWSOFT">     -2.00000000</i>
   <i name="ENCUTLF">     -1.00000000</i>
   <i type="int" name="LMAXMP2">    -1</i>
   <i name="SCISSOR">      0.00000000</i>
   <i type="int" name="NOMEGA">     0</i>
   <i type="int" name="NOMEGAR">     0</i>
   <i type="int" name="NBANDSGW">    -1</i>
   <i type="int" name="NBANDSO">    -1</i>
   <i type="int" name="NBANDSV">    -1</i>
   <i type="int" name="NELM">     1</i>
   <i type="int" name="DIM">     3</i>
   <i type="int" name="ANTIRES">     0</i>
   <i name="OMEGAMAX">    -30.00000000</i>
   <i name="OMEGATL">   -200.00000000</i>
   <i type="int" name="OMEGAGRID">     0</i>
   <i name="CSHIFT">     -0.10000000</i>
   <i type="logical" name="SELFENERGY"> F  </i>
   <i type="logical" name="LSPECTRAL"> F  </i>
   <i type="logical" name="ODDONLYGW"> F  </i>
   <i type="logical" name="EVENONLYGW"> F  </i>
   <i type="int" name="NKREDLFX">     1</i>
   <i type="int" name="NKREDLFY">     1</i>
   <i type="int" name="NKREDLFZ">     1</i>
   <i type="int" name="MAXMEM">  1800</i>
   <i type="int" name="TELESCOPE">     0</i>
  </separator>
 </parameters>
 <atominfo>
  <atoms>      58 </atoms>
  <types>       5 </types>
  <array name="atoms" >
   <dimension dim="1">ion</dimension>
   <field type="string">element</field>
   <field type="int">atomtype</field>
   <set>
    <rc><c>Li</c><c>   1</c></rc>
    <rc><c>Li</c><c>   1</c></rc>
    <rc><c>Li</c><c>   1</c></rc>
    <rc><c>Li</c><c>   1</c></rc>
    <rc><c>Mg</c><c>   2</c></rc>
    <rc><c>Mg</c><c>   2</c></rc>
    <rc><c>Mg</c><c>   2</c></rc>
    <rc><c>Mg</c><c>   2</c></rc>
    <rc><c>Mg</c><c>   2</c></rc>
    <rc><c>Mg</c><c>   2</c></rc>
    <rc><c>Bi</c><c>   3</c></rc>
    <rc><c>Bi</c><c>   3</c></rc>
    <rc><c>Bi</c><c>   3</c></rc>
    <rc><c>Bi</c><c>   3</c></rc>
    <rc><c>Bi</c><c>   3</c></rc>
    <rc><c>Bi</c><c>   3</c></rc>
    <rc><c>Bi</c><c>   3</c></rc>
    <rc><c>Bi</c><c>   3</c></rc>
    <rc><c>Bi</c><c>   3</c></rc>
    <rc><c>Bi</c><c>   3</c></rc>
    <rc><c>Bi</c><c>   3</c></rc>
    <rc><c>Bi</c><c>   3</c></rc>
    <rc><c>Bi</c><c>   3</c></rc>
    <rc><c>Bi</c><c>   3</c></rc>
    <rc><c>Bi</c><c>   3</c></rc>
    <rc><c>Bi</c><c>   3</c></rc>
    <rc><c>S </c><c>   4</c></rc>
    <rc><c>S </c><c>   4</c></rc>
    <rc><c>S </c><c>   4</c></rc>
    <rc><c>S </c><c>   4</c></rc>
    <rc><c>S </c><c>   4</c></rc>
    <rc><c>S </c><c>   4</c></rc>
    <rc><c>S </c><c>   4</c></rc>
    <rc><c>S </c><c>   4</c></rc>
    <rc><c>S </c><c>   4</c></rc>
    <rc><c>S </c><c>   4</c></rc>
    <rc><c>S </c><c>   4</c></rc>
    <rc><c>S </c><c>   4</c></rc>
    <rc><c>S </c><c>   4</c></rc>
    <rc><c>S </c><c>   4</c></rc>
    <rc><c>S </c><c>   4</c></rc>
    <rc><c>S </c><c>   4</c></rc>
    <rc><c>O </c><c>   5</c></rc>
    <rc><c>O </c><c>   5</c></rc>
    <rc><c>O </c><c>   5</c></rc>
    <rc><c>O </c><c>   5</c></rc>
    <rc><c>O </c><c>   5</c></rc>
    <rc><c>O </c><c>   5</c></rc>
    <rc><c>O </c><c>   5</c></rc>
    <rc><c>O </c><c>   5</c></rc>
    <rc><c>O </c><c>   5</c></rc>
    <rc><c>O </c><c>   5</c></rc>
    <rc><c>O </c><c>   5</c></rc>
    <rc><c>O </c><c>   5</c></rc>
    <rc><c>O </c><c>   5</c></rc>
    <rc><c>O </c><c>   5</c></rc>
    <rc><c>O </c><c>   5</c></rc>
    <rc><c>O </c><c>   5</c></rc>
   </set>
  </array>
  <array name="atomtypes" >
   <dimension dim="1">type</dimension>
   <field type="int">atomspertype</field>
   <field type="string">element</field>
   <field>mass</field>
   <field>valence</field>
   <field type="string">pseudopotential</field>
   <set>
    <rc><c>   4</c><c>Li</c><c>      7.01000000</c><c>      3.00000000</c><c>  PAW_PBE Li_sv 10Sep2004               </c></rc>
    <rc><c>   6</c><c>Mg</c><c>     24.30500000</c><c>      2.00000000</c><c>  PAW_PBE Mg 13Apr2007                  </c></rc>
    <rc><c>  16</c><c>Bi</c><c>    208.98000000</c><c>     15.00000000</c><c>  PAW_PBE Bi_d 06Sep2000                </c></rc>
    <rc><c>  16</c><c>S </c><c>     32.06600000</c><c>      6.00000000</c><c>  PAW_PBE S 06Sep2000                   </c></rc>
    <rc><c>  16</c><c>O </c><c>     16.00000000</c><c>      6.00000000</c><c>  PAW_PBE O 08Apr2002                   </c></rc>
   </set>
  </array>
 </atominfo>
 <structure name="initialpos" >
  <crystal>
   <varray name="basis" >
    <v>      11.17850000       0.00000000       0.00000000 </v>
    <v>       0.00000000       9.57460000       0.00000000 </v>
    <v>       0.00000000       0.00000000      11.18240000 </v>
   </varray>
   <i name="volume">   1196.84853820 </i>
   <varray name="rec_basis" >
    <v>       0.08945744       0.00000000       0.00000000 </v>
    <v>       0.00000000       0.10444301       0.00000000 </v>
    <v>       0.00000000       0.00000000       0.08942624 </v>
   </varray>
  </crystal>
  <varray name="positions" >
   <v>       0.37539000       0.00017000       0.43687000 </v>
   <v>       0.62539000       0.99984000       0.43687000 </v>
   <v>       0.62539000       0.99984000       0.93687000 </v>
   <v>       0.62461000       0.99984000       0.68687000 </v>
   <v>       0.12461000       0.99984000       0.18687000 </v>
   <v>       0.87539000       0.00017000       0.43687000 </v>
   <v>       0.62461000       0.99984000       0.18687000 </v>
   <v>       0.37539000       0.00017000       0.93687000 </v>
   <v>       0.12461000       0.99984000       0.68687000 </v>
   <v>       0.87539000       0.00017000       0.93687000 </v>
   <v>       0.00013000       0.29519000       0.06281000 </v>
   <v>       0.25013000       0.70481000       0.06281000 </v>
   <v>       0.24987000       0.29519000       0.31282000 </v>
   <v>       0.49987000       0.70481000       0.31282000 </v>
   <v>       0.50013000       0.29519000       0.06281000 </v>
   <v>       0.75013000       0.70481000       0.06281000 </v>
   <v>       0.74987000       0.29519000       0.31282000 </v>
   <v>       0.99987000       0.70481000       0.31282000 </v>
   <v>       0.00013000       0.29519000       0.56281000 </v>
   <v>       0.25013000       0.70481000       0.56281000 </v>
   <v>       0.24987000       0.29519000       0.81282000 </v>
   <v>       0.49987000       0.70481000       0.81282000 </v>
   <v>       0.50013000       0.29519000       0.56281000 </v>
   <v>       0.75013000       0.70481000       0.56281000 </v>
   <v>       0.74987000       0.29519000       0.81282000 </v>
   <v>       0.99987000       0.70481000       0.81282000 </v>
   <v>       0.25005000       0.32677000       0.06286000 </v>
   <v>       0.00005000       0.67323000       0.06286000 </v>
   <v>       0.49995000       0.32677000       0.31286000 </v>
   <v>       0.24995000       0.67323000       0.31286000 </v>
   <v>       0.75005000       0.32677000       0.06286000 </v>
   <v>       0.50005000       0.67323000       0.06286000 </v>
   <v>       0.99995000       0.32677000       0.31286000 </v>
   <v>       0.74995000       0.67323000       0.31286000 </v>
   <v>       0.25005000       0.32677000       0.56286000 </v>
   <v>       0.00005000       0.67323000       0.56286000 </v>
   <v>       0.49995000       0.32677000       0.81286000 </v>
   <v>       0.24995000       0.67323000       0.81286000 </v>
   <v>       0.75005000       0.32677000       0.56286000 </v>
   <v>       0.50005000       0.67323000       0.56286000 </v>
   <v>       0.99995000       0.32677000       0.81286000 </v>
   <v>       0.74995000       0.67323000       0.81286000 </v>
   <v>       0.49987000       0.07798000       0.06246000 </v>
   <v>       0.24987000       0.92202000       0.06246000 </v>
   <v>       0.25013000       0.07798000       0.31246000 </v>
   <v>       0.00013000       0.92202000       0.31246000 </v>
   <v>       0.99987000       0.07798000       0.06246000 </v>
   <v>       0.74987000       0.92202000       0.06246000 </v>
   <v>       0.75013000       0.07798000       0.31246000 </v>
   <v>       0.50013000       0.92202000       0.31246000 </v>
   <v>       0.49987000       0.07798000       0.56246000 </v>
   <v>       0.24987000       0.92202000       0.56246000 </v>
   <v>       0.25013000       0.07798000       0.81246000 </v>
   <v>       0.00013000       0.92202000       0.81246000 </v>
   <v>       0.99987000       0.07798000       0.56246000 </v>
   <v>       0.74987000       0.92202000       0.56246000 </v>
   <v>       0.75013000       0.07798000       0.81246000 </v>
   <v>       0.50013000       0.92202000       0.81246000 </v>
  </varray>
 </structure>
 <calculation>
  <scstep>
   <time name="dav">   39.73   39.90</time>
   <time name="total">   39.87   40.19</time>
   <energy>
    <i name="alphaZ">   1054.17224280 </i>
    <i name="ewald"> -30175.29455754 </i>
    <i name="hartreedc"> -12709.72620432 </i>
    <i name="XCdc">   1173.23400328 </i>
    <i name="pawpsdc">  36541.05238669 </i>
    <i name="pawaedc"> -35795.85877930 </i>
    <i name="eentropy">      0.00000000 </i>
    <i name="bandstr">   1757.01961503 </i>
    <i name="atom">  43643.51795008 </i>
    <i name="e_fr_energy">   5488.11665672 </i>
    <i name="e_wo_entrp">   5488.11665672 </i>
    <i name="e_0_energy">   5488.11665672 </i>
   </energy>
  </scstep>
  <scstep>
   <time name="dav">   40.47   40.76</time>
   <time name="total">   40.49   42.78</time>
   <energy>
    <i name="e_fr_energy">    642.49243036 </i>
    <i name="e_wo_entrp">    642.49243036 </i>
    <i name="e_0_energy">    642.49243036 </i>
   </energy>
  </scstep>
  <scstep>
   <time name="dav">   48.06   48.29</time>
   <time name="total">   48.07   48.36</time>
   <energy>
    <i name="e_fr_energy">   -264.28316673 </i>
    <i name="e_wo_entrp">   -264.28316673 </i>
    <i name="e_0_energy">   -264.28316673 </i>
   </energy>
  </scstep>
  <scstep>
   <time name="dav">   51.39   51.61</time>
   <time name="total">   51.39   51.67</time>
   <energy>
    <i name="e_fr_energy">   -334.56643889 </i>
    <i name="e_wo_entrp">   -334.56643889 </i>
    <i name="e_0_energy">   -334.56643889 </i>
   </energy>
  </scstep>
  <scstep>
   <time name="dav">   64.85   65.39</time>
   <time name="total">   65.30   65.93</time>
   <energy>
    <i name="e_fr_energy">   -339.07329203 </i>
    <i name="e_wo_entrp">   -339.07329203 </i>
    <i name="e_0_energy">   -339.07329203 </i>
   </energy>
  </scstep>
  <scstep>
   <time name="dav">   60.37   60.87</time>
   <time name="total">   60.88   61.46</time>
   <energy>
    <i name="e_fr_energy">   -285.21407201 </i>
    <i name="e_wo_entrp">   -285.21407201 </i>
    <i name="e_0_energy">   -285.21407201 </i>
   </energy>
  </scstep>
  <scstep>
   <time name="dav">   44.72   44.82</time>
   <time name="total">   45.22   45.40</time>
   <energy>
    <i name="e_fr_energy">   -286.93576800 </i>
    <i name="e_wo_entrp">   -286.93576800 </i>
    <i name="e_0_energy">   -286.93576800 </i>
   </energy>
  </scstep>
  <scstep>
   <time name="dav">   50.10   50.58</time>
   <time name="total">   50.59   51.16</time>
   <energy>
    <i name="e_fr_energy">   -286.08231785 </i>
    <i name="e_wo_entrp">   -286.08231785 </i>
    <i name="e_0_energy">   -286.08231785 </i>
   </energy>
  </scstep>
  <scstep>
   <time name="dav">   51.74   52.28</time>
   <time name="total">   52.23   52.84</time>
   <energy>
    <i name="e_fr_energy">   -285.67244597 </i>
    <i name="e_wo_entrp">   -285.67244597 </i>
    <i name="e_0_energy">   -285.67244597 </i>
   </energy>
  </scstep>
  <scstep>
   <time name="dav">   49.12   49.77</time>
   <time name="total">   49.62   50.36</time>
   <energy>
    <i name="e_fr_energy">   -285.69379780 </i>
    <i name="e_wo_entrp">   -285.69379780 </i>
    <i name="e_0_energy">   -285.69379780 </i>
   </energy>
  </scstep>
  <scstep>
   <time name="dav">   53.36   53.90</time>
   <time name="total">   53.85   54.46</time>
   <energy>
    <i name="e_fr_energy">   -285.69838779 </i>
    <i name="e_wo_entrp">   -285.69838779 </i>
    <i name="e_0_energy">   -285.69838779 </i>
   </energy>
  </scstep>
  <scstep>
   <time name="dav">   51.70   51.93</time>
   <time name="total">   52.20   52.52</time>
   <energy>
    <i name="e_fr_energy">   -285.70137620 </i>
    <i name="e_wo_entrp">   -285.70137620 </i>
    <i name="e_0_energy">   -285.70137620 </i>
   </energy>
  </scstep>
  <scstep>
   <time name="dav">   49.81   50.09</time>
   <time name="total">   50.31   50.68</time>
   <energy>
    <i name="e_fr_energy">   -285.70228717 </i>
    <i name="e_wo_entrp">   -285.70228717 </i>
    <i name="e_0_energy">   -285.70228717 </i>
   </energy>
  </scstep>
  <scstep>
   <time name="dav">   47.53   47.75</time>
   <time name="total">   48.01   48.30</time>
   <energy>
    <i name="e_fr_energy">   -285.70248347 </i>
    <i name="e_wo_entrp">   -285.70248347 </i>
    <i name="e_0_energy">   -285.70248347 </i>
   </energy>
  </scstep>
  <scstep>
   <time name="dav">   59.17   59.48</time>
   <time name="total">   59.68   60.11</time>
   <energy>
    <i name="e_fr_energy">   -285.70251048 </i>
    <i name="e_wo_entrp">   -285.70251048 </i>
    <i name="e_0_energy">   -285.70251048 </i>
   </energy>
  </scstep>
  <scstep>
   <time name="dav">   43.80   44.24</time>
   <time name="total">   44.29   44.80</time>
   <energy>
    <i name="e_fr_energy">   -285.70252883 </i>
    <i name="e_wo_entrp">   -285.70252883 </i>
    <i name="e_0_energy">   -285.70252883 </i>
   </energy>
  </scstep>
  <scstep>
   <time name="dav">   45.24   45.86</time>
   <time name="total">   45.74   46.44</time>
   <energy>
    <i name="e_fr_energy">   -285.70253010 </i>
    <i name="e_wo_entrp">   -285.70253010 </i>
    <i name="e_0_energy">   -285.70253010 </i>
   </energy>
  </scstep>
  <scstep>
   <time name="dav">   38.83   38.95</time>
   <time name="total">   38.90   39.11</time>
   <energy>
    <i name="alphaZ">   1054.17224280 </i>
    <i name="ewald"> -30175.29455754 </i>
    <i name="hartreedc"> -12953.74280134 </i>
    <i name="XCdc">   1198.77190169 </i>
    <i name="pawpsdc">  43578.60870032 </i>
    <i name="pawaedc"> -42806.11957289 </i>
    <i name="eentropy">      0.00000000 </i>
    <i name="bandstr">  -3825.61639356 </i>
    <i name="atom">  43643.51795008 </i>
    <i name="e_fr_energy">   -285.70253045 </i>
    <i name="e_wo_entrp">   -285.70253045 </i>
    <i name="e_0_energy">   -285.70253045 </i>
   </energy>
  </scstep>
  <structure>
   <crystal>
    <varray name="basis" >
     <v>      11.17850000       0.00000000       0.00000000 </v>
     <v>       0.00000000       9.57460000       0.00000000 </v>
     <v>       0.00000000       0.00000000      11.18240000 </v>
    </varray>
    <i name="volume">   1196.84853820 </i>
    <varray name="rec_basis" >
     <v>       0.08945744       0.00000000       0.00000000 </v>
     <v>       0.00000000       0.10444301       0.00000000 </v>
     <v>       0.00000000       0.00000000       0.08942624 </v>
    </varray>
   </crystal>
   <varray name="positions" >
    <v>       0.37539000       0.00017000       0.43687000 </v>
    <v>       0.62539000       0.99984000       0.43687000 </v>
    <v>       0.62539000       0.99984000       0.93687000 </v>
    <v>       0.62461000       0.99984000       0.68687000 </v>
    <v>       0.12461000       0.99984000       0.18687000 </v>
    <v>       0.87539000       0.00017000       0.43687000 </v>
    <v>       0.62461000       0.99984000       0.18687000 </v>
    <v>       0.37539000       0.00017000       0.93687000 </v>
    <v>       0.12461000       0.99984000       0.68687000 </v>
    <v>       0.87539000       0.00017000       0.93687000 </v>
    <v>       0.00013000       0.29519000       0.06281000 </v>
    <v>       0.25013000       0.70481000       0.06281000 </v>
    <v>       0.24987000       0.29519000       0.31282000 </v>
    <v>       0.49987000       0.70481000       0.31282000 </v>
    <v>       0.50013000       0.29519000       0.06281000 </v>
    <v>       0.75013000       0.70481000       0.06281000 </v>
    <v>       0.74987000       0.29519000       0.31282000 </v>
    <v>       0.99987000       0.70481000       0.31282000 </v>
    <v>       0.00013000       0.29519000       0.56281000 </v>
    <v>       0.25013000       0.70481000       0.56281000 </v>
    <v>       0.24987000       0.29519000       0.81282000 </v>
    <v>       0.49987000       0.70481000       0.81282000 </v>
    <v>       0.50013000       0.29519000       0.56281000 </v>
    <v>       0.75013000       0.70481000       0.56281000 </v>
    <v>       0.74987000       0.29519000       0.81282000 </v>
    <v>       0.99987000       0.70481000       0.81282000 </v>
    <v>       0.25005000       0.32677000       0.06286000 </v>
    <v>       0.00005000       0.67323000       0.06286000 </v>
    <v>       0.49995000       0.32677000       0.31286000 </v>
    <v>       0.24995000       0.67323000       0.31286000 </v>
    <v>       0.75005000       0.32677000       0.06286000 </v>
    <v>       0.50005000       0.67323000       0.06286000 </v>
    <v>       0.99995000       0.32677000       0.31286000 </v>
    <v>       0.74995000       0.67323000       0.31286000 </v>
    <v>       0.25005000       0.32677000       0.56286000 </v>
    <v>       0.00005000       0.67323000       0.56286000 </v>
    <v>       0.49995000       0.32677000       0.81286000 </v>
    <v>       0.24995000       0.67323000       0.81286000 </v>
    <v>       0.75005000       0.32677000       0.56286000 </v>
    <v>       0.50005000       0.67323000       0.56286000 </v>
    <v>       0.99995000       0.32677000       0.81286000 </v>
    <v>       0.74995000       0.67323000       0.81286000 </v>
    <v>       0.49987000       0.07798000       0.06246000 </v>
    <v>       0.24987000       0.92202000       0.06246000 </v>
    <v>       0.25013000       0.07798000       0.31246000 </v>
    <v>       0.00013000       0.92202000       0.31246000 </v>
    <v>       0.99987000       0.07798000       0.06246000 </v>
    <v>       0.74987000       0.92202000       0.06246000 </v>
    <v>       0.75013000       0.07798000       0.31246000 </v>
    <v>       0.50013000       0.92202000       0.31246000 </v>
    <v>       0.49987000       0.07798000       0.56246000 </v>
    <v>       0.24987000       0.92202000       0.56246000 </v>
    <v>       0.25013000       0.07798000       0.81246000 </v>
    <v>       0.00013000       0.92202000       0.81246000 </v>
    <v>       0.99987000       0.07798000       0.56246000 </v>
    <v>       0.74987000       0.92202000       0.56246000 </v>
    <v>       0.75013000       0.07798000       0.81246000 </v>
    <v>       0.50013000       0.92202000       0.81246000 </v>
   </varray>
  </structure>
  <varray name="forces" >
   <v>      -0.45651966       0.07014318       0.11999733 </v>
   <v>      -0.50286240       0.00058967       0.51646004 </v>
   <v>      -0.03688177       0.00187303      -0.50431085 </v>
   <v>      -0.10398310       0.06811359      -0.11546385 </v>
   <v>       0.26520336       0.12210314       0.26155155 </v>
   <v>       0.86096304      -0.12318829       0.28360833 </v>
   <v>      -0.22339774      -0.10701317       0.28595508 </v>
   <v>      -0.92819333      -0.12163725      -0.22257490 </v>
   <v>       0.26192945      -0.10506266      -0.20765782 </v>
   <v>       0.86990103       0.11761408      -0.22171862 </v>
   <v>       0.17977860      -0.02989216      -0.00672648 </v>
   <v>      -0.04226925       0.05989859       0.05030433 </v>
   <v>       0.08202938      -1.02221577       0.26317085 </v>
   <v>      -0.41655751      -0.05491851       0.21776001 </v>
   <v>      -0.32315420       1.02873756       0.12935530 </v>
   <v>       0.15978148      -1.02914875       0.06248872 </v>
   <v>       0.09453920       1.01051410       0.09226930 </v>
   <v>       0.26122325       0.05145271       0.15608850 </v>
   <v>       0.18302269      -0.06744788      -0.02210504 </v>
   <v>       0.13011129       1.03625804      -0.12970392 </v>
   <v>       0.02357770      -0.08610887      -0.20875987 </v>
   <v>      -0.17000499      -0.05488365      -0.46330497 </v>
   <v>      -0.29165921      -0.98085312       0.09752717 </v>
   <v>      -0.04220630      -0.02486604       0.22832320 </v>
   <v>       0.02772086       0.06916564      -0.39598095 </v>
   <v>       0.14365557       0.05935857      -0.14687627 </v>
   <v>       0.09834041       0.10128105      -0.09690364 </v>
   <v>      -0.17438806      -0.05973350      -0.00666112 </v>
   <v>       0.32474858       0.12869329      -0.28932633 </v>
   <v>      -0.02806142      -0.15725715      -0.21143842 </v>
   <v>      -0.11029485       0.02897434       0.05811900 </v>
   <v>       0.18699972      -0.06004612      -0.00492834 </v>
   <v>      -0.26177760       0.09608856      -0.06779902 </v>
   <v>      -0.03413938      -0.07444508      -0.14185174 </v>
   <v>      -0.12991769       0.18537634       0.14682958 </v>
   <v>      -0.18425244      -0.13016448      -0.00240838 </v>
   <v>       0.05870695       0.12662608       0.30432869 </v>
   <v>       0.03194457      -0.13185013       0.16314142 </v>
   <v>       0.11191390       0.14435119      -0.14071173 </v>
   <v>       0.19463873      -0.20689178      -0.01413410 </v>
   <v>      -0.10327672       0.09431685       0.07731603 </v>
   <v>       0.01437216      -0.10059331       0.22005883 </v>
   <v>       0.80150570      -0.72131761      -0.59984320 </v>
   <v>       0.10521873      -0.27462248      -0.09397401 </v>
   <v>      -0.52391567       0.97291326      -0.61597038 </v>
   <v>      -0.20265999      -0.27274104      -0.03702876 </v>
   <v>      -0.15949048       0.21656140      -0.04404954 </v>
   <v>      -0.70841867       0.75953537      -0.55725337 </v>
   <v>      -0.65901301      -0.69073224       0.44745448 </v>
   <v>       1.34621348       0.01907443      -0.11954598 </v>
   <v>       0.75480579       0.82238150      -0.60333085 </v>
   <v>      -0.54363016      -1.02409064       0.55034626 </v>
   <v>       0.02711445       0.32603839       0.13526383 </v>
   <v>      -0.11148701      -0.27854598       0.09917223 </v>
   <v>      -0.14774035       0.32256991      -0.04088941 </v>
   <v>      -0.04356482      -0.01357015      -1.21848126 </v>
   <v>      -0.13601744      -0.05629057       1.27544090 </v>
   <v>       0.19977513       0.01952451       1.30938216 </v>
  </varray>
  <varray name="stress" >
   <v>      -9.34018843      -0.34431500       0.42082491 </v>
   <v>      -0.34431500     -12.81978043      -0.14791035 </v>
   <v>       0.42082483      -0.14791053     -11.79805625 </v>
  </varray>
  <energy>
   <i name="e_fr_energy">   -297.38714947 </i>
   <i name="e_wo_entrp">   -297.38714947 </i>
   <i name="e_0_energy">      0.00000000 </i>
  </energy>
  <time name="totalsc">  982.17  992.81</time>
 </calculation>
 <calculation>
  <scstep>
   <time name="dav">   40.51   40.58</time>
   <time name="total">   41.05   41.15</time>
   <energy>
    <i name="alphaZ">   1054.17224280 </i>
    <i name="ewald"> -30140.26220830 </i>
    <i name="hartreedc"> -12980.78954957 </i>
    <i name="XCdc">   1199.04441496 </i>
    <i name="pawpsdc">  43578.58104656 </i>
    <i name="pawaedc"> -42806.09423820 </i>
    <i name="eentropy">      0.00000000 </i>
    <i name="bandstr">  -3833.61109050 </i>
    <i name="atom">  43643.51795008 </i>
    <i name="e_fr_energy">   -285.44143217 </i>
    <i name="e_wo_entrp">   -285.44143217 </i>
    <i name="e_0_energy">   -285.44143217 </i>
   </energy>
  </scstep>
  <scstep>
   <time name="dav">   48.24   48.81</time>
   <time name="total">   48.74   49.38</time>
   <energy>
    <i name="e_fr_energy">   -286.52970930 </i>
    <i name="e_wo_entrp">   -286.52970930 </i>
    <i name="e_0_energy">   -286.52970930 </i>
   </energy>
  </scstep>
  <scstep>
   <time name="dav">   60.79   61.44</time>
   <time name="total">   61.30   62.08</time>
   <energy>
    <i name="e_fr_energy">   -286.50793411 </i>
    <i name="e_wo_entrp">   -286.50793411 </i>
    <i name="e_0_energy">   -286.50793411 </i>
   </energy>
  </scstep>
  <scstep>
   <time name="dav">   46.96   47.85</time>
   <time name="total">   47.49   48.47</time>
   <energy>
    <i name="e_fr_energy">   -286.46981049 </i>
    <i name="e_wo_entrp">   -286.46981049 </i>
    <i name="e_0_energy">   -286.46981049 </i>
   </energy>
  </scstep>
  <scstep>
   <time name="dav">   51.61   51.70</time>
   <time name="total">   52.13   52.32</time>
   <energy>
    <i name="e_fr_energy">   -286.45956546 </i>
    <i name="e_wo_entrp">   -286.45956546 </i>
    <i name="e_0_energy">   -286.45956546 </i>
   </energy>
  </scstep>
  <scstep>
   <time name="dav">   50.92   51.41</time>
   <time name="total">   51.41   51.99</time>
   <energy>
    <i name="e_fr_energy">   -286.45995919 </i>
    <i name="e_wo_entrp">   -286.45995919 </i>
    <i name="e_0_energy">   -286.45995919 </i>
   </energy>
  </scstep>
  <scstep>
   <time name="dav">   51.91   52.59</time>
   <time name="total">   52.42   53.21</time>
   <energy>
    <i name="e_fr_energy">   -286.45982054 </i>
    <i name="e_wo_entrp">   -286.45982054 </i>
    <i name="e_0_energy">   -286.45982054 </i>
   </energy>
  </scstep>
  <scstep>
   <time name="dav">   47.84   48.53</time>
   <time name="total">   48.34   49.09</time>
   <energy>
    <i name="e_fr_energy">   -286.45971847 </i>
    <i name="e_wo_entrp">   -286.45971847 </i>
    <i name="e_0_energy">   -286.45971847 </i>
   </energy>
  </scstep>
  <scstep>
   <time name="dav">   59.28   59.81</time>
   <time name="total">   59.78   60.40</time>
   <energy>
    <i name="e_fr_energy">   -286.45970346 </i>
    <i name="e_wo_entrp">   -286.45970346 </i>
    <i name="e_0_energy">   -286.45970346 </i>
   </energy>
  </scstep>
  <scstep>
   <time name="dav">   44.13   44.53</time>
   <time name="total">   44.63   45.13</time>
   <energy>
    <i name="e_fr_energy">   -286.45971308 </i>
    <i name="e_wo_entrp">   -286.45971308 </i>
    <i name="e_0_energy">   -286.45971308 </i>
   </energy>
  </scstep>
  <scstep>
   <time name="dav">   53.14   53.60</time>
   <time name="total">   53.64   54.19</time>
   <energy>
    <i name="e_fr_energy">   -286.45971283 </i>
    <i name="e_wo_entrp">   -286.45971283 </i>
    <i name="e_0_energy">   -286.45971283 </i>
   </energy>
  </scstep>
  <scstep>
   <time name="dav">   41.95   42.38</time>
   <time name="total">   42.01   42.54</time>
   <energy>
    <i name="alphaZ">   1054.17224280 </i>
    <i name="ewald"> -30140.26220830 </i>
    <i name="hartreedc"> -12988.44588692 </i>
    <i name="XCdc">   1199.45722195 </i>
    <i name="pawpsdc">  43652.16510253 </i>
    <i name="pawaedc"> -42880.42487723 </i>
    <i name="eentropy">      0.00000000 </i>
    <i name="bandstr">  -3826.63925866 </i>
    <i name="atom">  43643.51795008 </i>
    <i name="e_fr_energy">   -286.45971375 </i>
    <i name="e_wo_entrp">   -286.45971375 </i>
    <i name="e_0_energy">   -286.45971375 </i>
   </energy>
  </scstep>
  <structure>
   <crystal>
    <varray name="basis" >
     <v>      11.17850000       0.00000000       0.00000000 </v>
     <v>       0.00000000       9.57460000       0.00000000 </v>
     <v>       0.00000000       0.00000000      11.18240000 </v>
    </varray>
    <i name="volume">   1196.84853820 </i>
    <varray name="rec_basis" >
     <v>       0.08945744       0.00000000       0.00000000 </v>
     <v>       0.00000000       0.10444301       0.00000000 </v>
     <v>       0.00000000       0.00000000       0.08942624 </v>
    </varray>
   </crystal>
   <varray name="positions" >
    <v>       0.37341981       0.00052342       0.43738769 </v>
    <v>       0.62321981       0.99984297       0.43909809 </v>
    <v>       0.62523083       0.99984944       0.93469432 </v>
    <v>       0.62416124       0.00018320       0.68637187 </v>
    <v>       0.12575453       0.00045523       0.18799838 </v>
    <v>       0.87910563      -0.00045070       0.43809353 </v>
    <v>       0.62364589       0.99930080       0.18810366 </v>
    <v>       0.37138423      -0.00044288       0.93590978 </v>
    <v>       0.12574040       0.99931063       0.68597413 </v>
    <v>       0.87914420       0.00076261       0.93591347 </v>
    <v>       0.00090586       0.29503939       0.06278098 </v>
    <v>       0.24994758       0.70511181       0.06302702 </v>
    <v>       0.25022401       0.29003946       0.31395536 </v>
    <v>       0.49807228       0.70453329       0.31375945 </v>
    <v>       0.49873537       0.30037341       0.06336806 </v>
    <v>       0.75081956       0.69962452       0.06307959 </v>
    <v>       0.75027800       0.30028158       0.31321806 </v>
    <v>       0.00099735       0.70506925       0.31349339 </v>
    <v>       0.00091986       0.29485016       0.56271464 </v>
    <v>       0.25069152       0.71003130       0.56225044 </v>
    <v>       0.24997175       0.29475613       0.81191938 </v>
    <v>       0.49913632       0.70453346       0.81082123 </v>
    <v>       0.49887130       0.29024787       0.56323075 </v>
    <v>       0.74994785       0.70468471       0.56379502 </v>
    <v>       0.74998963       0.29553850       0.81111168 </v>
    <v>       0.00048997       0.70510908       0.81218635 </v>
    <v>       0.25047440       0.32728032       0.06244194 </v>
    <v>      -0.00070260       0.67292903       0.06283126 </v>
    <v>       0.50135151       0.32741844       0.31161180 </v>
    <v>       0.24982890       0.67243764       0.31194782 </v>
    <v>       0.74957400       0.32691599       0.06311073 </v>
    <v>       0.50085703       0.67292745       0.06283874 </v>
    <v>       0.99882026       0.32725415       0.31256750 </v>
    <v>       0.74980267       0.67285490       0.31224803 </v>
    <v>       0.24948932       0.32770404       0.56349345 </v>
    <v>      -0.00074517       0.67257415       0.56284961 </v>
    <v>       0.50020336       0.32740802       0.81417292 </v>
    <v>       0.25008786       0.67256566       0.81356382 </v>
    <v>       0.75053298       0.32749733       0.56225295 </v>
    <v>       0.50089000       0.67218755       0.56279902 </v>
    <v>       0.99950429       0.32724523       0.81319355 </v>
    <v>       0.75001203       0.67272315       0.81380937 </v>
    <v>       0.50332903       0.07434556       0.05987218 </v>
    <v>       0.25032409       0.92063629       0.06205458 </v>
    <v>       0.24786896       0.08288213       0.30980261 </v>
    <v>      -0.00074461       0.92064576       0.31230025 </v>
    <v>       0.99918169       0.07907117       0.06226996 </v>
    <v>       0.74681270       0.92584700       0.06005592 </v>
    <v>       0.74728592       0.07449967       0.31439039 </v>
    <v>       0.50593981       0.92211611       0.31194426 </v>
    <v>       0.50312749       0.08212366       0.55985713 </v>
    <v>       0.24752387       0.91686001       0.56483428 </v>
    <v>       0.25024702       0.07962278       0.81304355 </v>
    <v>      -0.00035114       0.92061652       0.81288784 </v>
    <v>       0.99923240       0.07960530       0.56228360 </v>
    <v>       0.74968199       0.92195163       0.55720328 </v>
    <v>       0.74954299       0.07769637       0.81796246 </v>
    <v>       0.50099216       0.92211838       0.81810888 </v>
   </varray>
  </structure>
  <varray name="forces" >
   <v>      -0.31716503       0.03834676       0.03170780 </v>
   <v>      -0.21681798       0.00093025       0.27194298 </v>
   <v>      -0.01152650       0.00421971      -0.22250197 </v>
   <v>      -0.01571106       0.03802324      -0.01358241 </v>
   <v>       0.02296393       0.02477125       0.02485430 </v>
   <v>       0.33784159      -0.03742080       0.01366292 </v>
   <v>       0.06492078      -0.00189717      -0.06287828 </v>
   <v>      -0.39710254      -0.04323759       0.03221300 </v>
   <v>       0.02414310      -0.00367283       0.00597598 </v>
   <v>       0.35703196       0.04312794       0.03625177 </v>
   <v>       0.01110506       0.16662535      -0.00868768 </v>
   <v>       0.03116162      -0.24616780      -0.00073061 </v>
   <v>       0.06473397       0.87128524       0.11794050 </v>
   <v>      -0.09277134       0.03140001       0.00064509 </v>
   <v>      -0.07283978      -0.22623853       0.05016213 </v>
   <v>       0.01127793       0.27763626       0.05105802 </v>
   <v>       0.01367197      -0.21053633      -0.00218043 </v>
   <v>       0.04511013      -0.23770002       0.06380403 </v>
   <v>       0.03625202       0.31992134      -0.02147596 </v>
   <v>       0.06812072      -0.95863224      -0.05962581 </v>
   <v>       0.03881023       0.32586800      -0.07420537 </v>
   <v>      -0.06120251       0.05582683      -0.13994243 </v>
   <v>      -0.11609301       0.65407258       0.08418172 </v>
   <v>       0.00540683       0.02817586       0.06638931 </v>
   <v>       0.00776833      -0.10028742      -0.13328279 </v>
   <v>       0.03190119      -0.25108382      -0.05156456 </v>
   <v>       0.04263768       0.07973924      -0.04131679 </v>
   <v>      -0.06921940      -0.05291148      -0.00717916 </v>
   <v>       0.15372573       0.14491570      -0.13584626 </v>
   <v>      -0.03051915      -0.06537115      -0.11555659 </v>
   <v>      -0.03849652       0.16356307       0.02039908 </v>
   <v>       0.06849687      -0.17494225       0.01439611 </v>
   <v>      -0.10201861       0.07667975      -0.02353288 </v>
   <v>      -0.01710528      -0.18640339      -0.05720726 </v>
   <v>      -0.08480485       0.08063244       0.09809038 </v>
   <v>      -0.08280477      -0.09264077      -0.00154819 </v>
   <v>       0.00960951       0.14063378       0.13845315 </v>
   <v>       0.02946929      -0.09300244       0.06444082 </v>
   <v>       0.06050701       0.15400574      -0.07450440 </v>
   <v>       0.09458304      -0.12478265      -0.01725860 </v>
   <v>      -0.05352857       0.06866993       0.03086939 </v>
   <v>       0.01801081      -0.12609111       0.10258534 </v>
   <v>       0.35702598       0.50370790      -0.48715949 </v>
   <v>      -0.04386608       0.03438299       0.02332125 </v>
   <v>      -0.38148777      -0.86046405      -0.39555236 </v>
   <v>       0.04155065       0.01815716      -0.04645052 </v>
   <v>       0.07652111       0.02956439       0.05589061 </v>
   <v>      -0.36629150      -0.53552171      -0.46463529 </v>
   <v>      -0.37631624       0.49072349       0.48376258 </v>
   <v>       0.71134367      -0.17254032       0.18831696 </v>
   <v>       0.49469746      -0.77808261      -0.48046471 </v>
   <v>      -0.38578014       0.92610693       0.38274905 </v>
   <v>      -0.09441583      -0.09068029      -0.05823065 </v>
   <v>       0.09940009       0.02506891      -0.08643129 </v>
   <v>       0.07559302      -0.07813043       0.06604512 </v>
   <v>      -0.07233606      -0.10110102      -0.80396828 </v>
   <v>      -0.07789434       0.16968737       0.78055849 </v>
   <v>       0.07272162      -0.13692919       0.78683312 </v>
  </varray>
  <varray name="stress" >
   <v>      -8.89322252      -0.29204645      -0.12987441 </v>
   <v>      -0.29204644      -4.09038492       0.27229111 </v>
   <v>      -0.12987466       0.27229122     -10.04701157 </v>
  </varray>
  <energy>
   <i name="e_fr_energy">   -298.13860041 </i>
   <i name="e_wo_entrp">   -298.13860041 </i>
   <i name="e_0_energy">      0.00000000 </i>
  </energy>
  <time name="totalsc">  680.13  688.20</time>
 </calculation>
 <calculation>
  <scstep>
   <time name="dav">   40.74   41.10</time>
   <time name="total">   41.23   41.60</time>
   <energy>
    <i name="alphaZ">   1054.17224280 </i>
    <i name="ewald"> -30136.21766494 </i>
    <i name="hartreedc"> -12991.68330315 </i>
    <i name="XCdc">   1199.49458643 </i>
    <i name="pawpsdc">  43652.05830955 </i>
    <i name="pawaedc"> -42880.31818353 </i>
    <i name="eentropy">      0.00000000 </i>
    <i name="bandstr">  -3827.48062826 </i>
    <i name="atom">  43643.51795008 </i>
    <i name="e_fr_energy">   -286.45669102 </i>
    <i name="e_wo_entrp">   -286.45669102 </i>
    <i name="e_0_energy">   -286.45669102 </i>
   </energy>
  </scstep>
  <scstep>
   <time name="dav">   45.77   46.30</time>
   <time name="total">   46.26   46.87</time>
   <energy>
    <i name="e_fr_energy">   -286.46449532 </i>
    <i name="e_wo_entrp">   -286.46449532 </i>
    <i name="e_0_energy">   -286.46449532 </i>
   </energy>
  </scstep>
  <scstep>
   <time name="dav">   59.69   60.53</time>
   <time name="total">   60.19   61.14</time>
   <energy>
    <i name="e_fr_energy">   -286.46434811 </i>
    <i name="e_wo_entrp">   -286.46434811 </i>
    <i name="e_0_energy">   -286.46434811 </i>
   </energy>
  </scstep>
  <scstep>
   <time name="dav">   51.32   51.78</time>
   <time name="total">   51.82   52.36</time>
   <energy>
    <i name="e_fr_energy">   -286.46401742 </i>
    <i name="e_wo_entrp">   -286.46401742 </i>
    <i name="e_0_energy">   -286.46401742 </i>
   </energy>
  </scstep>
  <scstep>
   <time name="dav">   52.50   53.12</time>
   <time name="total">   53.00   53.74</time>
   <energy>
    <i name="e_fr_energy">   -286.46396686 </i>
    <i name="e_wo_entrp">   -286.46396686 </i>
    <i name="e_0_energy">   -286.46396686 </i>
   </energy>
  </scstep>
  <scstep>
   <time name="dav">   54.25   54.51</time>
   <time name="total">   54.76   55.08</time>
   <energy>
    <i name="e_fr_energy">   -286.46396325 </i>
    <i name="e_wo_entrp">   -286.46396325 </i>
    <i name="e_0_energy">   -286.46396325 </i>
   </energy>
  </scstep>
  <scstep>
   <time name="dav">   50.95   51.45</time>
   <time name="total">   51.45   52.01</time>
   <energy>
    <i name="e_fr_energy">   -286.46396198 </i>
    <i name="e_wo_entrp">   -286.46396198 </i>
    <i name="e_0_energy">   -286.46396198 </i>
   </energy>
  </scstep>
  <scstep>
   <time name="dav">   41.40   41.83</time>
   <time name="total">   41.91   42.53</time>
   <energy>
    <i name="e_fr_energy">   -286.46396092 </i>
    <i name="e_wo_entrp">   -286.46396092 </i>
    <i name="e_0_energy">   -286.46396092 </i>
   </energy>
  </scstep>
  <scstep>
   <time name="dav">   39.27   39.70</time>
   <time name="total">   39.33   39.89</time>
   <energy>
    <i name="alphaZ">   1054.17224280 </i>
    <i name="ewald"> -30136.21766494 </i>
    <i name="hartreedc"> -12992.31323411 </i>
    <i name="XCdc">   1199.52677220 </i>
    <i name="pawpsdc">  43661.68899368 </i>
    <i name="pawaedc"> -42890.06377071 </i>
    <i name="eentropy">      0.00000000 </i>
    <i name="bandstr">  -3826.77524970 </i>
    <i name="atom">  43643.51795008 </i>
    <i name="e_fr_energy">   -286.46396070 </i>
    <i name="e_wo_entrp">   -286.46396070 </i>
    <i name="e_0_energy">   -286.46396070 </i>
   </energy>
  </scstep>
  <structure>
   <crystal>
    <varray name="basis" >
     <v>      11.17850000       0.00000000       0.00000000 </v>
     <v>       0.00000000       9.57460000       0.00000000 </v>
     <v>       0.00000000       0.00000000      11.18240000 </v>
    </varray>
    <i name="volume">   1196.84853820 </i>
    <varray name="rec_basis" >
     <v>       0.08945744       0.00000000       0.00000000 </v>
     <v>       0.00000000       0.10444301       0.00000000 </v>
     <v>       0.00000000       0.00000000       0.08942624 </v>
    </varray>
   </crystal>
   <varray name="positions" >
    <v>       0.37324037       0.00055561       0.43743484 </v>
    <v>       0.62302215       0.99984324       0.43930103 </v>
    <v>       0.62521633       0.99985030       0.93449616 </v>
    <v>       0.62412037       0.00021446       0.68632650 </v>
    <v>       0.12585877       0.00051127       0.18810115 </v>
    <v>       0.87944405      -0.00050723       0.43820497 </v>
    <v>       0.62355808       0.99925169       0.18821602 </v>
    <v>       0.37101938      -0.00049870       0.93582232 </v>
    <v>       0.12584336       0.99926241       0.68589253 </v>
    <v>       0.87948614       0.00081659       0.93582635 </v>
    <v>       0.00097653       0.29502567       0.06277834 </v>
    <v>       0.24993096       0.70513929       0.06304679 </v>
    <v>       0.25025626       0.28957034       0.31405877 </v>
    <v>       0.49790854       0.70450808       0.31384502 </v>
    <v>       0.49860835       0.30084552       0.06341889 </v>
    <v>       0.75088237       0.69915222       0.06310414 </v>
    <v>       0.75031516       0.30074533       0.31325432 </v>
    <v>       0.00110003       0.70509286       0.31355472 </v>
    <v>       0.00099181       0.29481920       0.56270595 </v>
    <v>       0.25074266       0.71050686       0.56219947 </v>
    <v>       0.24998102       0.29471661       0.81183735 </v>
    <v>       0.49906949       0.70450828       0.81063918 </v>
    <v>       0.49875665       0.28979773       0.56326907 </v>
    <v>       0.74993126       0.70467330       0.56388474 </v>
    <v>       0.75000053       0.29557024       0.81095608 </v>
    <v>       0.00054644       0.70513633       0.81212864 </v>
    <v>       0.25051306       0.32732680       0.06240386 </v>
    <v>      -0.00077115       0.67290161       0.06282865 </v>
    <v>       0.50147916       0.32747750       0.31149811 </v>
    <v>       0.24981787       0.67236547       0.31186474 </v>
    <v>       0.74953065       0.32692929       0.06313357 </v>
    <v>       0.50093053       0.67289989       0.06283680 </v>
    <v>       0.99871736       0.32729825       0.31254086 </v>
    <v>       0.74978925       0.67282074       0.31219229 </v>
    <v>       0.24943825       0.32778911       0.56355114 </v>
    <v>      -0.00081760       0.67251442       0.56284866 </v>
    <v>       0.50022644       0.32746613       0.81429251 </v>
    <v>       0.25010042       0.67250515       0.81362792 </v>
    <v>       0.75057697       0.32756358       0.56219766 </v>
    <v>       0.50096650       0.67209261       0.56279347 </v>
    <v>       0.99946370       0.32728851       0.81322393 </v>
    <v>       0.75001767       0.67267699       0.81389584 </v>
    <v>       0.50364408       0.07401453       0.05963648 </v>
    <v>       0.25036545       0.92051025       0.06201765 </v>
    <v>       0.24766302       0.08332862       0.30956057 </v>
    <v>      -0.00082427       0.92052060       0.31228570 </v>
    <v>       0.99911900       0.07917055       0.06225265 </v>
    <v>       0.74653424       0.92619557       0.05983695 </v>
    <v>       0.74702688       0.07418268       0.31456621 </v>
    <v>       0.50646897       0.92212486       0.31189729 </v>
    <v>       0.50342419       0.08250107       0.55962006 </v>
    <v>       0.24731019       0.91639003       0.56505053 </v>
    <v>       0.25025767       0.07977241       0.81309670 </v>
    <v>      -0.00039496       0.92048868       0.81292681 </v>
    <v>       0.99917433       0.07975334       0.56226753 </v>
    <v>       0.74966486       0.92194540       0.55672449 </v>
    <v>       0.74948953       0.07767054       0.81846363 </v>
    <v>       0.50107069       0.92212734       0.81862339 </v>
   </varray>
  </structure>
  <varray name="forces" >
   <v>      -0.30401023       0.03568000       0.02415595 </v>
   <v>      -0.19062734      -0.00000028       0.24877868 </v>
   <v>      -0.00900005       0.00449165      -0.19604338 </v>
   <v>      -0.00758726       0.03517341      -0.00426730 </v>
   <v>      -0.00001383       0.01438833       0.00219634 </v>
   <v>       0.29079643      -0.03104085      -0.01007335 </v>
   <v>       0.09409923       0.00952086      -0.09796377 </v>
   <v>      -0.34911402      -0.03749263       0.05452766 </v>
   <v>       0.00158470       0.00708387       0.02653162 </v>
   <v>       0.31062799       0.03765255       0.05897662 </v>
   <v>      -0.00412325       0.18543285      -0.00867714 </v>
   <v>       0.03757478      -0.27548262      -0.00535066 </v>
   <v>       0.06624095       1.09095292       0.10849549 </v>
   <v>      -0.06272102       0.04038492      -0.01924106 </v>
   <v>      -0.04908059      -0.31748822       0.04211375 </v>
   <v>      -0.00290109       0.37273644       0.04936999 </v>
   <v>       0.00518793      -0.30019147      -0.01082939 </v>
   <v>       0.02534101      -0.26555337       0.05521468 </v>
   <v>       0.02263960       0.35731282      -0.02141228 </v>
   <v>       0.06615636      -1.19214491      -0.05678995 </v>
   <v>       0.04026774       0.36570753      -0.06168944 </v>
   <v>      -0.05083037       0.06710955      -0.10976142 </v>
   <v>      -0.10388932       0.83932922       0.08556799 </v>
   <v>       0.00972051       0.03407004       0.05206262 </v>
   <v>       0.00566869      -0.11674681      -0.10915046 </v>
   <v>       0.02153106      -0.28071475      -0.04266926 </v>
   <v>       0.03699700       0.07756607      -0.03617041 </v>
   <v>      -0.05926991      -0.05217706      -0.00713771 </v>
   <v>       0.13793401       0.14590108      -0.12151583 </v>
   <v>      -0.03099879      -0.05637646      -0.10668226 </v>
   <v>      -0.03186878       0.17497037       0.01739779 </v>
   <v>       0.05748407      -0.18477522       0.01660162 </v>
   <v>      -0.08690384       0.07460765      -0.01941020 </v>
   <v>      -0.01542149      -0.19619493      -0.04954983 </v>
   <v>      -0.08070558       0.06987095       0.09352871 </v>
   <v>      -0.07329777      -0.08874881      -0.00143867 </v>
   <v>       0.00518760       0.14133645       0.12323936 </v>
   <v>       0.02923830      -0.08898859       0.05521803 </v>
   <v>       0.05593977       0.15462761      -0.06820091 </v>
   <v>       0.08545256      -0.11676399      -0.01799282 </v>
   <v>      -0.04895888       0.06614860       0.02658086 </v>
   <v>       0.01819776      -0.12810893       0.09168047 </v>
   <v>       0.31564835       0.59404308      -0.47528419 </v>
   <v>      -0.05747471       0.06375104       0.03431590 </v>
   <v>      -0.37187513      -1.07175302      -0.37991530 </v>
   <v>       0.06376123       0.04595846      -0.04723730 </v>
   <v>       0.09773042       0.01213566       0.06499654 </v>
   <v>      -0.33448076      -0.63114080      -0.45455463 </v>
   <v>      -0.35025242       0.57804531       0.48636719 </v>
   <v>       0.65122394      -0.19436724       0.21871624 </v>
   <v>       0.47475301      -0.95788877      -0.47136385 </v>
   <v>      -0.37499483       1.15360036       0.37086450 </v>
   <v>      -0.10601150      -0.13069684      -0.07690140 </v>
   <v>       0.11892168       0.05318248      -0.10375065 </v>
   <v>       0.09678855      -0.11637356       0.07618109 </v>
   <v>      -0.07432173      -0.11068275      -0.76675417 </v>
   <v>      -0.07105533       0.19264036       0.73518085 </v>
   <v>       0.05909459      -0.15351962       0.73891844 </v>
  </varray>
  <varray name="stress" >
   <v>      -8.82897872      -0.29327100      -0.17633985 </v>
   <v>      -0.29327100      -2.86132454       0.34211573 </v>
   <v>      -0.17633989       0.34211579      -9.85507397 </v>
  </varray>
  <energy>
   <i name="e_fr_energy">   -298.14252981 </i>
   <i name="e_wo_entrp">   -298.14252981 </i>
   <i name="e_0_energy">      0.00000000 </i>
  </energy>
  <time name="totalsc">  516.70  523.58</time>
 </calculation>
 <calculation>
  <scstep>
   <time name="dav">   39.63   40.09</time>
   <time name="total">   40.13   40.60</time>
   <energy>
    <i name="alphaZ">   1054.17224280 </i>
    <i name="ewald"> -30164.60123325 </i>
    <i name="hartreedc"> -12964.96243030 </i>
    <i name="XCdc">   1199.30972285 </i>
    <i name="pawpsdc">  43661.60508618 </i>
    <i name="pawaedc"> -42889.97922661 </i>
    <i name="eentropy">      0.00000000 </i>
    <i name="bandstr">  -3825.28118308 </i>
    <i name="atom">  43643.51795008 </i>
    <i name="e_fr_energy">   -286.21907133 </i>
    <i name="e_wo_entrp">   -286.21907133 </i>
    <i name="e_0_energy">   -286.21907133 </i>
   </energy>
  </scstep>
  <scstep>
   <time name="dav">   44.38   44.65</time>
   <time name="total">   44.87   45.25</time>
   <energy>
    <i name="e_fr_energy">   -286.90546176 </i>
    <i name="e_wo_entrp">   -286.90546176 </i>
    <i name="e_0_energy">   -286.90546176 </i>
   </energy>
  </scstep>
  <scstep>
   <time name="dav">   65.11   65.84</time>
   <time name="total">   65.61   66.46</time>
   <energy>
    <i name="e_fr_energy">   -286.89715256 </i>
    <i name="e_wo_entrp">   -286.89715256 </i>
    <i name="e_0_energy">   -286.89715256 </i>
   </energy>
  </scstep>
  <scstep>
   <time name="dav">   46.24   46.75</time>
   <time name="total">   46.75   47.37</time>
   <energy>
    <i name="e_fr_energy">   -286.88143870 </i>
    <i name="e_wo_entrp">   -286.88143870 </i>
    <i name="e_0_energy">   -286.88143870 </i>
   </energy>
  </scstep>
  <scstep>
   <time name="dav">   52.40   52.78</time>
   <time name="total">   52.90   53.35</time>
   <energy>
    <i name="e_fr_energy">   -286.87483691 </i>
    <i name="e_wo_entrp">   -286.87483691 </i>
    <i name="e_0_energy">   -286.87483691 </i>
   </energy>
  </scstep>
  <scstep>
   <time name="dav">   50.98   51.61</time>
   <time name="total">   51.48   52.25</time>
   <energy>
    <i name="e_fr_energy">   -286.87541041 </i>
    <i name="e_wo_entrp">   -286.87541041 </i>
    <i name="e_0_energy">   -286.87541041 </i>
   </energy>
  </scstep>
  <scstep>
   <time name="dav">   59.29   60.16</time>
   <time name="total">   59.78   60.75</time>
   <energy>
    <i name="e_fr_energy">   -286.87537269 </i>
    <i name="e_wo_entrp">   -286.87537269 </i>
    <i name="e_0_energy">   -286.87537269 </i>
   </energy>
  </scstep>
  <scstep>
   <time name="dav">   55.73   55.85</time>
   <time name="total">   56.25   56.45</time>
   <energy>
    <i name="e_fr_energy">   -286.87530691 </i>
    <i name="e_wo_entrp">   -286.87530691 </i>
    <i name="e_0_energy">   -286.87530691 </i>
   </energy>
  </scstep>
  <scstep>
   <time name="dav">   50.06   50.29</time>
   <time name="total">   50.54   50.87</time>
   <energy>
    <i name="e_fr_energy">   -286.87530617 </i>
    <i name="e_wo_entrp">   -286.87530617 </i>
    <i name="e_0_energy">   -286.87530617 </i>
   </energy>
  </scstep>
  <scstep>
   <time name="dav">   48.16   48.31</time>
   <time name="total">   48.65   48.89</time>
   <energy>
    <i name="e_fr_energy">   -286.87530859 </i>
    <i name="e_wo_entrp">   -286.87530859 </i>
    <i name="e_0_energy">   -286.87530859 </i>
   </energy>
  </scstep>
  <scstep>
   <time name="dav">   39.61   40.28</time>
   <time name="total">   39.70   40.45</time>
   <energy>
    <i name="alphaZ">   1054.17224280 </i>
    <i name="ewald"> -30164.60123325 </i>
    <i name="hartreedc"> -12964.70267821 </i>
    <i name="XCdc">   1199.28425583 </i>
    <i name="pawpsdc">  43596.70458878 </i>
    <i name="pawaedc"> -42823.78759455 </i>
    <i name="eentropy">      0.00000000 </i>
    <i name="bandstr">  -3827.46284039 </i>
    <i name="atom">  43643.51795008 </i>
    <i name="e_fr_energy">   -286.87530891 </i>
    <i name="e_wo_entrp">   -286.87530891 </i>
    <i name="e_0_energy">   -286.87530891 </i>
   </energy>
  </scstep>
  <structure>
   <crystal>
    <varray name="basis" >
     <v>      11.17850000       0.00000000       0.00000000 </v>
     <v>       0.00000000       9.57460000       0.00000000 </v>
     <v>       0.00000000       0.00000000      11.18240000 </v>
    </varray>
    <i name="volume">   1196.84853820 </i>
    <varray name="rec_basis" >
     <v>       0.08945744       0.00000000       0.00000000 </v>
     <v>       0.00000000       0.10444301       0.00000000 </v>
     <v>       0.00000000       0.00000000       0.08942624 </v>
    </varray>
   </crystal>
   <varray name="positions" >
    <v>       0.37091236       0.00091664       0.43780164 </v>
    <v>       0.62109167       0.99984474       0.44151582 </v>
    <v>       0.62509663       0.99987809       0.93253941 </v>
    <v>       0.62386106       0.00056773       0.68605692 </v>
    <v>       0.12643505       0.00089489       0.18867900 </v>
    <v>       0.88259293      -0.00097904       0.43877684 </v>
    <v>       0.62348609       0.99902902       0.18840691 </v>
    <v>       0.36746813      -0.00099968       0.93557832 </v>
    <v>       0.12641954       0.99903219       0.68555796 </v>
    <v>       0.88274158       0.00130817       0.93560375 </v>
    <v>       0.00134910       0.29590117       0.06272561 </v>
    <v>       0.25000422       0.70387794       0.06313257 </v>
    <v>       0.25072560       0.29257376       0.31510708 </v>
    <v>       0.49672767       0.70457593       0.31423357 </v>
    <v>       0.49769040       0.30182682       0.06388490 </v>
    <v>       0.75121686       0.69845332       0.06345676 </v>
    <v>       0.75054341       0.30176914       0.31340720 </v>
    <v>       0.00177908       0.70386102       0.31413636 </v>
    <v>       0.00148903       0.29648123       0.56256387 </v>
    <v>       0.25131613       0.70701992       0.56166823 </v>
    <v>       0.25020921       0.29637436       0.81111284 </v>
    <v>       0.49847667       0.70471332       0.80915053 </v>
    <v>       0.49766630       0.29161517       0.56385682 </v>
    <v>       0.74988225       0.70478500       0.56460945 </v>
    <v>       0.75008568       0.29514677       0.80961637 </v>
    <v>       0.00095324       0.70384676       0.81162213 </v>
    <v>       0.25088935       0.32798171       0.06203446 </v>
    <v>      -0.00141057       0.67248237       0.06278282 </v>
    <v>       0.50279102       0.32855255       0.31033578 </v>
    <v>       0.24962067       0.67167724       0.31093678 </v>
    <v>       0.74915092       0.32790047       0.06333626 </v>
    <v>       0.50158952       0.67179957       0.06289902 </v>
    <v>       0.99776659       0.32792482       0.31230831 </v>
    <v>       0.74964729       0.67162529       0.31166647 </v>
    <v>       0.24880127       0.32861792       0.56428097 </v>
    <v>      -0.00154010       0.67172884       0.56283711 </v>
    <v>       0.50037681       0.32851252       0.81549500 </v>
    <v>       0.25029832       0.67171407       0.81422490 </v>
    <v>       0.75106600       0.32872313       0.56159238 </v>
    <v>       0.50176499       0.67096863       0.56268373 </v>
    <v>       0.99902412       0.32786718       0.81350866 </v>
    <v>       0.75012887       0.67176451       0.81477663 </v>
    <v>       0.50677295       0.07523206       0.05624556 </v>
    <v>       0.25034155       0.92014054       0.06196424 </v>
    <v>       0.24489033       0.08029861       0.30655354 </v>
    <v>      -0.00098451       0.92006438       0.31199776 </v>
    <v>       0.99920185       0.07978228       0.06244247 </v>
    <v>       0.74352491       0.92488469       0.05662962 </v>
    <v>       0.74405561       0.07539573       0.31767476 </v>
    <v>       0.51225621       0.92117608       0.31259835 </v>
    <v>       0.50715072       0.07967330       0.55623879 </v>
    <v>       0.24448094       0.91971010       0.56787524 </v>
    <v>       0.24985076       0.07992912       0.81305274 </v>
    <v>      -0.00011467       0.92005480       0.81268651 </v>
    <v>       0.99927858       0.07997473       0.56251334 </v>
    <v>       0.74924360       0.92134312       0.55070927 </v>
    <v>       0.74888170       0.07851604       0.82446390 </v>
    <v>       0.50176452       0.92138926       0.82471381 </v>
   </varray>
  </structure>
  <varray name="forces" >
   <v>      -0.27550926       0.04387956       0.03625563 </v>
   <v>      -0.01653929      -0.00219505       0.07334113 </v>
   <v>      -0.00019824       0.00362515      -0.01329879 </v>
   <v>      -0.00943993       0.04711731      -0.01498005 </v>
   <v>      -0.15603244      -0.04448476      -0.14399438 </v>
   <v>       0.03188519       0.00696599      -0.12657799 </v>
   <v>       0.24460603       0.08164784      -0.25682867 </v>
   <v>      -0.07352584      -0.00059985       0.13849273 </v>
   <v>      -0.15185457       0.05353383       0.16180185 </v>
   <v>       0.05994788      -0.00709471       0.14601675 </v>
   <v>      -0.10677913       0.14643467       0.00199276 </v>
   <v>       0.07564312      -0.14235664      -0.05502302 </v>
   <v>      -0.02389487      -0.12829674      -0.12227528 </v>
   <v>       0.22308206       0.04030548      -0.17775791 </v>
   <v>       0.13824214      -0.44985830      -0.02926069 </v>
   <v>      -0.11128486       0.44656704       0.02944395 </v>
   <v>      -0.05783121      -0.44080884      -0.05814536 </v>
   <v>      -0.14992090      -0.12224583      -0.02706639 </v>
   <v>      -0.12560328       0.10819584      -0.02076024 </v>
   <v>      -0.07737017       0.18706402       0.07899158 </v>
   <v>       0.03663793       0.11826586       0.08819443 </v>
   <v>       0.03809770       0.06512388       0.17313907 </v>
   <v>       0.13077883      -0.09524251      -0.00203782 </v>
   <v>       0.05881524       0.04143015      -0.10088250 </v>
   <v>      -0.00268522      -0.03839036       0.10304137 </v>
   <v>      -0.05669335      -0.13940857       0.02919366 </v>
   <v>      -0.02299549       0.09423559       0.02608494 </v>
   <v>       0.04857256      -0.05097790      -0.00864204 </v>
   <v>      -0.06157504       0.16244946       0.05295736 </v>
   <v>      -0.03533244      -0.06296942       0.01638985 </v>
   <v>       0.03111533       0.20883993      -0.01360412 </v>
   <v>      -0.05673677      -0.22786234       0.03198103 </v>
   <v>       0.08673257       0.09025101       0.02434953 </v>
   <v>       0.00725665      -0.24594221       0.02978143 </v>
   <v>       0.00905599       0.08611080       0.00171524 </v>
   <v>       0.03702304      -0.11381330      -0.00153686 </v>
   <v>      -0.04046807       0.15193349      -0.06714987 </v>
   <v>       0.02468105      -0.11353462      -0.04967967 </v>
   <v>      -0.00868297       0.17249699       0.00321095 </v>
   <v>      -0.03955979      -0.11055629      -0.02128376 </v>
   <v>       0.00001711       0.06960938      -0.01674410 </v>
   <v>       0.01926898      -0.12896473      -0.02324252 </v>
   <v>       0.06349783       0.68176751      -0.23625274 </v>
   <v>      -0.09259492      -0.09352568       0.04613194 </v>
   <v>      -0.07861408       0.24345087      -0.07333405 </v>
   <v>       0.08848520      -0.09819783      -0.04898166 </v>
   <v>       0.14258424       0.04486969       0.08432109 </v>
   <v>      -0.10449841      -0.66689087      -0.23074740 </v>
   <v>      -0.12032383       0.68456481       0.28731097 </v>
   <v>       0.22923723      -0.27434029       0.23473797 </v>
   <v>       0.20484276       0.04514628      -0.20322736 </v>
   <v>      -0.07339555      -0.32523069       0.08680539 </v>
   <v>      -0.12815446       0.13609340      -0.10047256 </v>
   <v>       0.15548251      -0.07047058      -0.14141571 </v>
   <v>       0.11958255       0.14261911       0.11340714 </v>
   <v>      -0.01403855      -0.18019536      -0.37599389 </v>
   <v>       0.01074938       0.15710336       0.33063345 </v>
   <v>      -0.04378814      -0.18724400       0.33147421 </v>
  </varray>
  <varray name="stress" >
   <v>      -7.65673507      -0.03507078      -0.63416981 </v>
   <v>      -0.03507071     -14.23486475       0.44184858 </v>
   <v>      -0.63416964       0.44184850      -7.26420714 </v>
  </varray>
  <energy>
   <i name="e_fr_energy">   -298.56024390 </i>
   <i name="e_wo_entrp">   -298.56024390 </i>
   <i name="e_0_energy">      0.00000000 </i>
  </energy>
  <time name="totalsc">  633.87  641.24</time>
 </calculation>
 <calculation>
  <scstep>
   <time name="dav">   40.38   40.52</time>
   <time name="total">   40.88   41.03</time>
   <energy>
    <i name="alphaZ">   1054.17224280 </i>
    <i name="ewald"> -30172.14592435 </i>
    <i name="hartreedc"> -12957.53879978 </i>
    <i name="XCdc">   1199.23165030 </i>
    <i name="pawpsdc">  43596.64954264 </i>
    <i name="pawaedc"> -42823.73074284 </i>
    <i name="eentropy">      0.00000000 </i>
    <i name="bandstr">  -3826.99219424 </i>
    <i name="atom">  43643.51795008 </i>
    <i name="e_fr_energy">   -286.83627538 </i>
    <i name="e_wo_entrp">   -286.83627538 </i>
    <i name="e_0_energy">   -286.83627538 </i>
   </energy>
  </scstep>
  <scstep>
   <time name="dav">   45.65   46.16</time>
   <time name="total">   46.14   46.73</time>
   <energy>
    <i name="e_fr_energy">   -286.89897974 </i>
    <i name="e_wo_entrp">   -286.89897974 </i>
    <i name="e_0_energy">   -286.89897974 </i>
   </energy>
  </scstep>
  <scstep>
   <time name="dav">   61.79   62.33</time>
   <time name="total">   62.28   62.90</time>
   <energy>
    <i name="e_fr_energy">   -286.89810137 </i>
    <i name="e_wo_entrp">   -286.89810137 </i>
    <i name="e_0_energy">   -286.89810137 </i>
   </energy>
  </scstep>
  <scstep>
   <time name="dav">   48.79   49.01</time>
   <time name="total">   49.27   49.57</time>
   <energy>
    <i name="e_fr_energy">   -286.89640014 </i>
    <i name="e_wo_entrp">   -286.89640014 </i>
    <i name="e_0_energy">   -286.89640014 </i>
   </energy>
  </scstep>
  <scstep>
   <time name="dav">   52.87   53.51</time>
   <time name="total">   53.36   54.08</time>
   <energy>
    <i name="e_fr_energy">   -286.89596909 </i>
    <i name="e_wo_entrp">   -286.89596909 </i>
    <i name="e_0_energy">   -286.89596909 </i>
   </energy>
  </scstep>
  <scstep>
   <time name="dav">   54.39   54.90</time>
   <time name="total">   54.88   55.46</time>
   <energy>
    <i name="e_fr_energy">   -286.89601524 </i>
    <i name="e_wo_entrp">   -286.89601524 </i>
    <i name="e_0_energy">   -286.89601524 </i>
   </energy>
  </scstep>
  <scstep>
   <time name="dav">   54.03   54.74</time>
   <time name="total">   54.52   55.30</time>
   <energy>
    <i name="e_fr_energy">   -286.89601090 </i>
    <i name="e_wo_entrp">   -286.89601090 </i>
    <i name="e_0_energy">   -286.89601090 </i>
   </energy>
  </scstep>
  <scstep>
   <time name="dav">   49.07   49.62</time>
   <time name="total">   49.55   50.21</time>
   <energy>
    <i name="e_fr_energy">   -286.89600522 </i>
    <i name="e_wo_entrp">   -286.89600522 </i>
    <i name="e_0_energy">   -286.89600522 </i>
   </energy>
  </scstep>
  <scstep>
   <time name="dav">   44.70   45.31</time>
   <time name="total">   44.76   45.45</time>
   <energy>
    <i name="alphaZ">   1054.17224280 </i>
    <i name="ewald"> -30172.14592435 </i>
    <i name="hartreedc"> -12957.31591431 </i>
    <i name="XCdc">   1199.21265315 </i>
    <i name="pawpsdc">  43578.36637467 </i>
    <i name="pawaedc"> -42805.08040542 </i>
    <i name="eentropy">      0.00000000 </i>
    <i name="bandstr">  -3827.62298264 </i>
    <i name="atom">  43643.51795008 </i>
    <i name="e_fr_energy">   -286.89600602 </i>
    <i name="e_wo_entrp">   -286.89600602 </i>
    <i name="e_0_energy">   -286.89600602 </i>
   </energy>
  </scstep>
  <structure>
   <crystal>
    <varray name="basis" >
     <v>      11.17850000       0.00000000       0.00000000 </v>
     <v>       0.00000000       9.57460000       0.00000000 </v>
     <v>       0.00000000       0.00000000      11.18240000 </v>
    </varray>
    <i name="volume">   1196.84853820 </i>
    <varray name="rec_basis" >
     <v>       0.08945744       0.00000000       0.00000000 </v>
     <v>       0.00000000       0.10444301       0.00000000 </v>
     <v>       0.00000000       0.00000000       0.08942624 </v>
    </varray>
   </crystal>
   <varray name="positions" >
    <v>       0.37017218       0.00103142       0.43791826 </v>
    <v>       0.62047788       0.99984521       0.44222001 </v>
    <v>       0.62505858       0.99988693       0.93191727 </v>
    <v>       0.62377861       0.00068005       0.68597121 </v>
    <v>       0.12661827       0.00101686       0.18886272 </v>
    <v>       0.88359410      -0.00112905       0.43895867 </v>
    <v>       0.62346320       0.99895822       0.18846760 </v>
    <v>       0.36633903      -0.00115896       0.93550074 </v>
    <v>       0.12660274       0.99895899       0.68545158 </v>
    <v>       0.88377664       0.00146447       0.93553298 </v>
    <v>       0.00146756       0.29617953       0.06270884 </v>
    <v>       0.25002751       0.70347689       0.06315984 </v>
    <v>       0.25087483       0.29352868       0.31544039 </v>
    <v>       0.49635221       0.70459751       0.31435710 </v>
    <v>       0.49739854       0.30213883       0.06403306 </v>
    <v>       0.75132321       0.69823110       0.06356888 </v>
    <v>       0.75061598       0.30209466       0.31345581 </v>
    <v>       0.00199497       0.70346936       0.31432129 </v>
[...]
       <r>    8.8004    0.0000 </r>
       <r>    8.8318    0.0000 </r>
       <r>    8.8635    0.0000 </r>
       <r>    8.8768    0.0000 </r>
       <r>    8.9080    0.0000 </r>
       <r>    8.9326    0.0000 </r>
       <r>    8.9704    0.0000 </r>
       <r>    9.8169    0.0000 </r>
       <r>    9.9250    0.0000 </r>
       <r>   10.0019    0.0000 </r>
       <r>   10.1741    0.0000 </r>
      </set>
     </set>
    </set>
   </array>
  </eigenvalues>
  <separator name="orbital magnetization" >
   <v name="MAGDIPOLOUT">      0.00000000      0.00000000      0.00000000</v>
  </separator>
  <dos>
   <i name="efermi">      4.37143798 </i>
   <total>
    <array>
     <dimension dim="1">gridpoints</dimension>
     <dimension dim="2">spin</dimension>
     <field>energy</field>
     <field>total</field>
     <field>integrated</field>
     <set>
      <set comment="spin 1">
       <r>   -43.1011     0.0000     0.0000 </r>
       <r>   -42.9144     0.0000     0.0000 </r>
       <r>   -42.7277     0.0000     0.0000 </r>
       <r>   -42.5410     0.0000     0.0000 </r>
       <r>   -42.3543     0.0000     0.0000 </r>
       <r>   -42.1676     0.0000     0.0000 </r>
       <r>   -41.9808     0.0000     0.0000 </r>
       <r>   -41.7941     0.0000     0.0000 </r>
       <r>   -41.6074     0.0000     0.0000 </r>
       <r>   -41.4207     0.0000     0.0000 </r>
       <r>   -41.2340     0.0000     0.0000 </r>
       <r>   -41.0473     0.0000     0.0000 </r>
       <r>   -40.8605     0.0000     0.0000 </r>
       <r>   -40.6738     0.0000     0.0000 </r>
       <r>   -40.4871     0.0000     2.0000 </r>
       <r>   -40.3004     0.0000     2.0000 </r>
       <r>   -40.1137     0.0000     4.0000 </r>
       <r>   -39.9270     0.0000     4.0000 </r>
       <r>   -39.7402     0.0000     4.0000 </r>
       <r>   -39.5535     0.0000     4.0000 </r>
       <r>   -39.3668     0.0000     4.0000 </r>
       <r>   -39.1801     0.0000     4.0000 </r>
       <r>   -38.9934     0.0000     6.0000 </r>
       <r>   -38.8067     0.0000     8.0000 </r>
       <r>   -38.6199     0.0000     8.0000 </r>
       <r>   -38.4332     0.0000     8.0000 </r>
       <r>   -38.2465     0.0000     8.0000 </r>
       <r>   -38.0598     0.0000     8.0000 </r>
       <r>   -37.8731     0.0000     8.0000 </r>
       <r>   -37.6864     0.0000     8.0000 </r>
       <r>   -37.4996     0.0000     8.0000 </r>
       <r>   -37.3129     0.0000     8.0000 </r>
       <r>   -37.1262     0.0000     8.0000 </r>
       <r>   -36.9395     0.0000     8.0000 </r>
       <r>   -36.7528     0.0000     8.0000 </r>
       <r>   -36.5661     0.0000     8.0000 </r>
       <r>   -36.3794     0.0000     8.0000 </r>
       <r>   -36.1926     0.0000     8.0000 </r>
       <r>   -36.0059     0.0000     8.0000 </r>
       <r>   -35.8192     0.0000     8.0000 </r>
       <r>   -35.6325     0.0000     8.0000 </r>
       <r>   -35.4458     0.0000     8.0000 </r>
       <r>   -35.2591     0.0000     8.0000 </r>
       <r>   -35.0723     0.0000     8.0000 </r>
       <r>   -34.8856     0.0000     8.0000 </r>
       <r>   -34.6989     0.0000     8.0000 </r>
       <r>   -34.5122     0.0000     8.0000 </r>
       <r>   -34.3255     0.0000     8.0000 </r>
       <r>   -34.1388     0.0000     8.0000 </r>
       <r>   -33.9520     0.0000     8.0000 </r>
       <r>   -33.7653     0.0000     8.0000 </r>
       <r>   -33.5786     0.0000     8.0000 </r>
       <r>   -33.3919     0.0000     8.0000 </r>
       <r>   -33.2052     0.0000     8.0000 </r>
       <r>   -33.0185     0.0000     8.0000 </r>
       <r>   -32.8317     0.0000     8.0000 </r>
       <r>   -32.6450     0.0000     8.0000 </r>
       <r>   -32.4583     0.0000     8.0000 </r>
       <r>   -32.2716     0.0000     8.0000 </r>
       <r>   -32.0849     0.0000     8.0000 </r>
       <r>   -31.8982     0.0000     8.0000 </r>
       <r>   -31.7114     0.0000     8.0000 </r>
       <r>   -31.5247     0.0000     8.0000 </r>
       <r>   -31.3380     0.0000     8.0000 </r>
       <r>   -31.1513     0.0000     8.0000 </r>
       <r>   -30.9646     0.0000     8.0000 </r>
       <r>   -30.7779     0.0000     8.0000 </r>
       <r>   -30.5912     0.0000     8.0000 </r>
       <r>   -30.4044     0.0000     8.0000 </r>
       <r>   -30.2177     0.0000     8.0000 </r>
       <r>   -30.0310     0.0000     8.0000 </r>
       <r>   -29.8443     0.0000     8.0000 </r>
       <r>   -29.6576     0.0000     8.0000 </r>
       <r>   -29.4709     0.0000     8.0000 </r>
       <r>   -29.2841     0.0000     8.0000 </r>
       <r>   -29.0974     0.0000     8.0000 </r>
       <r>   -28.9107     0.0000     8.0000 </r>
       <r>   -28.7240     0.0000     8.0000 </r>
       <r>   -28.5373     0.0000     8.0000 </r>
       <r>   -28.3506     0.0000     8.0000 </r>
       <r>   -28.1638     0.0000     8.0000 </r>
       <r>   -27.9771     0.0000     8.0000 </r>
       <r>   -27.7904     0.0000     8.0000 </r>
       <r>   -27.6037     0.0000     8.0000 </r>
       <r>   -27.4170     0.0000     8.0000 </r>
       <r>   -27.2303     0.0000     8.0000 </r>
       <r>   -27.0435     0.0000     8.0000 </r>
       <r>   -26.8568     0.0000     8.0000 </r>
       <r>   -26.6701     0.0000     8.0000 </r>
       <r>   -26.4834     0.0000     8.0000 </r>
       <r>   -26.2967     0.0000     8.0000 </r>
       <r>   -26.1100     0.0000     8.0000 </r>
       <r>   -25.9232     0.0000     8.0000 </r>
       <r>   -25.7365     0.0000     8.0000 </r>
       <r>   -25.5498     0.0000     8.0000 </r>
       <r>   -25.3631     0.0000     8.0000 </r>
       <r>   -25.1764     0.0000     8.0000 </r>
       <r>   -24.9897     0.0000     8.0000 </r>
       <r>   -24.8030     0.0000     8.0000 </r>
       <r>   -24.6162     0.0000     8.0000 </r>
       <r>   -24.4295     0.0000     8.0000 </r>
       <r>   -24.2428     0.0000     8.0000 </r>
       <r>   -24.0561     0.0000     8.0000 </r>
       <r>   -23.8694     0.0000     8.0000 </r>
       <r>   -23.6827     0.0000     8.0000 </r>
       <r>   -23.4959     0.0000     8.0000 </r>
       <r>   -23.3092     0.0000     8.0000 </r>
       <r>   -23.1225     0.0000     8.0000 </r>
       <r>   -22.9358     0.0000     8.0000 </r>
       <r>   -22.7491     0.0000     8.0000 </r>
       <r>   -22.5624     0.0000     8.0000 </r>
       <r>   -22.3756     0.0000     8.0000 </r>
       <r>   -22.1889     0.0000     8.0000 </r>
       <r>   -22.0022     0.0000     8.0000 </r>
       <r>   -21.8155     0.0000     8.0000 </r>
       <r>   -21.6288     0.0000     8.0000 </r>
       <r>   -21.4421     0.0000     8.0000 </r>
       <r>   -21.2553     0.0000     8.0000 </r>
       <r>   -21.0686     0.0000     8.0000 </r>
       <r>   -20.8819     0.0000     8.0000 </r>
       <r>   -20.6952     0.0000     8.0000 </r>
       <r>   -20.5085     0.0000     8.0000 </r>
       <r>   -20.3218     0.0000     8.0000 </r>
       <r>   -20.1351     0.0000     8.0000 </r>
       <r>   -19.9483     0.0000     8.0000 </r>
       <r>   -19.7616     0.0000     8.0000 </r>
       <r>   -19.5749     0.0000     8.0000 </r>
       <r>   -19.3882     0.0000     8.0000 </r>
       <r>   -19.2015     0.0000     8.0000 </r>
       <r>   -19.0148     0.0000     8.0000 </r>
       <r>   -18.8280     0.0000    10.0000 </r>
       <r>   -18.6413     0.0000    84.0000 </r>
       <r>   -18.4546     0.0000   156.0000 </r>
       <r>   -18.2679     0.0000   168.0000 </r>
       <r>   -18.0812     0.0000   168.0000 </r>
       <r>   -17.8945     0.0000   168.0000 </r>
       <r>   -17.7077     0.0000   168.0000 </r>
       <r>   -17.5210     0.0000   168.0000 </r>
       <r>   -17.3343     0.0000   168.0000 </r>
       <r>   -17.1476     0.0000   168.0000 </r>
       <r>   -16.9609     0.0000   168.0000 </r>
       <r>   -16.7742     0.0000   168.0000 </r>
       <r>   -16.5874     0.0000   168.0000 </r>
       <r>   -16.4007     0.0000   168.0000 </r>
       <r>   -16.2140     0.0000   168.0000 </r>
       <r>   -16.0273     0.0000   168.0000 </r>
       <r>   -15.8406     0.0000   168.0000 </r>
       <r>   -15.6539     0.0000   168.0000 </r>
       <r>   -15.4671     0.0000   168.0000 </r>
       <r>   -15.2804     0.0000   168.0000 </r>
       <r>   -15.0937     0.0000   168.0000 </r>
       <r>   -14.9070     0.0000   168.0000 </r>
       <r>   -14.7203     0.0000   168.0000 </r>
       <r>   -14.5336     0.0000   168.0000 </r>
       <r>   -14.3469     0.0000   168.0000 </r>
       <r>   -14.1601     0.0000   168.0000 </r>
       <r>   -13.9734     0.0000   168.0000 </r>
       <r>   -13.7867     0.0000   168.0000 </r>
       <r>   -13.6000     0.0000   168.0000 </r>
       <r>   -13.4133     0.0000   168.0000 </r>
       <r>   -13.2266     0.0000   168.0000 </r>
       <r>   -13.0398    19.8726   170.0256 </r>
       <r>   -12.8531     0.0000   178.0000 </r>
       <r>   -12.6664     0.0000   194.0000 </r>
       <r>   -12.4797     0.0000   194.0000 </r>
       <r>   -12.2930     0.0000   200.0000 </r>
       <r>   -12.1063     0.0000   200.0000 </r>
       <r>   -11.9195     0.0000   200.0000 </r>
       <r>   -11.7328     0.0000   200.0000 </r>
       <r>   -11.5461     0.0000   200.0000 </r>
       <r>   -11.3594     0.0000   200.0000 </r>
       <r>   -11.1727     0.0000   200.0000 </r>
       <r>   -10.9860     0.0000   200.0000 </r>
       <r>   -10.7992     0.0000   200.0000 </r>
       <r>   -10.6125     0.0000   200.0000 </r>
       <r>   -10.4258     0.0000   200.0000 </r>
       <r>   -10.2391     0.0000   200.0000 </r>
       <r>   -10.0524     0.0000   200.0000 </r>
       <r>    -9.8657     0.0000   200.0000 </r>
       <r>    -9.6789     0.0000   200.0000 </r>
       <r>    -9.4922     0.0000   200.0000 </r>
       <r>    -9.3055     8.4759   200.4437 </r>
       <r>    -9.1188    19.8263   202.3205 </r>
       <r>    -8.9321     9.2403   204.2223 </r>
       <r>    -8.7454    14.4231   207.0757 </r>
       <r>    -8.5587    21.1391   209.4217 </r>
       <r>    -8.3719    23.0614   214.2251 </r>
       <r>    -8.1852    28.9146   217.1268 </r>
       <r>    -7.9985    25.2333   222.1720 </r>
       <r>    -7.8118    19.5928   226.2463 </r>
       <r>    -7.6251    21.9518   229.3958 </r>
       <r>    -7.4384     2.1445   231.9816 </r>
       <r>    -7.2516     0.0000   232.0000 </r>
       <r>    -7.0649     0.0000   232.0000 </r>
       <r>    -6.8782     0.0000   232.0000 </r>
       <r>    -6.6915     0.0000   232.0000 </r>
       <r>    -6.5048     0.0000   232.0000 </r>
       <r>    -6.3181     6.5645   232.2274 </r>
       <r>    -6.1313    25.9852   235.2241 </r>
       <r>    -5.9446    19.5700   240.0611 </r>
       <r>    -5.7579    33.5651   243.8051 </r>
       <r>    -5.5712    18.7608   248.6235 </r>
       <r>    -5.3845    20.6189   252.4402 </r>
       <r>    -5.1978    10.7989   255.3427 </r>
       <r>    -5.0110     4.2493   256.2321 </r>
       <r>    -4.8243     8.9263   257.5843 </r>
       <r>    -4.6376    11.8303   259.4898 </r>
       <r>    -4.4509     5.0381   260.9170 </r>
       <r>    -4.2642     7.9288   262.1138 </r>
       <r>    -4.0775     4.5194   263.3381 </r>
       <r>    -3.8907     1.4439   263.8367 </r>
       <r>    -3.7040     0.2387   263.9933 </r>
       <r>    -3.5173     0.0000   264.0000 </r>
       <r>    -3.3306     0.0000   264.0000 </r>
       <r>    -3.1439     0.0000   264.0000 </r>
       <r>    -2.9572     0.0000   264.0000 </r>
       <r>    -2.7705     0.0000   264.0000 </r>
       <r>    -2.5837     0.0000   264.0000 </r>
       <r>    -2.3970     0.0000   264.0000 </r>
       <r>    -2.2103     0.0000   264.0000 </r>
       <r>    -2.0236     0.0000   264.0000 </r>
       <r>    -1.8369     0.0000   264.0000 </r>
       <r>    -1.6502     0.0000   264.0000 </r>
       <r>    -1.4634     0.6355   264.0160 </r>
       <r>    -1.2767     5.6421   264.5139 </r>
       <r>    -1.0900     9.8690   266.1216 </r>
       <r>    -0.9033    13.1615   268.0892 </r>
       <r>    -0.7166     8.9061   270.3398 </r>
       <r>    -0.5299     5.9082   271.5825 </r>
       <r>    -0.3431    22.2592   274.2047 </r>
       <r>    -0.1564    34.3889   279.1340 </r>
       <r>     0.0303    36.3488   286.7070 </r>
       <r>     0.2170    27.0649   293.4129 </r>
       <r>     0.4037    38.9203   301.0934 </r>
       <r>     0.5904    33.6504   308.5988 </r>
       <r>     0.7772    47.8279   315.3031 </r>
       <r>     0.9639    33.5324   323.0506 </r>
       <r>     1.1506    50.1452   332.5321 </r>
       <r>     1.3373    41.7876   340.0006 </r>
       <r>     1.5240    48.9390   349.9087 </r>
       <r>     1.7107    51.7917   357.4285 </r>
       <r>     1.8974    34.6329   365.1870 </r>
       <r>     2.0842    54.0001   373.2599 </r>
       <r>     2.2709    45.3223   381.7062 </r>
       <r>     2.4576    65.6211   392.0253 </r>
       <r>     2.6443    57.9124   401.4635 </r>
       <r>     2.8310    67.6409   414.4715 </r>
       <r>     3.0177    59.7257   429.3404 </r>
       <r>     3.2045    38.7096   437.9958 </r>
       <r>     3.3912    42.2293   444.2171 </r>
       <r>     3.5779    19.6247   450.5160 </r>
       <r>     3.7646    11.8622   453.4794 </r>
       <r>     3.9513     6.6197   455.2050 </r>
       <r>     4.1380     1.3753   455.9510 </r>
       <r>     4.3248     0.0000   456.0000 </r>
       <r>     4.5115     0.0000   456.0000 </r>
       <r>     4.6982     0.0000   456.0000 </r>
       <r>     4.8849     0.0000   456.0000 </r>
       <r>     5.0716     0.5047   456.0150 </r>
       <r>     5.2583     3.1326   456.3132 </r>
       <r>     5.4451     7.6928   457.3238 </r>
       <r>     5.6318     9.7675   459.0663 </r>
       <r>     5.8185    20.0322   462.0214 </r>
       <r>     6.0052    13.2660   465.5546 </r>
       <r>     6.1919    11.9616   467.8578 </r>
       <r>     6.3786    13.3880   470.1912 </r>
       <r>     6.5654    15.2751   472.8675 </r>
       <r>     6.7521    17.2795   475.8996 </r>
       <r>     6.9388    20.3807   479.3731 </r>
       <r>     7.1255    26.2115   483.7114 </r>
       <r>     7.3122    33.3536   489.1533 </r>
       <r>     7.4989    32.8897   495.8817 </r>
       <r>     7.6856    34.6027   501.1870 </r>
       <r>     7.8724    48.0090   509.0891 </r>
       <r>     8.0591    33.6479   517.3325 </r>
       <r>     8.2458    18.9925   521.7841 </r>
       <r>     8.4325    18.1559   525.2290 </r>
       <r>     8.6192    25.2548   529.1519 </r>
       <r>     8.8059    56.0541   535.3689 </r>
       <r>     8.9927    33.5164   543.3849 </r>
       <r>     9.1794    15.4189   547.5559 </r>
       <r>     9.3661    11.4198   550.0451 </r>
       <r>     9.5528     9.4777   552.2691 </r>
       <r>     9.7395    12.4096   554.3436 </r>
       <r>     9.9262     8.7251   556.3100 </r>
       <r>    10.1130    13.0208   558.2134 </r>
       <r>    10.2997     3.1776   559.9008 </r>
       <r>    10.4864     0.0000   560.0000 </r>
       <r>    10.6731     0.0000   560.0000 </r>
       <r>    10.8598     0.0000   560.0000 </r>
       <r>    11.0465     0.0000   560.0000 </r>
       <r>    11.2333     0.0000   560.0000 </r>
       <r>    11.4200     0.0000   560.0000 </r>
       <r>    11.6067     0.0000   560.0000 </r>
       <r>    11.7934     0.0000   560.0000 </r>
       <r>    11.9801     0.0000   560.0000 </r>
       <r>    12.1668     0.0000   560.0000 </r>
       <r>    12.3536     0.0000   560.0000 </r>
       <r>    12.5403     0.0000   560.0000 </r>
       <r>    12.7270     0.0000   560.0000 </r>
       <r>    12.9137     0.0000   560.0000 </r>
      </set>
     </set>
    </array>
   </total>
  </dos>
 </calculation>
 <structure name="finalpos" >
  <crystal>
   <varray name="basis" >
    <v>      11.17850000       0.00000000       0.00000000 </v>
    <v>       0.00000000       9.57460000       0.00000000 </v>
    <v>       0.00000000       0.00000000      11.18240000 </v>
   </varray>
   <i name="volume">   1196.84853820 </i>
   <varray name="rec_basis" >
    <v>       0.08945744       0.00000000       0.00000000 </v>
    <v>       0.00000000       0.10444301       0.00000000 </v>
    <v>       0.00000000       0.00000000       0.08942624 </v>
   </varray>
  </crystal>
  <varray name="positions" >
   <v>       0.36052102       0.00259398       0.43965627 </v>
   <v>       0.62116359       0.99842845       0.44235125 </v>
   <v>       0.62483792       0.00006437       0.93143232 </v>
   <v>       0.62299023       0.00249281       0.68470295 </v>
   <v>       0.12238782      -0.00131900       0.18477553 </v>
   <v>       0.88657285      -0.00046637       0.43667811 </v>
   <v>       0.62861839       0.00119604       0.18452530 </v>
   <v>       0.36206638      -0.00080938       0.93789988 </v>
   <v>       0.12240837       0.00157482       0.68995954 </v>
   <v>       0.88781029       0.00095648       0.93782828 </v>
   <v>      -0.00037700       0.30101765       0.06323163 </v>
   <v>       0.25119209       0.69845203       0.06300280 </v>
   <v>       0.24992323       0.29487426       0.31250443 </v>
   <v>       0.50181794       0.70114357       0.31165662 </v>
   <v>       0.50049579       0.30358064       0.06303954 </v>
   <v>       0.74880603       0.69616028       0.06338938 </v>
   <v>       0.74875821       0.30401354       0.31317318 </v>
   <v>      -0.00037103       0.69860022       0.31317277 </v>
   <v>      -0.00032596       0.30159559       0.56228327 </v>
   <v>       0.25011829       0.70470594       0.56291430 </v>
   <v>       0.25087865       0.30169712       0.81201385 </v>
   <v>       0.49923560       0.70232886       0.81292100 </v>
   <v>       0.50051567       0.29167927       0.56291852 </v>
   <v>       0.75040332       0.70245663       0.56112846 </v>
   <v>       0.75023005       0.29751585       0.81277889 </v>
   <v>      -0.00006079       0.69900154       0.81186563 </v>
   <v>       0.25007160       0.33185358       0.06253426 </v>
   <v>      -0.00049659       0.67066833       0.06240732 </v>
   <v>       0.50156946       0.33498403       0.31154776 </v>
   <v>       0.24844377       0.66921203       0.31077175 </v>
   <v>       0.75013660       0.33563839       0.06279431 </v>
   <v>       0.50043549       0.66280848       0.06353904 </v>
   <v>       0.99970356       0.33164279       0.31256199 </v>
   <v>       0.75005902       0.66155724       0.31212735 </v>
   <v>       0.24905305       0.33209518       0.56455405 </v>
   <v>      -0.00101414       0.66667923       0.56278382 </v>
   <v>       0.49974019       0.33469814       0.81382786 </v>
   <v>       0.25105608       0.66662664       0.81330537 </v>
   <v>       0.75072324       0.33594607       0.56196080 </v>
   <v>       0.50132699       0.66662948       0.56238535 </v>
   <v>       0.99849242       0.33104051       0.81354574 </v>
   <v>       0.75077422       0.66674781       0.81453908 </v>
   <v>       0.51152174       0.08276999       0.05085139 </v>
   <v>       0.24847793       0.91587922       0.06278525 </v>
   <v>       0.24199518       0.08262792       0.30330662 </v>
   <v>      -0.00023005       0.91608801       0.31054752 </v>
   <v>       0.00124762       0.08292097       0.06406338 </v>
   <v>       0.73897961       0.91817267       0.05150372 </v>
   <v>       0.73988860       0.08350774       0.32315649 </v>
   <v>       0.52363466       0.91631940       0.31421275 </v>
   <v>       0.51272139       0.07963304       0.55235262 </v>
   <v>       0.24114797       0.91686385       0.57165627 </v>
   <v>       0.24724804       0.08470324       0.81191110 </v>
   <v>       0.00233270       0.91623894       0.81074312 </v>
   <v>       0.00093791       0.08468078       0.56454464 </v>
   <v>       0.75044194       0.91734305       0.53819579 </v>
   <v>       0.75032560       0.08183921       0.83570733 </v>
   <v>       0.49941725       0.91776884       0.83633247 </v>
  </varray>
 </structure>
</modeling>
