<?xml version="1.0" encoding="ISO-8859-1"?>
<modeling>
 <generator>
  <i name="program" type="string">vasp </i>
  <i name="version" type="string">5.4.4.18Apr17-6-g9f103f2a35  </i>
  <i name="subversion" type="string">(build Jul 31 2017 11:33:29) complex            parallel </i>
  <i name="platform" type="string">LinuxIFC </i>
  <i name="date" type="string">2021 09 29 </i>
  <i name="time" type="string">15:31:24 </i>
 </generator>
 <incar>
  <i type="string" name="SYSTEM"> La2O2S</i>
  <i type="string" name="PREC">normal</i>
  <i type="int" name="NELMIN">     4</i>
  <i type="int" name="IBRION">     2</i>
  <i type="int" name="NFREE">    10</i>
  <i name="EDIFF">      0.00000100</i>
  <i name="EDIFFG">     -0.01000000</i>
  <i type="int" name="NSW">     1</i>
  <i type="int" name="ISIF">     2</i>
  <i name="ENCUT">    600.00000000</i>
  <i name="ENAUG">    900.00000000</i>
  <i type="int" name="ISMEAR">    -5</i>
  <i type="logical" name="LWAVE"> F  </i>
  <i type="logical" name="LCHARG"> F  </i>
  <v type="int" name="KPOINT_BSE">    -1     0     0     0</v>
 </incar>
 <structure name="primitive_cell" >
  <crystal>
   <varray name="basis" >
    <v>      11.17850000       0.00000000       0.00000000 </v>
    <v>       0.00000000       9.57460000       0.00000000 </v>
    <v>       0.00000000       0.00000000      11.18240000 </v>
   </varray>
   <i name="volume">   1196.84853820 </i>
   <varray name="rec_basis" >
    <v>       0.08945744       0.00000000       0.00000000 </v>
    <v>       0.00000000       0.10444301       0.00000000 </v>
    <v>       0.00000000       0.00000000       0.08942624 </v>
   </varray>
  </crystal>
  <varray name="positions" >
   <v>       0.37539000       0.00017000       0.43687000 </v>
   <v>      -0.49987000      -0.07798000       0.31246000 </v>
   <v>       0.25013000       0.07798000       0.31246000 </v>
   <v>       0.49987000       0.07798000      -0.43754000 </v>
   <v>       0.24987000      -0.07798000      -0.43754000 </v>
   <v>       0.37461000       0.00017000      -0.31313000 </v>
   <v>       0.49987000      -0.29519000       0.31282000 </v>
   <v>       0.24987000       0.29519000       0.31282000 </v>
   <v>      -0.49987000       0.29519000      -0.43719000 </v>
   <v>       0.25013000      -0.29519000      -0.43719000 </v>
   <v>       0.49995000       0.32677000       0.31286000 </v>
   <v>       0.24995000      -0.32677000       0.31286000 </v>
   <v>      -0.49995000      -0.32677000      -0.43714000 </v>
   <v>       0.25005000       0.32677000      -0.43714000 </v>
   <v>      -0.37539000      -0.00016000       0.18687000 </v>
   <v>      -0.37539000      -0.00016000      -0.31313000 </v>
   <v>       0.12461000      -0.00016000      -0.31313000 </v>
   <v>       0.12461000      -0.00016000       0.18687000 </v>
   <v>       0.49987000       0.07798000       0.06246000 </v>
   <v>      -0.24987000       0.07798000       0.31246000 </v>
   <v>      -0.25013000      -0.07798000      -0.43754000 </v>
   <v>       0.24987000      -0.07798000       0.06246000 </v>
   <v>       0.00013000      -0.07798000       0.31246000 </v>
   <v>      -0.49987000      -0.07798000      -0.18754000 </v>
   <v>      -0.00013000       0.07798000      -0.43754000 </v>
   <v>       0.25013000       0.07798000      -0.18754000 </v>
   <v>      -0.49987000       0.29519000       0.06281000 </v>
   <v>      -0.25013000       0.29519000       0.31282000 </v>
   <v>       0.25013000      -0.29519000       0.06281000 </v>
   <v>      -0.24987000      -0.29519000      -0.43719000 </v>
   <v>      -0.00013000      -0.29519000       0.31282000 </v>
   <v>       0.00013000       0.29519000      -0.43719000 </v>
   <v>       0.49987000      -0.29519000      -0.18718000 </v>
   <v>       0.24987000       0.29519000      -0.18718000 </v>
   <v>      -0.49995000      -0.32677000       0.06286000 </v>
   <v>       0.25005000       0.32677000       0.06286000 </v>
   <v>      -0.25005000      -0.32677000       0.31286000 </v>
   <v>      -0.24995000       0.32677000      -0.43714000 </v>
   <v>      -0.00005000       0.32677000       0.31286000 </v>
   <v>       0.00005000      -0.32677000      -0.43714000 </v>
   <v>       0.49995000       0.32677000      -0.18714000 </v>
   <v>       0.24995000      -0.32677000      -0.18714000 </v>
   <v>      -0.12461000       0.00017000       0.43687000 </v>
   <v>       0.37539000       0.00017000      -0.06313000 </v>
   <v>      -0.25013000      -0.07798000       0.06246000 </v>
   <v>      -0.00013000       0.07798000       0.06246000 </v>
   <v>      -0.24987000       0.07798000      -0.18754000 </v>
   <v>       0.00013000      -0.07798000      -0.18754000 </v>
   <v>      -0.12539000       0.00017000       0.18687000 </v>
   <v>      -0.12539000       0.00017000      -0.31313000 </v>
   <v>      -0.24987000      -0.29519000       0.06281000 </v>
   <v>       0.00013000       0.29519000       0.06281000 </v>
   <v>      -0.25013000       0.29519000      -0.18718000 </v>
   <v>      -0.00013000      -0.29519000      -0.18718000 </v>
   <v>      -0.24995000       0.32677000       0.06286000 </v>
   <v>       0.00005000      -0.32677000       0.06286000 </v>
   <v>      -0.25005000      -0.32677000      -0.18714000 </v>
   <v>      -0.00005000       0.32677000      -0.18714000 </v>
   <v>      -0.12461000       0.00017000      -0.06313000 </v>
  </varray>
 </structure>
 <varray name="primitive_index" >
  <v type="int" >        1 </v>
  <v type="int" >       51 </v>
  <v type="int" >       46 </v>
  <v type="int" >       52 </v>
  <v type="int" >       53 </v>
  <v type="int" >        4 </v>
  <v type="int" >       15 </v>
  <v type="int" >       14 </v>
  <v type="int" >       24 </v>
  <v type="int" >       21 </v>
  <v type="int" >       30 </v>
  <v type="int" >       31 </v>
  <v type="int" >       41 </v>
  <v type="int" >       36 </v>
  <v type="int" >        9 </v>
  <v type="int" >       11 </v>
  <v type="int" >        3 </v>
  <v type="int" >        7 </v>
  <v type="int" >       44 </v>
  <v type="int" >       50 </v>
  <v type="int" >       57 </v>
  <v type="int" >       45 </v>
  <v type="int" >       47 </v>
  <v type="int" >       59 </v>
  <v type="int" >       56 </v>
  <v type="int" >       54 </v>
  <v type="int" >       16 </v>
  <v type="int" >       18 </v>
  <v type="int" >       13 </v>
  <v type="int" >       25 </v>
  <v type="int" >       19 </v>
  <v type="int" >       20 </v>
  <v type="int" >       23 </v>
  <v type="int" >       22 </v>
  <v type="int" >       33 </v>
  <v type="int" >       28 </v>
  <v type="int" >       35 </v>
  <v type="int" >       40 </v>
  <v type="int" >       34 </v>
  <v type="int" >       37 </v>
  <v type="int" >       38 </v>
  <v type="int" >       39 </v>
  <v type="int" >        8 </v>
  <v type="int" >       10 </v>
  <v type="int" >       49 </v>
  <v type="int" >       48 </v>
  <v type="int" >       58 </v>
  <v type="int" >       55 </v>
  <v type="int" >        2 </v>
  <v type="int" >        6 </v>
  <v type="int" >       17 </v>
  <v type="int" >       12 </v>
  <v type="int" >       26 </v>
  <v type="int" >       27 </v>
  <v type="int" >       32 </v>
  <v type="int" >       29 </v>
  <v type="int" >       43 </v>
  <v type="int" >       42 </v>
  <v type="int" >        5 </v>
 </varray>
 <kpoints>
  <generation param="Gamma">
   <v type="int" name="divisions">       2        2        2 </v>
   <v name="usershift">      0.00000000       0.00000000       0.00000000 </v>
   <v name="genvec1">      0.50000000       0.00000000       0.00000000 </v>
   <v name="genvec2">      0.00000000       0.50000000       0.00000000 </v>
   <v name="genvec3">      0.00000000       0.00000000       0.50000000 </v>
   <v name="shift">      0.00000000       0.00000000       0.00000000 </v>
  </generation>
  <varray name="kpointlist" >
   <v>       0.00000000       0.00000000       0.00000000 </v>
   <v>       0.50000000       0.00000000       0.00000000 </v>
   <v>       0.00000000       0.50000000       0.00000000 </v>
   <v>       0.50000000       0.50000000       0.00000000 </v>
   <v>       0.00000000       0.00000000       0.50000000 </v>
   <v>       0.50000000       0.00000000       0.50000000 </v>
   <v>       0.00000000       0.50000000       0.50000000 </v>
   <v>       0.50000000       0.50000000       0.50000000 </v>
  </varray>
  <varray name="weights" >
   <v>       0.12500000 </v>
   <v>       0.12500000 </v>
   <v>       0.12500000 </v>
   <v>       0.12500000 </v>
   <v>       0.12500000 </v>
   <v>       0.12500000 </v>
   <v>       0.12500000 </v>
   <v>       0.12500000 </v>
  </varray>
  <varray name="tetrahedronlist"  type="int" >
   <v type="int" >        2        1        2        4        5 </v>
   <v type="int" >        2        1        3        4        5 </v>
   <v type="int" >        2        3        4        5        7 </v>
   <v type="int" >        2        2        4        5        6 </v>
   <v type="int" >        2        4        5        6        8 </v>
   <v type="int" >        2        4        5        7        8 </v>
   <v type="int" >        2        1        2        3        6 </v>
   <v type="int" >        2        2        3        4        6 </v>
   <v type="int" >        2        3        4        6        8 </v>
   <v type="int" >        2        1        3        5        6 </v>
   <v type="int" >        2        3        5        6        7 </v>
   <v type="int" >        2        3        6        7        8 </v>
   <v type="int" >        2        2        3        4        7 </v>
   <v type="int" >        2        1        2        3        7 </v>
   <v type="int" >        2        1        2        5        7 </v>
   <v type="int" >        2        2        4        7        8 </v>
   <v type="int" >        2        2        6        7        8 </v>
   <v type="int" >        2        2        5        6        7 </v>
   <v type="int" >        2        1        3        4        8 </v>
   <v type="int" >        2        1        2        4        8 </v>
   <v type="int" >        2        1        2        6        8 </v>
   <v type="int" >        2        1        3        7        8 </v>
   <v type="int" >        2        1        5        7        8 </v>
   <v type="int" >        2        1        5        6        8 </v>
  </varray>
  <i name="volumeweight">      0.02083333 </i>
 </kpoints>
 <parameters>
  <separator name="general" >
   <i type="string" name="SYSTEM">La2O2S</i>
   <i type="logical" name="LCOMPAT"> F  </i>
  </separator>
  <separator name="electronic" >
   <i type="string" name="PREC">normal</i>
   <i name="ENMAX">    600.00000000</i>
   <i name="ENAUG">    900.00000000</i>
   <i name="EDIFF">      0.00000100</i>
   <i type="int" name="IALGO">    38</i>
   <i type="int" name="IWAVPR">    11</i>
   <i type="int" name="NBANDS">   280</i>
   <i name="NELECT">    460.00000000</i>
   <i type="int" name="TURBO">     0</i>
   <i type="int" name="IRESTART">     0</i>
   <i type="int" name="NREBOOT">     0</i>
   <i type="int" name="NMIN">     0</i>
   <i name="EREF">      0.00000000</i>
   <separator name="electronic smearing" >
    <i type="int" name="ISMEAR">    -5</i>
    <i name="SIGMA">      0.20000000</i>
    <i name="KSPACING">      0.50000000</i>
    <i type="logical" name="KGAMMA"> T  </i>
   </separator>
   <separator name="electronic projectors" >
    <i type="logical" name="LREAL"> F  </i>
    <v name="ROPT">      0.00000000      0.00000000      0.00000000      0.00000000      0.00000000</v>
    <i type="int" name="LMAXPAW">  -100</i>
    <i type="int" name="LMAXMIX">     2</i>
    <i type="logical" name="NLSPLINE"> F  </i>
   </separator>
   <separator name="electronic startup" >
    <i type="int" name="ISTART">     0</i>
    <i type="int" name="ICHARG">     2</i>
    <i type="int" name="INIWAV">     1</i>
   </separator>
   <separator name="electronic spin" >
    <i type="int" name="ISPIN">     1</i>
    <i type="logical" name="LNONCOLLINEAR"> F  </i>
    <v name="MAGMOM">      1.00000000      1.00000000      1.00000000      1.00000000      1.00000000      1.00000000      1.00000000      1.00000000      1.00000000      1.00000000      1.00000000      1.00000000      1.00000000      1.00000000      1.00000000      1.00000000      1.00000000      1.00000000      1.00000000      1.00000000
      1.00000000      1.00000000      1.00000000      1.00000000      1.00000000      1.00000000      1.00000000      1.00000000      1.00000000      1.00000000      1.00000000      1.00000000      1.00000000      1.00000000      1.00000000      1.00000000      1.00000000      1.00000000      1.00000000      1.00000000
      1.00000000      1.00000000      1.00000000      1.00000000      1.00000000      1.00000000      1.00000000      1.00000000      1.00000000      1.00000000      1.00000000      1.00000000      1.00000000      1.00000000      1.00000000      1.00000000      1.00000000      1.00000000      1.00000000</v>
    <i name="NUPDOWN">     -1.00000000</i>
    <i type="logical" name="LSORBIT"> F  </i>
    <v name="SAXIS">      0.00000000      0.00000000      1.00000000</v>
    <i type="logical" name="LSPIRAL"> F  </i>
    <v name="QSPIRAL">      0.00000000      0.00000000      0.00000000</v>
    <i type="logical" name="LZEROZ"> F  </i>
   </separator>
   <separator name="electronic exchange-correlation" >
    <i type="logical" name="LASPH"> F  </i>
    <i type="logical" name="LMETAGGA"> F  </i>
   </separator>
   <separator name="electronic convergence" >
    <i type="int" name="NELM">    60</i>
    <i type="int" name="NELMDL">    -5</i>
    <i type="int" name="NELMIN">     4</i>
    <i name="ENINI">    600.00000000</i>
    <separator name="electronic convergence detail" >
     <i type="logical" name="LDIAG"> T  </i>
     <i type="logical" name="LSUBROT"> F  </i>
     <i name="WEIMIN">      0.00100000</i>
     <i name="EBREAK">      0.00000000</i>
     <i name="DEPER">      0.30000000</i>
     <i type="int" name="NRMM">     4</i>
     <i name="TIME">      0.40000000</i>
    </separator>
   </separator>
   <separator name="electronic mixer" >
    <i name="AMIX">      0.40000000</i>
    <i name="BMIX">      1.00000000</i>
    <i name="AMIN">      0.10000000</i>
    <i name="AMIX_MAG">      1.60000000</i>
    <i name="BMIX_MAG">      1.00000000</i>
    <separator name="electronic mixer details" >
     <i type="int" name="IMIX">     4</i>
     <i type="logical" name="MIXFIRST"> F  </i>
     <i type="int" name="MAXMIX">   -45</i>
     <i name="WC">    100.00000000</i>
     <i type="int" name="INIMIX">     1</i>
     <i type="int" name="MIXPRE">     1</i>
     <i type="int" name="MREMOVE">     5</i>
    </separator>
   </separator>
   <separator name="electronic dipolcorrection" >
    <i type="logical" name="LDIPOL"> F  </i>
    <i type="logical" name="LMONO"> F  </i>
    <i type="int" name="IDIPOL">     0</i>
    <i name="EPSILON">      1.00000000</i>
    <v name="DIPOL">   -100.00000000   -100.00000000   -100.00000000</v>
    <i name="EFIELD">      0.00000000</i>
   </separator>
  </separator>
  <separator name="grids" >
   <i type="int" name="NGX">    70</i>
   <i type="int" name="NGY">    60</i>
   <i type="int" name="NGZ">    70</i>
   <i type="int" name="NGXF">   140</i>
   <i type="int" name="NGYF">   120</i>
   <i type="int" name="NGZF">   140</i>
   <i type="logical" name="ADDGRID"> F  </i>
  </separator>
  <separator name="ionic" >
   <i type="int" name="NSW">     1</i>
   <i type="int" name="IBRION">     2</i>
   <i type="int" name="MDALGO">     0</i>
   <i type="int" name="ISIF">     2</i>
   <i name="PSTRESS">      0.00000000</i>
   <i name="EDIFFG">     -0.01000000</i>
   <i type="int" name="NFREE">    10</i>
   <i name="POTIM">      0.50000000</i>
   <i name="SMASS">     -3.00000000</i>
   <i name="SCALEE">      1.00000000</i>
  </separator>
  <separator name="ionic md" >
   <i name="TEBEG">      0.00010000</i>
   <i name="TEEND">      0.00010000</i>
   <i type="int" name="NBLOCK">     1</i>
   <i type="int" name="KBLOCK">     1</i>
   <i type="int" name="NPACO">   256</i>
   <i name="APACO">     16.00000000</i>
  </separator>
  <separator name="symmetry" >
   <i type="int" name="ISYM">     2</i>
   <i name="SYMPREC">      0.00001000</i>
  </separator>
  <separator name="dos" >
   <i type="int" name="LORBIT">     0</i>
   <v name="RWIGS">     -1.00000000     -1.00000000     -1.00000000     -1.00000000     -1.00000000</v>
   <i type="int" name="NEDOS">   301</i>
   <i name="EMIN">     10.00000000</i>
   <i name="EMAX">    -10.00000000</i>
   <i name="EFERMI">      0.00000000</i>
  </separator>
  <separator name="writing" >
   <i type="int" name="NWRITE">     2</i>
   <i type="logical" name="LWAVE"> F  </i>
   <i type="logical" name="LDOWNSAMPLE"> F  </i>
   <i type="logical" name="LCHARG"> F  </i>
   <i type="logical" name="LPARD"> F  </i>
   <i type="logical" name="LVTOT"> F  </i>
   <i type="logical" name="LVHAR"> F  </i>
   <i type="logical" name="LELF"> F  </i>
   <i type="logical" name="LOPTICS"> F  </i>
   <v name="STM">      0.00000000      0.00000000      0.00000000      0.00000000      0.00000000      0.00000000      0.00000000</v>
  </separator>
  <separator name="performance" >
   <i type="int" name="NPAR">    28</i>
   <i type="int" name="NSIM">     4</i>
   <i type="int" name="NBLK">    -1</i>
   <i type="logical" name="LPLANE"> T  </i>
   <i type="logical" name="LSCALAPACK"> T  </i>
   <i type="logical" name="LSCAAWARE"> F  </i>
   <i type="logical" name="LSCALU"> F  </i>
   <i type="logical" name="LASYNC"> F  </i>
   <i type="logical" name="LORBITALREAL"> F  </i>
  </separator>
  <separator name="miscellaneous" >
   <i type="int" name="IDIOT">     3</i>
   <i type="int" name="ISPECIAL">     0</i>
   <i type="logical" name="LMUSIC"> F  </i>
   <v name="POMASS">      7.01000000     24.30500000    208.98000000     32.06600000     16.00000000</v>
   <v name="DARWINR">      0.00000000      0.00000000      0.00000000      0.00000000      0.00000000</v>
   <v name="DARWINV">      1.00000000      1.00000000      1.00000000      1.00000000      1.00000000</v>
   <i type="logical" name="LCORR"> T  </i>
  </separator>
  <i type="logical" name="GGA_COMPAT"> T  </i>
  <i type="logical" name="LBERRY"> F  </i>
  <i type="int" name="ICORELEVEL">     0</i>
  <i type="logical" name="LDAU"> F  </i>
  <i type="int" name="I_CONSTRAINED_M">     0</i>
  <separator name="electronic exchange-correlation" >
   <i type="string" name="GGA">--</i>
   <i type="int" name="VOSKOWN">     0</i>
   <i type="logical" name="LHFCALC"> F  </i>
   <i type="string" name="PRECFOCK"></i>
   <i type="logical" name="LSYMGRAD"> F  </i>
   <i type="logical" name="LHFONE"> F  </i>
   <i type="logical" name="LRHFCALC"> F  </i>
   <i type="logical" name="LTHOMAS"> F  </i>
   <i type="logical" name="LMODELHF"> F  </i>
   <i name="ENCUT4O">     -1.00000000</i>
   <i type="int" name="EXXOEP">     0</i>
   <i type="int" name="FOURORBIT">     0</i>
   <i name="AEXX">      0.00000000</i>
   <i name="HFALPHA">      0.00000000</i>
   <i name="MCALPHA">      0.00000000</i>
   <i name="ALDAX">      1.00000000</i>
   <i name="AGGAX">      1.00000000</i>
   <i name="ALDAC">      1.00000000</i>
   <i name="AGGAC">      1.00000000</i>
   <i type="int" name="NKREDX">     1</i>
   <i type="int" name="NKREDY">     1</i>
   <i type="int" name="NKREDZ">     1</i>
   <i type="logical" name="SHIFTRED"> F  </i>
   <i type="logical" name="ODDONLY"> F  </i>
   <i type="logical" name="EVENONLY"> F  </i>
   <i type="int" name="LMAXFOCK">     0</i>
   <i type="int" name="NMAXFOCKAE">     0</i>
   <i type="logical" name="LFOCKAEDFT"> F  </i>
   <i name="HFSCREEN">      0.00000000</i>
   <i name="HFSCREENC">      0.00000000</i>
   <i type="int" name="NBANDSGWLOW">     0</i>
  </separator>
  <separator name="vdW DFT" >
   <i type="logical" name="LUSE_VDW"> F  </i>
   <i name="Zab_VDW">     -0.84910000</i>
   <i name="PARAM1">      0.12340000</i>
   <i name="PARAM2">      1.00000000</i>
   <i name="PARAM3">      0.00000000</i>
  </separator>
  <separator name="model GW" >
   <i type="int" name="MODEL_GW">     0</i>
   <i name="MODEL_EPS0">     12.17134107</i>
   <i name="MODEL_ALPHA">      1.00000000</i>
  </separator>
  <separator name="linear response parameters" >
   <i type="logical" name="LEPSILON"> F  </i>
   <i type="logical" name="LRPA"> F  </i>
   <i type="logical" name="LNABLA"> F  </i>
   <i type="logical" name="LVEL"> F  </i>
   <i type="int" name="KINTER">     0</i>
   <i name="CSHIFT">      0.10000000</i>
   <i name="OMEGAMAX">     -1.00000000</i>
   <i name="DEG_THRESHOLD">      0.00200000</i>
   <i name="RTIME">     -0.10000000</i>
   <i name="WPLASMAI">      0.00000000</i>
   <v name="DFIELD">      0.00000000      0.00000000      0.00000000</v>
   <v name="WPLASMA">      0.00000000      0.00000000      0.00000000      0.00000000      0.00000000      0.00000000      0.00000000      0.00000000      0.00000000</v>
  </separator>
  <separator name="orbital magnetization" >
   <i type="logical" name="NUCIND"> F  </i>
   <v name="MAGPOS">      0.00000000      0.00000000      0.00000000</v>
   <i type="logical" name="LNICSALL"> T  </i>
   <i type="logical" name="ORBITALMAG"> F  </i>
   <i type="logical" name="LMAGBLOCH"> F  </i>
   <i type="logical" name="LCHIMAG"> F  </i>
   <i type="logical" name="LGAUGE"> T  </i>
   <i type="int" name="MAGATOM">     0</i>
   <v name="MAGDIPOL">      0.00000000      0.00000000      0.00000000</v>
   <v name="AVECCONST">      0.00000000      0.00000000      0.00000000</v>
  </separator>
  <separator name="response functions" >
   <i type="logical" name="LADDER"> F  </i>
   <i type="logical" name="LRPAFORCE"> F  </i>
   <i type="logical" name="LFXC"> F  </i>
   <i type="logical" name="LHARTREE"> T  </i>
   <i type="int" name="IBSE">     0</i>
   <v type="int" name="KPOINT">    -1     0     0     0</v>
   <i type="logical" name="LTCTE"> F  </i>
   <i type="logical" name="LTETE"> F  </i>
   <i type="logical" name="LTRIPLET"> F  </i>
   <i type="logical" name="LFXCEPS"> F  </i>
   <i type="logical" name="LFXHEG"> F  </i>
   <i type="int" name="NATURALO">     2</i>
   <i type="logical" name="L2ORDER"> F  </i>
   <i type="logical" name="LMP2LT"> F  </i>
   <i type="logical" name="LUSEW"> F  </i>
   <i name="ENCUTGW">     -2.00000000</i>
   <i name="ENCUTGWSOFT">     -2.00000000</i>
   <i name="ENCUTLF">     -1.00000000</i>
   <i type="int" name="LMAXMP2">    -1</i>
   <i name="SCISSOR">      0.00000000</i>
   <i type="int" name="NOMEGA">     0</i>
   <i type="int" name="NOMEGAR">     0</i>
   <i type="int" name="NBANDSGW">    -1</i>
   <i type="int" name="NBANDSO">    -1</i>
   <i type="int" name="NBANDSV">    -1</i>
   <i type="int" name="NELM">     1</i>
   <i type="int" name="NELMHF">     1</i>
   <i type="int" name="DIM">     3</i>
   <i type="int" name="ANTIRES">     0</i>
   <i name="OMEGAMAX">    -30.00000000</i>
   <i name="OMEGAMIN">    -30.00000000</i>
   <i name="OMEGATL">   -200.00000000</i>
   <i type="int" name="OMEGAGRID">   140</i>
   <i name="CSHIFT">     -0.10000000</i>
   <i type="logical" name="SELFENERGY"> F  </i>
   <i type="logical" name="LSPECTRAL"> F  </i>
   <i type="logical" name="LSPECTRALGW"> F  </i>
   <i type="logical" name="LSINGLES"> F  </i>
   <i type="logical" name="LFERMIGW"> F  </i>
   <i type="logical" name="ODDONLYGW"> F  </i>
   <i type="logical" name="EVENONLYGW"> F  </i>
   <i type="int" name="NKREDLFX">     1</i>
   <i type="int" name="NKREDLFY">     1</i>
   <i type="int" name="NKREDLFZ">     1</i>
   <i type="int" name="MAXMEM">  2800</i>
   <i type="int" name="TELESCOPE">     0</i>
   <i type="int" name="TAUPAR">     1</i>
   <i type="int" name="OMEGAPAR">    -1</i>
   <i name="LAMBDA">      1.00000000</i>
  </separator>
  <separator name="External order field" >
   <i name="OFIELD_KAPPA">      0.00000000</i>
   <v name="OFIELD_K">      0.00000000      0.00000000      0.00000000</v>
   <i name="OFIELD_Q6_NEAR">      0.00000000</i>
   <i name="OFIELD_Q6_FAR">      0.00000000</i>
   <i name="OFIELD_A">      0.00000000</i>
  </separator>
 </parameters>
 <atominfo>
  <atoms>      59 </atoms>
  <types>       5 </types>
  <array name="atoms" >
   <dimension dim="1">ion</dimension>
   <field type="string">element</field>
   <field type="int">atomtype</field>
   <set>
    <rc><c>Li</c><c>   1</c></rc>
    <rc><c>Li</c><c>   1</c></rc>
    <rc><c>Li</c><c>   1</c></rc>
    <rc><c>Li</c><c>   1</c></rc>
    <rc><c>Li</c><c>   1</c></rc>
    <rc><c>Li</c><c>   1</c></rc>
    <rc><c>Mg</c><c>   2</c></rc>
    <rc><c>Mg</c><c>   2</c></rc>
    <rc><c>Mg</c><c>   2</c></rc>
    <rc><c>Mg</c><c>   2</c></rc>
    <rc><c>Mg</c><c>   2</c></rc>
    <rc><c>Bi</c><c>   3</c></rc>
    <rc><c>Bi</c><c>   3</c></rc>
    <rc><c>Bi</c><c>   3</c></rc>
    <rc><c>Bi</c><c>   3</c></rc>
    <rc><c>Bi</c><c>   3</c></rc>
    <rc><c>Bi</c><c>   3</c></rc>
    <rc><c>Bi</c><c>   3</c></rc>
    <rc><c>Bi</c><c>   3</c></rc>
    <rc><c>Bi</c><c>   3</c></rc>
    <rc><c>Bi</c><c>   3</c></rc>
    <rc><c>Bi</c><c>   3</c></rc>
    <rc><c>Bi</c><c>   3</c></rc>
    <rc><c>Bi</c><c>   3</c></rc>
    <rc><c>Bi</c><c>   3</c></rc>
    <rc><c>Bi</c><c>   3</c></rc>
    <rc><c>Bi</c><c>   3</c></rc>
    <rc><c>S </c><c>   4</c></rc>
    <rc><c>S </c><c>   4</c></rc>
    <rc><c>S </c><c>   4</c></rc>
    <rc><c>S </c><c>   4</c></rc>
    <rc><c>S </c><c>   4</c></rc>
    <rc><c>S </c><c>   4</c></rc>
    <rc><c>S </c><c>   4</c></rc>
    <rc><c>S </c><c>   4</c></rc>
    <rc><c>S </c><c>   4</c></rc>
    <rc><c>S </c><c>   4</c></rc>
    <rc><c>S </c><c>   4</c></rc>
    <rc><c>S </c><c>   4</c></rc>
    <rc><c>S </c><c>   4</c></rc>
    <rc><c>S </c><c>   4</c></rc>
    <rc><c>S </c><c>   4</c></rc>
    <rc><c>S </c><c>   4</c></rc>
    <rc><c>O </c><c>   5</c></rc>
    <rc><c>O </c><c>   5</c></rc>
    <rc><c>O </c><c>   5</c></rc>
    <rc><c>O </c><c>   5</c></rc>
    <rc><c>O </c><c>   5</c></rc>
    <rc><c>O </c><c>   5</c></rc>
    <rc><c>O </c><c>   5</c></rc>
    <rc><c>O </c><c>   5</c></rc>
    <rc><c>O </c><c>   5</c></rc>
    <rc><c>O </c><c>   5</c></rc>
    <rc><c>O </c><c>   5</c></rc>
    <rc><c>O </c><c>   5</c></rc>
    <rc><c>O </c><c>   5</c></rc>
    <rc><c>O </c><c>   5</c></rc>
    <rc><c>O </c><c>   5</c></rc>
    <rc><c>O </c><c>   5</c></rc>
   </set>
  </array>
  <array name="atomtypes" >
   <dimension dim="1">type</dimension>
   <field type="int">atomspertype</field>
   <field type="string">element</field>
   <field>mass</field>
   <field>valence</field>
   <field type="string">pseudopotential</field>
   <set>
    <rc><c>   6</c><c>Li</c><c>      7.01000000</c><c>      3.00000000</c><c>  PAW_PBE Li_sv 10Sep2004               </c></rc>
    <rc><c>   5</c><c>Mg</c><c>     24.30500000</c><c>      2.00000000</c><c>  PAW_PBE Mg 13Apr2007                  </c></rc>
    <rc><c>  16</c><c>Bi</c><c>    208.98000000</c><c>     15.00000000</c><c>  PAW_PBE Bi_d 06Sep2000                </c></rc>
    <rc><c>  16</c><c>S </c><c>     32.06600000</c><c>      6.00000000</c><c>  PAW_PBE S 06Sep2000                   </c></rc>
    <rc><c>  16</c><c>O </c><c>     16.00000000</c><c>      6.00000000</c><c>  PAW_PBE O 08Apr2002                   </c></rc>
   </set>
  </array>
 </atominfo>
 <structure name="initialpos" >
  <crystal>
   <varray name="basis" >
    <v>      11.17850000       0.00000000       0.00000000 </v>
    <v>       0.00000000       9.57460000       0.00000000 </v>
    <v>       0.00000000       0.00000000      11.18240000 </v>
   </varray>
   <i name="volume">   1196.84853820 </i>
   <varray name="rec_basis" >
    <v>       0.08945744       0.00000000       0.00000000 </v>
    <v>       0.00000000       0.10444301       0.00000000 </v>
    <v>       0.00000000       0.00000000       0.08942624 </v>
   </varray>
  </crystal>
  <varray name="positions" >
   <v>       0.37539000       0.00017000       0.43687000 </v>
   <v>       0.87461000       0.00017000       0.18687000 </v>
   <v>       0.12461000       0.99984000       0.68687000 </v>
   <v>       0.37461000       0.00017000       0.68687000 </v>
   <v>       0.87539000       0.00017000       0.93687000 </v>
   <v>       0.87461000       0.00017000       0.68687000 </v>
   <v>       0.12461000       0.99984000       0.18687000 </v>
   <v>       0.87539000       0.00017000       0.43687000 </v>
   <v>       0.62461000       0.99984000       0.18687000 </v>
   <v>       0.37539000       0.00017000       0.93687000 </v>
   <v>       0.62461000       0.99984000       0.68687000 </v>
   <v>       0.00013000       0.29519000       0.06281000 </v>
   <v>       0.25013000       0.70481000       0.06281000 </v>
   <v>       0.24987000       0.29519000       0.31282000 </v>
   <v>       0.49987000       0.70481000       0.31282000 </v>
   <v>       0.50013000       0.29519000       0.06281000 </v>
   <v>       0.75013000       0.70481000       0.06281000 </v>
   <v>       0.74987000       0.29519000       0.31282000 </v>
   <v>       0.99987000       0.70481000       0.31282000 </v>
   <v>       0.00013000       0.29519000       0.56281000 </v>
   <v>       0.25013000       0.70481000       0.56281000 </v>
   <v>       0.24987000       0.29519000       0.81282000 </v>
   <v>       0.49987000       0.70481000       0.81282000 </v>
   <v>       0.50013000       0.29519000       0.56281000 </v>
   <v>       0.75013000       0.70481000       0.56281000 </v>
   <v>       0.74987000       0.29519000       0.81282000 </v>
   <v>       0.99987000       0.70481000       0.81282000 </v>
   <v>       0.25005000       0.32677000       0.06286000 </v>
   <v>       0.00005000       0.67323000       0.06286000 </v>
   <v>       0.49995000       0.32677000       0.31286000 </v>
   <v>       0.24995000       0.67323000       0.31286000 </v>
   <v>       0.75005000       0.32677000       0.06286000 </v>
   <v>       0.50005000       0.67323000       0.06286000 </v>
   <v>       0.99995000       0.32677000       0.31286000 </v>
   <v>       0.74995000       0.67323000       0.31286000 </v>
   <v>       0.25005000       0.32677000       0.56286000 </v>
   <v>       0.00005000       0.67323000       0.56286000 </v>
   <v>       0.49995000       0.32677000       0.81286000 </v>
   <v>       0.24995000       0.67323000       0.81286000 </v>
   <v>       0.75005000       0.32677000       0.56286000 </v>
   <v>       0.50005000       0.67323000       0.56286000 </v>
   <v>       0.99995000       0.32677000       0.81286000 </v>
   <v>       0.74995000       0.67323000       0.81286000 </v>
   <v>       0.49987000       0.07798000       0.06246000 </v>
   <v>       0.24987000       0.92202000       0.06246000 </v>
   <v>       0.25013000       0.07798000       0.31246000 </v>
   <v>       0.00013000       0.92202000       0.31246000 </v>
   <v>       0.99987000       0.07798000       0.06246000 </v>
   <v>       0.74987000       0.92202000       0.06246000 </v>
   <v>       0.75013000       0.07798000       0.31246000 </v>
   <v>       0.50013000       0.92202000       0.31246000 </v>
   <v>       0.49987000       0.07798000       0.56246000 </v>
   <v>       0.24987000       0.92202000       0.56246000 </v>
   <v>       0.25013000       0.07798000       0.81246000 </v>
   <v>       0.00013000       0.92202000       0.81246000 </v>
   <v>       0.99987000       0.07798000       0.56246000 </v>
   <v>       0.74987000       0.92202000       0.56246000 </v>
   <v>       0.75013000       0.07798000       0.81246000 </v>
   <v>       0.50013000       0.92202000       0.81246000 </v>
  </varray>
 </structure>
 <calculation>
  <scstep>
   <time name="dav">   60.96   61.18</time>
   <time name="total">   61.05   61.27</time>
   <energy>
    <i name="alphaZ">   1060.66890660 </i>
    <i name="ewald"> -30421.18912450 </i>
    <i name="hartreedc"> -12698.32947042 </i>
    <i name="XCdc">   1247.14301592 </i>
    <i name="pawpsdc">  36635.26894311 </i>
    <i name="pawaedc"> -35972.74895369 </i>
    <i name="eentropy">      0.00000000 </i>
    <i name="bandstr">   1865.41378826 </i>
    <i name="atom">  44026.03258983 </i>
    <i name="e_fr_energy">   5742.25969510 </i>
    <i name="e_wo_entrp">   5742.25969510 </i>
    <i name="e_0_energy">   5742.25969510 </i>
   </energy>
  </scstep>
  <scstep>
   <time name="dav">   61.69   61.90</time>
   <time name="total">   61.70   61.91</time>
   <energy>
    <i name="e_fr_energy">    761.01493123 </i>
    <i name="e_wo_entrp">    761.01493123 </i>
    <i name="e_0_energy">    761.01493123 </i>
   </energy>
  </scstep>
  <scstep>
   <time name="dav">   71.47   71.74</time>
   <time name="total">   71.47   71.75</time>
   <energy>
    <i name="e_fr_energy">   -245.51532719 </i>
    <i name="e_wo_entrp">   -245.51532719 </i>
    <i name="e_0_energy">   -245.51532719 </i>
   </energy>
  </scstep>
  <scstep>
   <time name="dav">   75.58   75.88</time>
   <time name="total">   75.58   75.88</time>
   <energy>
    <i name="e_fr_energy">   -337.40237128 </i>
    <i name="e_wo_entrp">   -337.40237128 </i>
    <i name="e_0_energy">   -337.40237128 </i>
   </energy>
  </scstep>
  <scstep>
   <time name="dav">   95.33   95.78</time>
   <time name="total">   96.04   96.50</time>
   <energy>
    <i name="e_fr_energy">   -344.18876808 </i>
    <i name="e_wo_entrp">   -344.18876808 </i>
    <i name="e_0_energy">   -344.18876808 </i>
   </energy>
  </scstep>
  <scstep>
   <time name="dav">   86.65   87.11</time>
   <time name="total">   87.44   87.91</time>
   <energy>
    <i name="e_fr_energy">   -288.42076593 </i>
    <i name="e_wo_entrp">   -288.42076593 </i>
    <i name="e_0_energy">   -288.42076593 </i>
   </energy>
  </scstep>
  <scstep>
   <time name="dav">   65.76   66.03</time>
   <time name="total">   66.55   66.83</time>
   <energy>
    <i name="e_fr_energy">   -290.83739807 </i>
    <i name="e_wo_entrp">   -290.83739807 </i>
    <i name="e_0_energy">   -290.83739807 </i>
   </energy>
  </scstep>
  <scstep>
   <time name="dav">   76.38   76.75</time>
   <time name="total">   77.16   77.54</time>
   <energy>
    <i name="e_fr_energy">   -289.82692098 </i>
    <i name="e_wo_entrp">   -289.82692098 </i>
    <i name="e_0_energy">   -289.82692098 </i>
   </energy>
  </scstep>
  <scstep>
   <time name="dav">   77.42   77.92</time>
   <time name="total">   78.20   78.71</time>
   <energy>
    <i name="e_fr_energy">   -289.31420772 </i>
    <i name="e_wo_entrp">   -289.31420772 </i>
    <i name="e_0_energy">   -289.31420772 </i>
   </energy>
  </scstep>
  <scstep>
   <time name="dav">   73.99   74.47</time>
   <time name="total">   74.77   75.26</time>
   <energy>
    <i name="e_fr_energy">   -289.33686100 </i>
    <i name="e_wo_entrp">   -289.33686100 </i>
    <i name="e_0_energy">   -289.33686100 </i>
   </energy>
  </scstep>
  <scstep>
   <time name="dav">   78.31   79.00</time>
   <time name="total">   79.09   79.79</time>
   <energy>
    <i name="e_fr_energy">   -289.34211319 </i>
    <i name="e_wo_entrp">   -289.34211319 </i>
    <i name="e_0_energy">   -289.34211319 </i>
   </energy>
  </scstep>
  <scstep>
   <time name="dav">   76.59   77.11</time>
   <time name="total">   77.38   77.90</time>
   <energy>
    <i name="e_fr_energy">   -289.34594708 </i>
    <i name="e_wo_entrp">   -289.34594708 </i>
    <i name="e_0_energy">   -289.34594708 </i>
   </energy>
  </scstep>
  <scstep>
   <time name="dav">   69.94   70.34</time>
   <time name="total">   70.73   71.13</time>
   <energy>
    <i name="e_fr_energy">   -289.34660839 </i>
    <i name="e_wo_entrp">   -289.34660839 </i>
    <i name="e_0_energy">   -289.34660839 </i>
   </energy>
  </scstep>
  <scstep>
   <time name="dav">   70.09   70.46</time>
   <time name="total">   70.87   71.25</time>
   <energy>
    <i name="e_fr_energy">   -289.34693249 </i>
    <i name="e_wo_entrp">   -289.34693249 </i>
    <i name="e_0_energy">   -289.34693249 </i>
   </energy>
  </scstep>
  <scstep>
   <time name="dav">   92.68   93.35</time>
   <time name="total">   93.47   94.15</time>
   <energy>
    <i name="e_fr_energy">   -289.34696064 </i>
    <i name="e_wo_entrp">   -289.34696064 </i>
    <i name="e_0_energy">   -289.34696064 </i>
   </energy>
  </scstep>
  <scstep>
   <time name="dav">   65.44   66.32</time>
   <time name="total">   66.22   67.11</time>
   <energy>
    <i name="e_fr_energy">   -289.34698260 </i>
    <i name="e_wo_entrp">   -289.34698260 </i>
    <i name="e_0_energy">   -289.34698260 </i>
   </energy>
  </scstep>
  <scstep>
   <time name="dav">   71.76   72.61</time>
   <time name="total">   72.55   73.40</time>
   <energy>
    <i name="e_fr_energy">   -289.34698416 </i>
    <i name="e_wo_entrp">   -289.34698416 </i>
    <i name="e_0_energy">   -289.34698416 </i>
   </energy>
  </scstep>
  <scstep>
   <time name="dav">   57.82   58.78</time>
   <time name="total">   57.89   58.85</time>
   <energy>
    <i name="alphaZ">   1060.66890660 </i>
    <i name="ewald"> -30421.18912450 </i>
    <i name="hartreedc"> -12939.45761482 </i>
    <i name="XCdc">   1271.99966669 </i>
    <i name="pawpsdc">  43667.00261201 </i>
    <i name="pawaedc"> -42977.80314121 </i>
    <i name="eentropy">      0.00000000 </i>
    <i name="bandstr">  -3976.60087910 </i>
    <i name="atom">  44026.03258983 </i>
    <i name="e_fr_energy">   -289.34698450 </i>
    <i name="e_wo_entrp">   -289.34698450 </i>
    <i name="e_0_energy">   -289.34698450 </i>
   </energy>
  </scstep>
  <structure>
   <crystal>
    <varray name="basis" >
     <v>      11.17850000       0.00000000       0.00000000 </v>
     <v>       0.00000000       9.57460000       0.00000000 </v>
     <v>       0.00000000       0.00000000      11.18240000 </v>
    </varray>
    <i name="volume">   1196.84853820 </i>
    <varray name="rec_basis" >
     <v>       0.08945744       0.00000000       0.00000000 </v>
     <v>       0.00000000       0.10444301       0.00000000 </v>
     <v>       0.00000000       0.00000000       0.08942624 </v>
    </varray>
   </crystal>
   <varray name="positions" >
    <v>       0.37539000       0.00017000       0.43687000 </v>
    <v>       0.87461000       0.00017000       0.18687000 </v>
    <v>       0.12461000       0.99984000       0.68687000 </v>
    <v>       0.37461000       0.00017000       0.68687000 </v>
    <v>       0.87539000       0.00017000       0.93687000 </v>
    <v>       0.87461000       0.00017000       0.68687000 </v>
    <v>       0.12461000       0.99984000       0.18687000 </v>
    <v>       0.87539000       0.00017000       0.43687000 </v>
    <v>       0.62461000       0.99984000       0.18687000 </v>
    <v>       0.37539000       0.00017000       0.93687000 </v>
    <v>       0.62461000       0.99984000       0.68687000 </v>
    <v>       0.00013000       0.29519000       0.06281000 </v>
    <v>       0.25013000       0.70481000       0.06281000 </v>
    <v>       0.24987000       0.29519000       0.31282000 </v>
    <v>       0.49987000       0.70481000       0.31282000 </v>
    <v>       0.50013000       0.29519000       0.06281000 </v>
    <v>       0.75013000       0.70481000       0.06281000 </v>
    <v>       0.74987000       0.29519000       0.31282000 </v>
    <v>       0.99987000       0.70481000       0.31282000 </v>
    <v>       0.00013000       0.29519000       0.56281000 </v>
    <v>       0.25013000       0.70481000       0.56281000 </v>
    <v>       0.24987000       0.29519000       0.81282000 </v>
    <v>       0.49987000       0.70481000       0.81282000 </v>
    <v>       0.50013000       0.29519000       0.56281000 </v>
    <v>       0.75013000       0.70481000       0.56281000 </v>
    <v>       0.74987000       0.29519000       0.81282000 </v>
    <v>       0.99987000       0.70481000       0.81282000 </v>
    <v>       0.25005000       0.32677000       0.06286000 </v>
    <v>       0.00005000       0.67323000       0.06286000 </v>
    <v>       0.49995000       0.32677000       0.31286000 </v>
    <v>       0.24995000       0.67323000       0.31286000 </v>
    <v>       0.75005000       0.32677000       0.06286000 </v>
    <v>       0.50005000       0.67323000       0.06286000 </v>
    <v>       0.99995000       0.32677000       0.31286000 </v>
    <v>       0.74995000       0.67323000       0.31286000 </v>
    <v>       0.25005000       0.32677000       0.56286000 </v>
    <v>       0.00005000       0.67323000       0.56286000 </v>
    <v>       0.49995000       0.32677000       0.81286000 </v>
    <v>       0.24995000       0.67323000       0.81286000 </v>
    <v>       0.75005000       0.32677000       0.56286000 </v>
    <v>       0.50005000       0.67323000       0.56286000 </v>
    <v>       0.99995000       0.32677000       0.81286000 </v>
    <v>       0.74995000       0.67323000       0.81286000 </v>
    <v>       0.49987000       0.07798000       0.06246000 </v>
    <v>       0.24987000       0.92202000       0.06246000 </v>
    <v>       0.25013000       0.07798000       0.31246000 </v>
    <v>       0.00013000       0.92202000       0.31246000 </v>
    <v>       0.99987000       0.07798000       0.06246000 </v>
    <v>       0.74987000       0.92202000       0.06246000 </v>
    <v>       0.75013000       0.07798000       0.31246000 </v>
    <v>       0.50013000       0.92202000       0.31246000 </v>
    <v>       0.49987000       0.07798000       0.56246000 </v>
    <v>       0.24987000       0.92202000       0.56246000 </v>
    <v>       0.25013000       0.07798000       0.81246000 </v>
    <v>       0.00013000       0.92202000       0.81246000 </v>
    <v>       0.99987000       0.07798000       0.56246000 </v>
    <v>       0.74987000       0.92202000       0.56246000 </v>
    <v>       0.75013000       0.07798000       0.81246000 </v>
    <v>       0.50013000       0.92202000       0.81246000 </v>
   </varray>
  </structure>
  <varray name="forces" >
   <v>      -0.12243334      -0.07157953      -0.40906393 </v>
   <v>       0.03662972      -0.00299820      -0.46805670 </v>
   <v>       0.04142038      -0.13730789       0.00868369 </v>
   <v>      -0.50730040      -0.00334378      -0.45762725 </v>
   <v>       0.10635517      -0.07071071      -0.08236783 </v>
   <v>       0.50493127      -0.00290888       0.47902462 </v>
   <v>       1.08790430       0.23223252       0.00803028 </v>
   <v>       0.22542683       0.10538649       0.21597898 </v>
   <v>      -1.03103585      -0.23466056       0.01245358 </v>
   <v>      -0.27608652       0.10676016       0.84735672 </v>
   <v>      -0.03706240       0.23255411       0.03602684 </v>
   <v>       0.16637224       0.03524115      -0.30870432 </v>
   <v>      -0.00981589       0.10515111       0.04510356 </v>
   <v>       0.16423695      -1.03725796       0.12164553 </v>
   <v>      -0.29383177       0.99815245       0.06525776 </v>
   <v>      -0.15123217      -0.07136243       0.10760682 </v>
   <v>      -0.02979662      -0.05060051      -0.24787750 </v>
   <v>      -0.22469511       1.00948189       0.05927153 </v>
   <v>       0.38777577      -1.00862973       0.12509987 </v>
   <v>       0.43811792       0.03466562       0.07396032 </v>
   <v>      -0.11654555       0.98213148      -0.14243979 </v>
   <v>      -0.29799216       0.00964900      -0.04308279 </v>
   <v>      -0.02301528      -0.98892254       0.08746658 </v>
   <v>      -0.22726369       0.04530283      -0.28107118 </v>
   <v>      -0.11595866      -0.99395775      -0.05293025 </v>
   <v>       0.08438455       0.02305045       0.22529347 </v>
   <v>       0.25000043       0.97958180       0.09075602 </v>
   <v>      -0.01933900       0.12718123      -0.11554739 </v>
   <v>      -0.05758339      -0.13044274       0.22790654 </v>
   <v>       0.30880245       0.11593035      -0.03490343 </v>
   <v>      -0.24036627      -0.14830689      -0.12731330 </v>
   <v>      -0.01574250       0.10289405       0.13820879 </v>
   <v>       0.08982282      -0.09342162      -0.18186189 </v>
   <v>      -0.27134148       0.09599536       0.00089204 </v>
   <v>       0.19547309      -0.06692272       0.06693054 </v>
   <v>       0.01313453       0.20695043       0.12174472 </v>
   <v>      -0.30916338      -0.12587366      -0.21521100 </v>
   <v>       0.06472917       0.10665990      -0.02820771 </v>
   <v>       0.23773284      -0.16857192       0.11884384 </v>
   <v>       0.01221499       0.06820195      -0.06246190 </v>
   <v>       0.28534194      -0.12933683       0.24383434 </v>
   <v>      -0.09164805       0.17543719      -0.01748324 </v>
   <v>      -0.20042400      -0.10521412      -0.14319992 </v>
   <v>       0.05548620       0.27998791      -0.12627683 </v>
   <v>       0.02799641      -0.32831419      -0.08267145 </v>
   <v>      -0.63926117       0.96604451      -0.56231246 </v>
   <v>      -0.86543573       0.67443938      -0.58836673 </v>
   <v>      -0.22016507      -0.00034506       1.22714847 </v>
   <v>       0.15620746       0.04250241       1.19173205 </v>
   <v>       0.77421210      -0.70866409      -0.54555872 </v>
   <v>       0.67600925      -0.91077258      -0.51474413 </v>
   <v>       0.09213492      -0.00037423       1.26268407 </v>
   <v>       0.62002814      -0.82720705       0.67647603 </v>
   <v>       1.25082363       0.05840704      -0.05755656 </v>
   <v>      -0.69998408      -0.78571861      -0.60966893 </v>
   <v>      -1.33124796      -0.01444261      -0.04392506 </v>
   <v>       0.63811378       0.69376531       0.52767776 </v>
   <v>      -0.02798081      -0.03147830      -1.21798040 </v>
   <v>      -0.53807097       0.63590958      -0.64462277 </v>
  </varray>
  <varray name="stress" >
   <v>      -8.97341474      -0.48242582      -0.84433438 </v>
   <v>      -0.48242574     -13.34973035      -0.03869356 </v>
   <v>      -0.84433436      -0.03869347     -10.65646957 </v>
  </varray>
  <energy>
   <i name="e_fr_energy">   -301.86656720 </i>
   <i name="e_wo_entrp">   -301.86656720 </i>
   <i name="e_0_energy">      0.00000000 </i>
  </energy>
  <time name="totalsc"> 1446.92 1456.51</time>
  <eigenvalues>
   <array>
    <dimension dim="1">band</dimension>
    <dimension dim="2">kpoint</dimension>
    <dimension dim="3">spin</dimension>
    <field>eigene</field>
    <field>occ</field>
    <set>
     <set comment="spin 1">
      <set comment="kpoint 1">
       <r>  -40.3402    1.0000 </r>
       <r>  -39.9777    1.0000 </r>
       <r>  -39.8858    1.0000 </r>
       <r>  -39.6510    1.0000 </r>
       <r>  -39.4125    1.0000 </r>
       <r>  -39.2206    1.0000 </r>
       <r>  -18.9576    1.0000 </r>
       <r>  -18.9489    1.0000 </r>
       <r>  -18.8882    1.0000 </r>
       <r>  -18.8824    1.0000 </r>
       <r>  -18.8810    1.0000 </r>
       <r>  -18.8795    1.0000 </r>
       <r>  -18.8748    1.0000 </r>
       <r>  -18.8666    1.0000 </r>
       <r>  -18.8127    1.0000 </r>
       <r>  -18.8074    1.0000 </r>
       <r>  -18.8049    1.0000 </r>
       <r>  -18.7995    1.0000 </r>
       <r>  -18.7885    1.0000 </r>
       <r>  -18.7795    1.0000 </r>
       <r>  -18.7655    1.0000 </r>
       <r>  -18.7563    1.0000 </r>
       <r>  -18.7541    1.0000 </r>
       <r>  -18.7450    1.0000 </r>
       <r>  -18.7423    1.0000 </r>
       <r>  -18.7367    1.0000 </r>
       <r>  -18.7325    1.0000 </r>
       <r>  -18.7246    1.0000 </r>
       <r>  -18.7103    1.0000 </r>
       <r>  -18.7038    1.0000 </r>
       <r>  -18.6934    1.0000 </r>
       <r>  -18.6904    1.0000 </r>
       <r>  -18.6899    1.0000 </r>
       <r>  -18.6878    1.0000 </r>
       <r>  -18.6857    1.0000 </r>
       <r>  -18.6838    1.0000 </r>
       <r>  -18.6816    1.0000 </r>
       <r>  -18.6793    1.0000 </r>
       <r>  -18.6769    1.0000 </r>
       <r>  -18.6758    1.0000 </r>
       <r>  -18.6753    1.0000 </r>
       <r>  -18.6712    1.0000 </r>
       <r>  -18.6664    1.0000 </r>
       <r>  -18.6504    1.0000 </r>
       <r>  -18.6105    1.0000 </r>
       <r>  -18.5976    1.0000 </r>
       <r>  -18.5976    1.0000 </r>
       <r>  -18.5902    1.0000 </r>
       <r>  -18.5883    1.0000 </r>
       <r>  -18.5862    1.0000 </r>
       <r>  -18.5796    1.0000 </r>
       <r>  -18.5760    1.0000 </r>
       <r>  -18.5732    1.0000 </r>
       <r>  -18.5594    1.0000 </r>
       <r>  -18.5393    1.0000 </r>
       <r>  -18.5354    1.0000 </r>
       <r>  -18.5351    1.0000 </r>
       <r>  -18.5235    1.0000 </r>
       <r>  -18.5223    1.0000 </r>
       <r>  -18.5209    1.0000 </r>
       <r>  -18.5206    1.0000 </r>
       <r>  -18.4963    1.0000 </r>
       <r>  -18.4938    1.0000 </r>
       <r>  -18.4927    1.0000 </r>
       <r>  -18.4840    1.0000 </r>
       <r>  -18.4821    1.0000 </r>
       <r>  -18.4550    1.0000 </r>
       <r>  -18.4361    1.0000 </r>
       <r>  -18.4319    1.0000 </r>
       <r>  -18.4306    1.0000 </r>
       <r>  -18.4254    1.0000 </r>
       <r>  -18.4181    1.0000 </r>
       <r>  -18.4169    1.0000 </r>
       <r>  -18.4102    1.0000 </r>
       <r>  -18.4045    1.0000 </r>
       <r>  -18.4001    1.0000 </r>
       <r>  -18.3407    1.0000 </r>
       <r>  -18.3353    1.0000 </r>
       <r>  -18.2979    1.0000 </r>
       <r>  -18.2907    1.0000 </r>
       <r>  -18.2807    1.0000 </r>
       <r>  -18.2727    1.0000 </r>
       <r>  -18.2317    1.0000 </r>
       <r>  -18.2200    1.0000 </r>
       <r>  -18.2066    1.0000 </r>
       <r>  -18.2041    1.0000 </r>
       <r>  -13.6117    1.0000 </r>
       <r>  -13.5048    1.0000 </r>
       <r>  -13.4400    1.0000 </r>
       <r>  -13.4356    1.0000 </r>
       <r>  -12.8950    1.0000 </r>
       <r>  -12.8269    1.0000 </r>
       <r>  -12.7900    1.0000 </r>
       <r>  -12.7750    1.0000 </r>
       <r>  -12.7673    1.0000 </r>
       <r>  -12.7395    1.0000 </r>
       <r>  -12.6571    1.0000 </r>
       <r>  -12.5826    1.0000 </r>
       <r>  -12.1028    1.0000 </r>
       <r>  -12.0608    1.0000 </r>
       <r>  -12.0057    1.0000 </r>
       <r>  -11.9554    1.0000 </r>
       <r>   -9.3614    1.0000 </r>
       <r>   -9.0660    1.0000 </r>
       <r>   -8.5936    1.0000 </r>
       <r>   -8.5514    1.0000 </r>
       <r>   -8.4936    1.0000 </r>
       <r>   -8.4521    1.0000 </r>
       <r>   -8.3699    1.0000 </r>
       <r>   -8.3277    1.0000 </r>
       <r>   -8.2683    1.0000 </r>
       <r>   -8.2302    1.0000 </r>
       <r>   -8.0674    1.0000 </r>
       <r>   -8.0557    1.0000 </r>
       <r>   -8.0316    1.0000 </r>
       <r>   -8.0157    1.0000 </r>
       <r>   -7.3903    1.0000 </r>
       <r>   -7.3819    1.0000 </r>
       <r>   -6.4099    1.0000 </r>
       <r>   -6.3959    1.0000 </r>
       <r>   -6.3903    1.0000 </r>
       <r>   -6.3790    1.0000 </r>
       <r>   -5.5529    1.0000 </r>
       <r>   -5.5041    1.0000 </r>
       <r>   -5.4939    1.0000 </r>
       <r>   -5.3785    1.0000 </r>
       <r>   -5.3364    1.0000 </r>
       <r>   -5.2955    1.0000 </r>
       <r>   -5.2553    1.0000 </r>
       <r>   -5.1798    1.0000 </r>
       <r>   -5.1025    1.0000 </r>
       <r>   -5.0442    1.0000 </r>
       <r>   -3.8388    1.0000 </r>
       <r>   -3.6887    1.0000 </r>
       <r>   -1.5527    1.0000 </r>
       <r>   -1.3160    1.0000 </r>
       <r>   -1.1722    1.0000 </r>
       <r>   -1.0016    1.0000 </r>
       <r>   -0.6684    1.0000 </r>
       <r>   -0.6180    1.0000 </r>
       <r>   -0.5355    1.0000 </r>
       <r>   -0.4694    1.0000 </r>
       <r>   -0.2539    1.0000 </r>
       <r>   -0.2383    1.0000 </r>
       <r>   -0.1861    1.0000 </r>
       <r>   -0.1542    1.0000 </r>
       <r>   -0.0449    1.0000 </r>
       <r>    0.0317    1.0000 </r>
       <r>    0.1778    1.0000 </r>
       <r>    0.2270    1.0000 </r>
       <r>    0.2779    1.0000 </r>
       <r>    0.3696    1.0000 </r>
       <r>    0.3956    1.0000 </r>
       <r>    0.4984    1.0000 </r>
       <r>    0.5775    1.0000 </r>
       <r>    0.6244    1.0000 </r>
       <r>    0.6928    1.0000 </r>
       <r>    0.7210    1.0000 </r>
       <r>    0.7617    1.0000 </r>
       <r>    0.7791    1.0000 </r>
       <r>    0.8199    1.0000 </r>
       <r>    0.8550    1.0000 </r>
       <r>    0.9284    1.0000 </r>
       <r>    0.9504    1.0000 </r>
       <r>    0.9709    1.0000 </r>
       <r>    0.9957    1.0000 </r>
       <r>    1.0915    1.0000 </r>
       <r>    1.0987    1.0000 </r>
       <r>    1.1839    1.0000 </r>
       <r>    1.2815    1.0000 </r>
       <r>    1.3182    1.0000 </r>
       <r>    1.3490    1.0000 </r>
       <r>    1.3705    1.0000 </r>
       <r>    1.4004    1.0000 </r>
       <r>    1.4335    1.0000 </r>
       <r>    1.4450    1.0000 </r>
       <r>    1.5409    1.0000 </r>
       <r>    1.5918    1.0000 </r>
       <r>    1.5970    1.0000 </r>
       <r>    1.6450    1.0000 </r>
       <r>    1.7171    1.0000 </r>
       <r>    1.7571    1.0000 </r>
       <r>    1.8542    1.0000 </r>
       <r>    1.8634    1.0000 </r>
       <r>    1.9582    1.0000 </r>
       <r>    1.9829    1.0000 </r>
       <r>    2.1236    1.0000 </r>
       <r>    2.1733    1.0000 </r>
       <r>    2.2575    1.0000 </r>
       <r>    2.2783    1.0000 </r>
       <r>    2.3230    1.0000 </r>
       <r>    2.3893    1.0000 </r>
       <r>    2.4487    1.0000 </r>
       <r>    2.5137    1.0000 </r>
       <r>    2.5228    1.0000 </r>
       <r>    2.5307    1.0000 </r>
       <r>    2.5441    1.0000 </r>
       <r>    2.5659    1.0000 </r>
       <r>    2.5924    1.0000 </r>
       <r>    2.6234    1.0000 </r>
       <r>    2.6455    1.0000 </r>
       <r>    2.6685    1.0000 </r>
       <r>    2.7301    1.0000 </r>
       <r>    2.7416    1.0000 </r>
       <r>    2.7964    1.0000 </r>
       <r>    2.8652    1.0000 </r>
       <r>    2.8886    1.0000 </r>
       <r>    2.9369    1.0000 </r>
       <r>    2.9691    1.0000 </r>
       <r>    3.0208    1.0000 </r>
       <r>    3.0507    1.0000 </r>
       <r>    3.0595    1.0000 </r>
       <r>    3.0676    1.0000 </r>
       <r>    3.0917    1.0000 </r>
       <r>    3.1200    1.0000 </r>
       <r>    3.1398    1.0000 </r>
       <r>    3.1619    1.0000 </r>
       <r>    3.1844    1.0000 </r>
       <r>    3.2130    1.0000 </r>
       <r>    3.2375    1.0000 </r>
       <r>    3.3320    1.0000 </r>
       <r>    3.3470    1.0000 </r>
       <r>    3.3986    1.0000 </r>
       <r>    3.4824    1.0000 </r>
       <r>    3.5596    1.0000 </r>
       <r>    3.7074    1.0000 </r>
       <r>    4.1384    1.0000 </r>
       <r>    4.1605    1.0000 </r>
       <r>    4.1992    1.0000 </r>
       <r>    4.2173    1.0000 </r>
       <r>    4.9691    0.0000 </r>
       <r>    4.9916    0.0000 </r>
       <r>    5.1567    0.0000 </r>
       <r>    5.1888    0.0000 </r>
       <r>    5.6915    0.0000 </r>
       <r>    5.7112    0.0000 </r>
       <r>    5.8077    0.0000 </r>
       <r>    5.8278    0.0000 </r>
       <r>    6.0673    0.0000 </r>
       <r>    6.0740    0.0000 </r>
       <r>    6.1189    0.0000 </r>
       <r>    6.1288    0.0000 </r>
       <r>    6.1967    0.0000 </r>
       <r>    6.2031    0.0000 </r>
       <r>    6.2357    0.0000 </r>
       <r>    6.2523    0.0000 </r>
       <r>    6.9783    0.0000 </r>
       <r>    7.0267    0.0000 </r>
       <r>    7.2911    0.0000 </r>
       <r>    7.3139    0.0000 </r>
       <r>    7.6494    0.0000 </r>
       <r>    7.7738    0.0000 </r>
       <r>    7.7999    0.0000 </r>
       <r>    7.8897    0.0000 </r>
       <r>    7.9241    0.0000 </r>
       <r>    8.0026    0.0000 </r>
       <r>    8.0721    0.0000 </r>
       <r>    8.2531    0.0000 </r>
       <r>    8.2813    0.0000 </r>
       <r>    8.6036    0.0000 </r>
       <r>    8.6453    0.0000 </r>
       <r>    8.7497    0.0000 </r>
       <r>    8.7774    0.0000 </r>
       <r>    8.7874    0.0000 </r>
       <r>    8.8944    0.0000 </r>
       <r>    8.9333    0.0000 </r>
       <r>    8.9967    0.0000 </r>
       <r>    9.0030    0.0000 </r>
       <r>    9.0514    0.0000 </r>
       <r>    9.0532    0.0000 </r>
       <r>    9.1128    0.0000 </r>
       <r>    9.1320    0.0000 </r>
       <r>    9.1879    0.0000 </r>
       <r>    9.2425    0.0000 </r>
       <r>    9.3767    0.0000 </r>
       <r>    9.3838    0.0000 </r>
       <r>    9.4773    0.0000 </r>
       <r>    9.5061    0.0000 </r>
       <r>    9.6721    0.0000 </r>
       <r>    9.7871    0.0000 </r>
      </set>
      <set comment="kpoint 2">
       <r>  -40.3402    1.0000 </r>
       <r>  -39.9777    1.0000 </r>
       <r>  -39.8858    1.0000 </r>
       <r>  -39.6510    1.0000 </r>
       <r>  -39.4125    1.0000 </r>
       <r>  -39.2206    1.0000 </r>
       <r>  -18.9576    1.0000 </r>
       <r>  -18.9489    1.0000 </r>
       <r>  -18.8882    1.0000 </r>
       <r>  -18.8823    1.0000 </r>
       <r>  -18.8810    1.0000 </r>
       <r>  -18.8794    1.0000 </r>
       <r>  -18.8751    1.0000 </r>
       <r>  -18.8665    1.0000 </r>
       <r>  -18.8127    1.0000 </r>
       <r>  -18.8074    1.0000 </r>
       <r>  -18.8049    1.0000 </r>
       <r>  -18.7996    1.0000 </r>
       <r>  -18.7885    1.0000 </r>
       <r>  -18.7795    1.0000 </r>
       <r>  -18.7655    1.0000 </r>
       <r>  -18.7563    1.0000 </r>
       <r>  -18.7538    1.0000 </r>
       <r>  -18.7449    1.0000 </r>
       <r>  -18.7424    1.0000 </r>
       <r>  -18.7366    1.0000 </r>
       <r>  -18.7324    1.0000 </r>
       <r>  -18.7245    1.0000 </r>
       <r>  -18.7103    1.0000 </r>
       <r>  -18.7038    1.0000 </r>
       <r>  -18.6947    1.0000 </r>
       <r>  -18.6904    1.0000 </r>
       <r>  -18.6891    1.0000 </r>
       <r>  -18.6874    1.0000 </r>
       <r>  -18.6862    1.0000 </r>
       <r>  -18.6838    1.0000 </r>
       <r>  -18.6830    1.0000 </r>
       <r>  -18.6785    1.0000 </r>
       <r>  -18.6775    1.0000 </r>
       <r>  -18.6759    1.0000 </r>
       <r>  -18.6741    1.0000 </r>
       <r>  -18.6715    1.0000 </r>
       <r>  -18.6658    1.0000 </r>
       <r>  -18.6503    1.0000 </r>
       <r>  -18.6105    1.0000 </r>
       <r>  -18.5977    1.0000 </r>
       <r>  -18.5976    1.0000 </r>
       <r>  -18.5902    1.0000 </r>
       <r>  -18.5883    1.0000 </r>
       <r>  -18.5863    1.0000 </r>
       <r>  -18.5796    1.0000 </r>
       <r>  -18.5760    1.0000 </r>
       <r>  -18.5732    1.0000 </r>
       <r>  -18.5594    1.0000 </r>
       <r>  -18.5393    1.0000 </r>
       <r>  -18.5354    1.0000 </r>
       <r>  -18.5350    1.0000 </r>
       <r>  -18.5235    1.0000 </r>
       <r>  -18.5223    1.0000 </r>
       <r>  -18.5209    1.0000 </r>
       <r>  -18.5206    1.0000 </r>
       <r>  -18.4964    1.0000 </r>
       <r>  -18.4937    1.0000 </r>
       <r>  -18.4927    1.0000 </r>
       <r>  -18.4844    1.0000 </r>
       <r>  -18.4817    1.0000 </r>
       <r>  -18.4550    1.0000 </r>
       <r>  -18.4361    1.0000 </r>
       <r>  -18.4319    1.0000 </r>
       <r>  -18.4306    1.0000 </r>
       <r>  -18.4253    1.0000 </r>
       <r>  -18.4181    1.0000 </r>
       <r>  -18.4170    1.0000 </r>
       <r>  -18.4098    1.0000 </r>
       <r>  -18.4047    1.0000 </r>
       <r>  -18.4001    1.0000 </r>
       <r>  -18.3407    1.0000 </r>
       <r>  -18.3353    1.0000 </r>
       <r>  -18.2979    1.0000 </r>
       <r>  -18.2907    1.0000 </r>
       <r>  -18.2807    1.0000 </r>
       <r>  -18.2727    1.0000 </r>
       <r>  -18.2317    1.0000 </r>
       <r>  -18.2200    1.0000 </r>
       <r>  -18.2066    1.0000 </r>
       <r>  -18.2041    1.0000 </r>
       <r>  -13.6111    1.0000 </r>
       <r>  -13.5051    1.0000 </r>
       <r>  -13.4426    1.0000 </r>
       <r>  -13.4332    1.0000 </r>
       <r>  -12.8896    1.0000 </r>
       <r>  -12.8245    1.0000 </r>
       <r>  -12.8063    1.0000 </r>
       <r>  -12.7829    1.0000 </r>
       <r>  -12.7629    1.0000 </r>
       <r>  -12.7263    1.0000 </r>
       <r>  -12.6586    1.0000 </r>
       <r>  -12.5825    1.0000 </r>
       <r>  -12.1028    1.0000 </r>
       <r>  -12.0607    1.0000 </r>
       <r>  -12.0057    1.0000 </r>
       <r>  -11.9554    1.0000 </r>
       <r>   -9.2167    1.0000 </r>
       <r>   -9.0625    1.0000 </r>
       <r>   -8.9412    1.0000 </r>
       <r>   -8.7844    1.0000 </r>
       <r>   -8.4330    1.0000 </r>
       <r>   -8.4195    1.0000 </r>
       <r>   -8.2971    1.0000 </r>
       <r>   -8.2898    1.0000 </r>
       <r>   -8.2296    1.0000 </r>
       <r>   -8.2214    1.0000 </r>
       <r>   -8.0939    1.0000 </r>
       <r>   -8.0885    1.0000 </r>
       <r>   -7.7792    1.0000 </r>
       <r>   -7.6662    1.0000 </r>
       <r>   -7.6660    1.0000 </r>
       <r>   -7.5525    1.0000 </r>
       <r>   -6.0590    1.0000 </r>
       <r>   -6.0427    1.0000 </r>
       <r>   -5.9464    1.0000 </r>
       <r>   -5.8892    1.0000 </r>
       <r>   -5.8748    1.0000 </r>
       <r>   -5.8358    1.0000 </r>
       <r>   -5.7463    1.0000 </r>
       <r>   -5.7213    1.0000 </r>
       <r>   -5.6648    1.0000 </r>
       <r>   -5.6107    1.0000 </r>
       <r>   -5.5455    1.0000 </r>
       <r>   -5.4457    1.0000 </r>
       <r>   -4.5338    1.0000 </r>
       <r>   -4.3752    1.0000 </r>
       <r>   -4.3725    1.0000 </r>
       <r>   -4.2035    1.0000 </r>
       <r>   -1.3157    1.0000 </r>
       <r>   -1.1137    1.0000 </r>
       <r>   -0.9386    1.0000 </r>
       <r>   -0.7660    1.0000 </r>
       <r>   -0.5453    1.0000 </r>
       <r>   -0.3642    1.0000 </r>
       <r>   -0.1958    1.0000 </r>
       <r>   -0.0581    1.0000 </r>
       <r>    0.0038    1.0000 </r>
       <r>    0.0361    1.0000 </r>
       <r>    0.0399    1.0000 </r>
       <r>    0.0694    1.0000 </r>
       <r>    0.1359    1.0000 </r>
       <r>    0.1490    1.0000 </r>
       <r>    0.2151    1.0000 </r>
       <r>    0.2949    1.0000 </r>
       <r>    0.3759    1.0000 </r>
       <r>    0.3971    1.0000 </r>
       <r>    0.4162    1.0000 </r>
       <r>    0.4753    1.0000 </r>
       <r>    0.5278    1.0000 </r>
       <r>    0.5613    1.0000 </r>
       <r>    0.5829    1.0000 </r>
       <r>    0.6571    1.0000 </r>
       <r>    0.6806    1.0000 </r>
       <r>    0.7128    1.0000 </r>
       <r>    0.7839    1.0000 </r>
       <r>    0.8328    1.0000 </r>
       <r>    0.9420    1.0000 </r>
       <r>    1.0208    1.0000 </r>
       <r>    1.0366    1.0000 </r>
       <r>    1.0665    1.0000 </r>
       <r>    1.0841    1.0000 </r>
       <r>    1.1214    1.0000 </r>
       <r>    1.1525    1.0000 </r>
       <r>    1.2336    1.0000 </r>
       <r>    1.2619    1.0000 </r>
       <r>    1.2934    1.0000 </r>
       <r>    1.3402    1.0000 </r>
       <r>    1.4019    1.0000 </r>
       <r>    1.4137    1.0000 </r>
       <r>    1.4657    1.0000 </r>
       <r>    1.5065    1.0000 </r>
       <r>    1.5195    1.0000 </r>
       <r>    1.6025    1.0000 </r>
       <r>    1.6109    1.0000 </r>
       <r>    1.6442    1.0000 </r>
       <r>    1.7050    1.0000 </r>
       <r>    1.7161    1.0000 </r>
       <r>    1.7381    1.0000 </r>
       <r>    1.8589    1.0000 </r>
       <r>    1.8845    1.0000 </r>
       <r>    1.9461    1.0000 </r>
       <r>    1.9555    1.0000 </r>
       <r>    2.0159    1.0000 </r>
       <r>    2.0610    1.0000 </r>
       <r>    2.1299    1.0000 </r>
       <r>    2.1911    1.0000 </r>
       <r>    2.2181    1.0000 </r>
       <r>    2.2895    1.0000 </r>
       <r>    2.3323    1.0000 </r>
       <r>    2.3624    1.0000 </r>
       <r>    2.3752    1.0000 </r>
       <r>    2.4502    1.0000 </r>
       <r>    2.4726    1.0000 </r>
       <r>    2.5093    1.0000 </r>
       <r>    2.5581    1.0000 </r>
       <r>    2.5906    1.0000 </r>
       <r>    2.6072    1.0000 </r>
       <r>    2.6576    1.0000 </r>
       <r>    2.6932    1.0000 </r>
       <r>    2.7049    1.0000 </r>
       <r>    2.7286    1.0000 </r>
       <r>    2.7540    1.0000 </r>
       <r>    2.8148    1.0000 </r>
       <r>    2.8900    1.0000 </r>
       <r>    2.8967    1.0000 </r>
       <r>    2.9266    1.0000 </r>
       <r>    3.0141    1.0000 </r>
       <r>    3.0521    1.0000 </r>
       <r>    3.0658    1.0000 </r>
       <r>    3.0908    1.0000 </r>
       <r>    3.1182    1.0000 </r>
       <r>    3.1417    1.0000 </r>
       <r>    3.2156    1.0000 </r>
       <r>    3.3512    1.0000 </r>
       <r>    3.3811    1.0000 </r>
       <r>    3.3879    1.0000 </r>
       <r>    3.4531    1.0000 </r>
       <r>    3.4900    1.0000 </r>
       <r>    3.5179    1.0000 </r>
       <r>    3.5410    1.0000 </r>
       <r>    3.5998    1.0000 </r>
       <r>    3.6036    1.0000 </r>
       <r>    3.6865    1.0000 </r>
       <r>    3.8228    1.0000 </r>
       <r>    5.5206    0.0000 </r>
       <r>    5.5384    0.0000 </r>
       <r>    5.6799    0.0000 </r>
       <r>    5.6866    0.0000 </r>
       <r>    5.7213    0.0000 </r>
       <r>    5.7259    0.0000 </r>
       <r>    5.8689    0.0000 </r>
       <r>    5.8836    0.0000 </r>
       <r>    7.1142    0.0000 </r>
       <r>    7.1449    0.0000 </r>
       <r>    7.2232    0.0000 </r>
       <r>    7.2787    0.0000 </r>
       <r>    7.3120    0.0000 </r>
       <r>    7.3711    0.0000 </r>
       <r>    7.4012    0.0000 </r>
       <r>    7.4055    0.0000 </r>
       <r>    7.4454    0.0000 </r>
       <r>    7.4649    0.0000 </r>
       <r>    7.5786    0.0000 </r>
       <r>    7.5852    0.0000 </r>
       <r>    7.7616    0.0000 </r>
       <r>    7.7811    0.0000 </r>
       <r>    7.8077    0.0000 </r>
       <r>    7.8134    0.0000 </r>
       <r>    7.8524    0.0000 </r>
       <r>    7.8627    0.0000 </r>
       <r>    7.9136    0.0000 </r>
       <r>    7.9276    0.0000 </r>
       <r>    7.9406    0.0000 </r>
       <r>    7.9634    0.0000 </r>
       <r>    7.9945    0.0000 </r>
       <r>    8.1208    0.0000 </r>
       <r>    8.1814    0.0000 </r>
       <r>    8.2870    0.0000 </r>
       <r>    8.3855    0.0000 </r>
       <r>    8.4888    0.0000 </r>
       <r>    8.6347    0.0000 </r>
       <r>    8.6985    0.0000 </r>
       <r>    8.7185    0.0000 </r>
       <r>    8.7311    0.0000 </r>
       <r>    8.7361    0.0000 </r>
       <r>    8.8202    0.0000 </r>
       <r>    8.8963    0.0000 </r>
       <r>    8.9071    0.0000 </r>
       <r>    9.0666    0.0000 </r>
       <r>    9.2492    0.0000 </r>
       <r>    9.2821    0.0000 </r>
       <r>    9.3300    0.0000 </r>
       <r>    9.4780    0.0000 </r>
       <r>    9.5498    0.0000 </r>
      </set>
      <set comment="kpoint 3">
       <r>  -40.3402    1.0000 </r>
       <r>  -39.9777    1.0000 </r>
       <r>  -39.8858    1.0000 </r>
       <r>  -39.6509    1.0000 </r>
       <r>  -39.4125    1.0000 </r>
       <r>  -39.2205    1.0000 </r>
       <r>  -18.9576    1.0000 </r>
       <r>  -18.9488    1.0000 </r>
       <r>  -18.8882    1.0000 </r>
       <r>  -18.8824    1.0000 </r>
       <r>  -18.8810    1.0000 </r>
       <r>  -18.8795    1.0000 </r>
       <r>  -18.8748    1.0000 </r>
       <r>  -18.8666    1.0000 </r>
       <r>  -18.8127    1.0000 </r>
       <r>  -18.8074    1.0000 </r>
       <r>  -18.8049    1.0000 </r>
       <r>  -18.7995    1.0000 </r>
       <r>  -18.7885    1.0000 </r>
       <r>  -18.7795    1.0000 </r>
       <r>  -18.7655    1.0000 </r>
       <r>  -18.7563    1.0000 </r>
       <r>  -18.7541    1.0000 </r>
       <r>  -18.7450    1.0000 </r>
       <r>  -18.7423    1.0000 </r>
       <r>  -18.7366    1.0000 </r>
       <r>  -18.7325    1.0000 </r>
       <r>  -18.7246    1.0000 </r>
       <r>  -18.7103    1.0000 </r>
       <r>  -18.7038    1.0000 </r>
       <r>  -18.6934    1.0000 </r>
       <r>  -18.6905    1.0000 </r>
       <r>  -18.6899    1.0000 </r>
       <r>  -18.6878    1.0000 </r>
       <r>  -18.6857    1.0000 </r>
       <r>  -18.6838    1.0000 </r>
       <r>  -18.6816    1.0000 </r>
       <r>  -18.6793    1.0000 </r>
       <r>  -18.6769    1.0000 </r>
       <r>  -18.6757    1.0000 </r>
       <r>  -18.6753    1.0000 </r>
       <r>  -18.6712    1.0000 </r>
       <r>  -18.6664    1.0000 </r>
       <r>  -18.6504    1.0000 </r>
       <r>  -18.6105    1.0000 </r>
       <r>  -18.5976    1.0000 </r>
       <r>  -18.5976    1.0000 </r>
       <r>  -18.5902    1.0000 </r>
       <r>  -18.5883    1.0000 </r>
       <r>  -18.5863    1.0000 </r>
       <r>  -18.5796    1.0000 </r>
       <r>  -18.5760    1.0000 </r>
       <r>  -18.5732    1.0000 </r>
       <r>  -18.5594    1.0000 </r>
       <r>  -18.5393    1.0000 </r>
       <r>  -18.5354    1.0000 </r>
       <r>  -18.5351    1.0000 </r>
       <r>  -18.5235    1.0000 </r>
       <r>  -18.5223    1.0000 </r>
       <r>  -18.5209    1.0000 </r>
       <r>  -18.5207    1.0000 </r>
       <r>  -18.4963    1.0000 </r>
       <r>  -18.4938    1.0000 </r>
       <r>  -18.4927    1.0000 </r>
       <r>  -18.4840    1.0000 </r>
       <r>  -18.4821    1.0000 </r>
       <r>  -18.4550    1.0000 </r>
       <r>  -18.4361    1.0000 </r>
       <r>  -18.4319    1.0000 </r>
       <r>  -18.4306    1.0000 </r>
       <r>  -18.4253    1.0000 </r>
       <r>  -18.4181    1.0000 </r>
       <r>  -18.4169    1.0000 </r>
       <r>  -18.4101    1.0000 </r>
       <r>  -18.4045    1.0000 </r>
       <r>  -18.4001    1.0000 </r>
       <r>  -18.3407    1.0000 </r>
       <r>  -18.3353    1.0000 </r>
       <r>  -18.2979    1.0000 </r>
       <r>  -18.2907    1.0000 </r>
       <r>  -18.2807    1.0000 </r>
       <r>  -18.2727    1.0000 </r>
       <r>  -18.2317    1.0000 </r>
       <r>  -18.2200    1.0000 </r>
       <r>  -18.2066    1.0000 </r>
       <r>  -18.2041    1.0000 </r>
       <r>  -13.6114    1.0000 </r>
       <r>  -13.5049    1.0000 </r>
       <r>  -13.4400    1.0000 </r>
       <r>  -13.4355    1.0000 </r>
       <r>  -12.8941    1.0000 </r>
       <r>  -12.8276    1.0000 </r>
       <r>  -12.7900    1.0000 </r>
       <r>  -12.7751    1.0000 </r>
       <r>  -12.7673    1.0000 </r>
       <r>  -12.7395    1.0000 </r>
       <r>  -12.6571    1.0000 </r>
       <r>  -12.5834    1.0000 </r>
       <r>  -12.1025    1.0000 </r>
       <r>  -12.0613    1.0000 </r>
       <r>  -12.0056    1.0000 </r>
       <r>  -11.9567    1.0000 </r>
       <r>   -9.3507    1.0000 </r>
       <r>   -9.0737    1.0000 </r>
       <r>   -8.6119    1.0000 </r>
       <r>   -8.5690    1.0000 </r>
       <r>   -8.5111    1.0000 </r>
       <r>   -8.4688    1.0000 </r>
       <r>   -8.3491    1.0000 </r>
       <r>   -8.3080    1.0000 </r>
       <r>   -8.2485    1.0000 </r>
       <r>   -8.2120    1.0000 </r>
       <r>   -8.0715    1.0000 </r>
       <r>   -8.0598    1.0000 </r>
       <r>   -8.0345    1.0000 </r>
       <r>   -8.0186    1.0000 </r>
       <r>   -7.3931    1.0000 </r>
       <r>   -7.3846    1.0000 </r>
       <r>   -6.4000    1.0000 </r>
       <r>   -6.3866    1.0000 </r>
       <r>   -6.3805    1.0000 </r>
       <r>   -6.3685    1.0000 </r>
       <r>   -5.5710    1.0000 </r>
       <r>   -5.5344    1.0000 </r>
       <r>   -5.4931    1.0000 </r>
       <r>   -5.4156    1.0000 </r>
       <r>   -5.3589    1.0000 </r>
       <r>   -5.2934    1.0000 </r>
       <r>   -5.2177    1.0000 </r>
       <r>   -5.1439    1.0000 </r>
       <r>   -5.0588    1.0000 </r>
       <r>   -5.0007    1.0000 </r>
       <r>   -3.9143    1.0000 </r>
       <r>   -3.6012    1.0000 </r>
       <r>   -1.4232    1.0000 </r>
       <r>   -1.3492    1.0000 </r>
       <r>   -1.2742    1.0000 </r>
       <r>   -1.0568    1.0000 </r>
       <r>   -0.5454    1.0000 </r>
       <r>   -0.4962    1.0000 </r>
       <r>   -0.4846    1.0000 </r>
       <r>   -0.4351    1.0000 </r>
       <r>   -0.4110    1.0000 </r>
       <r>   -0.4004    1.0000 </r>
       <r>   -0.3413    1.0000 </r>
       <r>   -0.2546    1.0000 </r>
       <r>   -0.2031    1.0000 </r>
       <r>   -0.1023    1.0000 </r>
       <r>    0.0218    1.0000 </r>
       <r>    0.0547    1.0000 </r>
       <r>    0.0853    1.0000 </r>
       <r>    0.2434    1.0000 </r>
       <r>    0.3413    1.0000 </r>
       <r>    0.3785    1.0000 </r>
       <r>    0.3920    1.0000 </r>
       <r>    0.4866    1.0000 </r>
       <r>    0.5513    1.0000 </r>
       <r>    0.6099    1.0000 </r>
       <r>    0.6830    1.0000 </r>
       <r>    0.7320    1.0000 </r>
       <r>    0.7913    1.0000 </r>
       <r>    0.8320    1.0000 </r>
       <r>    0.9450    1.0000 </r>
       <r>    0.9755    1.0000 </r>
       <r>    1.0455    1.0000 </r>
       <r>    1.1145    1.0000 </r>
       <r>    1.1878    1.0000 </r>
       <r>    1.2549    1.0000 </r>
       <r>    1.2784    1.0000 </r>
       <r>    1.3448    1.0000 </r>
       <r>    1.4102    1.0000 </r>
       <r>    1.4428    1.0000 </r>
       <r>    1.5117    1.0000 </r>
       <r>    1.5357    1.0000 </r>
       <r>    1.5522    1.0000 </r>
       <r>    1.5661    1.0000 </r>
       <r>    1.6180    1.0000 </r>
       <r>    1.6822    1.0000 </r>
       <r>    1.7149    1.0000 </r>
       <r>    1.7368    1.0000 </r>
       <r>    1.8308    1.0000 </r>
       <r>    1.8664    1.0000 </r>
       <r>    1.9679    1.0000 </r>
       <r>    1.9982    1.0000 </r>
       <r>    2.0654    1.0000 </r>
       <r>    2.1738    1.0000 </r>
       <r>    2.2137    1.0000 </r>
       <r>    2.2739    1.0000 </r>
       <r>    2.2991    1.0000 </r>
       <r>    2.3212    1.0000 </r>
       <r>    2.3777    1.0000 </r>
       <r>    2.4634    1.0000 </r>
       <r>    2.4794    1.0000 </r>
       <r>    2.4955    1.0000 </r>
       <r>    2.5241    1.0000 </r>
       <r>    2.5346    1.0000 </r>
       <r>    2.5412    1.0000 </r>
       <r>    2.5656    1.0000 </r>
       <r>    2.5754    1.0000 </r>
       <r>    2.6122    1.0000 </r>
       <r>    2.6453    1.0000 </r>
       <r>    2.6730    1.0000 </r>
       <r>    2.7016    1.0000 </r>
       <r>    2.7665    1.0000 </r>
       <r>    2.7857    1.0000 </r>
       <r>    2.8108    1.0000 </r>
       <r>    2.8620    1.0000 </r>
       <r>    2.9134    1.0000 </r>
       <r>    2.9530    1.0000 </r>
       <r>    2.9694    1.0000 </r>
       <r>    2.9941    1.0000 </r>
       <r>    3.0045    1.0000 </r>
       <r>    3.0427    1.0000 </r>
       <r>    3.0837    1.0000 </r>
       <r>    3.0901    1.0000 </r>
       <r>    3.1280    1.0000 </r>
       <r>    3.2676    1.0000 </r>
       <r>    3.2981    1.0000 </r>
       <r>    3.3125    1.0000 </r>
       <r>    3.3642    1.0000 </r>
       <r>    3.3887    1.0000 </r>
       <r>    3.4164    1.0000 </r>
       <r>    3.4771    1.0000 </r>
       <r>    3.5509    1.0000 </r>
       <r>    3.5676    1.0000 </r>
       <r>    3.6477    1.0000 </r>
       <r>    4.1872    1.0000 </r>
       <r>    4.2130    1.0000 </r>
       <r>    4.2497    1.0000 </r>
       <r>    4.2682    1.0000 </r>
       <r>    5.0501    0.0000 </r>
       <r>    5.0706    0.0000 </r>
       <r>    5.2235    0.0000 </r>
       <r>    5.2450    0.0000 </r>
       <r>    5.6987    0.0000 </r>
       <r>    5.7194    0.0000 </r>
       <r>    5.8156    0.0000 </r>
       <r>    5.8355    0.0000 </r>
       <r>    6.1222    0.0000 </r>
       <r>    6.1314    0.0000 </r>
       <r>    6.1580    0.0000 </r>
       <r>    6.1712    0.0000 </r>
       <r>    6.2093    0.0000 </r>
       <r>    6.2184    0.0000 </r>
       <r>    6.2528    0.0000 </r>
       <r>    6.2733    0.0000 </r>
       <r>    6.6622    0.0000 </r>
       <r>    6.7312    0.0000 </r>
       <r>    6.9690    0.0000 </r>
       <r>    7.0076    0.0000 </r>
       <r>    7.0938    0.0000 </r>
       <r>    7.1563    0.0000 </r>
       <r>    7.3525    0.0000 </r>
       <r>    7.5902    0.0000 </r>
       <r>    7.6925    0.0000 </r>
       <r>    7.7957    0.0000 </r>
       <r>    7.8542    0.0000 </r>
       <r>    7.9684    0.0000 </r>
       <r>    8.0693    0.0000 </r>
       <r>    8.2916    0.0000 </r>
       <r>    8.3457    0.0000 </r>
       <r>    8.4039    0.0000 </r>
       <r>    8.6200    0.0000 </r>
       <r>    8.7321    0.0000 </r>
       <r>    8.9039    0.0000 </r>
       <r>    8.9463    0.0000 </r>
       <r>    8.9565    0.0000 </r>
       <r>    8.9970    0.0000 </r>
       <r>    9.0255    0.0000 </r>
       <r>    9.0541    0.0000 </r>
       <r>    9.0671    0.0000 </r>
       <r>    9.1217    0.0000 </r>
       <r>    9.1380    0.0000 </r>
       <r>    9.2063    0.0000 </r>
       <r>    9.4404    0.0000 </r>
       <r>    9.4499    0.0000 </r>
       <r>    9.5486    0.0000 </r>
       <r>    9.7112    0.0000 </r>
       <r>    9.7264    0.0000 </r>
       <r>    9.8112    0.0000 </r>
      </set>
      <set comment="kpoint 4">
       <r>  -40.3402    1.0000 </r>
       <r>  -39.9777    1.0000 </r>
       <r>  -39.8858    1.0000 </r>
       <r>  -39.6509    1.0000 </r>
       <r>  -39.4125    1.0000 </r>
       <r>  -39.2205    1.0000 </r>
       <r>  -18.9576    1.0000 </r>
       <r>  -18.9488    1.0000 </r>
       <r>  -18.8882    1.0000 </r>
       <r>  -18.8823    1.0000 </r>
       <r>  -18.8810    1.0000 </r>
       <r>  -18.8794    1.0000 </r>
       <r>  -18.8751    1.0000 </r>
       <r>  -18.8665    1.0000 </r>
       <r>  -18.8127    1.0000 </r>
       <r>  -18.8074    1.0000 </r>
       <r>  -18.8049    1.0000 </r>
       <r>  -18.7996    1.0000 </r>
       <r>  -18.7885    1.0000 </r>
       <r>  -18.7795    1.0000 </r>
       <r>  -18.7655    1.0000 </r>
       <r>  -18.7563    1.0000 </r>
       <r>  -18.7538    1.0000 </r>
       <r>  -18.7449    1.0000 </r>
       <r>  -18.7424    1.0000 </r>
       <r>  -18.7365    1.0000 </r>
       <r>  -18.7325    1.0000 </r>
       <r>  -18.7245    1.0000 </r>
       <r>  -18.7103    1.0000 </r>
       <r>  -18.7038    1.0000 </r>
       <r>  -18.6947    1.0000 </r>
       <r>  -18.6905    1.0000 </r>
       <r>  -18.6891    1.0000 </r>
       <r>  -18.6874    1.0000 </r>
       <r>  -18.6862    1.0000 </r>
       <r>  -18.6838    1.0000 </r>
       <r>  -18.6830    1.0000 </r>
       <r>  -18.6785    1.0000 </r>
       <r>  -18.6775    1.0000 </r>
       <r>  -18.6759    1.0000 </r>
       <r>  -18.6741    1.0000 </r>
       <r>  -18.6715    1.0000 </r>
       <r>  -18.6658    1.0000 </r>
       <r>  -18.6503    1.0000 </r>
       <r>  -18.6105    1.0000 </r>
       <r>  -18.5977    1.0000 </r>
       <r>  -18.5976    1.0000 </r>
       <r>  -18.5902    1.0000 </r>
       <r>  -18.5883    1.0000 </r>
       <r>  -18.5864    1.0000 </r>
       <r>  -18.5796    1.0000 </r>
       <r>  -18.5760    1.0000 </r>
       <r>  -18.5731    1.0000 </r>
       <r>  -18.5594    1.0000 </r>
       <r>  -18.5393    1.0000 </r>
       <r>  -18.5354    1.0000 </r>
       <r>  -18.5350    1.0000 </r>
       <r>  -18.5235    1.0000 </r>
       <r>  -18.5223    1.0000 </r>
       <r>  -18.5209    1.0000 </r>
       <r>  -18.5206    1.0000 </r>
       <r>  -18.4964    1.0000 </r>
       <r>  -18.4937    1.0000 </r>
       <r>  -18.4927    1.0000 </r>
       <r>  -18.4844    1.0000 </r>
       <r>  -18.4817    1.0000 </r>
       <r>  -18.4550    1.0000 </r>
       <r>  -18.4361    1.0000 </r>
       <r>  -18.4319    1.0000 </r>
       <r>  -18.4306    1.0000 </r>
       <r>  -18.4253    1.0000 </r>
       <r>  -18.4181    1.0000 </r>
       <r>  -18.4170    1.0000 </r>
       <r>  -18.4098    1.0000 </r>
       <r>  -18.4047    1.0000 </r>
       <r>  -18.4001    1.0000 </r>
       <r>  -18.3407    1.0000 </r>
       <r>  -18.3353    1.0000 </r>
       <r>  -18.2979    1.0000 </r>
       <r>  -18.2907    1.0000 </r>
       <r>  -18.2807    1.0000 </r>
       <r>  -18.2727    1.0000 </r>
       <r>  -18.2317    1.0000 </r>
       <r>  -18.2200    1.0000 </r>
       <r>  -18.2066    1.0000 </r>
       <r>  -18.2041    1.0000 </r>
       <r>  -13.6107    1.0000 </r>
       <r>  -13.5052    1.0000 </r>
       <r>  -13.4426    1.0000 </r>
[...]
       <r>    8.8091    0.0000 </r>
       <r>    8.8327    0.0000 </r>
       <r>    8.8362    0.0000 </r>
       <r>    8.8692    0.0000 </r>
       <r>    8.8855    0.0000 </r>
       <r>    8.9203    0.0000 </r>
       <r>    8.9718    0.0000 </r>
       <r>    9.5281    0.0000 </r>
       <r>    9.7297    0.0000 </r>
      </set>
     </set>
    </set>
   </array>
  </eigenvalues>
  <separator name="orbital magnetization" >
   <v name="MAGDIPOLOUT">      0.00000000      0.00000000      0.00000000</v>
  </separator>
  <dos>
   <i name="efermi">      4.40400388 </i>
   <total>
    <array>
     <dimension dim="1">gridpoints</dimension>
     <dimension dim="2">spin</dimension>
     <field>energy</field>
     <field>total</field>
     <field>integrated</field>
     <set>
      <set comment="spin 1">
       <r>   -42.8551     0.0000     0.0000 </r>
       <r>   -42.6707     0.0000     0.0000 </r>
       <r>   -42.4863     0.0000     0.0000 </r>
       <r>   -42.3019     0.0000     0.0000 </r>
       <r>   -42.1174     0.0000     0.0000 </r>
       <r>   -41.9330     0.0000     0.0000 </r>
       <r>   -41.7486     0.0000     0.0000 </r>
       <r>   -41.5641     0.0000     0.0000 </r>
       <r>   -41.3797     0.0000     0.0000 </r>
       <r>   -41.1953     0.0000     0.0000 </r>
       <r>   -41.0109     0.0000     0.0000 </r>
       <r>   -40.8264     0.0000     0.0000 </r>
       <r>   -40.6420     0.0000     0.0000 </r>
       <r>   -40.4576     0.0000     0.0000 </r>
       <r>   -40.2732     0.0000     2.0000 </r>
       <r>   -40.0887     0.0000     2.0000 </r>
       <r>   -39.9043     0.0000     4.0000 </r>
       <r>   -39.7199     0.0000     6.0000 </r>
       <r>   -39.5355     0.0000     8.0000 </r>
       <r>   -39.3510     0.0000    10.0000 </r>
       <r>   -39.1666     0.0000    12.0000 </r>
       <r>   -38.9822     0.0000    12.0000 </r>
       <r>   -38.7978     0.0000    12.0000 </r>
       <r>   -38.6133     0.0000    12.0000 </r>
       <r>   -38.4289     0.0000    12.0000 </r>
       <r>   -38.2445     0.0000    12.0000 </r>
       <r>   -38.0601     0.0000    12.0000 </r>
       <r>   -37.8756     0.0000    12.0000 </r>
       <r>   -37.6912     0.0000    12.0000 </r>
       <r>   -37.5068     0.0000    12.0000 </r>
       <r>   -37.3224     0.0000    12.0000 </r>
       <r>   -37.1379     0.0000    12.0000 </r>
       <r>   -36.9535     0.0000    12.0000 </r>
       <r>   -36.7691     0.0000    12.0000 </r>
       <r>   -36.5846     0.0000    12.0000 </r>
       <r>   -36.4002     0.0000    12.0000 </r>
       <r>   -36.2158     0.0000    12.0000 </r>
       <r>   -36.0314     0.0000    12.0000 </r>
       <r>   -35.8469     0.0000    12.0000 </r>
       <r>   -35.6625     0.0000    12.0000 </r>
       <r>   -35.4781     0.0000    12.0000 </r>
       <r>   -35.2937     0.0000    12.0000 </r>
       <r>   -35.1092     0.0000    12.0000 </r>
       <r>   -34.9248     0.0000    12.0000 </r>
       <r>   -34.7404     0.0000    12.0000 </r>
       <r>   -34.5560     0.0000    12.0000 </r>
       <r>   -34.3715     0.0000    12.0000 </r>
       <r>   -34.1871     0.0000    12.0000 </r>
       <r>   -34.0027     0.0000    12.0000 </r>
       <r>   -33.8183     0.0000    12.0000 </r>
       <r>   -33.6338     0.0000    12.0000 </r>
       <r>   -33.4494     0.0000    12.0000 </r>
       <r>   -33.2650     0.0000    12.0000 </r>
       <r>   -33.0806     0.0000    12.0000 </r>
       <r>   -32.8961     0.0000    12.0000 </r>
       <r>   -32.7117     0.0000    12.0000 </r>
       <r>   -32.5273     0.0000    12.0000 </r>
       <r>   -32.3429     0.0000    12.0000 </r>
       <r>   -32.1584     0.0000    12.0000 </r>
       <r>   -31.9740     0.0000    12.0000 </r>
       <r>   -31.7896     0.0000    12.0000 </r>
       <r>   -31.6052     0.0000    12.0000 </r>
       <r>   -31.4207     0.0000    12.0000 </r>
       <r>   -31.2363     0.0000    12.0000 </r>
       <r>   -31.0519     0.0000    12.0000 </r>
       <r>   -30.8674     0.0000    12.0000 </r>
       <r>   -30.6830     0.0000    12.0000 </r>
       <r>   -30.4986     0.0000    12.0000 </r>
       <r>   -30.3142     0.0000    12.0000 </r>
       <r>   -30.1297     0.0000    12.0000 </r>
       <r>   -29.9453     0.0000    12.0000 </r>
       <r>   -29.7609     0.0000    12.0000 </r>
       <r>   -29.5765     0.0000    12.0000 </r>
       <r>   -29.3920     0.0000    12.0000 </r>
       <r>   -29.2076     0.0000    12.0000 </r>
       <r>   -29.0232     0.0000    12.0000 </r>
       <r>   -28.8388     0.0000    12.0000 </r>
       <r>   -28.6543     0.0000    12.0000 </r>
       <r>   -28.4699     0.0000    12.0000 </r>
       <r>   -28.2855     0.0000    12.0000 </r>
       <r>   -28.1011     0.0000    12.0000 </r>
       <r>   -27.9166     0.0000    12.0000 </r>
       <r>   -27.7322     0.0000    12.0000 </r>
       <r>   -27.5478     0.0000    12.0000 </r>
       <r>   -27.3634     0.0000    12.0000 </r>
       <r>   -27.1789     0.0000    12.0000 </r>
       <r>   -26.9945     0.0000    12.0000 </r>
       <r>   -26.8101     0.0000    12.0000 </r>
       <r>   -26.6257     0.0000    12.0000 </r>
       <r>   -26.4412     0.0000    12.0000 </r>
       <r>   -26.2568     0.0000    12.0000 </r>
       <r>   -26.0724     0.0000    12.0000 </r>
       <r>   -25.8879     0.0000    12.0000 </r>
       <r>   -25.7035     0.0000    12.0000 </r>
       <r>   -25.5191     0.0000    12.0000 </r>
       <r>   -25.3347     0.0000    12.0000 </r>
       <r>   -25.1502     0.0000    12.0000 </r>
       <r>   -24.9658     0.0000    12.0000 </r>
       <r>   -24.7814     0.0000    12.0000 </r>
       <r>   -24.5970     0.0000    12.0000 </r>
       <r>   -24.4125     0.0000    12.0000 </r>
       <r>   -24.2281     0.0000    12.0000 </r>
       <r>   -24.0437     0.0000    12.0000 </r>
       <r>   -23.8593     0.0000    12.0000 </r>
       <r>   -23.6748     0.0000    12.0000 </r>
       <r>   -23.4904     0.0000    12.0000 </r>
       <r>   -23.3060     0.0000    12.0000 </r>
       <r>   -23.1216     0.0000    12.0000 </r>
       <r>   -22.9371     0.0000    12.0000 </r>
       <r>   -22.7527     0.0000    12.0000 </r>
       <r>   -22.5683     0.0000    12.0000 </r>
       <r>   -22.3839     0.0000    12.0000 </r>
       <r>   -22.1994     0.0000    12.0000 </r>
       <r>   -22.0150     0.0000    12.0000 </r>
       <r>   -21.8306     0.0000    12.0000 </r>
       <r>   -21.6462     0.0000    12.0000 </r>
       <r>   -21.4617     0.0000    12.0000 </r>
       <r>   -21.2773     0.0000    12.0000 </r>
       <r>   -21.0929     0.0000    12.0000 </r>
       <r>   -20.9084     0.0000    12.0000 </r>
       <r>   -20.7240     0.0000    12.0000 </r>
       <r>   -20.5396     0.0000    12.0000 </r>
       <r>   -20.3552     0.0000    12.0000 </r>
       <r>   -20.1707     0.0000    12.0000 </r>
       <r>   -19.9863     0.0000    12.0000 </r>
       <r>   -19.8019     0.0000    12.0000 </r>
       <r>   -19.6175     0.0000    12.0000 </r>
       <r>   -19.4330     0.0000    12.0000 </r>
       <r>   -19.2486     0.0000    12.0000 </r>
       <r>   -19.0642     0.0000    12.0000 </r>
       <r>   -18.8798     0.0000    22.0000 </r>
       <r>   -18.6953     0.0000    60.0000 </r>
       <r>   -18.5109     0.0000   122.0000 </r>
       <r>   -18.3265     0.0000   156.0000 </r>
       <r>   -18.1421     0.0000   172.0000 </r>
       <r>   -17.9576     0.0000   172.0000 </r>
       <r>   -17.7732     0.0000   172.0000 </r>
       <r>   -17.5888     0.0000   172.0000 </r>
       <r>   -17.4044     0.0000   172.0000 </r>
       <r>   -17.2199     0.0000   172.0000 </r>
       <r>   -17.0355     0.0000   172.0000 </r>
       <r>   -16.8511     0.0000   172.0000 </r>
       <r>   -16.6667     0.0000   172.0000 </r>
       <r>   -16.4822     0.0000   172.0000 </r>
       <r>   -16.2978     0.0000   172.0000 </r>
       <r>   -16.1134     0.0000   172.0000 </r>
       <r>   -15.9289     0.0000   172.0000 </r>
       <r>   -15.7445     0.0000   172.0000 </r>
       <r>   -15.5601     0.0000   172.0000 </r>
       <r>   -15.3757     0.0000   172.0000 </r>
       <r>   -15.1912     0.0000   172.0000 </r>
       <r>   -15.0068     0.0000   172.0000 </r>
       <r>   -14.8224     0.0000   172.0000 </r>
       <r>   -14.6380     0.0000   172.0000 </r>
       <r>   -14.4535     0.0000   172.0000 </r>
       <r>   -14.2691     0.0000   172.0000 </r>
       <r>   -14.0847     0.0000   172.0000 </r>
       <r>   -13.9003     0.0000   172.0000 </r>
       <r>   -13.7158     0.0000   172.0000 </r>
       <r>   -13.5314     0.0000   174.0000 </r>
       <r>   -13.3470     0.0000   180.0000 </r>
       <r>   -13.1626     0.0000   180.0000 </r>
       <r>   -12.9781     0.0000   180.0000 </r>
       <r>   -12.7937   130.9777   185.3932 </r>
       <r>   -12.6093     0.0000   194.0000 </r>
       <r>   -12.4249     0.0000   196.0000 </r>
       <r>   -12.2404     0.0000   196.0000 </r>
       <r>   -12.0560     0.0000   200.0000 </r>
       <r>   -11.8716     0.0000   204.0000 </r>
       <r>   -11.6872     0.0000   204.0000 </r>
       <r>   -11.5027     0.0000   204.0000 </r>
       <r>   -11.3183     0.0000   204.0000 </r>
       <r>   -11.1339     0.0000   204.0000 </r>
       <r>   -10.9495     0.0000   204.0000 </r>
       <r>   -10.7650     0.0000   204.0000 </r>
       <r>   -10.5806     0.0000   204.0000 </r>
       <r>   -10.3962     0.0000   204.0000 </r>
       <r>   -10.2117     0.0000   204.0000 </r>
       <r>   -10.0273     0.0000   204.0000 </r>
       <r>    -9.8429     0.0000   204.0000 </r>
       <r>    -9.6585     0.0000   204.0000 </r>
       <r>    -9.4740     0.0000   204.0000 </r>
       <r>    -9.2896     5.0131   204.1668 </r>
       <r>    -9.1052    18.8998   206.0511 </r>
       <r>    -8.9208     6.6138   208.0607 </r>
       <r>    -8.7363    13.4247   211.0331 </r>
       <r>    -8.5519    14.5716   213.2435 </r>
       <r>    -8.3675    21.4722   218.1950 </r>
       <r>    -8.1831    22.2547   221.2280 </r>
       <r>    -7.9986    23.0211   226.0414 </r>
       <r>    -7.8142    15.0498   229.4855 </r>
       <r>    -7.6298    22.3028   232.7759 </r>
       <r>    -7.4454     6.5979   235.8059 </r>
       <r>    -7.2609     0.0000   236.0000 </r>
       <r>    -7.0765     0.0000   236.0000 </r>
       <r>    -6.8921     0.0000   236.0000 </r>
       <r>    -6.7077     0.0000   236.0000 </r>
       <r>    -6.5232     0.0000   236.0000 </r>
       <r>    -6.3388     5.7276   236.1579 </r>
       <r>    -6.1544    24.9659   239.0499 </r>
       <r>    -5.9700    14.5369   243.5263 </r>
       <r>    -5.7855    31.2013   246.8591 </r>
       <r>    -5.6011    17.7380   251.4669 </r>
       <r>    -5.4167    22.6582   254.9550 </r>
       <r>    -5.2322    14.1743   258.6225 </r>
       <r>    -5.0478     2.4021   259.9838 </r>
       <r>    -4.8634     8.0204   260.9616 </r>
       <r>    -4.6790     9.2648   262.4976 </r>
       <r>    -4.4945     8.5638   264.3347 </r>
       <r>    -4.3101     6.9647   265.5854 </r>
       <r>    -4.1257     5.9923   266.8848 </r>
       <r>    -3.9413     2.6738   267.6828 </r>
       <r>    -3.7568     0.7365   267.9567 </r>
       <r>    -3.5724     0.0000   268.0000 </r>
       <r>    -3.3880     0.0000   268.0000 </r>
       <r>    -3.2036     0.0000   268.0000 </r>
       <r>    -3.0191     0.0000   268.0000 </r>
       <r>    -2.8347     0.0000   268.0000 </r>
       <r>    -2.6503     0.0000   268.0000 </r>
       <r>    -2.4659     0.0000   268.0000 </r>
       <r>    -2.2814     0.0000   268.0000 </r>
       <r>    -2.0970     0.0000   268.0000 </r>
       <r>    -1.9126     0.0000   268.0000 </r>
       <r>    -1.7282     0.0000   268.0000 </r>
       <r>    -1.5437     0.0073   268.0000 </r>
       <r>    -1.3593     3.0649   268.2136 </r>
       <r>    -1.1749    11.7638   269.5771 </r>
       <r>    -0.9905    13.4135   271.7433 </r>
       <r>    -0.8060     9.2849   274.0799 </r>
       <r>    -0.6216     5.7307   275.3416 </r>
       <r>    -0.4372    18.8547   277.6544 </r>
       <r>    -0.2527    26.0016   281.6458 </r>
       <r>    -0.0683    46.7647   288.6927 </r>
       <r>     0.1161    35.9868   295.6690 </r>
       <r>     0.3005    29.5079   301.6987 </r>
       <r>     0.4850    36.3624   308.7284 </r>
       <r>     0.6694    34.9591   315.8152 </r>
       <r>     0.8538    28.4382   322.5327 </r>
       <r>     1.0382    49.1897   329.7580 </r>
       <r>     1.2227    40.0854   337.8882 </r>
       <r>     1.4071    62.4618   346.6400 </r>
       <r>     1.5915    49.4824   356.3536 </r>
       <r>     1.7759    38.7375   365.2799 </r>
       <r>     1.9604    37.4812   371.3398 </r>
       <r>     2.1448    42.0717   378.4832 </r>
       <r>     2.3292    53.8369   387.1559 </r>
       <r>     2.5136    56.6249   397.3404 </r>
       <r>     2.6981    72.1946   408.5142 </r>
       <r>     2.8825    57.1957   419.0286 </r>
       <r>     3.0669    62.2844   431.2520 </r>
       <r>     3.2513    35.5586   439.5242 </r>
       <r>     3.4358    37.5867   446.6522 </r>
       <r>     3.6202    18.7812   453.3051 </r>
       <r>     3.8046    20.2851   456.4736 </r>
       <r>     3.9890     9.0563   458.9686 </r>
       <r>     4.1735     1.6591   459.9475 </r>
       <r>     4.3579     0.0000   460.0000 </r>
       <r>     4.5423     0.0000   460.0000 </r>
       <r>     4.7267     0.0000   460.0000 </r>
       <r>     4.9112     0.0000   460.0000 </r>
       <r>     5.0956     0.7254   460.0304 </r>
       <r>     5.2800     3.4930   460.3692 </r>
       <r>     5.4645     7.6706   461.3984 </r>
       <r>     5.6489     9.7686   463.0963 </r>
       <r>     5.8333    28.8578   466.4951 </r>
       <r>     6.0177    13.0941   469.5625 </r>
       <r>     6.2022    11.7601   471.7993 </r>
       <r>     6.3866    13.4695   474.1068 </r>
       <r>     6.5710    15.4395   476.7730 </r>
       <r>     6.7554    17.5045   479.8057 </r>
       <r>     6.9399    20.6584   483.2980 </r>
       <r>     7.1243    26.0668   487.5664 </r>
       <r>     7.3087    35.5769   493.3033 </r>
       <r>     7.4931    31.6835   500.1157 </r>
       <r>     7.6776    41.6056   505.2837 </r>
       <r>     7.8620    45.5600   513.9771 </r>
       <r>     8.0464    29.6179   520.9482 </r>
       <r>     8.2308    19.4360   525.3147 </r>
       <r>     8.4153    20.4261   528.9049 </r>
       <r>     8.5997    25.3967   533.1473 </r>
       <r>     8.7841    46.2673   538.8412 </r>
       <r>     8.9685    30.2058   546.5198 </r>
       <r>     9.1530    17.8739   550.7816 </r>
       <r>     9.3374    14.3955   553.7164 </r>
       <r>     9.5218    14.2920   556.4495 </r>
       <r>     9.7062     9.7515   559.0002 </r>
       <r>     9.8907     0.9709   559.9783 </r>
       <r>    10.0751     0.0000   560.0000 </r>
       <r>    10.2595     0.0000   560.0000 </r>
       <r>    10.4440     0.0000   560.0000 </r>
       <r>    10.6284     0.0000   560.0000 </r>
       <r>    10.8128     0.0000   560.0000 </r>
       <r>    10.9972     0.0000   560.0000 </r>
       <r>    11.1817     0.0000   560.0000 </r>
       <r>    11.3661     0.0000   560.0000 </r>
       <r>    11.5505     0.0000   560.0000 </r>
       <r>    11.7349     0.0000   560.0000 </r>
       <r>    11.9194     0.0000   560.0000 </r>
       <r>    12.1038     0.0000   560.0000 </r>
       <r>    12.2882     0.0000   560.0000 </r>
       <r>    12.4726     0.0000   560.0000 </r>
      </set>
     </set>
    </array>
   </total>
  </dos>
 </calculation>
 <structure name="finalpos" >
  <crystal>
   <varray name="basis" >
    <v>      11.17850000       0.00000000       0.00000000 </v>
    <v>       0.00000000       9.57460000       0.00000000 </v>
    <v>       0.00000000       0.00000000      11.18240000 </v>
   </varray>
   <i name="volume">   1196.84853820 </i>
   <varray name="rec_basis" >
    <v>       0.08945744       0.00000000       0.00000000 </v>
    <v>       0.00000000       0.10444301       0.00000000 </v>
    <v>       0.00000000       0.00000000       0.08942624 </v>
   </varray>
  </crystal>
  <varray name="positions" >
   <v>       0.37539000       0.00017000       0.43687000 </v>
   <v>       0.87461000       0.00017000       0.18687000 </v>
   <v>       0.12461000       0.99984000       0.68687000 </v>
   <v>       0.37461000       0.00017000       0.68687000 </v>
   <v>       0.87539000       0.00017000       0.93687000 </v>
   <v>       0.87461000       0.00017000       0.68687000 </v>
   <v>       0.12461000       0.99984000       0.18687000 </v>
   <v>       0.87539000       0.00017000       0.43687000 </v>
   <v>       0.62461000       0.99984000       0.18687000 </v>
   <v>       0.37539000       0.00017000       0.93687000 </v>
   <v>       0.62461000       0.99984000       0.68687000 </v>
   <v>       0.00013000       0.29519000       0.06281000 </v>
   <v>       0.25013000       0.70481000       0.06281000 </v>
   <v>       0.24987000       0.29519000       0.31282000 </v>
   <v>       0.49987000       0.70481000       0.31282000 </v>
   <v>       0.50013000       0.29519000       0.06281000 </v>
   <v>       0.75013000       0.70481000       0.06281000 </v>
   <v>       0.74987000       0.29519000       0.31282000 </v>
   <v>       0.99987000       0.70481000       0.31282000 </v>
   <v>       0.00013000       0.29519000       0.56281000 </v>
   <v>       0.25013000       0.70481000       0.56281000 </v>
   <v>       0.24987000       0.29519000       0.81282000 </v>
   <v>       0.49987000       0.70481000       0.81282000 </v>
   <v>       0.50013000       0.29519000       0.56281000 </v>
   <v>       0.75013000       0.70481000       0.56281000 </v>
   <v>       0.74987000       0.29519000       0.81282000 </v>
   <v>       0.99987000       0.70481000       0.81282000 </v>
   <v>       0.25005000       0.32677000       0.06286000 </v>
   <v>       0.00005000       0.67323000       0.06286000 </v>
   <v>       0.49995000       0.32677000       0.31286000 </v>
   <v>       0.24995000       0.67323000       0.31286000 </v>
   <v>       0.75005000       0.32677000       0.06286000 </v>
   <v>       0.50005000       0.67323000       0.06286000 </v>
   <v>       0.99995000       0.32677000       0.31286000 </v>
   <v>       0.74995000       0.67323000       0.31286000 </v>
   <v>       0.25005000       0.32677000       0.56286000 </v>
   <v>       0.00005000       0.67323000       0.56286000 </v>
   <v>       0.49995000       0.32677000       0.81286000 </v>
   <v>       0.24995000       0.67323000       0.81286000 </v>
   <v>       0.75005000       0.32677000       0.56286000 </v>
   <v>       0.50005000       0.67323000       0.56286000 </v>
   <v>       0.99995000       0.32677000       0.81286000 </v>
   <v>       0.74995000       0.67323000       0.81286000 </v>
   <v>       0.49987000       0.07798000       0.06246000 </v>
   <v>       0.24987000       0.92202000       0.06246000 </v>
   <v>       0.25013000       0.07798000       0.31246000 </v>
   <v>       0.00013000       0.92202000       0.31246000 </v>
   <v>       0.99987000       0.07798000       0.06246000 </v>
   <v>       0.74987000       0.92202000       0.06246000 </v>
   <v>       0.75013000       0.07798000       0.31246000 </v>
   <v>       0.50013000       0.92202000       0.31246000 </v>
   <v>       0.49987000       0.07798000       0.56246000 </v>
   <v>       0.24987000       0.92202000       0.56246000 </v>
   <v>       0.25013000       0.07798000       0.81246000 </v>
   <v>       0.00013000       0.92202000       0.81246000 </v>
   <v>       0.99987000       0.07798000       0.56246000 </v>
   <v>       0.74987000       0.92202000       0.56246000 </v>
   <v>       0.75013000       0.07798000       0.81246000 </v>
   <v>       0.50013000       0.92202000       0.81246000 </v>
  </varray>
 </structure>
</modeling>
