<?xml version="1.0" encoding="ISO-8859-1"?>
<modeling>
 <generator>
  <i name="program" type="string">vasp </i>
  <i name="version" type="string">5.4.4.18Apr17-6-g9f103f2a35  </i>
  <i name="subversion" type="string">(build Jul 31 2017 11:33:29) complex            parallel </i>
  <i name="platform" type="string">LinuxIFC </i>
  <i name="date" type="string">2021 09 29 </i>
  <i name="time" type="string">13:58:17 </i>
 </generator>
 <incar>
  <i type="string" name="SYSTEM"> La2O2S</i>
  <i type="string" name="PREC">normal</i>
  <i type="int" name="NELMIN">     4</i>
  <i type="int" name="IBRION">     2</i>
  <i type="int" name="NFREE">    10</i>
  <i name="EDIFF">      0.00000100</i>
  <i name="EDIFFG">     -0.01000000</i>
  <i type="int" name="NSW">     1</i>
  <i type="int" name="ISIF">     2</i>
  <i name="ENCUT">    600.00000000</i>
  <i name="ENAUG">    900.00000000</i>
  <i type="int" name="ISMEAR">    -5</i>
  <i type="logical" name="LWAVE"> F  </i>
  <i type="logical" name="LCHARG"> F  </i>
  <v type="int" name="KPOINT_BSE">    -1     0     0     0</v>
 </incar>
 <structure name="primitive_cell" >
  <crystal>
   <varray name="basis" >
    <v>      11.17850000       0.00000000       0.00000000 </v>
    <v>       0.00000000       9.57460000       0.00000000 </v>
    <v>       0.00000000       0.00000000      11.18240000 </v>
   </varray>
   <i name="volume">   1196.84853820 </i>
   <varray name="rec_basis" >
    <v>       0.08945744       0.00000000       0.00000000 </v>
    <v>       0.00000000       0.10444301       0.00000000 </v>
    <v>       0.00000000       0.00000000       0.08942624 </v>
   </varray>
  </crystal>
  <varray name="positions" >
   <v>       0.37539000       0.00017000       0.43687000 </v>
   <v>      -0.49987000      -0.07798000       0.31246000 </v>
   <v>       0.25013000       0.07798000       0.31246000 </v>
   <v>       0.49987000       0.07798000      -0.43754000 </v>
   <v>       0.24987000      -0.07798000      -0.43754000 </v>
   <v>       0.37461000       0.00017000       0.18687000 </v>
   <v>       0.49987000      -0.29519000       0.31282000 </v>
   <v>       0.24987000       0.29519000       0.31282000 </v>
   <v>      -0.49987000       0.29519000      -0.43719000 </v>
   <v>       0.25013000      -0.29519000      -0.43719000 </v>
   <v>       0.49995000       0.32677000       0.31286000 </v>
   <v>       0.24995000      -0.32677000       0.31286000 </v>
   <v>      -0.49995000      -0.32677000      -0.43714000 </v>
   <v>       0.25005000       0.32677000      -0.43714000 </v>
   <v>      -0.37539000      -0.00016000       0.18687000 </v>
   <v>      -0.37539000      -0.00016000      -0.31313000 </v>
   <v>       0.12461000      -0.00016000       0.18687000 </v>
   <v>       0.12461000      -0.00016000      -0.31313000 </v>
   <v>       0.49987000       0.07798000       0.06246000 </v>
   <v>      -0.24987000       0.07798000       0.31246000 </v>
   <v>      -0.25013000      -0.07798000      -0.43754000 </v>
   <v>       0.24987000      -0.07798000       0.06246000 </v>
   <v>       0.00013000      -0.07798000       0.31246000 </v>
   <v>      -0.49987000      -0.07798000      -0.18754000 </v>
   <v>      -0.00013000       0.07798000      -0.43754000 </v>
   <v>       0.25013000       0.07798000      -0.18754000 </v>
   <v>      -0.49987000       0.29519000       0.06281000 </v>
   <v>      -0.25013000       0.29519000       0.31282000 </v>
   <v>       0.25013000      -0.29519000       0.06281000 </v>
   <v>      -0.24987000      -0.29519000      -0.43719000 </v>
   <v>      -0.00013000      -0.29519000       0.31282000 </v>
   <v>       0.00013000       0.29519000      -0.43719000 </v>
   <v>       0.49987000      -0.29519000      -0.18718000 </v>
   <v>       0.24987000       0.29519000      -0.18718000 </v>
   <v>      -0.49995000      -0.32677000       0.06286000 </v>
   <v>       0.25005000       0.32677000       0.06286000 </v>
   <v>      -0.25005000      -0.32677000       0.31286000 </v>
   <v>      -0.24995000       0.32677000      -0.43714000 </v>
   <v>      -0.00005000       0.32677000       0.31286000 </v>
   <v>       0.00005000      -0.32677000      -0.43714000 </v>
   <v>       0.49995000       0.32677000      -0.18714000 </v>
   <v>       0.24995000      -0.32677000      -0.18714000 </v>
   <v>      -0.12461000       0.00017000       0.43687000 </v>
   <v>       0.37539000       0.00017000      -0.06313000 </v>
   <v>      -0.25013000      -0.07798000       0.06246000 </v>
   <v>      -0.00013000       0.07798000       0.06246000 </v>
   <v>      -0.24987000       0.07798000      -0.18754000 </v>
   <v>       0.00013000      -0.07798000      -0.18754000 </v>
   <v>       0.12539000      -0.00016000      -0.06313000 </v>
   <v>      -0.24987000      -0.29519000       0.06281000 </v>
   <v>       0.00013000       0.29519000       0.06281000 </v>
   <v>      -0.25013000       0.29519000      -0.18718000 </v>
   <v>      -0.00013000      -0.29519000      -0.18718000 </v>
   <v>      -0.24995000       0.32677000       0.06286000 </v>
   <v>       0.00005000      -0.32677000       0.06286000 </v>
   <v>      -0.25005000      -0.32677000      -0.18714000 </v>
   <v>      -0.00005000       0.32677000      -0.18714000 </v>
   <v>      -0.12461000       0.00017000      -0.06313000 </v>
  </varray>
 </structure>
 <varray name="primitive_index" >
  <v type="int" >        1 </v>
  <v type="int" >       50 </v>
  <v type="int" >       45 </v>
  <v type="int" >       51 </v>
  <v type="int" >       52 </v>
  <v type="int" >        2 </v>
  <v type="int" >       14 </v>
  <v type="int" >       13 </v>
  <v type="int" >       23 </v>
  <v type="int" >       20 </v>
  <v type="int" >       29 </v>
  <v type="int" >       30 </v>
  <v type="int" >       40 </v>
  <v type="int" >       35 </v>
  <v type="int" >        7 </v>
  <v type="int" >       10 </v>
  <v type="int" >        5 </v>
  <v type="int" >        8 </v>
  <v type="int" >       43 </v>
  <v type="int" >       49 </v>
  <v type="int" >       56 </v>
  <v type="int" >       44 </v>
  <v type="int" >       46 </v>
  <v type="int" >       58 </v>
  <v type="int" >       55 </v>
  <v type="int" >       53 </v>
  <v type="int" >       15 </v>
  <v type="int" >       17 </v>
  <v type="int" >       12 </v>
  <v type="int" >       24 </v>
  <v type="int" >       18 </v>
  <v type="int" >       19 </v>
  <v type="int" >       22 </v>
  <v type="int" >       21 </v>
  <v type="int" >       32 </v>
  <v type="int" >       27 </v>
  <v type="int" >       34 </v>
  <v type="int" >       39 </v>
  <v type="int" >       33 </v>
  <v type="int" >       36 </v>
  <v type="int" >       37 </v>
  <v type="int" >       38 </v>
  <v type="int" >        6 </v>
  <v type="int" >        4 </v>
  <v type="int" >       48 </v>
  <v type="int" >       47 </v>
  <v type="int" >       57 </v>
  <v type="int" >       54 </v>
  <v type="int" >        3 </v>
  <v type="int" >       16 </v>
  <v type="int" >       11 </v>
  <v type="int" >       25 </v>
  <v type="int" >       26 </v>
  <v type="int" >       31 </v>
  <v type="int" >       28 </v>
  <v type="int" >       42 </v>
  <v type="int" >       41 </v>
  <v type="int" >        9 </v>
 </varray>
 <kpoints>
  <generation param="Gamma">
   <v type="int" name="divisions">       2        2        2 </v>
   <v name="usershift">      0.00000000       0.00000000       0.00000000 </v>
   <v name="genvec1">      0.50000000       0.00000000       0.00000000 </v>
   <v name="genvec2">      0.00000000       0.50000000       0.00000000 </v>
   <v name="genvec3">      0.00000000       0.00000000       0.50000000 </v>
   <v name="shift">      0.00000000       0.00000000       0.00000000 </v>
  </generation>
  <varray name="kpointlist" >
   <v>       0.00000000       0.00000000       0.00000000 </v>
   <v>       0.50000000       0.00000000       0.00000000 </v>
   <v>       0.00000000       0.50000000       0.00000000 </v>
   <v>       0.50000000       0.50000000       0.00000000 </v>
   <v>       0.00000000       0.00000000       0.50000000 </v>
   <v>       0.50000000       0.00000000       0.50000000 </v>
   <v>       0.00000000       0.50000000       0.50000000 </v>
   <v>       0.50000000       0.50000000       0.50000000 </v>
  </varray>
  <varray name="weights" >
   <v>       0.12500000 </v>
   <v>       0.12500000 </v>
   <v>       0.12500000 </v>
   <v>       0.12500000 </v>
   <v>       0.12500000 </v>
   <v>       0.12500000 </v>
   <v>       0.12500000 </v>
   <v>       0.12500000 </v>
  </varray>
  <varray name="tetrahedronlist"  type="int" >
   <v type="int" >        2        1        2        4        5 </v>
   <v type="int" >        2        1        3        4        5 </v>
   <v type="int" >        2        3        4        5        7 </v>
   <v type="int" >        2        2        4        5        6 </v>
   <v type="int" >        2        4        5        6        8 </v>
   <v type="int" >        2        4        5        7        8 </v>
   <v type="int" >        2        1        2        3        6 </v>
   <v type="int" >        2        2        3        4        6 </v>
   <v type="int" >        2        3        4        6        8 </v>
   <v type="int" >        2        1        3        5        6 </v>
   <v type="int" >        2        3        5        6        7 </v>
   <v type="int" >        2        3        6        7        8 </v>
   <v type="int" >        2        2        3        4        7 </v>
   <v type="int" >        2        1        2        3        7 </v>
   <v type="int" >        2        1        2        5        7 </v>
   <v type="int" >        2        2        4        7        8 </v>
   <v type="int" >        2        2        6        7        8 </v>
   <v type="int" >        2        2        5        6        7 </v>
   <v type="int" >        2        1        3        4        8 </v>
   <v type="int" >        2        1        2        4        8 </v>
   <v type="int" >        2        1        2        6        8 </v>
   <v type="int" >        2        1        3        7        8 </v>
   <v type="int" >        2        1        5        7        8 </v>
   <v type="int" >        2        1        5        6        8 </v>
  </varray>
  <i name="volumeweight">      0.02083333 </i>
 </kpoints>
 <parameters>
  <separator name="general" >
   <i type="string" name="SYSTEM">La2O2S</i>
   <i type="logical" name="LCOMPAT"> F  </i>
  </separator>
  <separator name="electronic" >
   <i type="string" name="PREC">normal</i>
   <i name="ENMAX">    600.00000000</i>
   <i name="ENAUG">    900.00000000</i>
   <i name="EDIFF">      0.00000100</i>
   <i type="int" name="IALGO">    38</i>
   <i type="int" name="IWAVPR">    11</i>
   <i type="int" name="NBANDS">   280</i>
   <i name="NELECT">    456.00000000</i>
   <i type="int" name="TURBO">     0</i>
   <i type="int" name="IRESTART">     0</i>
   <i type="int" name="NREBOOT">     0</i>
   <i type="int" name="NMIN">     0</i>
   <i name="EREF">      0.00000000</i>
   <separator name="electronic smearing" >
    <i type="int" name="ISMEAR">    -5</i>
    <i name="SIGMA">      0.20000000</i>
    <i name="KSPACING">      0.50000000</i>
    <i type="logical" name="KGAMMA"> T  </i>
   </separator>
   <separator name="electronic projectors" >
    <i type="logical" name="LREAL"> F  </i>
    <v name="ROPT">      0.00000000      0.00000000      0.00000000      0.00000000      0.00000000</v>
    <i type="int" name="LMAXPAW">  -100</i>
    <i type="int" name="LMAXMIX">     2</i>
    <i type="logical" name="NLSPLINE"> F  </i>
   </separator>
   <separator name="electronic startup" >
    <i type="int" name="ISTART">     0</i>
    <i type="int" name="ICHARG">     2</i>
    <i type="int" name="INIWAV">     1</i>
   </separator>
   <separator name="electronic spin" >
    <i type="int" name="ISPIN">     1</i>
    <i type="logical" name="LNONCOLLINEAR"> F  </i>
    <v name="MAGMOM">      1.00000000      1.00000000      1.00000000      1.00000000      1.00000000      1.00000000      1.00000000      1.00000000      1.00000000      1.00000000      1.00000000      1.00000000      1.00000000      1.00000000      1.00000000      1.00000000      1.00000000      1.00000000      1.00000000      1.00000000
      1.00000000      1.00000000      1.00000000      1.00000000      1.00000000      1.00000000      1.00000000      1.00000000      1.00000000      1.00000000      1.00000000      1.00000000      1.00000000      1.00000000      1.00000000      1.00000000      1.00000000      1.00000000      1.00000000      1.00000000
      1.00000000      1.00000000      1.00000000      1.00000000      1.00000000      1.00000000      1.00000000      1.00000000      1.00000000      1.00000000      1.00000000      1.00000000      1.00000000      1.00000000      1.00000000      1.00000000      1.00000000      1.00000000</v>
    <i name="NUPDOWN">     -1.00000000</i>
    <i type="logical" name="LSORBIT"> F  </i>
    <v name="SAXIS">      0.00000000      0.00000000      1.00000000</v>
    <i type="logical" name="LSPIRAL"> F  </i>
    <v name="QSPIRAL">      0.00000000      0.00000000      0.00000000</v>
    <i type="logical" name="LZEROZ"> F  </i>
   </separator>
   <separator name="electronic exchange-correlation" >
    <i type="logical" name="LASPH"> F  </i>
    <i type="logical" name="LMETAGGA"> F  </i>
   </separator>
   <separator name="electronic convergence" >
    <i type="int" name="NELM">    60</i>
    <i type="int" name="NELMDL">    -5</i>
    <i type="int" name="NELMIN">     4</i>
    <i name="ENINI">    600.00000000</i>
    <separator name="electronic convergence detail" >
     <i type="logical" name="LDIAG"> T  </i>
     <i type="logical" name="LSUBROT"> F  </i>
     <i name="WEIMIN">      0.00100000</i>
     <i name="EBREAK">      0.00000000</i>
     <i name="DEPER">      0.30000000</i>
     <i type="int" name="NRMM">     4</i>
     <i name="TIME">      0.40000000</i>
    </separator>
   </separator>
   <separator name="electronic mixer" >
    <i name="AMIX">      0.40000000</i>
    <i name="BMIX">      1.00000000</i>
    <i name="AMIN">      0.10000000</i>
    <i name="AMIX_MAG">      1.60000000</i>
    <i name="BMIX_MAG">      1.00000000</i>
    <separator name="electronic mixer details" >
     <i type="int" name="IMIX">     4</i>
     <i type="logical" name="MIXFIRST"> F  </i>
     <i type="int" name="MAXMIX">   -45</i>
     <i name="WC">    100.00000000</i>
     <i type="int" name="INIMIX">     1</i>
     <i type="int" name="MIXPRE">     1</i>
     <i type="int" name="MREMOVE">     5</i>
    </separator>
   </separator>
   <separator name="electronic dipolcorrection" >
    <i type="logical" name="LDIPOL"> F  </i>
    <i type="logical" name="LMONO"> F  </i>
    <i type="int" name="IDIPOL">     0</i>
    <i name="EPSILON">      1.00000000</i>
    <v name="DIPOL">   -100.00000000   -100.00000000   -100.00000000</v>
    <i name="EFIELD">      0.00000000</i>
   </separator>
  </separator>
  <separator name="grids" >
   <i type="int" name="NGX">    70</i>
   <i type="int" name="NGY">    60</i>
   <i type="int" name="NGZ">    70</i>
   <i type="int" name="NGXF">   140</i>
   <i type="int" name="NGYF">   120</i>
   <i type="int" name="NGZF">   140</i>
   <i type="logical" name="ADDGRID"> F  </i>
  </separator>
  <separator name="ionic" >
   <i type="int" name="NSW">     1</i>
   <i type="int" name="IBRION">     2</i>
   <i type="int" name="MDALGO">     0</i>
   <i type="int" name="ISIF">     2</i>
   <i name="PSTRESS">      0.00000000</i>
   <i name="EDIFFG">     -0.01000000</i>
   <i type="int" name="NFREE">    10</i>
   <i name="POTIM">      0.50000000</i>
   <i name="SMASS">     -3.00000000</i>
   <i name="SCALEE">      1.00000000</i>
  </separator>
  <separator name="ionic md" >
   <i name="TEBEG">      0.00010000</i>
   <i name="TEEND">      0.00010000</i>
   <i type="int" name="NBLOCK">     1</i>
   <i type="int" name="KBLOCK">     1</i>
   <i type="int" name="NPACO">   256</i>
   <i name="APACO">     16.00000000</i>
  </separator>
  <separator name="symmetry" >
   <i type="int" name="ISYM">     2</i>
   <i name="SYMPREC">      0.00001000</i>
  </separator>
  <separator name="dos" >
   <i type="int" name="LORBIT">     0</i>
   <v name="RWIGS">     -1.00000000     -1.00000000     -1.00000000     -1.00000000     -1.00000000</v>
   <i type="int" name="NEDOS">   301</i>
   <i name="EMIN">     10.00000000</i>
   <i name="EMAX">    -10.00000000</i>
   <i name="EFERMI">      0.00000000</i>
  </separator>
  <separator name="writing" >
   <i type="int" name="NWRITE">     2</i>
   <i type="logical" name="LWAVE"> F  </i>
   <i type="logical" name="LDOWNSAMPLE"> F  </i>
   <i type="logical" name="LCHARG"> F  </i>
   <i type="logical" name="LPARD"> F  </i>
   <i type="logical" name="LVTOT"> F  </i>
   <i type="logical" name="LVHAR"> F  </i>
   <i type="logical" name="LELF"> F  </i>
   <i type="logical" name="LOPTICS"> F  </i>
   <v name="STM">      0.00000000      0.00000000      0.00000000      0.00000000      0.00000000      0.00000000      0.00000000</v>
  </separator>
  <separator name="performance" >
   <i type="int" name="NPAR">    28</i>
   <i type="int" name="NSIM">     4</i>
   <i type="int" name="NBLK">    -1</i>
   <i type="logical" name="LPLANE"> T  </i>
   <i type="logical" name="LSCALAPACK"> T  </i>
   <i type="logical" name="LSCAAWARE"> F  </i>
   <i type="logical" name="LSCALU"> F  </i>
   <i type="logical" name="LASYNC"> F  </i>
   <i type="logical" name="LORBITALREAL"> F  </i>
  </separator>
  <separator name="miscellaneous" >
   <i type="int" name="IDIOT">     3</i>
   <i type="int" name="ISPECIAL">     0</i>
   <i type="logical" name="LMUSIC"> F  </i>
   <v name="POMASS">      7.01000000     24.30500000    208.98000000     32.06600000     16.00000000</v>
   <v name="DARWINR">      0.00000000      0.00000000      0.00000000      0.00000000      0.00000000</v>
   <v name="DARWINV">      1.00000000      1.00000000      1.00000000      1.00000000      1.00000000</v>
   <i type="logical" name="LCORR"> T  </i>
  </separator>
  <i type="logical" name="GGA_COMPAT"> T  </i>
  <i type="logical" name="LBERRY"> F  </i>
  <i type="int" name="ICORELEVEL">     0</i>
  <i type="logical" name="LDAU"> F  </i>
  <i type="int" name="I_CONSTRAINED_M">     0</i>
  <separator name="electronic exchange-correlation" >
   <i type="string" name="GGA">--</i>
   <i type="int" name="VOSKOWN">     0</i>
   <i type="logical" name="LHFCALC"> F  </i>
   <i type="string" name="PRECFOCK"></i>
   <i type="logical" name="LSYMGRAD"> F  </i>
   <i type="logical" name="LHFONE"> F  </i>
   <i type="logical" name="LRHFCALC"> F  </i>
   <i type="logical" name="LTHOMAS"> F  </i>
   <i type="logical" name="LMODELHF"> F  </i>
   <i name="ENCUT4O">     -1.00000000</i>
   <i type="int" name="EXXOEP">     0</i>
   <i type="int" name="FOURORBIT">     0</i>
   <i name="AEXX">      0.00000000</i>
   <i name="HFALPHA">      0.00000000</i>
   <i name="MCALPHA">      0.00000000</i>
   <i name="ALDAX">      1.00000000</i>
   <i name="AGGAX">      1.00000000</i>
   <i name="ALDAC">      1.00000000</i>
   <i name="AGGAC">      1.00000000</i>
   <i type="int" name="NKREDX">     1</i>
   <i type="int" name="NKREDY">     1</i>
   <i type="int" name="NKREDZ">     1</i>
   <i type="logical" name="SHIFTRED"> F  </i>
   <i type="logical" name="ODDONLY"> F  </i>
   <i type="logical" name="EVENONLY"> F  </i>
   <i type="int" name="LMAXFOCK">     0</i>
   <i type="int" name="NMAXFOCKAE">     0</i>
   <i type="logical" name="LFOCKAEDFT"> F  </i>
   <i name="HFSCREEN">      0.00000000</i>
   <i name="HFSCREENC">      0.00000000</i>
   <i type="int" name="NBANDSGWLOW">     0</i>
  </separator>
  <separator name="vdW DFT" >
   <i type="logical" name="LUSE_VDW"> F  </i>
   <i name="Zab_VDW">     -0.84910000</i>
   <i name="PARAM1">      0.12340000</i>
   <i name="PARAM2">      1.00000000</i>
   <i name="PARAM3">      0.00000000</i>
  </separator>
  <separator name="model GW" >
   <i type="int" name="MODEL_GW">     0</i>
   <i name="MODEL_EPS0">     12.38119177</i>
   <i name="MODEL_ALPHA">      1.00000000</i>
  </separator>
  <separator name="linear response parameters" >
   <i type="logical" name="LEPSILON"> F  </i>
   <i type="logical" name="LRPA"> F  </i>
   <i type="logical" name="LNABLA"> F  </i>
   <i type="logical" name="LVEL"> F  </i>
   <i type="int" name="KINTER">     0</i>
   <i name="CSHIFT">      0.10000000</i>
   <i name="OMEGAMAX">     -1.00000000</i>
   <i name="DEG_THRESHOLD">      0.00200000</i>
   <i name="RTIME">     -0.10000000</i>
   <i name="WPLASMAI">      0.00000000</i>
   <v name="DFIELD">      0.00000000      0.00000000      0.00000000</v>
   <v name="WPLASMA">      0.00000000      0.00000000      0.00000000      0.00000000      0.00000000      0.00000000      0.00000000      0.00000000      0.00000000</v>
  </separator>
  <separator name="orbital magnetization" >
   <i type="logical" name="NUCIND"> F  </i>
   <v name="MAGPOS">      0.00000000      0.00000000      0.00000000</v>
   <i type="logical" name="LNICSALL"> T  </i>
   <i type="logical" name="ORBITALMAG"> F  </i>
   <i type="logical" name="LMAGBLOCH"> F  </i>
   <i type="logical" name="LCHIMAG"> F  </i>
   <i type="logical" name="LGAUGE"> T  </i>
   <i type="int" name="MAGATOM">     0</i>
   <v name="MAGDIPOL">      0.00000000      0.00000000      0.00000000</v>
   <v name="AVECCONST">      0.00000000      0.00000000      0.00000000</v>
  </separator>
  <separator name="response functions" >
   <i type="logical" name="LADDER"> F  </i>
   <i type="logical" name="LRPAFORCE"> F  </i>
   <i type="logical" name="LFXC"> F  </i>
   <i type="logical" name="LHARTREE"> T  </i>
   <i type="int" name="IBSE">     0</i>
   <v type="int" name="KPOINT">    -1     0     0     0</v>
   <i type="logical" name="LTCTE"> F  </i>
   <i type="logical" name="LTETE"> F  </i>
   <i type="logical" name="LTRIPLET"> F  </i>
   <i type="logical" name="LFXCEPS"> F  </i>
   <i type="logical" name="LFXHEG"> F  </i>
   <i type="int" name="NATURALO">     2</i>
   <i type="logical" name="L2ORDER"> F  </i>
   <i type="logical" name="LMP2LT"> F  </i>
   <i type="logical" name="LUSEW"> F  </i>
   <i name="ENCUTGW">     -2.00000000</i>
   <i name="ENCUTGWSOFT">     -2.00000000</i>
   <i name="ENCUTLF">     -1.00000000</i>
   <i type="int" name="LMAXMP2">    -1</i>
   <i name="SCISSOR">      0.00000000</i>
   <i type="int" name="NOMEGA">     0</i>
   <i type="int" name="NOMEGAR">     0</i>
   <i type="int" name="NBANDSGW">    -1</i>
   <i type="int" name="NBANDSO">    -1</i>
   <i type="int" name="NBANDSV">    -1</i>
   <i type="int" name="NELM">     1</i>
   <i type="int" name="NELMHF">     1</i>
   <i type="int" name="DIM">     3</i>
   <i type="int" name="ANTIRES">     0</i>
   <i name="OMEGAMAX">    -30.00000000</i>
   <i name="OMEGAMIN">    -30.00000000</i>
   <i name="OMEGATL">   -200.00000000</i>
   <i type="int" name="OMEGAGRID">   140</i>
   <i name="CSHIFT">     -0.10000000</i>
   <i type="logical" name="SELFENERGY"> F  </i>
   <i type="logical" name="LSPECTRAL"> F  </i>
   <i type="logical" name="LSPECTRALGW"> F  </i>
   <i type="logical" name="LSINGLES"> F  </i>
   <i type="logical" name="LFERMIGW"> F  </i>
   <i type="logical" name="ODDONLYGW"> F  </i>
   <i type="logical" name="EVENONLYGW"> F  </i>
   <i type="int" name="NKREDLFX">     1</i>
   <i type="int" name="NKREDLFY">     1</i>
   <i type="int" name="NKREDLFZ">     1</i>
   <i type="int" name="MAXMEM">  2800</i>
   <i type="int" name="TELESCOPE">     0</i>
   <i type="int" name="TAUPAR">     1</i>
   <i type="int" name="OMEGAPAR">    -1</i>
   <i name="LAMBDA">      1.00000000</i>
  </separator>
  <separator name="External order field" >
   <i name="OFIELD_KAPPA">      0.00000000</i>
   <v name="OFIELD_K">      0.00000000      0.00000000      0.00000000</v>
   <i name="OFIELD_Q6_NEAR">      0.00000000</i>
   <i name="OFIELD_Q6_FAR">      0.00000000</i>
   <i name="OFIELD_A">      0.00000000</i>
  </separator>
 </parameters>
 <atominfo>
  <atoms>      58 </atoms>
  <types>       5 </types>
  <array name="atoms" >
   <dimension dim="1">ion</dimension>
   <field type="string">element</field>
   <field type="int">atomtype</field>
   <set>
    <rc><c>Li</c><c>   1</c></rc>
    <rc><c>Li</c><c>   1</c></rc>
    <rc><c>Li</c><c>   1</c></rc>
    <rc><c>Li</c><c>   1</c></rc>
    <rc><c>Mg</c><c>   2</c></rc>
    <rc><c>Mg</c><c>   2</c></rc>
    <rc><c>Mg</c><c>   2</c></rc>
    <rc><c>Mg</c><c>   2</c></rc>
    <rc><c>Mg</c><c>   2</c></rc>
    <rc><c>Mg</c><c>   2</c></rc>
    <rc><c>Bi</c><c>   3</c></rc>
    <rc><c>Bi</c><c>   3</c></rc>
    <rc><c>Bi</c><c>   3</c></rc>
    <rc><c>Bi</c><c>   3</c></rc>
    <rc><c>Bi</c><c>   3</c></rc>
    <rc><c>Bi</c><c>   3</c></rc>
    <rc><c>Bi</c><c>   3</c></rc>
    <rc><c>Bi</c><c>   3</c></rc>
    <rc><c>Bi</c><c>   3</c></rc>
    <rc><c>Bi</c><c>   3</c></rc>
    <rc><c>Bi</c><c>   3</c></rc>
    <rc><c>Bi</c><c>   3</c></rc>
    <rc><c>Bi</c><c>   3</c></rc>
    <rc><c>Bi</c><c>   3</c></rc>
    <rc><c>Bi</c><c>   3</c></rc>
    <rc><c>Bi</c><c>   3</c></rc>
    <rc><c>S </c><c>   4</c></rc>
    <rc><c>S </c><c>   4</c></rc>
    <rc><c>S </c><c>   4</c></rc>
    <rc><c>S </c><c>   4</c></rc>
    <rc><c>S </c><c>   4</c></rc>
    <rc><c>S </c><c>   4</c></rc>
    <rc><c>S </c><c>   4</c></rc>
    <rc><c>S </c><c>   4</c></rc>
    <rc><c>S </c><c>   4</c></rc>
    <rc><c>S </c><c>   4</c></rc>
    <rc><c>S </c><c>   4</c></rc>
    <rc><c>S </c><c>   4</c></rc>
    <rc><c>S </c><c>   4</c></rc>
    <rc><c>S </c><c>   4</c></rc>
    <rc><c>S </c><c>   4</c></rc>
    <rc><c>S </c><c>   4</c></rc>
    <rc><c>O </c><c>   5</c></rc>
    <rc><c>O </c><c>   5</c></rc>
    <rc><c>O </c><c>   5</c></rc>
    <rc><c>O </c><c>   5</c></rc>
    <rc><c>O </c><c>   5</c></rc>
    <rc><c>O </c><c>   5</c></rc>
    <rc><c>O </c><c>   5</c></rc>
    <rc><c>O </c><c>   5</c></rc>
    <rc><c>O </c><c>   5</c></rc>
    <rc><c>O </c><c>   5</c></rc>
    <rc><c>O </c><c>   5</c></rc>
    <rc><c>O </c><c>   5</c></rc>
    <rc><c>O </c><c>   5</c></rc>
    <rc><c>O </c><c>   5</c></rc>
    <rc><c>O </c><c>   5</c></rc>
    <rc><c>O </c><c>   5</c></rc>
   </set>
  </array>
  <array name="atomtypes" >
   <dimension dim="1">type</dimension>
   <field type="int">atomspertype</field>
   <field type="string">element</field>
   <field>mass</field>
   <field>valence</field>
   <field type="string">pseudopotential</field>
   <set>
    <rc><c>   4</c><c>Li</c><c>      7.01000000</c><c>      3.00000000</c><c>  PAW_PBE Li_sv 10Sep2004               </c></rc>
    <rc><c>   6</c><c>Mg</c><c>     24.30500000</c><c>      2.00000000</c><c>  PAW_PBE Mg 13Apr2007                  </c></rc>
    <rc><c>  16</c><c>Bi</c><c>    208.98000000</c><c>     15.00000000</c><c>  PAW_PBE Bi_d 06Sep2000                </c></rc>
    <rc><c>  16</c><c>S </c><c>     32.06600000</c><c>      6.00000000</c><c>  PAW_PBE S 06Sep2000                   </c></rc>
    <rc><c>  16</c><c>O </c><c>     16.00000000</c><c>      6.00000000</c><c>  PAW_PBE O 08Apr2002                   </c></rc>
   </set>
  </array>
 </atominfo>
 <structure name="initialpos" >
  <crystal>
   <varray name="basis" >
    <v>      11.17850000       0.00000000       0.00000000 </v>
    <v>       0.00000000       9.57460000       0.00000000 </v>
    <v>       0.00000000       0.00000000      11.18240000 </v>
   </varray>
   <i name="volume">   1196.84853820 </i>
   <varray name="rec_basis" >
    <v>       0.08945744       0.00000000       0.00000000 </v>
    <v>       0.00000000       0.10444301       0.00000000 </v>
    <v>       0.00000000       0.00000000       0.08942624 </v>
   </varray>
  </crystal>
  <varray name="positions" >
   <v>       0.37539000       0.00017000       0.43687000 </v>
   <v>       0.37461000       0.00017000       0.18687000 </v>
   <v>       0.12539000       0.99984000       0.93687000 </v>
   <v>       0.37539000       0.00017000       0.93687000 </v>
   <v>       0.12461000       0.99984000       0.18687000 </v>
   <v>       0.87539000       0.00017000       0.43687000 </v>
   <v>       0.62461000       0.99984000       0.18687000 </v>
   <v>       0.12461000       0.99984000       0.68687000 </v>
   <v>       0.87539000       0.00017000       0.93687000 </v>
   <v>       0.62461000       0.99984000       0.68687000 </v>
   <v>       0.00013000       0.29519000       0.06281000 </v>
   <v>       0.25013000       0.70481000       0.06281000 </v>
   <v>       0.24987000       0.29519000       0.31282000 </v>
   <v>       0.49987000       0.70481000       0.31282000 </v>
   <v>       0.50013000       0.29519000       0.06281000 </v>
   <v>       0.75013000       0.70481000       0.06281000 </v>
   <v>       0.74987000       0.29519000       0.31282000 </v>
   <v>       0.99987000       0.70481000       0.31282000 </v>
   <v>       0.00013000       0.29519000       0.56281000 </v>
   <v>       0.25013000       0.70481000       0.56281000 </v>
   <v>       0.24987000       0.29519000       0.81282000 </v>
   <v>       0.49987000       0.70481000       0.81282000 </v>
   <v>       0.50013000       0.29519000       0.56281000 </v>
   <v>       0.75013000       0.70481000       0.56281000 </v>
   <v>       0.74987000       0.29519000       0.81282000 </v>
   <v>       0.99987000       0.70481000       0.81282000 </v>
   <v>       0.25005000       0.32677000       0.06286000 </v>
   <v>       0.00005000       0.67323000       0.06286000 </v>
   <v>       0.49995000       0.32677000       0.31286000 </v>
   <v>       0.24995000       0.67323000       0.31286000 </v>
   <v>       0.75005000       0.32677000       0.06286000 </v>
   <v>       0.50005000       0.67323000       0.06286000 </v>
   <v>       0.99995000       0.32677000       0.31286000 </v>
   <v>       0.74995000       0.67323000       0.31286000 </v>
   <v>       0.25005000       0.32677000       0.56286000 </v>
   <v>       0.00005000       0.67323000       0.56286000 </v>
   <v>       0.49995000       0.32677000       0.81286000 </v>
   <v>       0.24995000       0.67323000       0.81286000 </v>
   <v>       0.75005000       0.32677000       0.56286000 </v>
   <v>       0.50005000       0.67323000       0.56286000 </v>
   <v>       0.99995000       0.32677000       0.81286000 </v>
   <v>       0.74995000       0.67323000       0.81286000 </v>
   <v>       0.49987000       0.07798000       0.06246000 </v>
   <v>       0.24987000       0.92202000       0.06246000 </v>
   <v>       0.25013000       0.07798000       0.31246000 </v>
   <v>       0.00013000       0.92202000       0.31246000 </v>
   <v>       0.99987000       0.07798000       0.06246000 </v>
   <v>       0.74987000       0.92202000       0.06246000 </v>
   <v>       0.75013000       0.07798000       0.31246000 </v>
   <v>       0.50013000       0.92202000       0.31246000 </v>
   <v>       0.49987000       0.07798000       0.56246000 </v>
   <v>       0.24987000       0.92202000       0.56246000 </v>
   <v>       0.25013000       0.07798000       0.81246000 </v>
   <v>       0.00013000       0.92202000       0.81246000 </v>
   <v>       0.99987000       0.07798000       0.56246000 </v>
   <v>       0.74987000       0.92202000       0.56246000 </v>
   <v>       0.75013000       0.07798000       0.81246000 </v>
   <v>       0.50013000       0.92202000       0.81246000 </v>
  </varray>
 </structure>
 <calculation>
  <scstep>
   <time name="dav">   61.05   61.27</time>
   <time name="total">   61.13   61.35</time>
   <energy>
    <i name="alphaZ">   1054.17224280 </i>
    <i name="ewald"> -30171.77887351 </i>
    <i name="hartreedc"> -12713.08201854 </i>
    <i name="XCdc">   1173.24012575 </i>
    <i name="pawpsdc">  36541.05238669 </i>
    <i name="pawaedc"> -35795.85877930 </i>
    <i name="eentropy">      0.00000000 </i>
    <i name="bandstr">   1908.62427131 </i>
    <i name="atom">  43643.51795008 </i>
    <i name="e_fr_energy">   5639.88730528 </i>
    <i name="e_wo_entrp">   5639.88730528 </i>
    <i name="e_0_energy">   5639.88730528 </i>
   </energy>
  </scstep>
  <scstep>
   <time name="dav">   61.54   61.62</time>
   <time name="total">   61.55   61.63</time>
   <energy>
    <i name="e_fr_energy">    739.58180126 </i>
    <i name="e_wo_entrp">    739.58180126 </i>
    <i name="e_0_energy">    739.58180126 </i>
   </energy>
  </scstep>
  <scstep>
   <time name="dav">   71.50   71.66</time>
   <time name="total">   71.50   71.67</time>
   <energy>
    <i name="e_fr_energy">   -246.42041682 </i>
    <i name="e_wo_entrp">   -246.42041682 </i>
    <i name="e_0_energy">   -246.42041682 </i>
   </energy>
  </scstep>
  <scstep>
   <time name="dav">   73.58   73.60</time>
   <time name="total">   73.58   73.60</time>
   <energy>
    <i name="e_fr_energy">   -332.59238381 </i>
    <i name="e_wo_entrp">   -332.59238381 </i>
    <i name="e_0_energy">   -332.59238381 </i>
   </energy>
  </scstep>
  <scstep>
   <time name="dav">   94.71   94.68</time>
   <time name="total">   95.43   95.40</time>
   <energy>
    <i name="e_fr_energy">   -338.78163335 </i>
    <i name="e_wo_entrp">   -338.78163335 </i>
    <i name="e_0_energy">   -338.78163335 </i>
   </energy>
  </scstep>
  <scstep>
   <time name="dav">   87.44   87.44</time>
   <time name="total">   88.22   88.23</time>
   <energy>
    <i name="e_fr_energy">   -284.74229628 </i>
    <i name="e_wo_entrp">   -284.74229628 </i>
    <i name="e_0_energy">   -284.74229628 </i>
   </energy>
  </scstep>
  <scstep>
   <time name="dav">   66.41   66.47</time>
   <time name="total">   67.20   67.26</time>
   <energy>
    <i name="e_fr_energy">   -286.92818134 </i>
    <i name="e_wo_entrp">   -286.92818134 </i>
    <i name="e_0_energy">   -286.92818134 </i>
   </energy>
  </scstep>
  <scstep>
   <time name="dav">   75.41   76.37</time>
   <time name="total">   76.20   77.16</time>
   <energy>
    <i name="e_fr_energy">   -286.08948322 </i>
    <i name="e_wo_entrp">   -286.08948322 </i>
    <i name="e_0_energy">   -286.08948322 </i>
   </energy>
  </scstep>
  <scstep>
   <time name="dav">   75.50   76.23</time>
   <time name="total">   76.28   77.01</time>
   <energy>
    <i name="e_fr_energy">   -285.67314740 </i>
    <i name="e_wo_entrp">   -285.67314740 </i>
    <i name="e_0_energy">   -285.67314740 </i>
   </energy>
  </scstep>
  <scstep>
   <time name="dav">   72.68   73.26</time>
   <time name="total">   73.40   74.07</time>
   <energy>
    <i name="e_fr_energy">   -285.68939325 </i>
    <i name="e_wo_entrp">   -285.68939325 </i>
    <i name="e_0_energy">   -285.68939325 </i>
   </energy>
  </scstep>
  <scstep>
   <time name="dav">   85.02   86.27</time>
   <time name="total">   85.81   87.06</time>
   <energy>
    <i name="e_fr_energy">   -285.69554225 </i>
    <i name="e_wo_entrp">   -285.69554225 </i>
    <i name="e_0_energy">   -285.69554225 </i>
   </energy>
  </scstep>
  <scstep>
   <time name="dav">   78.90   79.10</time>
   <time name="total">   79.68   79.89</time>
   <energy>
    <i name="e_fr_energy">   -285.69807488 </i>
    <i name="e_wo_entrp">   -285.69807488 </i>
    <i name="e_0_energy">   -285.69807488 </i>
   </energy>
  </scstep>
  <scstep>
   <time name="dav">   71.35   71.41</time>
   <time name="total">   72.12   72.22</time>
   <energy>
    <i name="e_fr_energy">   -285.69946457 </i>
    <i name="e_wo_entrp">   -285.69946457 </i>
    <i name="e_0_energy">   -285.69946457 </i>
   </energy>
  </scstep>
  <scstep>
   <time name="dav">   76.65   77.11</time>
   <time name="total">   77.44   77.89</time>
   <energy>
    <i name="e_fr_energy">   -285.69962889 </i>
    <i name="e_wo_entrp">   -285.69962889 </i>
    <i name="e_0_energy">   -285.69962889 </i>
   </energy>
  </scstep>
  <scstep>
   <time name="dav">   71.65   73.05</time>
   <time name="total">   72.44   73.84</time>
   <energy>
    <i name="e_fr_energy">   -285.69965784 </i>
    <i name="e_wo_entrp">   -285.69965784 </i>
    <i name="e_0_energy">   -285.69965784 </i>
   </energy>
  </scstep>
  <scstep>
   <time name="dav">   63.44   63.58</time>
   <time name="total">   64.22   64.37</time>
   <energy>
    <i name="e_fr_energy">   -285.69967240 </i>
    <i name="e_wo_entrp">   -285.69967240 </i>
    <i name="e_0_energy">   -285.69967240 </i>
   </energy>
  </scstep>
  <scstep>
   <time name="dav">   69.15   69.29</time>
   <time name="total">   69.93   70.07</time>
   <energy>
    <i name="e_fr_energy">   -285.69967434 </i>
    <i name="e_wo_entrp">   -285.69967434 </i>
    <i name="e_0_energy">   -285.69967434 </i>
   </energy>
  </scstep>
  <scstep>
   <time name="dav">   61.88   62.19</time>
   <time name="total">   61.95   62.27</time>
   <energy>
    <i name="alphaZ">   1054.17224280 </i>
    <i name="ewald"> -30171.77887351 </i>
    <i name="hartreedc"> -12955.99041712 </i>
    <i name="XCdc">   1198.76128613 </i>
    <i name="pawpsdc">  43578.88036287 </i>
    <i name="pawaedc"> -42806.43814887 </i>
    <i name="eentropy">      0.00000000 </i>
    <i name="bandstr">  -3826.82407704 </i>
    <i name="atom">  43643.51795008 </i>
    <i name="e_fr_energy">   -285.69967466 </i>
    <i name="e_wo_entrp">   -285.69967466 </i>
    <i name="e_0_energy">   -285.69967466 </i>
   </energy>
  </scstep>
  <structure>
   <crystal>
    <varray name="basis" >
     <v>      11.17850000       0.00000000       0.00000000 </v>
     <v>       0.00000000       9.57460000       0.00000000 </v>
     <v>       0.00000000       0.00000000      11.18240000 </v>
    </varray>
    <i name="volume">   1196.84853820 </i>
    <varray name="rec_basis" >
     <v>       0.08945744       0.00000000       0.00000000 </v>
     <v>       0.00000000       0.10444301       0.00000000 </v>
     <v>       0.00000000       0.00000000       0.08942624 </v>
    </varray>
   </crystal>
   <varray name="positions" >
    <v>       0.37539000       0.00017000       0.43687000 </v>
    <v>       0.37461000       0.00017000       0.18687000 </v>
    <v>       0.12539000       0.99984000       0.93687000 </v>
    <v>       0.37539000       0.00017000       0.93687000 </v>
    <v>       0.12461000       0.99984000       0.18687000 </v>
    <v>       0.87539000       0.00017000       0.43687000 </v>
    <v>       0.62461000       0.99984000       0.18687000 </v>
    <v>       0.12461000       0.99984000       0.68687000 </v>
    <v>       0.87539000       0.00017000       0.93687000 </v>
    <v>       0.62461000       0.99984000       0.68687000 </v>
    <v>       0.00013000       0.29519000       0.06281000 </v>
    <v>       0.25013000       0.70481000       0.06281000 </v>
    <v>       0.24987000       0.29519000       0.31282000 </v>
    <v>       0.49987000       0.70481000       0.31282000 </v>
    <v>       0.50013000       0.29519000       0.06281000 </v>
    <v>       0.75013000       0.70481000       0.06281000 </v>
    <v>       0.74987000       0.29519000       0.31282000 </v>
    <v>       0.99987000       0.70481000       0.31282000 </v>
    <v>       0.00013000       0.29519000       0.56281000 </v>
    <v>       0.25013000       0.70481000       0.56281000 </v>
    <v>       0.24987000       0.29519000       0.81282000 </v>
    <v>       0.49987000       0.70481000       0.81282000 </v>
    <v>       0.50013000       0.29519000       0.56281000 </v>
    <v>       0.75013000       0.70481000       0.56281000 </v>
    <v>       0.74987000       0.29519000       0.81282000 </v>
    <v>       0.99987000       0.70481000       0.81282000 </v>
    <v>       0.25005000       0.32677000       0.06286000 </v>
    <v>       0.00005000       0.67323000       0.06286000 </v>
    <v>       0.49995000       0.32677000       0.31286000 </v>
    <v>       0.24995000       0.67323000       0.31286000 </v>
    <v>       0.75005000       0.32677000       0.06286000 </v>
    <v>       0.50005000       0.67323000       0.06286000 </v>
    <v>       0.99995000       0.32677000       0.31286000 </v>
    <v>       0.74995000       0.67323000       0.31286000 </v>
    <v>       0.25005000       0.32677000       0.56286000 </v>
    <v>       0.00005000       0.67323000       0.56286000 </v>
    <v>       0.49995000       0.32677000       0.81286000 </v>
    <v>       0.24995000       0.67323000       0.81286000 </v>
    <v>       0.75005000       0.32677000       0.56286000 </v>
    <v>       0.50005000       0.67323000       0.56286000 </v>
    <v>       0.99995000       0.32677000       0.81286000 </v>
    <v>       0.74995000       0.67323000       0.81286000 </v>
    <v>       0.49987000       0.07798000       0.06246000 </v>
    <v>       0.24987000       0.92202000       0.06246000 </v>
    <v>       0.25013000       0.07798000       0.31246000 </v>
    <v>       0.00013000       0.92202000       0.31246000 </v>
    <v>       0.99987000       0.07798000       0.06246000 </v>
    <v>       0.74987000       0.92202000       0.06246000 </v>
    <v>       0.75013000       0.07798000       0.31246000 </v>
    <v>       0.50013000       0.92202000       0.31246000 </v>
    <v>       0.49987000       0.07798000       0.56246000 </v>
    <v>       0.24987000       0.92202000       0.56246000 </v>
    <v>       0.25013000       0.07798000       0.81246000 </v>
    <v>       0.00013000       0.92202000       0.81246000 </v>
    <v>       0.99987000       0.07798000       0.56246000 </v>
    <v>       0.74987000       0.92202000       0.56246000 </v>
    <v>       0.75013000       0.07798000       0.81246000 </v>
    <v>       0.50013000       0.92202000       0.81246000 </v>
   </varray>
  </structure>
  <varray name="forces" >
   <v>       0.02806021      -0.00337776       0.53627092 </v>
   <v>       0.21462274       0.06397298       0.21236396 </v>
   <v>       0.35165539       0.06207287      -0.20152202 </v>
   <v>       0.54123669       0.00164037      -0.53687673 </v>
   <v>      -0.54912995       0.00126247       1.11119715 </v>
   <v>      -0.09945297      -0.00710702       0.10082417 </v>
   <v>       0.59207515       0.00253799       0.09421668 </v>
   <v>       0.44332651       0.01127087      -1.03451169 </v>
   <v>      -1.11951660      -0.00722271      -0.04293877 </v>
   <v>      -0.38156862      -0.00070298      -0.03722790 </v>
   <v>      -0.16071112       1.04799203       0.17126497 </v>
   <v>       0.29000383      -1.10727070      -0.08108488 </v>
   <v>       0.11469382       0.03010846       0.41042034 </v>
   <v>       0.04240176      -0.02155695       0.37538370 </v>
   <v>       0.06637158       0.04978645      -0.24490967 </v>
   <v>      -0.21397809       0.05459115      -0.01270699 </v>
   <v>      -0.17150360      -0.07565382       0.14076792 </v>
   <v>       0.03770027       0.03633867       0.17936333 </v>
   <v>       0.05597585      -0.04085618      -0.04445934 </v>
   <v>       0.26001791       1.02128669      -0.05455558 </v>
   <v>       0.45449857       0.04413727      -0.29249037 </v>
   <v>      -0.07404389       1.03275215      -0.12577107 </v>
   <v>      -0.13007755      -1.03270821      -0.02153609 </v>
   <v>      -0.22014488       0.07907431      -0.00064745 </v>
   <v>      -0.25576361      -0.06879862      -0.14725584 </v>
   <v>      -0.09819804      -1.05279511      -0.32845679 </v>
   <v>      -0.20162167       0.11434453       0.04264078 </v>
   <v>       0.11842319      -0.01513133      -0.09899421 </v>
   <v>       0.01072322       0.17706684      -0.23665833 </v>
   <v>      -0.09801975      -0.12806145      -0.33505998 </v>
   <v>       0.15425948       0.05778359      -0.00676393 </v>
   <v>      -0.07722045      -0.14045400       0.15566641 </v>
   <v>       0.02824934       0.05570463      -0.17350205 </v>
   <v>       0.06255012      -0.09751641      -0.07800239 </v>
   <v>      -0.21317488       0.15227265       0.05218278 </v>
   <v>      -0.08195421      -0.09908459       0.08651542 </v>
   <v>       0.02123034       0.16429610       0.14244306 </v>
   <v>      -0.31508492      -0.13006507       0.24064672 </v>
   <v>       0.16787919       0.13667509      -0.00788079 </v>
   <v>       0.13158209      -0.19478226      -0.06740758 </v>
   <v>       0.02597158       0.06386097       0.19058609 </v>
   <v>       0.26980077      -0.09773355       0.09040962 </v>
   <v>      -0.21510177       0.01376092       1.13446778 </v>
   <v>      -0.64815809       0.86808298       0.46648379 </v>
   <v>       0.01088915      -0.01126974      -1.35469727 </v>
   <v>       0.03900592      -0.21448652      -0.16358690 </v>
   <v>       0.70718994      -0.78404561      -0.71521941 </v>
   <v>       0.17487728      -0.21859052      -0.05095271 </v>
   <v>       0.04748898       0.28347063      -0.06980137 </v>
   <v>      -0.13926616      -0.06240131      -1.24156084 </v>
   <v>       0.52462296       1.03896637       0.42314606 </v>
   <v>      -0.60990940      -0.97349206       0.51945652 </v>
   <v>      -1.31561757      -0.02825614       0.33221646 </v>
   <v>       0.60087376       0.72851039       0.80799064 </v>
   <v>      -0.05177992       0.26943072       0.05100900 </v>
   <v>       0.16853980      -0.32883150      -0.05236950 </v>
   <v>       0.23872794       0.27530764       0.12762243 </v>
   <v>       0.44547243      -0.99610665      -0.33614823 </v>
  </varray>
  <varray name="stress" >
   <v>      -9.19115867      -0.34958796       0.63171608 </v>
   <v>      -0.34958806     -12.78340223       0.11465727 </v>
   <v>       0.63171603       0.11465738     -11.28411731 </v>
  </varray>
  <energy>
   <i name="e_fr_energy">   -297.43256334 </i>
   <i name="e_wo_entrp">   -297.43256334 </i>
   <i name="e_0_energy">      0.00000000 </i>
  </energy>
  <time name="totalsc"> 1437.92 1445.42</time>
  <eigenvalues>
   <array>
    <dimension dim="1">band</dimension>
    <dimension dim="2">kpoint</dimension>
    <dimension dim="3">spin</dimension>
    <field>eigene</field>
    <field>occ</field>
    <set>
     <set comment="spin 1">
      <set comment="kpoint 1">
       <r>  -40.5850    1.0000 </r>
       <r>  -40.1221    1.0000 </r>
       <r>  -39.8026    1.0000 </r>
       <r>  -39.3580    1.0000 </r>
       <r>  -19.0607    1.0000 </r>
       <r>  -18.9872    1.0000 </r>
       <r>  -18.9845    1.0000 </r>
       <r>  -18.9765    1.0000 </r>
       <r>  -18.9764    1.0000 </r>
       <r>  -18.9162    1.0000 </r>
       <r>  -18.9096    1.0000 </r>
       <r>  -18.8994    1.0000 </r>
       <r>  -18.8908    1.0000 </r>
       <r>  -18.8879    1.0000 </r>
       <r>  -18.8682    1.0000 </r>
       <r>  -18.8109    1.0000 </r>
       <r>  -18.8067    1.0000 </r>
       <r>  -18.7979    1.0000 </r>
       <r>  -18.7835    1.0000 </r>
       <r>  -18.7590    1.0000 </r>
       <r>  -18.7490    1.0000 </r>
       <r>  -18.7445    1.0000 </r>
       <r>  -18.7407    1.0000 </r>
       <r>  -18.7348    1.0000 </r>
       <r>  -18.7190    1.0000 </r>
       <r>  -18.7183    1.0000 </r>
       <r>  -18.7112    1.0000 </r>
       <r>  -18.7038    1.0000 </r>
       <r>  -18.7033    1.0000 </r>
       <r>  -18.6974    1.0000 </r>
       <r>  -18.6959    1.0000 </r>
       <r>  -18.6894    1.0000 </r>
       <r>  -18.6873    1.0000 </r>
       <r>  -18.6842    1.0000 </r>
       <r>  -18.6793    1.0000 </r>
       <r>  -18.6779    1.0000 </r>
       <r>  -18.6765    1.0000 </r>
       <r>  -18.6725    1.0000 </r>
       <r>  -18.6675    1.0000 </r>
       <r>  -18.6607    1.0000 </r>
       <r>  -18.6593    1.0000 </r>
       <r>  -18.6527    1.0000 </r>
       <r>  -18.6428    1.0000 </r>
       <r>  -18.6260    1.0000 </r>
       <r>  -18.6149    1.0000 </r>
       <r>  -18.6081    1.0000 </r>
       <r>  -18.6049    1.0000 </r>
       <r>  -18.5983    1.0000 </r>
       <r>  -18.5978    1.0000 </r>
       <r>  -18.5885    1.0000 </r>
       <r>  -18.5777    1.0000 </r>
       <r>  -18.5698    1.0000 </r>
       <r>  -18.5657    1.0000 </r>
       <r>  -18.5529    1.0000 </r>
       <r>  -18.5521    1.0000 </r>
       <r>  -18.5462    1.0000 </r>
       <r>  -18.5376    1.0000 </r>
       <r>  -18.5351    1.0000 </r>
       <r>  -18.5341    1.0000 </r>
       <r>  -18.5284    1.0000 </r>
       <r>  -18.5281    1.0000 </r>
       <r>  -18.5196    1.0000 </r>
       <r>  -18.5013    1.0000 </r>
       <r>  -18.5004    1.0000 </r>
       <r>  -18.4943    1.0000 </r>
       <r>  -18.4676    1.0000 </r>
       <r>  -18.4492    1.0000 </r>
       <r>  -18.4482    1.0000 </r>
       <r>  -18.4461    1.0000 </r>
       <r>  -18.4369    1.0000 </r>
       <r>  -18.4341    1.0000 </r>
       <r>  -18.4219    1.0000 </r>
       <r>  -18.4148    1.0000 </r>
       <r>  -18.3768    1.0000 </r>
       <r>  -18.3650    1.0000 </r>
       <r>  -18.3580    1.0000 </r>
       <r>  -18.3462    1.0000 </r>
       <r>  -18.2845    1.0000 </r>
       <r>  -18.2466    1.0000 </r>
       <r>  -18.2407    1.0000 </r>
       <r>  -18.2191    1.0000 </r>
       <r>  -18.2113    1.0000 </r>
       <r>  -18.1755    1.0000 </r>
       <r>  -18.1490    1.0000 </r>
       <r>  -13.7242    1.0000 </r>
       <r>  -13.5724    1.0000 </r>
       <r>  -13.5541    1.0000 </r>
       <r>  -12.9395    1.0000 </r>
       <r>  -12.8643    1.0000 </r>
       <r>  -12.8090    1.0000 </r>
       <r>  -12.7899    1.0000 </r>
       <r>  -12.7500    1.0000 </r>
       <r>  -12.7488    1.0000 </r>
       <r>  -12.7196    1.0000 </r>
       <r>  -12.6927    1.0000 </r>
       <r>  -12.6454    1.0000 </r>
       <r>  -12.5919    1.0000 </r>
       <r>  -12.0565    1.0000 </r>
       <r>  -11.9960    1.0000 </r>
       <r>  -11.9156    1.0000 </r>
       <r>   -9.3930    1.0000 </r>
       <r>   -9.0986    1.0000 </r>
       <r>   -8.5798    1.0000 </r>
       <r>   -8.5765    1.0000 </r>
       <r>   -8.5199    1.0000 </r>
       <r>   -8.5138    1.0000 </r>
       <r>   -8.3571    1.0000 </r>
       <r>   -8.3538    1.0000 </r>
       <r>   -8.3008    1.0000 </r>
       <r>   -8.2891    1.0000 </r>
       <r>   -8.0762    1.0000 </r>
       <r>   -8.0553    1.0000 </r>
       <r>   -8.0392    1.0000 </r>
       <r>   -8.0099    1.0000 </r>
       <r>   -7.4045    1.0000 </r>
       <r>   -7.4002    1.0000 </r>
       <r>   -6.4395    1.0000 </r>
       <r>   -6.4359    1.0000 </r>
       <r>   -6.3926    1.0000 </r>
       <r>   -6.3875    1.0000 </r>
       <r>   -5.5933    1.0000 </r>
       <r>   -5.5878    1.0000 </r>
       <r>   -5.4231    1.0000 </r>
       <r>   -5.3918    1.0000 </r>
       <r>   -5.3229    1.0000 </r>
       <r>   -5.3175    1.0000 </r>
       <r>   -5.2382    1.0000 </r>
       <r>   -5.2002    1.0000 </r>
       <r>   -5.1262    1.0000 </r>
       <r>   -5.1022    1.0000 </r>
       <r>   -3.8492    1.0000 </r>
       <r>   -3.7001    1.0000 </r>
       <r>   -1.5917    1.0000 </r>
       <r>   -1.3348    1.0000 </r>
       <r>   -1.2061    1.0000 </r>
       <r>   -1.0179    1.0000 </r>
       <r>   -0.6316    1.0000 </r>
       <r>   -0.6146    1.0000 </r>
       <r>   -0.5741    1.0000 </r>
       <r>   -0.5475    1.0000 </r>
       <r>   -0.2393    1.0000 </r>
       <r>   -0.2384    1.0000 </r>
       <r>   -0.2225    1.0000 </r>
       <r>   -0.2094    1.0000 </r>
       <r>   -0.0920    1.0000 </r>
       <r>   -0.0391    1.0000 </r>
       <r>    0.1129    1.0000 </r>
       <r>    0.2727    1.0000 </r>
       <r>    0.3430    1.0000 </r>
       <r>    0.4340    1.0000 </r>
       <r>    0.4814    1.0000 </r>
       <r>    0.4988    1.0000 </r>
       <r>    0.5709    1.0000 </r>
       <r>    0.6304    1.0000 </r>
       <r>    0.6876    1.0000 </r>
       <r>    0.7132    1.0000 </r>
       <r>    0.7246    1.0000 </r>
       <r>    0.7523    1.0000 </r>
       <r>    0.7989    1.0000 </r>
       <r>    0.8133    1.0000 </r>
       <r>    0.9017    1.0000 </r>
       <r>    0.9312    1.0000 </r>
       <r>    0.9437    1.0000 </r>
       <r>    0.9831    1.0000 </r>
       <r>    1.0230    1.0000 </r>
       <r>    1.0644    1.0000 </r>
       <r>    1.1111    1.0000 </r>
       <r>    1.1248    1.0000 </r>
       <r>    1.2535    1.0000 </r>
       <r>    1.2716    1.0000 </r>
       <r>    1.2980    1.0000 </r>
       <r>    1.3199    1.0000 </r>
       <r>    1.4095    1.0000 </r>
       <r>    1.4743    1.0000 </r>
       <r>    1.5206    1.0000 </r>
       <r>    1.6010    1.0000 </r>
       <r>    1.6284    1.0000 </r>
       <r>    1.6551    1.0000 </r>
       <r>    1.7171    1.0000 </r>
       <r>    1.7768    1.0000 </r>
       <r>    1.7927    1.0000 </r>
       <r>    1.8282    1.0000 </r>
       <r>    1.8621    1.0000 </r>
       <r>    1.9819    1.0000 </r>
       <r>    2.0656    1.0000 </r>
       <r>    2.1237    1.0000 </r>
       <r>    2.1605    1.0000 </r>
       <r>    2.2332    1.0000 </r>
       <r>    2.2834    1.0000 </r>
       <r>    2.2945    1.0000 </r>
       <r>    2.4457    1.0000 </r>
       <r>    2.5030    1.0000 </r>
       <r>    2.5122    1.0000 </r>
       <r>    2.5136    1.0000 </r>
       <r>    2.5386    1.0000 </r>
       <r>    2.5420    1.0000 </r>
       <r>    2.5828    1.0000 </r>
       <r>    2.6033    1.0000 </r>
       <r>    2.6540    1.0000 </r>
       <r>    2.6967    1.0000 </r>
       <r>    2.7510    1.0000 </r>
       <r>    2.7966    1.0000 </r>
       <r>    2.8098    1.0000 </r>
       <r>    2.8511    1.0000 </r>
       <r>    2.8831    1.0000 </r>
       <r>    2.9081    1.0000 </r>
       <r>    2.9447    1.0000 </r>
       <r>    2.9801    1.0000 </r>
       <r>    3.0100    1.0000 </r>
       <r>    3.0156    1.0000 </r>
       <r>    3.0648    1.0000 </r>
       <r>    3.0905    1.0000 </r>
       <r>    3.1005    1.0000 </r>
       <r>    3.1087    1.0000 </r>
       <r>    3.1635    1.0000 </r>
       <r>    3.1692    1.0000 </r>
       <r>    3.1856    1.0000 </r>
       <r>    3.2921    1.0000 </r>
       <r>    3.3222    1.0000 </r>
       <r>    3.3421    1.0000 </r>
       <r>    3.3868    1.0000 </r>
       <r>    3.4941    1.0000 </r>
       <r>    3.6531    1.0000 </r>
       <r>    3.7956    1.0000 </r>
       <r>    4.1227    1.0000 </r>
       <r>    4.1412    1.0000 </r>
       <r>    4.2012    1.0000 </r>
       <r>    4.2062    1.0000 </r>
       <r>    4.9298    0.0000 </r>
       <r>    4.9401    0.0000 </r>
       <r>    5.1573    0.0000 </r>
       <r>    5.1678    0.0000 </r>
       <r>    5.6589    0.0000 </r>
       <r>    5.6619    0.0000 </r>
       <r>    5.7876    0.0000 </r>
       <r>    5.8074    0.0000 </r>
       <r>    6.0759    0.0000 </r>
       <r>    6.0889    0.0000 </r>
       <r>    6.1040    0.0000 </r>
       <r>    6.1108    0.0000 </r>
       <r>    6.1990    0.0000 </r>
       <r>    6.2077    0.0000 </r>
       <r>    6.2225    0.0000 </r>
       <r>    6.2324    0.0000 </r>
       <r>    6.9357    0.0000 </r>
       <r>    6.9780    0.0000 </r>
       <r>    7.2546    0.0000 </r>
       <r>    7.2906    0.0000 </r>
       <r>    7.7075    0.0000 </r>
       <r>    7.7783    0.0000 </r>
       <r>    7.8247    0.0000 </r>
       <r>    7.8903    0.0000 </r>
       <r>    7.9002    0.0000 </r>
       <r>    7.9464    0.0000 </r>
       <r>    7.9955    0.0000 </r>
       <r>    8.0893    0.0000 </r>
       <r>    8.2168    0.0000 </r>
       <r>    8.5976    0.0000 </r>
       <r>    8.6242    0.0000 </r>
       <r>    8.7130    0.0000 </r>
       <r>    8.7728    0.0000 </r>
       <r>    8.7745    0.0000 </r>
       <r>    8.8650    0.0000 </r>
       <r>    8.9079    0.0000 </r>
       <r>    8.9605    0.0000 </r>
       <r>    8.9796    0.0000 </r>
       <r>    9.0245    0.0000 </r>
       <r>    9.0574    0.0000 </r>
       <r>    9.1073    0.0000 </r>
       <r>    9.1176    0.0000 </r>
       <r>    9.1544    0.0000 </r>
       <r>    9.2306    0.0000 </r>
       <r>    9.3467    0.0000 </r>
       <r>    9.3702    0.0000 </r>
       <r>    9.4662    0.0000 </r>
       <r>    9.4729    0.0000 </r>
       <r>    9.6686    0.0000 </r>
       <r>    9.7037    0.0000 </r>
       <r>    9.8141    0.0000 </r>
       <r>    9.8348    0.0000 </r>
      </set>
      <set comment="kpoint 2">
       <r>  -40.5850    1.0000 </r>
       <r>  -40.1221    1.0000 </r>
       <r>  -39.8025    1.0000 </r>
       <r>  -39.3580    1.0000 </r>
       <r>  -19.0607    1.0000 </r>
       <r>  -18.9872    1.0000 </r>
       <r>  -18.9845    1.0000 </r>
       <r>  -18.9765    1.0000 </r>
       <r>  -18.9764    1.0000 </r>
       <r>  -18.9160    1.0000 </r>
       <r>  -18.9095    1.0000 </r>
       <r>  -18.8995    1.0000 </r>
       <r>  -18.8909    1.0000 </r>
       <r>  -18.8879    1.0000 </r>
       <r>  -18.8682    1.0000 </r>
       <r>  -18.8109    1.0000 </r>
       <r>  -18.8067    1.0000 </r>
       <r>  -18.7979    1.0000 </r>
       <r>  -18.7835    1.0000 </r>
       <r>  -18.7590    1.0000 </r>
       <r>  -18.7490    1.0000 </r>
       <r>  -18.7444    1.0000 </r>
       <r>  -18.7407    1.0000 </r>
       <r>  -18.7348    1.0000 </r>
       <r>  -18.7187    1.0000 </r>
       <r>  -18.7170    1.0000 </r>
       <r>  -18.7087    1.0000 </r>
       <r>  -18.7045    1.0000 </r>
       <r>  -18.7031    1.0000 </r>
       <r>  -18.6985    1.0000 </r>
       <r>  -18.6963    1.0000 </r>
       <r>  -18.6946    1.0000 </r>
       <r>  -18.6894    1.0000 </r>
       <r>  -18.6873    1.0000 </r>
       <r>  -18.6783    1.0000 </r>
       <r>  -18.6757    1.0000 </r>
       <r>  -18.6737    1.0000 </r>
       <r>  -18.6694    1.0000 </r>
       <r>  -18.6667    1.0000 </r>
       <r>  -18.6599    1.0000 </r>
       <r>  -18.6591    1.0000 </r>
       <r>  -18.6540    1.0000 </r>
       <r>  -18.6444    1.0000 </r>
       <r>  -18.6261    1.0000 </r>
       <r>  -18.6149    1.0000 </r>
       <r>  -18.6081    1.0000 </r>
       <r>  -18.6048    1.0000 </r>
       <r>  -18.5982    1.0000 </r>
       <r>  -18.5978    1.0000 </r>
       <r>  -18.5885    1.0000 </r>
       <r>  -18.5777    1.0000 </r>
       <r>  -18.5698    1.0000 </r>
       <r>  -18.5657    1.0000 </r>
       <r>  -18.5528    1.0000 </r>
       <r>  -18.5521    1.0000 </r>
       <r>  -18.5464    1.0000 </r>
       <r>  -18.5373    1.0000 </r>
       <r>  -18.5351    1.0000 </r>
       <r>  -18.5343    1.0000 </r>
       <r>  -18.5284    1.0000 </r>
       <r>  -18.5280    1.0000 </r>
       <r>  -18.5197    1.0000 </r>
       <r>  -18.5013    1.0000 </r>
       <r>  -18.5004    1.0000 </r>
       <r>  -18.4943    1.0000 </r>
       <r>  -18.4676    1.0000 </r>
       <r>  -18.4492    1.0000 </r>
       <r>  -18.4482    1.0000 </r>
       <r>  -18.4461    1.0000 </r>
       <r>  -18.4369    1.0000 </r>
       <r>  -18.4340    1.0000 </r>
       <r>  -18.4220    1.0000 </r>
       <r>  -18.4148    1.0000 </r>
       <r>  -18.3768    1.0000 </r>
       <r>  -18.3650    1.0000 </r>
       <r>  -18.3580    1.0000 </r>
       <r>  -18.3462    1.0000 </r>
       <r>  -18.2845    1.0000 </r>
       <r>  -18.2466    1.0000 </r>
       <r>  -18.2407    1.0000 </r>
       <r>  -18.2191    1.0000 </r>
       <r>  -18.2113    1.0000 </r>
       <r>  -18.1755    1.0000 </r>
       <r>  -18.1490    1.0000 </r>
       <r>  -13.7236    1.0000 </r>
       <r>  -13.5728    1.0000 </r>
       <r>  -13.5542    1.0000 </r>
       <r>  -12.9296    1.0000 </r>
       <r>  -12.8834    1.0000 </r>
       <r>  -12.8034    1.0000 </r>
       <r>  -12.7816    1.0000 </r>
       <r>  -12.7556    1.0000 </r>
       <r>  -12.7521    1.0000 </r>
       <r>  -12.7163    1.0000 </r>
       <r>  -12.6907    1.0000 </r>
       <r>  -12.6462    1.0000 </r>
       <r>  -12.5923    1.0000 </r>
       <r>  -12.0563    1.0000 </r>
       <r>  -11.9963    1.0000 </r>
       <r>  -11.9154    1.0000 </r>
       <r>   -9.2478    1.0000 </r>
       <r>   -9.0901    1.0000 </r>
       <r>   -8.9737    1.0000 </r>
       <r>   -8.8128    1.0000 </r>
       <r>   -8.4505    1.0000 </r>
       <r>   -8.4375    1.0000 </r>
       <r>   -8.3099    1.0000 </r>
       <r>   -8.3047    1.0000 </r>
       <r>   -8.2465    1.0000 </r>
       <r>   -8.2400    1.0000 </r>
       <r>   -8.1100    1.0000 </r>
       <r>   -8.1032    1.0000 </r>
       <r>   -7.7950    1.0000 </r>
       <r>   -7.6870    1.0000 </r>
       <r>   -7.6765    1.0000 </r>
       <r>   -7.5679    1.0000 </r>
       <r>   -6.1005    1.0000 </r>
       <r>   -6.0745    1.0000 </r>
       <r>   -5.9879    1.0000 </r>
       <r>   -5.8865    1.0000 </r>
       <r>   -5.8730    1.0000 </r>
       <r>   -5.8437    1.0000 </r>
       <r>   -5.7655    1.0000 </r>
       <r>   -5.7213    1.0000 </r>
       <r>   -5.6947    1.0000 </r>
       <r>   -5.6546    1.0000 </r>
       <r>   -5.5221    1.0000 </r>
       <r>   -5.4673    1.0000 </r>
       <r>   -4.5459    1.0000 </r>
       <r>   -4.3922    1.0000 </r>
       <r>   -4.3822    1.0000 </r>
       <r>   -4.2170    1.0000 </r>
       <r>   -1.3520    1.0000 </r>
       <r>   -1.1160    1.0000 </r>
       <r>   -0.9599    1.0000 </r>
       <r>   -0.7795    1.0000 </r>
       <r>   -0.5825    1.0000 </r>
       <r>   -0.3911    1.0000 </r>
       <r>   -0.2497    1.0000 </r>
       <r>   -0.1817    1.0000 </r>
       <r>   -0.0439    1.0000 </r>
       <r>   -0.0152    1.0000 </r>
       <r>    0.0177    1.0000 </r>
       <r>    0.1029    1.0000 </r>
       <r>    0.1136    1.0000 </r>
       <r>    0.2103    1.0000 </r>
       <r>    0.2710    1.0000 </r>
       <r>    0.2831    1.0000 </r>
       <r>    0.3475    1.0000 </r>
       <r>    0.4396    1.0000 </r>
       <r>    0.4569    1.0000 </r>
       <r>    0.5031    1.0000 </r>
       <r>    0.5561    1.0000 </r>
       <r>    0.5603    1.0000 </r>
       <r>    0.6042    1.0000 </r>
       <r>    0.6445    1.0000 </r>
       <r>    0.6678    1.0000 </r>
       <r>    0.7430    1.0000 </r>
       <r>    0.7858    1.0000 </r>
       <r>    0.8057    1.0000 </r>
       <r>    0.8404    1.0000 </r>
       <r>    0.8755    1.0000 </r>
       <r>    0.9557    1.0000 </r>
       <r>    1.0139    1.0000 </r>
       <r>    1.0695    1.0000 </r>
       <r>    1.1215    1.0000 </r>
       <r>    1.1487    1.0000 </r>
       <r>    1.1988    1.0000 </r>
       <r>    1.2363    1.0000 </r>
       <r>    1.2580    1.0000 </r>
       <r>    1.2834    1.0000 </r>
       <r>    1.3297    1.0000 </r>
       <r>    1.3684    1.0000 </r>
       <r>    1.4206    1.0000 </r>
       <r>    1.4472    1.0000 </r>
       <r>    1.4825    1.0000 </r>
       <r>    1.5154    1.0000 </r>
       <r>    1.5719    1.0000 </r>
       <r>    1.6372    1.0000 </r>
       <r>    1.6512    1.0000 </r>
       <r>    1.7372    1.0000 </r>
       <r>    1.7504    1.0000 </r>
       <r>    1.8128    1.0000 </r>
       <r>    1.8360    1.0000 </r>
       <r>    1.9268    1.0000 </r>
       <r>    1.9779    1.0000 </r>
       <r>    2.0230    1.0000 </r>
       <r>    2.0348    1.0000 </r>
       <r>    2.0798    1.0000 </r>
       <r>    2.1115    1.0000 </r>
       <r>    2.2049    1.0000 </r>
       <r>    2.2333    1.0000 </r>
       <r>    2.2931    1.0000 </r>
       <r>    2.3181    1.0000 </r>
       <r>    2.3755    1.0000 </r>
       <r>    2.4122    1.0000 </r>
       <r>    2.4743    1.0000 </r>
       <r>    2.5049    1.0000 </r>
       <r>    2.5377    1.0000 </r>
       <r>    2.5638    1.0000 </r>
       <r>    2.6129    1.0000 </r>
       <r>    2.6539    1.0000 </r>
       <r>    2.6931    1.0000 </r>
       <r>    2.7115    1.0000 </r>
       <r>    2.7533    1.0000 </r>
       <r>    2.7852    1.0000 </r>
       <r>    2.8051    1.0000 </r>
       <r>    2.8499    1.0000 </r>
       <r>    2.9075    1.0000 </r>
       <r>    2.9332    1.0000 </r>
       <r>    2.9781    1.0000 </r>
       <r>    2.9884    1.0000 </r>
       <r>    3.0294    1.0000 </r>
       <r>    3.0690    1.0000 </r>
       <r>    3.1234    1.0000 </r>
       <r>    3.1575    1.0000 </r>
       <r>    3.2390    1.0000 </r>
       <r>    3.2977    1.0000 </r>
       <r>    3.3603    1.0000 </r>
       <r>    3.3680    1.0000 </r>
       <r>    3.3991    1.0000 </r>
       <r>    3.4643    1.0000 </r>
       <r>    3.5033    1.0000 </r>
       <r>    3.5400    1.0000 </r>
       <r>    3.5981    1.0000 </r>
       <r>    3.7221    1.0000 </r>
       <r>    3.7640    1.0000 </r>
       <r>    3.9099    1.0000 </r>
       <r>    5.5033    0.0000 </r>
       <r>    5.5086    0.0000 </r>
       <r>    5.6607    0.0000 </r>
       <r>    5.6745    0.0000 </r>
       <r>    5.7025    0.0000 </r>
       <r>    5.7125    0.0000 </r>
       <r>    5.8504    0.0000 </r>
       <r>    5.8654    0.0000 </r>
       <r>    7.0627    0.0000 </r>
       <r>    7.0866    0.0000 </r>
       <r>    7.1797    0.0000 </r>
       <r>    7.2377    0.0000 </r>
       <r>    7.3019    0.0000 </r>
       <r>    7.3390    0.0000 </r>
       <r>    7.3716    0.0000 </r>
       <r>    7.4106    0.0000 </r>
       <r>    7.4234    0.0000 </r>
       <r>    7.4586    0.0000 </r>
       <r>    7.5380    0.0000 </r>
       <r>    7.5792    0.0000 </r>
       <r>    7.7528    0.0000 </r>
       <r>    7.7640    0.0000 </r>
       <r>    7.7874    0.0000 </r>
       <r>    7.8282    0.0000 </r>
       <r>    7.8526    0.0000 </r>
       <r>    7.8668    0.0000 </r>
       <r>    7.8894    0.0000 </r>
       <r>    7.9119    0.0000 </r>
       <r>    7.9368    0.0000 </r>
       <r>    7.9558    0.0000 </r>
       <r>    7.9856    0.0000 </r>
       <r>    8.0231    0.0000 </r>
       <r>    8.0755    0.0000 </r>
       <r>    8.2177    0.0000 </r>
       <r>    8.4009    0.0000 </r>
       <r>    8.4513    0.0000 </r>
       <r>    8.6457    0.0000 </r>
       <r>    8.6744    0.0000 </r>
       <r>    8.7013    0.0000 </r>
       <r>    8.7227    0.0000 </r>
       <r>    8.7248    0.0000 </r>
       <r>    8.8146    0.0000 </r>
       <r>    8.8863    0.0000 </r>
       <r>    8.8991    0.0000 </r>
       <r>    9.0647    0.0000 </r>
       <r>    9.1983    0.0000 </r>
       <r>    9.2731    0.0000 </r>
       <r>    9.3217    0.0000 </r>
       <r>    9.5355    0.0000 </r>
       <r>    9.5791    0.0000 </r>
       <r>    9.9375    0.0000 </r>
       <r>   10.0480    0.0000 </r>
      </set>
      <set comment="kpoint 3">
       <r>  -40.5850    1.0000 </r>
       <r>  -40.1221    1.0000 </r>
       <r>  -39.8025    1.0000 </r>
       <r>  -39.3580    1.0000 </r>
       <r>  -19.0607    1.0000 </r>
       <r>  -18.9872    1.0000 </r>
       <r>  -18.9845    1.0000 </r>
       <r>  -18.9765    1.0000 </r>
       <r>  -18.9764    1.0000 </r>
       <r>  -18.9162    1.0000 </r>
       <r>  -18.9096    1.0000 </r>
       <r>  -18.8994    1.0000 </r>
       <r>  -18.8908    1.0000 </r>
       <r>  -18.8879    1.0000 </r>
       <r>  -18.8682    1.0000 </r>
       <r>  -18.8109    1.0000 </r>
       <r>  -18.8067    1.0000 </r>
       <r>  -18.7980    1.0000 </r>
       <r>  -18.7835    1.0000 </r>
       <r>  -18.7590    1.0000 </r>
       <r>  -18.7490    1.0000 </r>
       <r>  -18.7445    1.0000 </r>
       <r>  -18.7408    1.0000 </r>
       <r>  -18.7348    1.0000 </r>
       <r>  -18.7191    1.0000 </r>
       <r>  -18.7183    1.0000 </r>
       <r>  -18.7112    1.0000 </r>
       <r>  -18.7038    1.0000 </r>
       <r>  -18.7033    1.0000 </r>
       <r>  -18.6974    1.0000 </r>
       <r>  -18.6959    1.0000 </r>
       <r>  -18.6894    1.0000 </r>
       <r>  -18.6873    1.0000 </r>
       <r>  -18.6842    1.0000 </r>
       <r>  -18.6793    1.0000 </r>
       <r>  -18.6779    1.0000 </r>
       <r>  -18.6766    1.0000 </r>
       <r>  -18.6725    1.0000 </r>
       <r>  -18.6675    1.0000 </r>
       <r>  -18.6607    1.0000 </r>
       <r>  -18.6593    1.0000 </r>
       <r>  -18.6527    1.0000 </r>
       <r>  -18.6428    1.0000 </r>
       <r>  -18.6260    1.0000 </r>
       <r>  -18.6149    1.0000 </r>
       <r>  -18.6081    1.0000 </r>
       <r>  -18.6049    1.0000 </r>
       <r>  -18.5983    1.0000 </r>
       <r>  -18.5978    1.0000 </r>
       <r>  -18.5885    1.0000 </r>
       <r>  -18.5777    1.0000 </r>
       <r>  -18.5698    1.0000 </r>
       <r>  -18.5657    1.0000 </r>
       <r>  -18.5529    1.0000 </r>
       <r>  -18.5521    1.0000 </r>
       <r>  -18.5462    1.0000 </r>
       <r>  -18.5376    1.0000 </r>
       <r>  -18.5351    1.0000 </r>
       <r>  -18.5341    1.0000 </r>
       <r>  -18.5284    1.0000 </r>
       <r>  -18.5281    1.0000 </r>
       <r>  -18.5196    1.0000 </r>
       <r>  -18.5013    1.0000 </r>
       <r>  -18.5004    1.0000 </r>
       <r>  -18.4943    1.0000 </r>
       <r>  -18.4676    1.0000 </r>
       <r>  -18.4492    1.0000 </r>
       <r>  -18.4482    1.0000 </r>
       <r>  -18.4461    1.0000 </r>
       <r>  -18.4369    1.0000 </r>
       <r>  -18.4341    1.0000 </r>
       <r>  -18.4219    1.0000 </r>
       <r>  -18.4148    1.0000 </r>
       <r>  -18.3768    1.0000 </r>
       <r>  -18.3650    1.0000 </r>
       <r>  -18.3580    1.0000 </r>
       <r>  -18.3462    1.0000 </r>
       <r>  -18.2845    1.0000 </r>
       <r>  -18.2466    1.0000 </r>
       <r>  -18.2407    1.0000 </r>
       <r>  -18.2191    1.0000 </r>
       <r>  -18.2113    1.0000 </r>
       <r>  -18.1755    1.0000 </r>
       <r>  -18.1490    1.0000 </r>
       <r>  -13.7239    1.0000 </r>
       <r>  -13.5724    1.0000 </r>
       <r>  -13.5543    1.0000 </r>
       <r>  -12.9380    1.0000 </r>
       <r>  -12.8639    1.0000 </r>
       <r>  -12.8095    1.0000 </r>
       <r>  -12.7898    1.0000 </r>
       <r>  -12.7502    1.0000 </r>
       <r>  -12.7490    1.0000 </r>
       <r>  -12.7198    1.0000 </r>
       <r>  -12.6927    1.0000 </r>
       <r>  -12.6464    1.0000 </r>
       <r>  -12.5926    1.0000 </r>
       <r>  -12.0560    1.0000 </r>
       <r>  -11.9962    1.0000 </r>
       <r>  -11.9171    1.0000 </r>
       <r>   -9.3822    1.0000 </r>
       <r>   -9.1062    1.0000 </r>
       <r>   -8.5976    1.0000 </r>
       <r>   -8.5939    1.0000 </r>
       <r>   -8.5361    1.0000 </r>
       <r>   -8.5307    1.0000 </r>
       <r>   -8.3374    1.0000 </r>
       <r>   -8.3348    1.0000 </r>
       <r>   -8.2833    1.0000 </r>
       <r>   -8.2701    1.0000 </r>
       <r>   -8.0803    1.0000 </r>
       <r>   -8.0585    1.0000 </r>
       <r>   -8.0420    1.0000 </r>
       <r>   -8.0124    1.0000 </r>
       <r>   -7.4072    1.0000 </r>
       <r>   -7.4029    1.0000 </r>
       <r>   -6.4310    1.0000 </r>
       <r>   -6.4245    1.0000 </r>
       <r>   -6.3835    1.0000 </r>
       <r>   -6.3779    1.0000 </r>
       <r>   -5.5971    1.0000 </r>
       <r>   -5.5941    1.0000 </r>
       <r>   -5.4582    1.0000 </r>
       <r>   -5.4341    1.0000 </r>
       <r>   -5.3471    1.0000 </r>
       <r>   -5.3404    1.0000 </r>
       <r>   -5.1810    1.0000 </r>
       <r>   -5.1606    1.0000 </r>
       <r>   -5.0747    1.0000 </r>
       <r>   -5.0596    1.0000 </r>
       <r>   -3.9255    1.0000 </r>
       <r>   -3.6118    1.0000 </r>
       <r>   -1.4561    1.0000 </r>
       <r>   -1.3871    1.0000 </r>
       <r>   -1.2900    1.0000 </r>
       <r>   -1.0779    1.0000 </r>
       <r>   -0.5331    1.0000 </r>
       <r>   -0.5138    1.0000 </r>
       <r>   -0.4646    1.0000 </r>
       <r>   -0.4552    1.0000 </r>
       <r>   -0.4429    1.0000 </r>
       <r>   -0.4265    1.0000 </r>
       <r>   -0.3813    1.0000 </r>
       <r>   -0.3408    1.0000 </r>
       <r>   -0.2491    1.0000 </r>
       <r>   -0.1474    1.0000 </r>
       <r>   -0.0986    1.0000 </r>
       <r>    0.1489    1.0000 </r>
       <r>    0.2116    1.0000 </r>
       <r>    0.2447    1.0000 </r>
       <r>    0.3092    1.0000 </r>
       <r>    0.4179    1.0000 </r>
       <r>    0.4624    1.0000 </r>
       <r>    0.5097    1.0000 </r>
       <r>    0.5576    1.0000 </r>
       <r>    0.6618    1.0000 </r>
       <r>    0.6855    1.0000 </r>
       <r>    0.7157    1.0000 </r>
       <r>    0.7696    1.0000 </r>
       <r>    0.8027    1.0000 </r>
       <r>    0.8393    1.0000 </r>
       <r>    0.9116    1.0000 </r>
       <r>    0.9609    1.0000 </r>
       <r>    1.0347    1.0000 </r>
       <r>    1.1543    1.0000 </r>
       <r>    1.2074    1.0000 </r>
       <r>    1.2311    1.0000 </r>
       <r>    1.2693    1.0000 </r>
       <r>    1.3295    1.0000 </r>
       <r>    1.3540    1.0000 </r>
       <r>    1.3636    1.0000 </r>
       <r>    1.4335    1.0000 </r>
       <r>    1.5179    1.0000 </r>
       <r>    1.5703    1.0000 </r>
       <r>    1.6100    1.0000 </r>
       <r>    1.6554    1.0000 </r>
       <r>    1.6876    1.0000 </r>
       <r>    1.8145    1.0000 </r>
       <r>    1.8268    1.0000 </r>
       <r>    1.8776    1.0000 </r>
       <r>    1.9304    1.0000 </r>
       <r>    2.0327    1.0000 </r>
       <r>    2.0694    1.0000 </r>
       <r>    2.0801    1.0000 </r>
       <r>    2.1810    1.0000 </r>
       <r>    2.2198    1.0000 </r>
       <r>    2.2543    1.0000 </r>
       <r>    2.3165    1.0000 </r>
       <r>    2.3658    1.0000 </r>
       <r>    2.4250    1.0000 </r>
       <r>    2.4508    1.0000 </r>
       <r>    2.4784    1.0000 </r>
       <r>    2.4838    1.0000 </r>
       <r>    2.5079    1.0000 </r>
       <r>    2.5165    1.0000 </r>
       <r>    2.5397    1.0000 </r>
       <r>    2.5534    1.0000 </r>
       <r>    2.5632    1.0000 </r>
       <r>    2.6222    1.0000 </r>
       <r>    2.7021    1.0000 </r>
       <r>    2.7088    1.0000 </r>
       <r>    2.7678    1.0000 </r>
       <r>    2.8497    1.0000 </r>
       <r>    2.8574    1.0000 </r>
       <r>    2.8633    1.0000 </r>
       <r>    2.8848    1.0000 </r>
       <r>    2.9051    1.0000 </r>
       <r>    2.9139    1.0000 </r>
       <r>    2.9643    1.0000 </r>
       <r>    2.9896    1.0000 </r>
       <r>    2.9926    1.0000 </r>
       <r>    3.0243    1.0000 </r>
       <r>    3.1597    1.0000 </r>
       <r>    3.1930    1.0000 </r>
       <r>    3.2782    1.0000 </r>
       <r>    3.3052    1.0000 </r>
       <r>    3.3166    1.0000 </r>
       <r>    3.3404    1.0000 </r>
       <r>    3.3687    1.0000 </r>
       <r>    3.4225    1.0000 </r>
       <r>    3.4482    1.0000 </r>
       <r>    3.5266    1.0000 </r>
       <r>    3.6353    1.0000 </r>
       <r>    3.7365    1.0000 </r>
       <r>    4.1731    1.0000 </r>
       <r>    4.1911    1.0000 </r>
       <r>    4.2511    1.0000 </r>
       <r>    4.2577    1.0000 </r>
       <r>    5.0125    0.0000 </r>
       <r>    5.0225    0.0000 </r>
       <r>    5.2179    0.0000 </r>
       <r>    5.2292    0.0000 </r>
       <r>    5.6670    0.0000 </r>
       <r>    5.6702    0.0000 </r>
       <r>    5.7961    0.0000 </r>
       <r>    5.8168    0.0000 </r>
       <r>    6.1235    0.0000 </r>
       <r>    6.1353    0.0000 </r>
       <r>    6.1459    0.0000 </r>
       <r>    6.1492    0.0000 </r>
       <r>    6.2190    0.0000 </r>
       <r>    6.2252    0.0000 </r>
       <r>    6.2435    0.0000 </r>
       <r>    6.2536    0.0000 </r>
       <r>    6.6216    0.0000 </r>
       <r>    6.6725    0.0000 </r>
       <r>    6.9150    0.0000 </r>
       <r>    7.0143    0.0000 </r>
       <r>    7.1443    0.0000 </r>
       <r>    7.1743    0.0000 </r>
       <r>    7.3033    0.0000 </r>
       <r>    7.4318    0.0000 </r>
       <r>    7.6731    0.0000 </r>
       <r>    7.8188    0.0000 </r>
       <r>    7.8246    0.0000 </r>
       <r>    7.9424    0.0000 </r>
       <r>    7.9624    0.0000 </r>
       <r>    8.3354    0.0000 </r>
       <r>    8.3526    0.0000 </r>
       <r>    8.3650    0.0000 </r>
       <r>    8.5547    0.0000 </r>
       <r>    8.7507    0.0000 </r>
       <r>    8.8637    0.0000 </r>
       <r>    8.9041    0.0000 </r>
       <r>    8.9472    0.0000 </r>
       <r>    8.9781    0.0000 </r>
       <r>    9.0119    0.0000 </r>
       <r>    9.0449    0.0000 </r>
       <r>    9.0718    0.0000 </r>
       <r>    9.1014    0.0000 </r>
       <r>    9.1151    0.0000 </r>
       <r>    9.1614    0.0000 </r>
       <r>    9.4243    0.0000 </r>
       <r>    9.4420    0.0000 </r>
       <r>    9.5366    0.0000 </r>
       <r>    9.6865    0.0000 </r>
       <r>    9.6976    0.0000 </r>
       <r>    9.7107    0.0000 </r>
       <r>    9.9254    0.0000 </r>
       <r>    9.9957    0.0000 </r>
      </set>
      <set comment="kpoint 4">
       <r>  -40.5850    1.0000 </r>
       <r>  -40.1221    1.0000 </r>
       <r>  -39.8025    1.0000 </r>
       <r>  -39.3580    1.0000 </r>
       <r>  -19.0607    1.0000 </r>
       <r>  -18.9871    1.0000 </r>
       <r>  -18.9845    1.0000 </r>
       <r>  -18.9765    1.0000 </r>
       <r>  -18.9764    1.0000 </r>
       <r>  -18.9160    1.0000 </r>
       <r>  -18.9095    1.0000 </r>
       <r>  -18.8995    1.0000 </r>
       <r>  -18.8909    1.0000 </r>
       <r>  -18.8879    1.0000 </r>
       <r>  -18.8682    1.0000 </r>
       <r>  -18.8109    1.0000 </r>
       <r>  -18.8067    1.0000 </r>
       <r>  -18.7980    1.0000 </r>
       <r>  -18.7835    1.0000 </r>
       <r>  -18.7590    1.0000 </r>
       <r>  -18.7490    1.0000 </r>
       <r>  -18.7444    1.0000 </r>
       <r>  -18.7407    1.0000 </r>
       <r>  -18.7348    1.0000 </r>
       <r>  -18.7188    1.0000 </r>
       <r>  -18.7170    1.0000 </r>
       <r>  -18.7087    1.0000 </r>
       <r>  -18.7045    1.0000 </r>
       <r>  -18.7031    1.0000 </r>
       <r>  -18.6985    1.0000 </r>
       <r>  -18.6963    1.0000 </r>
       <r>  -18.6947    1.0000 </r>
       <r>  -18.6894    1.0000 </r>
       <r>  -18.6873    1.0000 </r>
       <r>  -18.6783    1.0000 </r>
       <r>  -18.6757    1.0000 </r>
       <r>  -18.6737    1.0000 </r>
       <r>  -18.6694    1.0000 </r>
       <r>  -18.6667    1.0000 </r>
       <r>  -18.6599    1.0000 </r>
       <r>  -18.6591    1.0000 </r>
       <r>  -18.6540    1.0000 </r>
       <r>  -18.6444    1.0000 </r>
       <r>  -18.6261    1.0000 </r>
       <r>  -18.6149    1.0000 </r>
       <r>  -18.6081    1.0000 </r>
       <r>  -18.6048    1.0000 </r>
       <r>  -18.5982    1.0000 </r>
       <r>  -18.5978    1.0000 </r>
       <r>  -18.5885    1.0000 </r>
       <r>  -18.5777    1.0000 </r>
       <r>  -18.5698    1.0000 </r>
       <r>  -18.5657    1.0000 </r>
       <r>  -18.5528    1.0000 </r>
       <r>  -18.5521    1.0000 </r>
       <r>  -18.5464    1.0000 </r>
       <r>  -18.5373    1.0000 </r>
       <r>  -18.5351    1.0000 </r>
       <r>  -18.5342    1.0000 </r>
       <r>  -18.5284    1.0000 </r>
       <r>  -18.5280    1.0000 </r>
       <r>  -18.5197    1.0000 </r>
       <r>  -18.5013    1.0000 </r>
       <r>  -18.5004    1.0000 </r>
       <r>  -18.4943    1.0000 </r>
       <r>  -18.4676    1.0000 </r>
       <r>  -18.4492    1.0000 </r>
       <r>  -18.4482    1.0000 </r>
       <r>  -18.4461    1.0000 </r>
       <r>  -18.4369    1.0000 </r>
       <r>  -18.4340    1.0000 </r>
       <r>  -18.4220    1.0000 </r>
       <r>  -18.4148    1.0000 </r>
       <r>  -18.3768    1.0000 </r>
       <r>  -18.3650    1.0000 </r>
       <r>  -18.3580    1.0000 </r>
       <r>  -18.3462    1.0000 </r>
       <r>  -18.2845    1.0000 </r>
       <r>  -18.2465    1.0000 </r>
       <r>  -18.2407    1.0000 </r>
       <r>  -18.2191    1.0000 </r>
       <r>  -18.2113    1.0000 </r>
       <r>  -18.1755    1.0000 </r>
       <r>  -18.1490    1.0000 </r>
       <r>  -13.7234    1.0000 </r>
       <r>  -13.5728    1.0000 </r>
       <r>  -13.5544    1.0000 </r>
       <r>  -12.9284    1.0000 </r>
       <r>  -12.8826    1.0000 </r>
       <r>  -12.8036    1.0000 </r>
       <r>  -12.7816    1.0000 </r>
       <r>  -12.7555    1.0000 </r>
       <r>  -12.7527    1.0000 </r>
       <r>  -12.7166    1.0000 </r>
       <r>  -12.6908    1.0000 </r>
       <r>  -12.6471    1.0000 </r>
       <r>  -12.5931    1.0000 </r>
       <r>  -12.0558    1.0000 </r>
[...]
       <r>    8.7715    0.0000 </r>
       <r>    8.7997    0.0000 </r>
       <r>    8.8374    0.0000 </r>
       <r>    8.8847    0.0000 </r>
       <r>    8.8997    0.0000 </r>
       <r>    8.9153    0.0000 </r>
       <r>    8.9356    0.0000 </r>
       <r>    9.4807    0.0000 </r>
       <r>    9.8170    0.0000 </r>
       <r>    9.9219    0.0000 </r>
       <r>   10.0019    0.0000 </r>
      </set>
     </set>
    </set>
   </array>
  </eigenvalues>
  <separator name="orbital magnetization" >
   <v name="MAGDIPOLOUT">      0.00000000      0.00000000      0.00000000</v>
  </separator>
  <dos>
   <i name="efermi">      4.32540101 </i>
   <total>
    <array>
     <dimension dim="1">gridpoints</dimension>
     <dimension dim="2">spin</dimension>
     <field>energy</field>
     <field>total</field>
     <field>integrated</field>
     <set>
      <set comment="spin 1">
       <r>   -43.1303     0.0000     0.0000 </r>
       <r>   -42.9436     0.0000     0.0000 </r>
       <r>   -42.7570     0.0000     0.0000 </r>
       <r>   -42.5703     0.0000     0.0000 </r>
       <r>   -42.3837     0.0000     0.0000 </r>
       <r>   -42.1970     0.0000     0.0000 </r>
       <r>   -42.0104     0.0000     0.0000 </r>
       <r>   -41.8237     0.0000     0.0000 </r>
       <r>   -41.6371     0.0000     0.0000 </r>
       <r>   -41.4504     0.0000     0.0000 </r>
       <r>   -41.2638     0.0000     0.0000 </r>
       <r>   -41.0771     0.0000     0.0000 </r>
       <r>   -40.8905     0.0000     0.0000 </r>
       <r>   -40.7038     0.0000     0.0000 </r>
       <r>   -40.5172     0.0000     2.0000 </r>
       <r>   -40.3305     0.0000     2.0000 </r>
       <r>   -40.1439     0.0000     2.0000 </r>
       <r>   -39.9572     0.0000     4.0000 </r>
       <r>   -39.7706     0.0000     6.0000 </r>
       <r>   -39.5839     0.0000     6.0000 </r>
       <r>   -39.3973     0.0000     6.0000 </r>
       <r>   -39.2106     0.0000     8.0000 </r>
       <r>   -39.0240     0.0000     8.0000 </r>
       <r>   -38.8373     0.0000     8.0000 </r>
       <r>   -38.6507     0.0000     8.0000 </r>
       <r>   -38.4640     0.0000     8.0000 </r>
       <r>   -38.2774     0.0000     8.0000 </r>
       <r>   -38.0907     0.0000     8.0000 </r>
       <r>   -37.9041     0.0000     8.0000 </r>
       <r>   -37.7174     0.0000     8.0000 </r>
       <r>   -37.5308     0.0000     8.0000 </r>
       <r>   -37.3441     0.0000     8.0000 </r>
       <r>   -37.1575     0.0000     8.0000 </r>
       <r>   -36.9708     0.0000     8.0000 </r>
       <r>   -36.7842     0.0000     8.0000 </r>
       <r>   -36.5975     0.0000     8.0000 </r>
       <r>   -36.4109     0.0000     8.0000 </r>
       <r>   -36.2242     0.0000     8.0000 </r>
       <r>   -36.0376     0.0000     8.0000 </r>
       <r>   -35.8509     0.0000     8.0000 </r>
       <r>   -35.6643     0.0000     8.0000 </r>
       <r>   -35.4776     0.0000     8.0000 </r>
       <r>   -35.2910     0.0000     8.0000 </r>
       <r>   -35.1043     0.0000     8.0000 </r>
       <r>   -34.9177     0.0000     8.0000 </r>
       <r>   -34.7310     0.0000     8.0000 </r>
       <r>   -34.5444     0.0000     8.0000 </r>
       <r>   -34.3577     0.0000     8.0000 </r>
       <r>   -34.1711     0.0000     8.0000 </r>
       <r>   -33.9844     0.0000     8.0000 </r>
       <r>   -33.7978     0.0000     8.0000 </r>
       <r>   -33.6111     0.0000     8.0000 </r>
       <r>   -33.4245     0.0000     8.0000 </r>
       <r>   -33.2378     0.0000     8.0000 </r>
       <r>   -33.0512     0.0000     8.0000 </r>
       <r>   -32.8645     0.0000     8.0000 </r>
       <r>   -32.6779     0.0000     8.0000 </r>
       <r>   -32.4912     0.0000     8.0000 </r>
       <r>   -32.3046     0.0000     8.0000 </r>
       <r>   -32.1179     0.0000     8.0000 </r>
       <r>   -31.9313     0.0000     8.0000 </r>
       <r>   -31.7446     0.0000     8.0000 </r>
       <r>   -31.5580     0.0000     8.0000 </r>
       <r>   -31.3713     0.0000     8.0000 </r>
       <r>   -31.1847     0.0000     8.0000 </r>
       <r>   -30.9980     0.0000     8.0000 </r>
       <r>   -30.8114     0.0000     8.0000 </r>
       <r>   -30.6247     0.0000     8.0000 </r>
       <r>   -30.4381     0.0000     8.0000 </r>
       <r>   -30.2514     0.0000     8.0000 </r>
       <r>   -30.0648     0.0000     8.0000 </r>
       <r>   -29.8781     0.0000     8.0000 </r>
       <r>   -29.6915     0.0000     8.0000 </r>
       <r>   -29.5048     0.0000     8.0000 </r>
       <r>   -29.3182     0.0000     8.0000 </r>
       <r>   -29.1315     0.0000     8.0000 </r>
       <r>   -28.9449     0.0000     8.0000 </r>
       <r>   -28.7582     0.0000     8.0000 </r>
       <r>   -28.5716     0.0000     8.0000 </r>
       <r>   -28.3849     0.0000     8.0000 </r>
       <r>   -28.1983     0.0000     8.0000 </r>
       <r>   -28.0116     0.0000     8.0000 </r>
       <r>   -27.8250     0.0000     8.0000 </r>
       <r>   -27.6383     0.0000     8.0000 </r>
       <r>   -27.4517     0.0000     8.0000 </r>
       <r>   -27.2650     0.0000     8.0000 </r>
       <r>   -27.0784     0.0000     8.0000 </r>
       <r>   -26.8917     0.0000     8.0000 </r>
       <r>   -26.7051     0.0000     8.0000 </r>
       <r>   -26.5184     0.0000     8.0000 </r>
       <r>   -26.3318     0.0000     8.0000 </r>
       <r>   -26.1451     0.0000     8.0000 </r>
       <r>   -25.9585     0.0000     8.0000 </r>
       <r>   -25.7718     0.0000     8.0000 </r>
       <r>   -25.5852     0.0000     8.0000 </r>
       <r>   -25.3985     0.0000     8.0000 </r>
       <r>   -25.2119     0.0000     8.0000 </r>
       <r>   -25.0252     0.0000     8.0000 </r>
       <r>   -24.8386     0.0000     8.0000 </r>
       <r>   -24.6519     0.0000     8.0000 </r>
       <r>   -24.4653     0.0000     8.0000 </r>
       <r>   -24.2786     0.0000     8.0000 </r>
       <r>   -24.0920     0.0000     8.0000 </r>
       <r>   -23.9053     0.0000     8.0000 </r>
       <r>   -23.7187     0.0000     8.0000 </r>
       <r>   -23.5321     0.0000     8.0000 </r>
       <r>   -23.3454     0.0000     8.0000 </r>
       <r>   -23.1588     0.0000     8.0000 </r>
       <r>   -22.9721     0.0000     8.0000 </r>
       <r>   -22.7855     0.0000     8.0000 </r>
       <r>   -22.5988     0.0000     8.0000 </r>
       <r>   -22.4122     0.0000     8.0000 </r>
       <r>   -22.2255     0.0000     8.0000 </r>
       <r>   -22.0389     0.0000     8.0000 </r>
       <r>   -21.8522     0.0000     8.0000 </r>
       <r>   -21.6656     0.0000     8.0000 </r>
       <r>   -21.4789     0.0000     8.0000 </r>
       <r>   -21.2923     0.0000     8.0000 </r>
       <r>   -21.1056     0.0000     8.0000 </r>
       <r>   -20.9190     0.0000     8.0000 </r>
       <r>   -20.7323     0.0000     8.0000 </r>
       <r>   -20.5457     0.0000     8.0000 </r>
       <r>   -20.3590     0.0000     8.0000 </r>
       <r>   -20.1724     0.0000     8.0000 </r>
       <r>   -19.9857     0.0000     8.0000 </r>
       <r>   -19.7991     0.0000     8.0000 </r>
       <r>   -19.6124     0.0000     8.0000 </r>
       <r>   -19.4258     0.0000     8.0000 </r>
       <r>   -19.2391     0.0000     8.0000 </r>
       <r>   -19.0525     0.0000    10.0000 </r>
       <r>   -18.8658     0.0000    30.0000 </r>
       <r>   -18.6792   983.4859    69.5531 </r>
       <r>   -18.4925     0.0000   130.0000 </r>
       <r>   -18.3059     0.0000   154.0000 </r>
       <r>   -18.1192     0.0000   168.0000 </r>
       <r>   -17.9326     0.0000   168.0000 </r>
       <r>   -17.7459     0.0000   168.0000 </r>
       <r>   -17.5593     0.0000   168.0000 </r>
       <r>   -17.3726     0.0000   168.0000 </r>
       <r>   -17.1860     0.0000   168.0000 </r>
       <r>   -16.9993     0.0000   168.0000 </r>
       <r>   -16.8127     0.0000   168.0000 </r>
       <r>   -16.6260     0.0000   168.0000 </r>
       <r>   -16.4394     0.0000   168.0000 </r>
       <r>   -16.2527     0.0000   168.0000 </r>
       <r>   -16.0661     0.0000   168.0000 </r>
       <r>   -15.8794     0.0000   168.0000 </r>
       <r>   -15.6928     0.0000   168.0000 </r>
       <r>   -15.5061     0.0000   168.0000 </r>
       <r>   -15.3195     0.0000   168.0000 </r>
       <r>   -15.1328     0.0000   168.0000 </r>
       <r>   -14.9462     0.0000   168.0000 </r>
       <r>   -14.7595     0.0000   168.0000 </r>
       <r>   -14.5729     0.0000   168.0000 </r>
       <r>   -14.3862     0.0000   168.0000 </r>
       <r>   -14.1996     0.0000   168.0000 </r>
       <r>   -14.0129     0.0000   168.0000 </r>
       <r>   -13.8263     0.0000   168.0000 </r>
       <r>   -13.6396     0.0000   170.0000 </r>
       <r>   -13.4530     0.0000   174.0000 </r>
       <r>   -13.2663     0.0000   174.0000 </r>
       <r>   -13.0797     0.0000   174.0000 </r>
       <r>   -12.8930     0.0000   176.0000 </r>
       <r>   -12.7064    77.2090   187.8799 </r>
       <r>   -12.5197     0.0000   194.0000 </r>
       <r>   -12.3331     0.0000   194.0000 </r>
       <r>   -12.1464     0.0000   194.0000 </r>
       <r>   -11.9598     0.0000   198.0000 </r>
       <r>   -11.7731     0.0000   200.0000 </r>
       <r>   -11.5865     0.0000   200.0000 </r>
       <r>   -11.3998     0.0000   200.0000 </r>
       <r>   -11.2132     0.0000   200.0000 </r>
       <r>   -11.0265     0.0000   200.0000 </r>
       <r>   -10.8399     0.0000   200.0000 </r>
       <r>   -10.6532     0.0000   200.0000 </r>
       <r>   -10.4666     0.0000   200.0000 </r>
       <r>   -10.2799     0.0000   200.0000 </r>
       <r>   -10.0933     0.0000   200.0000 </r>
       <r>    -9.9066     0.0000   200.0000 </r>
       <r>    -9.7200     0.0000   200.0000 </r>
       <r>    -9.5333     0.0000   200.0000 </r>
       <r>    -9.3467     4.2689   200.0878 </r>
       <r>    -9.1600     5.0106   201.8850 </r>
       <r>    -8.9734     8.9568   203.9794 </r>
       <r>    -8.7867    15.3335   206.5056 </r>
       <r>    -8.6001    15.0610   208.9473 </r>
       <r>    -8.4134    14.6746   213.3575 </r>
       <r>    -8.2268    21.1113   217.3535 </r>
       <r>    -8.0401    23.4520   221.3094 </r>
       <r>    -7.8535    19.4440   225.0974 </r>
       <r>    -7.6668    35.5940   228.3552 </r>
       <r>    -7.4802    10.3287   231.6009 </r>
       <r>    -7.2935     0.0000   232.0000 </r>
       <r>    -7.1069     0.0000   232.0000 </r>
       <r>    -6.9202     0.0000   232.0000 </r>
       <r>    -6.7336     0.0000   232.0000 </r>
       <r>    -6.5469     0.0000   232.0000 </r>
       <r>    -6.3603     6.7214   232.2231 </r>
       <r>    -6.1736    25.8809   235.4201 </r>
       <r>    -5.9870    18.6316   239.2938 </r>
       <r>    -5.8003    23.3410   242.7580 </r>
       <r>    -5.6137    21.9033   247.5153 </r>
       <r>    -5.4270    22.0317   251.0620 </r>
       <r>    -5.2404    13.6973   254.6190 </r>
       <r>    -5.0537     2.7758   256.0257 </r>
       <r>    -4.8671     7.8135   257.0858 </r>
       <r>    -4.6804     9.6365   258.7030 </r>
       <r>    -4.4938     8.1253   260.3844 </r>
       <r>    -4.3071     6.8733   261.7303 </r>
       <r>    -4.1205     5.6075   262.9487 </r>
       <r>    -3.9338     2.4729   263.7020 </r>
       <r>    -3.7472     0.6691   263.9671 </r>
       <r>    -3.5605     0.0000   264.0000 </r>
       <r>    -3.3739     0.0000   264.0000 </r>
       <r>    -3.1872     0.0000   264.0000 </r>
       <r>    -3.0006     0.0000   264.0000 </r>
       <r>    -2.8139     0.0000   264.0000 </r>
       <r>    -2.6273     0.0000   264.0000 </r>
       <r>    -2.4406     0.0000   264.0000 </r>
       <r>    -2.2540     0.0000   264.0000 </r>
       <r>    -2.0673     0.0000   264.0000 </r>
       <r>    -1.8807     0.0000   264.0000 </r>
       <r>    -1.6940     0.0000   264.0000 </r>
       <r>    -1.5074     0.7087   264.0199 </r>
       <r>    -1.3207     6.3295   264.6032 </r>
       <r>    -1.1341    11.5228   266.3697 </r>
       <r>    -0.9474    12.2791   268.5552 </r>
       <r>    -0.7608     7.7824   270.5906 </r>
       <r>    -0.5742    14.4384   271.9010 </r>
       <r>    -0.3875    20.2065   275.6628 </r>
       <r>    -0.2009    34.1618   280.3801 </r>
       <r>    -0.0142    34.3233   287.3822 </r>
       <r>     0.1724    27.7789   293.0079 </r>
       <r>     0.3591    33.1874   299.5146 </r>
       <r>     0.5457    41.6079   307.1978 </r>
       <r>     0.7324    35.3600   314.5906 </r>
       <r>     0.9190    37.8311   322.5451 </r>
       <r>     1.1057    43.9465   330.3574 </r>
       <r>     1.2923    51.5952   339.4461 </r>
       <r>     1.4790    44.3478   348.3688 </r>
       <r>     1.6656    42.0947   357.2626 </r>
       <r>     1.8523    29.3191   364.3166 </r>
       <r>     2.0389    42.3078   370.8137 </r>
       <r>     2.2256    48.1588   379.6705 </r>
       <r>     2.4122    57.6022   389.0266 </r>
       <r>     2.5989    48.8786   399.7041 </r>
       <r>     2.7855    65.7041   409.6700 </r>
       <r>     2.9722    65.9527   421.9871 </r>
       <r>     3.1588    45.4442   431.9022 </r>
       <r>     3.3455    42.3378   439.4064 </r>
       <r>     3.5321    25.7652   446.3707 </r>
       <r>     3.7188    16.3744   449.9268 </r>
       <r>     3.9054    21.6588   453.3573 </r>
       <r>     4.0921     6.3945   455.6027 </r>
       <r>     4.2787     0.0000   456.0000 </r>
       <r>     4.4654     0.0000   456.0000 </r>
       <r>     4.6520     0.0000   456.0000 </r>
       <r>     4.8387     0.0000   456.0000 </r>
       <r>     5.0253     0.5167   456.0158 </r>
       <r>     5.2120     2.7391   456.2999 </r>
       <r>     5.3986     7.0685   457.2134 </r>
       <r>     5.5853     8.7108   458.8101 </r>
       <r>     5.7719    11.1292   461.6429 </r>
       <r>     5.9586    13.7061   465.0149 </r>
       <r>     6.1452    11.6148   467.3421 </r>
       <r>     6.3319    13.0932   469.6037 </r>
       <r>     6.5185    15.3841   472.2620 </r>
       <r>     6.7052    17.5841   475.3391 </r>
       <r>     6.8918    20.4637   478.8711 </r>
       <r>     7.0785    25.6456   483.1581 </r>
       <r>     7.2651    31.3660   488.5393 </r>
       <r>     7.4518    32.3192   495.1869 </r>
       <r>     7.6384    30.1585   500.3731 </r>
       <r>     7.8251    59.2746   508.7975 </r>
       <r>     8.0117    29.2331   517.1785 </r>
       <r>     8.1984    18.6206   521.2936 </r>
       <r>     8.3850    20.3332   524.7998 </r>
       <r>     8.5717    24.5600   528.9441 </r>
       <r>     8.7583    41.9723   534.5333 </r>
       <r>     8.9450    32.1297   542.1572 </r>
       <r>     9.1316    17.3452   546.5958 </r>
       <r>     9.3183    15.2704   549.7296 </r>
       <r>     9.5049    12.2348   552.2719 </r>
       <r>     9.6916     6.6104   554.8138 </r>
       <r>     9.8782     9.4415   556.2813 </r>
       <r>    10.0649    10.7969   558.5281 </r>
       <r>    10.2515     3.0573   559.9090 </r>
       <r>    10.4382     0.0000   560.0000 </r>
       <r>    10.6248     0.0000   560.0000 </r>
       <r>    10.8115     0.0000   560.0000 </r>
       <r>    10.9981     0.0000   560.0000 </r>
       <r>    11.1848     0.0000   560.0000 </r>
       <r>    11.3714     0.0000   560.0000 </r>
       <r>    11.5581     0.0000   560.0000 </r>
       <r>    11.7447     0.0000   560.0000 </r>
       <r>    11.9314     0.0000   560.0000 </r>
       <r>    12.1180     0.0000   560.0000 </r>
       <r>    12.3047     0.0000   560.0000 </r>
       <r>    12.4913     0.0000   560.0000 </r>
       <r>    12.6780     0.0000   560.0000 </r>
       <r>    12.8646     0.0000   560.0000 </r>
      </set>
     </set>
    </array>
   </total>
  </dos>
 </calculation>
 <structure name="finalpos" >
  <crystal>
   <varray name="basis" >
    <v>      11.17850000       0.00000000       0.00000000 </v>
    <v>       0.00000000       9.57460000       0.00000000 </v>
    <v>       0.00000000       0.00000000      11.18240000 </v>
   </varray>
   <i name="volume">   1196.84853820 </i>
   <varray name="rec_basis" >
    <v>       0.08945744       0.00000000       0.00000000 </v>
    <v>       0.00000000       0.10444301       0.00000000 </v>
    <v>       0.00000000       0.00000000       0.08942624 </v>
   </varray>
  </crystal>
  <varray name="positions" >
   <v>       0.37539000       0.00017000       0.43687000 </v>
   <v>       0.37461000       0.00017000       0.18687000 </v>
   <v>       0.12539000       0.99984000       0.93687000 </v>
   <v>       0.37539000       0.00017000       0.93687000 </v>
   <v>       0.12461000       0.99984000       0.18687000 </v>
   <v>       0.87539000       0.00017000       0.43687000 </v>
   <v>       0.62461000       0.99984000       0.18687000 </v>
   <v>       0.12461000       0.99984000       0.68687000 </v>
   <v>       0.87539000       0.00017000       0.93687000 </v>
   <v>       0.62461000       0.99984000       0.68687000 </v>
   <v>       0.00013000       0.29519000       0.06281000 </v>
   <v>       0.25013000       0.70481000       0.06281000 </v>
   <v>       0.24987000       0.29519000       0.31282000 </v>
   <v>       0.49987000       0.70481000       0.31282000 </v>
   <v>       0.50013000       0.29519000       0.06281000 </v>
   <v>       0.75013000       0.70481000       0.06281000 </v>
   <v>       0.74987000       0.29519000       0.31282000 </v>
   <v>       0.99987000       0.70481000       0.31282000 </v>
   <v>       0.00013000       0.29519000       0.56281000 </v>
   <v>       0.25013000       0.70481000       0.56281000 </v>
   <v>       0.24987000       0.29519000       0.81282000 </v>
   <v>       0.49987000       0.70481000       0.81282000 </v>
   <v>       0.50013000       0.29519000       0.56281000 </v>
   <v>       0.75013000       0.70481000       0.56281000 </v>
   <v>       0.74987000       0.29519000       0.81282000 </v>
   <v>       0.99987000       0.70481000       0.81282000 </v>
   <v>       0.25005000       0.32677000       0.06286000 </v>
   <v>       0.00005000       0.67323000       0.06286000 </v>
   <v>       0.49995000       0.32677000       0.31286000 </v>
   <v>       0.24995000       0.67323000       0.31286000 </v>
   <v>       0.75005000       0.32677000       0.06286000 </v>
   <v>       0.50005000       0.67323000       0.06286000 </v>
   <v>       0.99995000       0.32677000       0.31286000 </v>
   <v>       0.74995000       0.67323000       0.31286000 </v>
   <v>       0.25005000       0.32677000       0.56286000 </v>
   <v>       0.00005000       0.67323000       0.56286000 </v>
   <v>       0.49995000       0.32677000       0.81286000 </v>
   <v>       0.24995000       0.67323000       0.81286000 </v>
   <v>       0.75005000       0.32677000       0.56286000 </v>
   <v>       0.50005000       0.67323000       0.56286000 </v>
   <v>       0.99995000       0.32677000       0.81286000 </v>
   <v>       0.74995000       0.67323000       0.81286000 </v>
   <v>       0.49987000       0.07798000       0.06246000 </v>
   <v>       0.24987000       0.92202000       0.06246000 </v>
   <v>       0.25013000       0.07798000       0.31246000 </v>
   <v>       0.00013000       0.92202000       0.31246000 </v>
   <v>       0.99987000       0.07798000       0.06246000 </v>
   <v>       0.74987000       0.92202000       0.06246000 </v>
   <v>       0.75013000       0.07798000       0.31246000 </v>
   <v>       0.50013000       0.92202000       0.31246000 </v>
   <v>       0.49987000       0.07798000       0.56246000 </v>
   <v>       0.24987000       0.92202000       0.56246000 </v>
   <v>       0.25013000       0.07798000       0.81246000 </v>
   <v>       0.00013000       0.92202000       0.81246000 </v>
   <v>       0.99987000       0.07798000       0.56246000 </v>
   <v>       0.74987000       0.92202000       0.56246000 </v>
   <v>       0.75013000       0.07798000       0.81246000 </v>
   <v>       0.50013000       0.92202000       0.81246000 </v>
  </varray>
 </structure>
</modeling>
