<?xml version="1.0" encoding="ISO-8859-1"?>
<modeling>
 <generator>
  <i name="program" type="string">vasp </i>
  <i name="version" type="string">5.4.4.18Apr17-6-g9f103f2a35  </i>
  <i name="subversion" type="string">(build Jul 31 2017 11:33:29) complex            parallel </i>
  <i name="platform" type="string">LinuxIFC </i>
  <i name="date" type="string">2021 09 29 </i>
  <i name="time" type="string">04:25:18 </i>
 </generator>
 <incar>
  <i type="string" name="SYSTEM"> La2O2S</i>
  <i type="string" name="PREC">normal</i>
  <i type="int" name="NELMIN">     4</i>
  <i type="int" name="IBRION">     2</i>
  <i type="int" name="NFREE">    10</i>
  <i name="EDIFF">      0.00000100</i>
  <i name="EDIFFG">     -0.01000000</i>
  <i type="int" name="NSW">     1</i>
  <i type="int" name="ISIF">     2</i>
  <i name="ENCUT">    600.00000000</i>
  <i name="ENAUG">    900.00000000</i>
  <i type="int" name="ISMEAR">    -5</i>
  <i type="logical" name="LWAVE"> F  </i>
  <i type="logical" name="LCHARG"> F  </i>
  <v type="int" name="KPOINT_BSE">    -1     0     0     0</v>
 </incar>
 <structure name="primitive_cell" >
  <crystal>
   <varray name="basis" >
    <v>      11.17850000       0.00000000       0.00000000 </v>
    <v>       0.00000000       9.57460000       0.00000000 </v>
    <v>       0.00000000       0.00000000      11.18240000 </v>
   </varray>
   <i name="volume">   1196.84853820 </i>
   <varray name="rec_basis" >
    <v>       0.08945744       0.00000000       0.00000000 </v>
    <v>       0.00000000       0.10444301       0.00000000 </v>
    <v>       0.00000000       0.00000000       0.08942624 </v>
   </varray>
  </crystal>
  <varray name="positions" >
   <v>       0.37539000       0.00017000       0.43687000 </v>
   <v>      -0.49987000      -0.07798000       0.31246000 </v>
   <v>       0.25013000       0.07798000       0.31246000 </v>
   <v>       0.49987000       0.07798000      -0.43754000 </v>
   <v>       0.24987000      -0.07798000      -0.43754000 </v>
   <v>      -0.37461000      -0.00016000       0.43687000 </v>
   <v>       0.37461000       0.00017000       0.18687000 </v>
   <v>       0.37461000       0.00017000      -0.31313000 </v>
   <v>       0.49987000      -0.29519000       0.31282000 </v>
   <v>       0.24987000       0.29519000       0.31282000 </v>
   <v>      -0.49987000       0.29519000      -0.43719000 </v>
   <v>       0.25013000      -0.29519000      -0.43719000 </v>
   <v>       0.49995000       0.32677000       0.31286000 </v>
   <v>       0.24995000      -0.32677000       0.31286000 </v>
   <v>      -0.49995000      -0.32677000      -0.43714000 </v>
   <v>       0.25005000       0.32677000      -0.43714000 </v>
   <v>      -0.37539000      -0.00016000      -0.31313000 </v>
   <v>       0.12461000      -0.00016000       0.18687000 </v>
   <v>       0.12461000      -0.00016000      -0.31313000 </v>
   <v>       0.49987000       0.07798000       0.06246000 </v>
   <v>      -0.24987000       0.07798000       0.31246000 </v>
   <v>      -0.25013000      -0.07798000      -0.43754000 </v>
   <v>       0.24987000      -0.07798000       0.06246000 </v>
   <v>       0.00013000      -0.07798000       0.31246000 </v>
   <v>      -0.49987000      -0.07798000      -0.18754000 </v>
   <v>      -0.00013000       0.07798000      -0.43754000 </v>
   <v>       0.25013000       0.07798000      -0.18754000 </v>
   <v>      -0.49987000       0.29519000       0.06281000 </v>
   <v>      -0.25013000       0.29519000       0.31282000 </v>
   <v>       0.25013000      -0.29519000       0.06281000 </v>
   <v>      -0.24987000      -0.29519000      -0.43719000 </v>
   <v>      -0.00013000      -0.29519000       0.31282000 </v>
   <v>       0.00013000       0.29519000      -0.43719000 </v>
   <v>       0.49987000      -0.29519000      -0.18718000 </v>
   <v>       0.24987000       0.29519000      -0.18718000 </v>
   <v>      -0.49995000      -0.32677000       0.06286000 </v>
   <v>       0.25005000       0.32677000       0.06286000 </v>
   <v>      -0.25005000      -0.32677000       0.31286000 </v>
   <v>      -0.24995000       0.32677000      -0.43714000 </v>
   <v>      -0.00005000       0.32677000       0.31286000 </v>
   <v>       0.00005000      -0.32677000      -0.43714000 </v>
   <v>       0.49995000       0.32677000      -0.18714000 </v>
   <v>       0.24995000      -0.32677000      -0.18714000 </v>
   <v>      -0.12461000       0.00017000       0.43687000 </v>
   <v>       0.37539000       0.00017000      -0.06313000 </v>
   <v>      -0.25013000      -0.07798000       0.06246000 </v>
   <v>      -0.00013000       0.07798000       0.06246000 </v>
   <v>      -0.24987000       0.07798000      -0.18754000 </v>
   <v>       0.00013000      -0.07798000      -0.18754000 </v>
   <v>      -0.12539000       0.00017000      -0.31313000 </v>
   <v>      -0.12539000       0.00017000       0.18687000 </v>
   <v>       0.12539000      -0.00016000      -0.06313000 </v>
   <v>      -0.37461000      -0.00016000      -0.06313000 </v>
   <v>      -0.24987000      -0.29519000       0.06281000 </v>
   <v>       0.00013000       0.29519000       0.06281000 </v>
   <v>      -0.25013000       0.29519000      -0.18718000 </v>
   <v>      -0.00013000      -0.29519000      -0.18718000 </v>
   <v>      -0.24995000       0.32677000       0.06286000 </v>
   <v>       0.00005000      -0.32677000       0.06286000 </v>
   <v>      -0.25005000      -0.32677000      -0.18714000 </v>
   <v>      -0.00005000       0.32677000      -0.18714000 </v>
   <v>      -0.12461000       0.00017000      -0.06313000 </v>
  </varray>
 </structure>
 <varray name="primitive_index" >
  <v type="int" >        1 </v>
  <v type="int" >       54 </v>
  <v type="int" >       49 </v>
  <v type="int" >       55 </v>
  <v type="int" >       56 </v>
  <v type="int" >        4 </v>
  <v type="int" >        3 </v>
  <v type="int" >        8 </v>
  <v type="int" >       18 </v>
  <v type="int" >       17 </v>
  <v type="int" >       27 </v>
  <v type="int" >       24 </v>
  <v type="int" >       33 </v>
  <v type="int" >       34 </v>
  <v type="int" >       44 </v>
  <v type="int" >       39 </v>
  <v type="int" >       11 </v>
  <v type="int" >        2 </v>
  <v type="int" >       14 </v>
  <v type="int" >       47 </v>
  <v type="int" >       53 </v>
  <v type="int" >       60 </v>
  <v type="int" >       48 </v>
  <v type="int" >       50 </v>
  <v type="int" >       62 </v>
  <v type="int" >       59 </v>
  <v type="int" >       57 </v>
  <v type="int" >       19 </v>
  <v type="int" >       21 </v>
  <v type="int" >       16 </v>
  <v type="int" >       28 </v>
  <v type="int" >       22 </v>
  <v type="int" >       23 </v>
  <v type="int" >       26 </v>
  <v type="int" >       25 </v>
  <v type="int" >       36 </v>
  <v type="int" >       31 </v>
  <v type="int" >       38 </v>
  <v type="int" >       43 </v>
  <v type="int" >       37 </v>
  <v type="int" >       40 </v>
  <v type="int" >       41 </v>
  <v type="int" >       42 </v>
  <v type="int" >        5 </v>
  <v type="int" >        7 </v>
  <v type="int" >       52 </v>
  <v type="int" >       51 </v>
  <v type="int" >       61 </v>
  <v type="int" >       58 </v>
  <v type="int" >       12 </v>
  <v type="int" >       13 </v>
  <v type="int" >        6 </v>
  <v type="int" >        9 </v>
  <v type="int" >       20 </v>
  <v type="int" >       15 </v>
  <v type="int" >       29 </v>
  <v type="int" >       30 </v>
  <v type="int" >       35 </v>
  <v type="int" >       32 </v>
  <v type="int" >       46 </v>
  <v type="int" >       45 </v>
  <v type="int" >       10 </v>
 </varray>
 <kpoints>
  <generation param="Gamma">
   <v type="int" name="divisions">       2        2        2 </v>
   <v name="usershift">      0.00000000       0.00000000       0.00000000 </v>
   <v name="genvec1">      0.50000000       0.00000000       0.00000000 </v>
   <v name="genvec2">      0.00000000       0.50000000       0.00000000 </v>
   <v name="genvec3">      0.00000000       0.00000000       0.50000000 </v>
   <v name="shift">      0.00000000       0.00000000       0.00000000 </v>
  </generation>
  <varray name="kpointlist" >
   <v>       0.00000000       0.00000000       0.00000000 </v>
   <v>       0.50000000       0.00000000       0.00000000 </v>
   <v>       0.00000000       0.50000000       0.00000000 </v>
   <v>       0.50000000       0.50000000       0.00000000 </v>
   <v>       0.00000000       0.00000000       0.50000000 </v>
   <v>       0.50000000       0.00000000       0.50000000 </v>
   <v>       0.00000000       0.50000000       0.50000000 </v>
   <v>       0.50000000       0.50000000       0.50000000 </v>
  </varray>
  <varray name="weights" >
   <v>       0.12500000 </v>
   <v>       0.12500000 </v>
   <v>       0.12500000 </v>
   <v>       0.12500000 </v>
   <v>       0.12500000 </v>
   <v>       0.12500000 </v>
   <v>       0.12500000 </v>
   <v>       0.12500000 </v>
  </varray>
  <varray name="tetrahedronlist"  type="int" >
   <v type="int" >        2        1        2        4        5 </v>
   <v type="int" >        2        1        3        4        5 </v>
   <v type="int" >        2        3        4        5        7 </v>
   <v type="int" >        2        2        4        5        6 </v>
   <v type="int" >        2        4        5        6        8 </v>
   <v type="int" >        2        4        5        7        8 </v>
   <v type="int" >        2        1        2        3        6 </v>
   <v type="int" >        2        2        3        4        6 </v>
   <v type="int" >        2        3        4        6        8 </v>
   <v type="int" >        2        1        3        5        6 </v>
   <v type="int" >        2        3        5        6        7 </v>
   <v type="int" >        2        3        6        7        8 </v>
   <v type="int" >        2        2        3        4        7 </v>
   <v type="int" >        2        1        2        3        7 </v>
   <v type="int" >        2        1        2        5        7 </v>
   <v type="int" >        2        2        4        7        8 </v>
   <v type="int" >        2        2        6        7        8 </v>
   <v type="int" >        2        2        5        6        7 </v>
   <v type="int" >        2        1        3        4        8 </v>
   <v type="int" >        2        1        2        4        8 </v>
   <v type="int" >        2        1        2        6        8 </v>
   <v type="int" >        2        1        3        7        8 </v>
   <v type="int" >        2        1        5        7        8 </v>
   <v type="int" >        2        1        5        6        8 </v>
  </varray>
  <i name="volumeweight">      0.02083333 </i>
 </kpoints>
 <parameters>
  <separator name="general" >
   <i type="string" name="SYSTEM">La2O2S</i>
   <i type="logical" name="LCOMPAT"> F  </i>
  </separator>
  <separator name="electronic" >
   <i type="string" name="PREC">normal</i>
   <i name="ENMAX">    600.00000000</i>
   <i name="ENAUG">    900.00000000</i>
   <i name="EDIFF">      0.00000100</i>
   <i type="int" name="IALGO">    38</i>
   <i type="int" name="IWAVPR">    11</i>
   <i type="int" name="NBANDS">   308</i>
   <i name="NELECT">    472.00000000</i>
   <i type="int" name="TURBO">     0</i>
   <i type="int" name="IRESTART">     0</i>
   <i type="int" name="NREBOOT">     0</i>
   <i type="int" name="NMIN">     0</i>
   <i name="EREF">      0.00000000</i>
   <separator name="electronic smearing" >
    <i type="int" name="ISMEAR">    -5</i>
    <i name="SIGMA">      0.20000000</i>
    <i name="KSPACING">      0.50000000</i>
    <i type="logical" name="KGAMMA"> T  </i>
   </separator>
   <separator name="electronic projectors" >
    <i type="logical" name="LREAL"> F  </i>
    <v name="ROPT">      0.00000000      0.00000000      0.00000000      0.00000000      0.00000000</v>
    <i type="int" name="LMAXPAW">  -100</i>
    <i type="int" name="LMAXMIX">     2</i>
    <i type="logical" name="NLSPLINE"> F  </i>
   </separator>
   <separator name="electronic startup" >
    <i type="int" name="ISTART">     0</i>
    <i type="int" name="ICHARG">     2</i>
    <i type="int" name="INIWAV">     1</i>
   </separator>
   <separator name="electronic spin" >
    <i type="int" name="ISPIN">     1</i>
    <i type="logical" name="LNONCOLLINEAR"> F  </i>
    <v name="MAGMOM">      1.00000000      1.00000000      1.00000000      1.00000000      1.00000000      1.00000000      1.00000000      1.00000000      1.00000000      1.00000000      1.00000000      1.00000000      1.00000000      1.00000000      1.00000000      1.00000000      1.00000000      1.00000000      1.00000000      1.00000000
      1.00000000      1.00000000      1.00000000      1.00000000      1.00000000      1.00000000      1.00000000      1.00000000      1.00000000      1.00000000      1.00000000      1.00000000      1.00000000      1.00000000      1.00000000      1.00000000      1.00000000      1.00000000      1.00000000      1.00000000
      1.00000000      1.00000000      1.00000000      1.00000000      1.00000000      1.00000000      1.00000000      1.00000000      1.00000000      1.00000000      1.00000000      1.00000000      1.00000000      1.00000000      1.00000000      1.00000000      1.00000000      1.00000000      1.00000000      1.00000000
      1.00000000      1.00000000</v>
    <i name="NUPDOWN">     -1.00000000</i>
    <i type="logical" name="LSORBIT"> F  </i>
    <v name="SAXIS">      0.00000000      0.00000000      1.00000000</v>
    <i type="logical" name="LSPIRAL"> F  </i>
    <v name="QSPIRAL">      0.00000000      0.00000000      0.00000000</v>
    <i type="logical" name="LZEROZ"> F  </i>
   </separator>
   <separator name="electronic exchange-correlation" >
    <i type="logical" name="LASPH"> F  </i>
    <i type="logical" name="LMETAGGA"> F  </i>
   </separator>
   <separator name="electronic convergence" >
    <i type="int" name="NELM">    60</i>
    <i type="int" name="NELMDL">    -5</i>
    <i type="int" name="NELMIN">     4</i>
    <i name="ENINI">    600.00000000</i>
    <separator name="electronic convergence detail" >
     <i type="logical" name="LDIAG"> T  </i>
     <i type="logical" name="LSUBROT"> F  </i>
     <i name="WEIMIN">      0.00100000</i>
     <i name="EBREAK">      0.00000000</i>
     <i name="DEPER">      0.30000000</i>
     <i type="int" name="NRMM">     4</i>
     <i name="TIME">      0.40000000</i>
    </separator>
   </separator>
   <separator name="electronic mixer" >
    <i name="AMIX">      0.40000000</i>
    <i name="BMIX">      1.00000000</i>
    <i name="AMIN">      0.10000000</i>
    <i name="AMIX_MAG">      1.60000000</i>
    <i name="BMIX_MAG">      1.00000000</i>
    <separator name="electronic mixer details" >
     <i type="int" name="IMIX">     4</i>
     <i type="logical" name="MIXFIRST"> F  </i>
     <i type="int" name="MAXMIX">   -45</i>
     <i name="WC">    100.00000000</i>
     <i type="int" name="INIMIX">     1</i>
     <i type="int" name="MIXPRE">     1</i>
     <i type="int" name="MREMOVE">     5</i>
    </separator>
   </separator>
   <separator name="electronic dipolcorrection" >
    <i type="logical" name="LDIPOL"> F  </i>
    <i type="logical" name="LMONO"> F  </i>
    <i type="int" name="IDIPOL">     0</i>
    <i name="EPSILON">      1.00000000</i>
    <v name="DIPOL">   -100.00000000   -100.00000000   -100.00000000</v>
    <i name="EFIELD">      0.00000000</i>
   </separator>
  </separator>
  <separator name="grids" >
   <i type="int" name="NGX">    70</i>
   <i type="int" name="NGY">    60</i>
   <i type="int" name="NGZ">    70</i>
   <i type="int" name="NGXF">   140</i>
   <i type="int" name="NGYF">   120</i>
   <i type="int" name="NGZF">   140</i>
   <i type="logical" name="ADDGRID"> F  </i>
  </separator>
  <separator name="ionic" >
   <i type="int" name="NSW">     1</i>
   <i type="int" name="IBRION">     2</i>
   <i type="int" name="MDALGO">     0</i>
   <i type="int" name="ISIF">     2</i>
   <i name="PSTRESS">      0.00000000</i>
   <i name="EDIFFG">     -0.01000000</i>
   <i type="int" name="NFREE">    10</i>
   <i name="POTIM">      0.50000000</i>
   <i name="SMASS">     -3.00000000</i>
   <i name="SCALEE">      1.00000000</i>
  </separator>
  <separator name="ionic md" >
   <i name="TEBEG">      0.00010000</i>
   <i name="TEEND">      0.00010000</i>
   <i type="int" name="NBLOCK">     1</i>
   <i type="int" name="KBLOCK">     1</i>
   <i type="int" name="NPACO">   256</i>
   <i name="APACO">     16.00000000</i>
  </separator>
  <separator name="symmetry" >
   <i type="int" name="ISYM">     2</i>
   <i name="SYMPREC">      0.00001000</i>
  </separator>
  <separator name="dos" >
   <i type="int" name="LORBIT">     0</i>
   <v name="RWIGS">     -1.00000000     -1.00000000     -1.00000000     -1.00000000     -1.00000000</v>
   <i type="int" name="NEDOS">   301</i>
   <i name="EMIN">     10.00000000</i>
   <i name="EMAX">    -10.00000000</i>
   <i name="EFERMI">      0.00000000</i>
  </separator>
  <separator name="writing" >
   <i type="int" name="NWRITE">     2</i>
   <i type="logical" name="LWAVE"> F  </i>
   <i type="logical" name="LDOWNSAMPLE"> F  </i>
   <i type="logical" name="LCHARG"> F  </i>
   <i type="logical" name="LPARD"> F  </i>
   <i type="logical" name="LVTOT"> F  </i>
   <i type="logical" name="LVHAR"> F  </i>
   <i type="logical" name="LELF"> F  </i>
   <i type="logical" name="LOPTICS"> F  </i>
   <v name="STM">      0.00000000      0.00000000      0.00000000      0.00000000      0.00000000      0.00000000      0.00000000</v>
  </separator>
  <separator name="performance" >
   <i type="int" name="NPAR">    28</i>
   <i type="int" name="NSIM">     4</i>
   <i type="int" name="NBLK">    -1</i>
   <i type="logical" name="LPLANE"> T  </i>
   <i type="logical" name="LSCALAPACK"> T  </i>
   <i type="logical" name="LSCAAWARE"> F  </i>
   <i type="logical" name="LSCALU"> F  </i>
   <i type="logical" name="LASYNC"> F  </i>
   <i type="logical" name="LORBITALREAL"> F  </i>
  </separator>
  <separator name="miscellaneous" >
   <i type="int" name="IDIOT">     3</i>
   <i type="int" name="ISPECIAL">     0</i>
   <i type="logical" name="LMUSIC"> F  </i>
   <v name="POMASS">      7.01000000     24.30500000    208.98000000     32.06600000     16.00000000</v>
   <v name="DARWINR">      0.00000000      0.00000000      0.00000000      0.00000000      0.00000000</v>
   <v name="DARWINV">      1.00000000      1.00000000      1.00000000      1.00000000      1.00000000</v>
   <i type="logical" name="LCORR"> T  </i>
  </separator>
  <i type="logical" name="GGA_COMPAT"> T  </i>
  <i type="logical" name="LBERRY"> F  </i>
  <i type="int" name="ICORELEVEL">     0</i>
  <i type="logical" name="LDAU"> F  </i>
  <i type="int" name="I_CONSTRAINED_M">     0</i>
  <separator name="electronic exchange-correlation" >
   <i type="string" name="GGA">--</i>
   <i type="int" name="VOSKOWN">     0</i>
   <i type="logical" name="LHFCALC"> F  </i>
   <i type="string" name="PRECFOCK"></i>
   <i type="logical" name="LSYMGRAD"> F  </i>
   <i type="logical" name="LHFONE"> F  </i>
   <i type="logical" name="LRHFCALC"> F  </i>
   <i type="logical" name="LTHOMAS"> F  </i>
   <i type="logical" name="LMODELHF"> F  </i>
   <i name="ENCUT4O">     -1.00000000</i>
   <i type="int" name="EXXOEP">     0</i>
   <i type="int" name="FOURORBIT">     0</i>
   <i name="AEXX">      0.00000000</i>
   <i name="HFALPHA">      0.00000000</i>
   <i name="MCALPHA">      0.00000000</i>
   <i name="ALDAX">      1.00000000</i>
   <i name="AGGAX">      1.00000000</i>
   <i name="ALDAC">      1.00000000</i>
   <i name="AGGAC">      1.00000000</i>
   <i type="int" name="NKREDX">     1</i>
   <i type="int" name="NKREDY">     1</i>
   <i type="int" name="NKREDZ">     1</i>
   <i type="logical" name="SHIFTRED"> F  </i>
   <i type="logical" name="ODDONLY"> F  </i>
   <i type="logical" name="EVENONLY"> F  </i>
   <i type="int" name="LMAXFOCK">     0</i>
   <i type="int" name="NMAXFOCKAE">     0</i>
   <i type="logical" name="LFOCKAEDFT"> F  </i>
   <i name="HFSCREEN">      0.00000000</i>
   <i name="HFSCREENC">      0.00000000</i>
   <i type="int" name="NBANDSGWLOW">     0</i>
  </separator>
  <separator name="vdW DFT" >
   <i type="logical" name="LUSE_VDW"> F  </i>
   <i name="Zab_VDW">     -0.84910000</i>
   <i name="PARAM1">      0.12340000</i>
   <i name="PARAM2">      1.00000000</i>
   <i name="PARAM3">      0.00000000</i>
  </separator>
  <separator name="model GW" >
   <i type="int" name="MODEL_GW">     0</i>
   <i name="MODEL_EPS0">     11.58240521</i>
   <i name="MODEL_ALPHA">      1.00000000</i>
  </separator>
  <separator name="linear response parameters" >
   <i type="logical" name="LEPSILON"> F  </i>
   <i type="logical" name="LRPA"> F  </i>
   <i type="logical" name="LNABLA"> F  </i>
   <i type="logical" name="LVEL"> F  </i>
   <i type="int" name="KINTER">     0</i>
   <i name="CSHIFT">      0.10000000</i>
   <i name="OMEGAMAX">     -1.00000000</i>
   <i name="DEG_THRESHOLD">      0.00200000</i>
   <i name="RTIME">     -0.10000000</i>
   <i name="WPLASMAI">      0.00000000</i>
   <v name="DFIELD">      0.00000000      0.00000000      0.00000000</v>
   <v name="WPLASMA">      0.00000000      0.00000000      0.00000000      0.00000000      0.00000000      0.00000000      0.00000000      0.00000000      0.00000000</v>
  </separator>
  <separator name="orbital magnetization" >
   <i type="logical" name="NUCIND"> F  </i>
   <v name="MAGPOS">      0.00000000      0.00000000      0.00000000</v>
   <i type="logical" name="LNICSALL"> T  </i>
   <i type="logical" name="ORBITALMAG"> F  </i>
   <i type="logical" name="LMAGBLOCH"> F  </i>
   <i type="logical" name="LCHIMAG"> F  </i>
   <i type="logical" name="LGAUGE"> T  </i>
   <i type="int" name="MAGATOM">     0</i>
   <v name="MAGDIPOL">      0.00000000      0.00000000      0.00000000</v>
   <v name="AVECCONST">      0.00000000      0.00000000      0.00000000</v>
  </separator>
  <separator name="response functions" >
   <i type="logical" name="LADDER"> F  </i>
   <i type="logical" name="LRPAFORCE"> F  </i>
   <i type="logical" name="LFXC"> F  </i>
   <i type="logical" name="LHARTREE"> T  </i>
   <i type="int" name="IBSE">     0</i>
   <v type="int" name="KPOINT">    -1     0     0     0</v>
   <i type="logical" name="LTCTE"> F  </i>
   <i type="logical" name="LTETE"> F  </i>
   <i type="logical" name="LTRIPLET"> F  </i>
   <i type="logical" name="LFXCEPS"> F  </i>
   <i type="logical" name="LFXHEG"> F  </i>
   <i type="int" name="NATURALO">     2</i>
   <i type="logical" name="L2ORDER"> F  </i>
   <i type="logical" name="LMP2LT"> F  </i>
   <i type="logical" name="LUSEW"> F  </i>
   <i name="ENCUTGW">     -2.00000000</i>
   <i name="ENCUTGWSOFT">     -2.00000000</i>
   <i name="ENCUTLF">     -1.00000000</i>
   <i type="int" name="LMAXMP2">    -1</i>
   <i name="SCISSOR">      0.00000000</i>
   <i type="int" name="NOMEGA">     0</i>
   <i type="int" name="NOMEGAR">     0</i>
   <i type="int" name="NBANDSGW">    -1</i>
   <i type="int" name="NBANDSO">    -1</i>
   <i type="int" name="NBANDSV">    -1</i>
   <i type="int" name="NELM">     1</i>
   <i type="int" name="NELMHF">     1</i>
   <i type="int" name="DIM">     3</i>
   <i type="int" name="ANTIRES">     0</i>
   <i name="OMEGAMAX">    -30.00000000</i>
   <i name="OMEGAMIN">    -30.00000000</i>
   <i name="OMEGATL">   -200.00000000</i>
   <i type="int" name="OMEGAGRID">   140</i>
   <i name="CSHIFT">     -0.10000000</i>
   <i type="logical" name="SELFENERGY"> F  </i>
   <i type="logical" name="LSPECTRAL"> F  </i>
   <i type="logical" name="LSPECTRALGW"> F  </i>
   <i type="logical" name="LSINGLES"> F  </i>
   <i type="logical" name="LFERMIGW"> F  </i>
   <i type="logical" name="ODDONLYGW"> F  </i>
   <i type="logical" name="EVENONLYGW"> F  </i>
   <i type="int" name="NKREDLFX">     1</i>
   <i type="int" name="NKREDLFY">     1</i>
   <i type="int" name="NKREDLFZ">     1</i>
   <i type="int" name="MAXMEM">  2800</i>
   <i type="int" name="TELESCOPE">     0</i>
   <i type="int" name="TAUPAR">     1</i>
   <i type="int" name="OMEGAPAR">    -1</i>
   <i name="LAMBDA">      1.00000000</i>
  </separator>
  <separator name="External order field" >
   <i name="OFIELD_KAPPA">      0.00000000</i>
   <v name="OFIELD_K">      0.00000000      0.00000000      0.00000000</v>
   <i name="OFIELD_Q6_NEAR">      0.00000000</i>
   <i name="OFIELD_Q6_FAR">      0.00000000</i>
   <i name="OFIELD_A">      0.00000000</i>
  </separator>
 </parameters>
 <atominfo>
  <atoms>      62 </atoms>
  <types>       5 </types>
  <array name="atoms" >
   <dimension dim="1">ion</dimension>
   <field type="string">element</field>
   <field type="int">atomtype</field>
   <set>
    <rc><c>Li</c><c>   1</c></rc>
    <rc><c>Li</c><c>   1</c></rc>
    <rc><c>Li</c><c>   1</c></rc>
    <rc><c>Li</c><c>   1</c></rc>
    <rc><c>Li</c><c>   1</c></rc>
    <rc><c>Li</c><c>   1</c></rc>
    <rc><c>Li</c><c>   1</c></rc>
    <rc><c>Li</c><c>   1</c></rc>
    <rc><c>Li</c><c>   1</c></rc>
    <rc><c>Li</c><c>   1</c></rc>
    <rc><c>Li</c><c>   1</c></rc>
    <rc><c>Li</c><c>   1</c></rc>
    <rc><c>Mg</c><c>   2</c></rc>
    <rc><c>Mg</c><c>   2</c></rc>
    <rc><c>Bi</c><c>   3</c></rc>
    <rc><c>Bi</c><c>   3</c></rc>
    <rc><c>Bi</c><c>   3</c></rc>
    <rc><c>Bi</c><c>   3</c></rc>
    <rc><c>Bi</c><c>   3</c></rc>
    <rc><c>Bi</c><c>   3</c></rc>
    <rc><c>Bi</c><c>   3</c></rc>
    <rc><c>Bi</c><c>   3</c></rc>
    <rc><c>Bi</c><c>   3</c></rc>
    <rc><c>Bi</c><c>   3</c></rc>
    <rc><c>Bi</c><c>   3</c></rc>
    <rc><c>Bi</c><c>   3</c></rc>
    <rc><c>Bi</c><c>   3</c></rc>
    <rc><c>Bi</c><c>   3</c></rc>
    <rc><c>Bi</c><c>   3</c></rc>
    <rc><c>Bi</c><c>   3</c></rc>
    <rc><c>S </c><c>   4</c></rc>
    <rc><c>S </c><c>   4</c></rc>
    <rc><c>S </c><c>   4</c></rc>
    <rc><c>S </c><c>   4</c></rc>
    <rc><c>S </c><c>   4</c></rc>
    <rc><c>S </c><c>   4</c></rc>
    <rc><c>S </c><c>   4</c></rc>
    <rc><c>S </c><c>   4</c></rc>
    <rc><c>S </c><c>   4</c></rc>
    <rc><c>S </c><c>   4</c></rc>
    <rc><c>S </c><c>   4</c></rc>
    <rc><c>S </c><c>   4</c></rc>
    <rc><c>S </c><c>   4</c></rc>
    <rc><c>S </c><c>   4</c></rc>
    <rc><c>S </c><c>   4</c></rc>
    <rc><c>S </c><c>   4</c></rc>
    <rc><c>O </c><c>   5</c></rc>
    <rc><c>O </c><c>   5</c></rc>
    <rc><c>O </c><c>   5</c></rc>
    <rc><c>O </c><c>   5</c></rc>
    <rc><c>O </c><c>   5</c></rc>
    <rc><c>O </c><c>   5</c></rc>
    <rc><c>O </c><c>   5</c></rc>
    <rc><c>O </c><c>   5</c></rc>
    <rc><c>O </c><c>   5</c></rc>
    <rc><c>O </c><c>   5</c></rc>
    <rc><c>O </c><c>   5</c></rc>
    <rc><c>O </c><c>   5</c></rc>
    <rc><c>O </c><c>   5</c></rc>
    <rc><c>O </c><c>   5</c></rc>
    <rc><c>O </c><c>   5</c></rc>
    <rc><c>O </c><c>   5</c></rc>
   </set>
  </array>
  <array name="atomtypes" >
   <dimension dim="1">type</dimension>
   <field type="int">atomspertype</field>
   <field type="string">element</field>
   <field>mass</field>
   <field>valence</field>
   <field type="string">pseudopotential</field>
   <set>
    <rc><c>  12</c><c>Li</c><c>      7.01000000</c><c>      3.00000000</c><c>  PAW_PBE Li_sv 10Sep2004               </c></rc>
    <rc><c>   2</c><c>Mg</c><c>     24.30500000</c><c>      2.00000000</c><c>  PAW_PBE Mg 13Apr2007                  </c></rc>
    <rc><c>  16</c><c>Bi</c><c>    208.98000000</c><c>     15.00000000</c><c>  PAW_PBE Bi_d 06Sep2000                </c></rc>
    <rc><c>  16</c><c>S </c><c>     32.06600000</c><c>      6.00000000</c><c>  PAW_PBE S 06Sep2000                   </c></rc>
    <rc><c>  16</c><c>O </c><c>     16.00000000</c><c>      6.00000000</c><c>  PAW_PBE O 08Apr2002                   </c></rc>
   </set>
  </array>
 </atominfo>
 <structure name="initialpos" >
  <crystal>
   <varray name="basis" >
    <v>      11.17850000       0.00000000       0.00000000 </v>
    <v>       0.00000000       9.57460000       0.00000000 </v>
    <v>       0.00000000       0.00000000      11.18240000 </v>
   </varray>
   <i name="volume">   1196.84853820 </i>
   <varray name="rec_basis" >
    <v>       0.08945744       0.00000000       0.00000000 </v>
    <v>       0.00000000       0.10444301       0.00000000 </v>
    <v>       0.00000000       0.00000000       0.08942624 </v>
   </varray>
  </crystal>
  <varray name="positions" >
   <v>       0.37539000       0.00017000       0.43687000 </v>
   <v>       0.12461000       0.99984000       0.18687000 </v>
   <v>       0.37461000       0.00017000       0.18687000 </v>
   <v>       0.62539000       0.99984000       0.43687000 </v>
   <v>       0.87539000       0.00017000       0.43687000 </v>
   <v>       0.12539000       0.99984000       0.93687000 </v>
   <v>       0.37539000       0.00017000       0.93687000 </v>
   <v>       0.37461000       0.00017000       0.68687000 </v>
   <v>       0.62539000       0.99984000       0.93687000 </v>
   <v>       0.87539000       0.00017000       0.93687000 </v>
   <v>       0.62461000       0.99984000       0.68687000 </v>
   <v>       0.87461000       0.00017000       0.68687000 </v>
   <v>       0.87461000       0.00017000       0.18687000 </v>
   <v>       0.12461000       0.99984000       0.68687000 </v>
   <v>       0.00013000       0.29519000       0.06281000 </v>
   <v>       0.25013000       0.70481000       0.06281000 </v>
   <v>       0.24987000       0.29519000       0.31282000 </v>
   <v>       0.49987000       0.70481000       0.31282000 </v>
   <v>       0.50013000       0.29519000       0.06281000 </v>
   <v>       0.75013000       0.70481000       0.06281000 </v>
   <v>       0.74987000       0.29519000       0.31282000 </v>
   <v>       0.99987000       0.70481000       0.31282000 </v>
   <v>       0.00013000       0.29519000       0.56281000 </v>
   <v>       0.25013000       0.70481000       0.56281000 </v>
   <v>       0.24987000       0.29519000       0.81282000 </v>
   <v>       0.49987000       0.70481000       0.81282000 </v>
   <v>       0.50013000       0.29519000       0.56281000 </v>
   <v>       0.75013000       0.70481000       0.56281000 </v>
   <v>       0.74987000       0.29519000       0.81282000 </v>
   <v>       0.99987000       0.70481000       0.81282000 </v>
   <v>       0.25005000       0.32677000       0.06286000 </v>
   <v>       0.00005000       0.67323000       0.06286000 </v>
   <v>       0.49995000       0.32677000       0.31286000 </v>
   <v>       0.24995000       0.67323000       0.31286000 </v>
   <v>       0.75005000       0.32677000       0.06286000 </v>
   <v>       0.50005000       0.67323000       0.06286000 </v>
   <v>       0.99995000       0.32677000       0.31286000 </v>
   <v>       0.74995000       0.67323000       0.31286000 </v>
   <v>       0.25005000       0.32677000       0.56286000 </v>
   <v>       0.00005000       0.67323000       0.56286000 </v>
   <v>       0.49995000       0.32677000       0.81286000 </v>
   <v>       0.24995000       0.67323000       0.81286000 </v>
   <v>       0.75005000       0.32677000       0.56286000 </v>
   <v>       0.50005000       0.67323000       0.56286000 </v>
   <v>       0.99995000       0.32677000       0.81286000 </v>
   <v>       0.74995000       0.67323000       0.81286000 </v>
   <v>       0.49987000       0.07798000       0.06246000 </v>
   <v>       0.24987000       0.92202000       0.06246000 </v>
   <v>       0.25013000       0.07798000       0.31246000 </v>
   <v>       0.00013000       0.92202000       0.31246000 </v>
   <v>       0.99987000       0.07798000       0.06246000 </v>
   <v>       0.74987000       0.92202000       0.06246000 </v>
   <v>       0.75013000       0.07798000       0.31246000 </v>
   <v>       0.50013000       0.92202000       0.31246000 </v>
   <v>       0.49987000       0.07798000       0.56246000 </v>
   <v>       0.24987000       0.92202000       0.56246000 </v>
   <v>       0.25013000       0.07798000       0.81246000 </v>
   <v>       0.00013000       0.92202000       0.81246000 </v>
   <v>       0.99987000       0.07798000       0.56246000 </v>
   <v>       0.74987000       0.92202000       0.56246000 </v>
   <v>       0.75013000       0.07798000       0.81246000 </v>
   <v>       0.50013000       0.92202000       0.81246000 </v>
  </varray>
 </structure>
 <calculation>
  <scstep>
   <time name="dav">   65.63   65.67</time>
   <time name="total">   65.72   65.76</time>
   <energy>
    <i name="alphaZ">   1079.87189334 </i>
    <i name="ewald"> -31112.89647072 </i>
    <i name="hartreedc"> -12712.14866022 </i>
    <i name="XCdc">   1468.88643897 </i>
    <i name="pawpsdc">  36917.91861236 </i>
    <i name="pawaedc"> -36503.41947684 </i>
    <i name="eentropy">      0.00000000 </i>
    <i name="bandstr">   1590.88987320 </i>
    <i name="atom">  45173.57650906 </i>
    <i name="e_fr_energy">   5902.67871916 </i>
    <i name="e_wo_entrp">   5902.67871916 </i>
    <i name="e_0_energy">   5902.67871916 </i>
   </energy>
  </scstep>
  <scstep>
   <time name="dav">   65.82   65.84</time>
   <time name="total">   65.84   65.85</time>
   <energy>
    <i name="e_fr_energy">    755.67325303 </i>
    <i name="e_wo_entrp">    755.67325303 </i>
    <i name="e_0_energy">    755.67325303 </i>
   </energy>
  </scstep>
  <scstep>
   <time name="dav">   71.64   71.66</time>
   <time name="total">   71.65   71.67</time>
   <energy>
    <i name="e_fr_energy">   -242.86134517 </i>
    <i name="e_wo_entrp">   -242.86134517 </i>
    <i name="e_0_energy">   -242.86134517 </i>
   </energy>
  </scstep>
  <scstep>
   <time name="dav">   81.98   82.01</time>
   <time name="total">   81.98   82.01</time>
   <energy>
    <i name="e_fr_energy">   -352.75105599 </i>
    <i name="e_wo_entrp">   -352.75105599 </i>
    <i name="e_0_energy">   -352.75105599 </i>
   </energy>
  </scstep>
  <scstep>
   <time name="dav">  104.89  104.92</time>
   <time name="total">  105.62  105.65</time>
   <energy>
    <i name="e_fr_energy">   -361.10116792 </i>
    <i name="e_wo_entrp">   -361.10116792 </i>
    <i name="e_0_energy">   -361.10116792 </i>
   </energy>
  </scstep>
  <scstep>
   <time name="dav">   92.48   92.61</time>
   <time name="total">   93.28   93.42</time>
   <energy>
    <i name="e_fr_energy">   -301.20055161 </i>
    <i name="e_wo_entrp">   -301.20055161 </i>
    <i name="e_0_energy">   -301.20055161 </i>
   </energy>
  </scstep>
  <scstep>
   <time name="dav">   73.21   73.37</time>
   <time name="total">   74.01   74.17</time>
   <energy>
    <i name="e_fr_energy">   -303.40467241 </i>
    <i name="e_wo_entrp">   -303.40467241 </i>
    <i name="e_0_energy">   -303.40467241 </i>
   </energy>
  </scstep>
  <scstep>
   <time name="dav">   83.99   84.02</time>
   <time name="total">   84.79   84.83</time>
   <energy>
    <i name="e_fr_energy">   -302.02404278 </i>
    <i name="e_wo_entrp">   -302.02404278 </i>
    <i name="e_0_energy">   -302.02404278 </i>
   </energy>
  </scstep>
  <scstep>
   <time name="dav">   91.40   91.51</time>
   <time name="total">   92.20   92.32</time>
   <energy>
    <i name="e_fr_energy">   -301.41529899 </i>
    <i name="e_wo_entrp">   -301.41529899 </i>
    <i name="e_0_energy">   -301.41529899 </i>
   </energy>
  </scstep>
  <scstep>
   <time name="dav">   79.63   79.85</time>
   <time name="total">   80.43   80.65</time>
   <energy>
    <i name="e_fr_energy">   -301.37974984 </i>
    <i name="e_wo_entrp">   -301.37974984 </i>
    <i name="e_0_energy">   -301.37974984 </i>
   </energy>
  </scstep>
  <scstep>
   <time name="dav">   82.96   83.15</time>
   <time name="total">   83.78   83.96</time>
   <energy>
    <i name="e_fr_energy">   -301.39310463 </i>
    <i name="e_wo_entrp">   -301.39310463 </i>
    <i name="e_0_energy">   -301.39310463 </i>
   </energy>
  </scstep>
  <scstep>
   <time name="dav">   83.88   83.94</time>
   <time name="total">   84.69   84.76</time>
   <energy>
    <i name="e_fr_energy">   -301.39778072 </i>
    <i name="e_wo_entrp">   -301.39778072 </i>
    <i name="e_0_energy">   -301.39778072 </i>
   </energy>
  </scstep>
  <scstep>
   <time name="dav">   84.24   84.41</time>
   <time name="total">   85.04   85.21</time>
   <energy>
    <i name="e_fr_energy">   -301.39880215 </i>
    <i name="e_wo_entrp">   -301.39880215 </i>
    <i name="e_0_energy">   -301.39880215 </i>
   </energy>
  </scstep>
  <scstep>
   <time name="dav">   78.61   79.03</time>
   <time name="total">   79.41   79.84</time>
   <energy>
    <i name="e_fr_energy">   -301.39904689 </i>
    <i name="e_wo_entrp">   -301.39904689 </i>
    <i name="e_0_energy">   -301.39904689 </i>
   </energy>
  </scstep>
  <scstep>
   <time name="dav">   92.91   93.24</time>
   <time name="total">   93.71   94.04</time>
   <energy>
    <i name="e_fr_energy">   -301.39907535 </i>
    <i name="e_wo_entrp">   -301.39907535 </i>
    <i name="e_0_energy">   -301.39907535 </i>
   </energy>
  </scstep>
  <scstep>
   <time name="dav">   69.16   69.45</time>
   <time name="total">   69.96   70.25</time>
   <energy>
    <i name="e_fr_energy">   -301.39909233 </i>
    <i name="e_wo_entrp">   -301.39909233 </i>
    <i name="e_0_energy">   -301.39909233 </i>
   </energy>
  </scstep>
  <scstep>
   <time name="dav">   79.11   79.55</time>
   <time name="total">   79.91   80.35</time>
   <energy>
    <i name="e_fr_energy">   -301.39909415 </i>
    <i name="e_wo_entrp">   -301.39909415 </i>
    <i name="e_0_energy">   -301.39909415 </i>
   </energy>
  </scstep>
  <scstep>
   <time name="dav">   58.49   58.82</time>
   <time name="total">   58.56   58.90</time>
   <energy>
    <i name="alphaZ">   1079.87189334 </i>
    <i name="ewald"> -31112.89647072 </i>
    <i name="hartreedc"> -12947.39950413 </i>
    <i name="XCdc">   1491.82671947 </i>
    <i name="pawpsdc">  43945.36647773 </i>
    <i name="pawaedc"> -43506.34455730 </i>
    <i name="eentropy">      0.00000000 </i>
    <i name="bandstr">  -4425.40016210 </i>
    <i name="atom">  45173.57650906 </i>
    <i name="e_fr_energy">   -301.39909464 </i>
    <i name="e_wo_entrp">   -301.39909464 </i>
    <i name="e_0_energy">   -301.39909464 </i>
   </energy>
  </scstep>
  <structure>
   <crystal>
    <varray name="basis" >
     <v>      11.17850000       0.00000000       0.00000000 </v>
     <v>       0.00000000       9.57460000       0.00000000 </v>
     <v>       0.00000000       0.00000000      11.18240000 </v>
    </varray>
    <i name="volume">   1196.84853820 </i>
    <varray name="rec_basis" >
     <v>       0.08945744       0.00000000       0.00000000 </v>
     <v>       0.00000000       0.10444301       0.00000000 </v>
     <v>       0.00000000       0.00000000       0.08942624 </v>
    </varray>
   </crystal>
   <varray name="positions" >
    <v>       0.37539000       0.00017000       0.43687000 </v>
    <v>       0.12461000       0.99984000       0.18687000 </v>
    <v>       0.37461000       0.00017000       0.18687000 </v>
    <v>       0.62539000       0.99984000       0.43687000 </v>
    <v>       0.87539000       0.00017000       0.43687000 </v>
    <v>       0.12539000       0.99984000       0.93687000 </v>
    <v>       0.37539000       0.00017000       0.93687000 </v>
    <v>       0.37461000       0.00017000       0.68687000 </v>
    <v>       0.62539000       0.99984000       0.93687000 </v>
    <v>       0.87539000       0.00017000       0.93687000 </v>
    <v>       0.62461000       0.99984000       0.68687000 </v>
    <v>       0.87461000       0.00017000       0.68687000 </v>
    <v>       0.87461000       0.00017000       0.18687000 </v>
    <v>       0.12461000       0.99984000       0.68687000 </v>
    <v>       0.00013000       0.29519000       0.06281000 </v>
    <v>       0.25013000       0.70481000       0.06281000 </v>
    <v>       0.24987000       0.29519000       0.31282000 </v>
    <v>       0.49987000       0.70481000       0.31282000 </v>
    <v>       0.50013000       0.29519000       0.06281000 </v>
    <v>       0.75013000       0.70481000       0.06281000 </v>
    <v>       0.74987000       0.29519000       0.31282000 </v>
    <v>       0.99987000       0.70481000       0.31282000 </v>
    <v>       0.00013000       0.29519000       0.56281000 </v>
    <v>       0.25013000       0.70481000       0.56281000 </v>
    <v>       0.24987000       0.29519000       0.81282000 </v>
    <v>       0.49987000       0.70481000       0.81282000 </v>
    <v>       0.50013000       0.29519000       0.56281000 </v>
    <v>       0.75013000       0.70481000       0.56281000 </v>
    <v>       0.74987000       0.29519000       0.81282000 </v>
    <v>       0.99987000       0.70481000       0.81282000 </v>
    <v>       0.25005000       0.32677000       0.06286000 </v>
    <v>       0.00005000       0.67323000       0.06286000 </v>
    <v>       0.49995000       0.32677000       0.31286000 </v>
    <v>       0.24995000       0.67323000       0.31286000 </v>
    <v>       0.75005000       0.32677000       0.06286000 </v>
    <v>       0.50005000       0.67323000       0.06286000 </v>
    <v>       0.99995000       0.32677000       0.31286000 </v>
    <v>       0.74995000       0.67323000       0.31286000 </v>
    <v>       0.25005000       0.32677000       0.56286000 </v>
    <v>       0.00005000       0.67323000       0.56286000 </v>
    <v>       0.49995000       0.32677000       0.81286000 </v>
    <v>       0.24995000       0.67323000       0.81286000 </v>
    <v>       0.75005000       0.32677000       0.56286000 </v>
    <v>       0.50005000       0.67323000       0.56286000 </v>
    <v>       0.99995000       0.32677000       0.81286000 </v>
    <v>       0.74995000       0.67323000       0.81286000 </v>
    <v>       0.49987000       0.07798000       0.06246000 </v>
    <v>       0.24987000       0.92202000       0.06246000 </v>
    <v>       0.25013000       0.07798000       0.31246000 </v>
    <v>       0.00013000       0.92202000       0.31246000 </v>
    <v>       0.99987000       0.07798000       0.06246000 </v>
    <v>       0.74987000       0.92202000       0.06246000 </v>
    <v>       0.75013000       0.07798000       0.31246000 </v>
    <v>       0.50013000       0.92202000       0.31246000 </v>
    <v>       0.49987000       0.07798000       0.56246000 </v>
    <v>       0.24987000       0.92202000       0.56246000 </v>
    <v>       0.25013000       0.07798000       0.81246000 </v>
    <v>       0.00013000       0.92202000       0.81246000 </v>
    <v>       0.99987000       0.07798000       0.56246000 </v>
    <v>       0.74987000       0.92202000       0.56246000 </v>
    <v>       0.75013000       0.07798000       0.81246000 </v>
    <v>       0.50013000       0.92202000       0.81246000 </v>
   </varray>
  </structure>
  <varray name="forces" >
   <v>      -0.22501550       0.00543948      -0.27078732 </v>
   <v>       0.52760869      -0.00210787       0.54549626 </v>
   <v>       0.37905393       0.06440172       0.20468522 </v>
   <v>      -0.12622770      -0.06297325      -0.45226419 </v>
   <v>       0.21713466      -0.00361973       0.20075995 </v>
   <v>       0.11697512      -0.06368838       0.44161842 </v>
   <v>       0.28577543      -0.00617981       0.28588157 </v>
   <v>       0.35905181      -0.06379340      -0.19712890 </v>
   <v>      -0.12758728       0.06578743       0.46118952 </v>
   <v>      -0.30151838       0.00419631      -0.19374082 </v>
   <v>      -0.03510123       0.00080697      -0.02193179 </v>
   <v>      -0.34476081       0.06564965      -0.19381898 </v>
   <v>      -0.82993700      -0.12195571       0.32661889 </v>
   <v>       0.09648926       0.00751039      -1.04366377 </v>
   <v>       0.10051932       1.05218146       0.11284357 </v>
   <v>       0.25408058      -0.03155889       0.24791393 </v>
   <v>       0.10441640      -1.03190539       0.07710199 </v>
   <v>       0.05217771       1.04371350      -0.16399425 </v>
   <v>       0.07104427      -1.03588128       0.29104213 </v>
   <v>      -0.44866182       0.01833063       0.17359530 </v>
   <v>      -0.40004022      -0.02211605      -0.04404301 </v>
   <v>       0.26419359      -0.01837305       0.21526862 </v>
   <v>       0.02298172       0.02295334      -0.37454568 </v>
   <v>       0.12598551       0.01021339      -0.44465329 </v>
   <v>       0.30907918       1.04047031       0.10464879 </v>
   <v>       0.05789199      -0.02010271       0.03882618 </v>
   <v>       0.00486539       0.00333170      -0.18900118 </v>
   <v>      -0.17637700      -0.01888032      -0.12302135 </v>
   <v>      -0.20036267       0.03851916      -0.02313084 </v>
   <v>      -0.14064959      -1.06287802       0.03391613 </v>
   <v>      -0.26813205       0.19355910      -0.26508858 </v>
   <v>      -0.03308576      -0.11890948      -0.11976999 </v>
   <v>       0.09556264       0.23485305       0.12610869 </v>
   <v>      -0.16506905      -0.20921923      -0.02442348 </v>
   <v>       0.31606359       0.11294280      -0.05042426 </v>
   <v>      -0.02179703      -0.19314863      -0.19509756 </v>
   <v>      -0.14762824       0.12645388      -0.14961917 </v>
   <v>       0.22571400      -0.16416412      -0.02419182 </v>
   <v>      -0.11120979       0.11188730       0.32138092 </v>
   <v>       0.02793485      -0.08455819       0.23131529 </v>
   <v>      -0.07399282       0.18955323      -0.10724451 </v>
   <v>      -0.20749892      -0.09975680      -0.03879195 </v>
   <v>       0.07265134       0.18839102       0.08194773 </v>
   <v>       0.00753633      -0.22464593       0.17996768 </v>
   <v>       0.12047360       0.06622092       0.03469494 </v>
   <v>       0.16039270      -0.14982039      -0.00755760 </v>
   <v>      -0.59664565       0.83579629      -0.74563366 </v>
   <v>      -0.23074989       0.03206501      -0.24231780 </v>
   <v>       0.44471174       0.86302183      -0.61874018 </v>
   <v>      -1.11980118       0.08192219      -1.16777871 </v>
   <v>      -0.45312350      -0.82635211       0.29435797 </v>
   <v>       1.30495270      -0.00262666      -0.21300633 </v>
   <v>       1.21527525       0.07265849       0.11628993 </v>
   <v>      -0.53269015      -0.89947643       0.67015412 </v>
   <v>       0.00502750       0.02823512       0.16173815 </v>
   <v>       0.03627869      -0.00003833       1.33282364 </v>
   <v>      -0.66356801      -0.85778448      -0.48288346 </v>
   <v>       0.54637571       0.89964888      -0.39832055 </v>
   <v>      -0.12025663      -0.04690747       1.26776770 </v>
   <v>       0.09391172       0.02118126       0.08991945 </v>
   <v>       0.16218601      -0.08365767      -0.00449237 </v>
   <v>      -0.08288506       0.02518397      -0.07876530 </v>
  </varray>
  <varray name="stress" >
   <v>      -8.39289649       0.12318613      -0.32163455 </v>
   <v>       0.12318622     -14.47414055      -0.16291630 </v>
   <v>      -0.32163448      -0.16291596      -8.91839442 </v>
  </varray>
  <energy>
   <i name="e_fr_energy">   -317.21659976 </i>
   <i name="e_wo_entrp">   -317.21659976 </i>
   <i name="e_0_energy">      0.00000000 </i>
  </energy>
  <time name="totalsc"> 1565.92 1569.55</time>
  <eigenvalues>
   <array>
    <dimension dim="1">band</dimension>
    <dimension dim="2">kpoint</dimension>
    <dimension dim="3">spin</dimension>
    <field>eigene</field>
    <field>occ</field>
    <set>
     <set comment="spin 1">
      <set comment="kpoint 1">
       <r>  -40.4148    1.0000 </r>
       <r>  -40.2473    1.0000 </r>
       <r>  -40.0810    1.0000 </r>
       <r>  -39.9860    1.0000 </r>
       <r>  -39.7917    1.0000 </r>
       <r>  -39.7898    1.0000 </r>
       <r>  -39.7792    1.0000 </r>
       <r>  -39.7772    1.0000 </r>
       <r>  -39.5829    1.0000 </r>
       <r>  -39.4958    1.0000 </r>
       <r>  -39.3341    1.0000 </r>
       <r>  -39.1782    1.0000 </r>
       <r>  -18.9813    1.0000 </r>
       <r>  -18.9072    1.0000 </r>
       <r>  -18.8998    1.0000 </r>
       <r>  -18.8993    1.0000 </r>
       <r>  -18.8922    1.0000 </r>
       <r>  -18.8327    1.0000 </r>
       <r>  -18.8259    1.0000 </r>
       <r>  -18.8180    1.0000 </r>
       <r>  -18.8096    1.0000 </r>
       <r>  -18.8024    1.0000 </r>
       <r>  -18.7973    1.0000 </r>
       <r>  -18.7237    1.0000 </r>
       <r>  -18.7204    1.0000 </r>
       <r>  -18.7105    1.0000 </r>
       <r>  -18.7073    1.0000 </r>
       <r>  -18.6963    1.0000 </r>
       <r>  -18.6859    1.0000 </r>
       <r>  -18.6835    1.0000 </r>
       <r>  -18.6780    1.0000 </r>
       <r>  -18.6674    1.0000 </r>
       <r>  -18.6610    1.0000 </r>
       <r>  -18.6416    1.0000 </r>
       <r>  -18.6330    1.0000 </r>
       <r>  -18.6273    1.0000 </r>
       <r>  -18.6231    1.0000 </r>
       <r>  -18.6194    1.0000 </r>
       <r>  -18.6148    1.0000 </r>
       <r>  -18.6141    1.0000 </r>
       <r>  -18.6125    1.0000 </r>
       <r>  -18.6101    1.0000 </r>
       <r>  -18.6076    1.0000 </r>
       <r>  -18.6067    1.0000 </r>
       <r>  -18.6046    1.0000 </r>
       <r>  -18.6025    1.0000 </r>
       <r>  -18.6016    1.0000 </r>
       <r>  -18.5954    1.0000 </r>
       <r>  -18.5905    1.0000 </r>
       <r>  -18.5774    1.0000 </r>
       <r>  -18.5749    1.0000 </r>
       <r>  -18.5506    1.0000 </r>
       <r>  -18.5412    1.0000 </r>
       <r>  -18.5406    1.0000 </r>
       <r>  -18.5355    1.0000 </r>
       <r>  -18.5260    1.0000 </r>
       <r>  -18.5248    1.0000 </r>
       <r>  -18.5223    1.0000 </r>
       <r>  -18.5215    1.0000 </r>
       <r>  -18.5142    1.0000 </r>
       <r>  -18.5102    1.0000 </r>
       <r>  -18.4710    1.0000 </r>
       <r>  -18.4685    1.0000 </r>
       <r>  -18.4663    1.0000 </r>
       <r>  -18.4576    1.0000 </r>
       <r>  -18.4557    1.0000 </r>
       <r>  -18.4552    1.0000 </r>
       <r>  -18.4531    1.0000 </r>
       <r>  -18.4509    1.0000 </r>
       <r>  -18.4486    1.0000 </r>
       <r>  -18.4480    1.0000 </r>
       <r>  -18.4440    1.0000 </r>
       <r>  -18.4295    1.0000 </r>
       <r>  -18.3890    1.0000 </r>
       <r>  -18.3757    1.0000 </r>
       <r>  -18.3702    1.0000 </r>
       <r>  -18.3681    1.0000 </r>
       <r>  -18.3637    1.0000 </r>
       <r>  -18.3567    1.0000 </r>
       <r>  -18.3541    1.0000 </r>
       <r>  -18.3404    1.0000 </r>
       <r>  -18.2981    1.0000 </r>
       <r>  -18.2857    1.0000 </r>
       <r>  -18.2726    1.0000 </r>
       <r>  -18.2640    1.0000 </r>
       <r>  -18.2024    1.0000 </r>
       <r>  -18.1551    1.0000 </r>
       <r>  -18.1518    1.0000 </r>
       <r>  -18.1418    1.0000 </r>
       <r>  -18.1380    1.0000 </r>
       <r>  -18.0857    1.0000 </r>
       <r>  -18.0767    1.0000 </r>
       <r>  -13.6121    1.0000 </r>
       <r>  -13.4658    1.0000 </r>
       <r>  -13.4537    1.0000 </r>
       <r>  -12.8482    1.0000 </r>
       <r>  -12.7747    1.0000 </r>
       <r>  -12.7397    1.0000 </r>
       <r>  -12.7022    1.0000 </r>
       <r>  -12.6705    1.0000 </r>
       <r>  -12.6442    1.0000 </r>
       <r>  -12.6440    1.0000 </r>
       <r>  -12.6122    1.0000 </r>
       <r>  -12.5691    1.0000 </r>
       <r>  -12.5194    1.0000 </r>
       <r>  -11.9319    1.0000 </r>
       <r>  -11.8826    1.0000 </r>
       <r>  -11.8058    1.0000 </r>
       <r>   -9.3077    1.0000 </r>
       <r>   -9.0155    1.0000 </r>
       <r>   -8.5016    1.0000 </r>
       <r>   -8.4913    1.0000 </r>
       <r>   -8.4389    1.0000 </r>
       <r>   -8.4319    1.0000 </r>
       <r>   -8.2794    1.0000 </r>
       <r>   -8.2688    1.0000 </r>
       <r>   -8.2204    1.0000 </r>
       <r>   -8.2094    1.0000 </r>
       <r>   -7.9957    1.0000 </r>
       <r>   -7.9660    1.0000 </r>
       <r>   -7.9639    1.0000 </r>
       <r>   -7.9275    1.0000 </r>
       <r>   -7.3220    1.0000 </r>
       <r>   -7.3184    1.0000 </r>
       <r>   -6.3536    1.0000 </r>
       <r>   -6.3422    1.0000 </r>
       <r>   -6.3280    1.0000 </r>
       <r>   -6.3149    1.0000 </r>
       <r>   -5.5190    1.0000 </r>
       <r>   -5.5142    1.0000 </r>
       <r>   -5.3406    1.0000 </r>
       <r>   -5.3200    1.0000 </r>
       <r>   -5.2450    1.0000 </r>
       <r>   -5.2383    1.0000 </r>
       <r>   -5.1651    1.0000 </r>
       <r>   -5.1141    1.0000 </r>
       <r>   -5.0442    1.0000 </r>
       <r>   -5.0189    1.0000 </r>
       <r>   -3.7657    1.0000 </r>
       <r>   -3.6098    1.0000 </r>
       <r>   -1.3640    1.0000 </r>
       <r>   -1.3464    1.0000 </r>
       <r>   -1.0359    1.0000 </r>
       <r>   -1.0280    1.0000 </r>
       <r>   -0.5214    1.0000 </r>
       <r>   -0.4670    1.0000 </r>
       <r>   -0.4505    1.0000 </r>
       <r>   -0.4336    1.0000 </r>
       <r>   -0.1514    1.0000 </r>
       <r>   -0.1366    1.0000 </r>
       <r>   -0.1255    1.0000 </r>
       <r>   -0.1104    1.0000 </r>
       <r>   -0.0022    1.0000 </r>
       <r>    0.1454    1.0000 </r>
       <r>    0.2495    1.0000 </r>
       <r>    0.4183    1.0000 </r>
       <r>    0.4757    1.0000 </r>
       <r>    0.5543    1.0000 </r>
       <r>    0.6044    1.0000 </r>
       <r>    0.6569    1.0000 </r>
       <r>    0.6965    1.0000 </r>
       <r>    0.7618    1.0000 </r>
       <r>    0.7698    1.0000 </r>
       <r>    0.7981    1.0000 </r>
       <r>    0.8064    1.0000 </r>
       <r>    0.8910    1.0000 </r>
       <r>    0.9468    1.0000 </r>
       <r>    0.9830    1.0000 </r>
       <r>    1.0235    1.0000 </r>
       <r>    1.0416    1.0000 </r>
       <r>    1.0757    1.0000 </r>
       <r>    1.1006    1.0000 </r>
       <r>    1.1777    1.0000 </r>
       <r>    1.2402    1.0000 </r>
       <r>    1.2554    1.0000 </r>
       <r>    1.3195    1.0000 </r>
       <r>    1.3805    1.0000 </r>
       <r>    1.4152    1.0000 </r>
       <r>    1.4471    1.0000 </r>
       <r>    1.4694    1.0000 </r>
       <r>    1.5528    1.0000 </r>
       <r>    1.6071    1.0000 </r>
       <r>    1.6417    1.0000 </r>
       <r>    1.6830    1.0000 </r>
       <r>    1.6956    1.0000 </r>
       <r>    1.7484    1.0000 </r>
       <r>    1.7861    1.0000 </r>
       <r>    1.8471    1.0000 </r>
       <r>    1.9299    1.0000 </r>
       <r>    1.9474    1.0000 </r>
       <r>    1.9838    1.0000 </r>
       <r>    2.0214    1.0000 </r>
       <r>    2.1364    1.0000 </r>
       <r>    2.2043    1.0000 </r>
       <r>    2.2553    1.0000 </r>
       <r>    2.3197    1.0000 </r>
       <r>    2.3531    1.0000 </r>
       <r>    2.3886    1.0000 </r>
       <r>    2.4391    1.0000 </r>
       <r>    2.5613    1.0000 </r>
       <r>    2.5916    1.0000 </r>
       <r>    2.6027    1.0000 </r>
       <r>    2.6156    1.0000 </r>
       <r>    2.6207    1.0000 </r>
       <r>    2.6250    1.0000 </r>
       <r>    2.6570    1.0000 </r>
       <r>    2.6732    1.0000 </r>
       <r>    2.7314    1.0000 </r>
       <r>    2.7657    1.0000 </r>
       <r>    2.8167    1.0000 </r>
       <r>    2.8319    1.0000 </r>
       <r>    2.8657    1.0000 </r>
       <r>    2.8767    1.0000 </r>
       <r>    2.9271    1.0000 </r>
       <r>    2.9400    1.0000 </r>
       <r>    3.0170    1.0000 </r>
       <r>    3.0568    1.0000 </r>
       <r>    3.0888    1.0000 </r>
       <r>    3.1223    1.0000 </r>
       <r>    3.1557    1.0000 </r>
       <r>    3.1817    1.0000 </r>
       <r>    3.1922    1.0000 </r>
       <r>    3.2197    1.0000 </r>
       <r>    3.2514    1.0000 </r>
       <r>    3.2559    1.0000 </r>
       <r>    3.3040    1.0000 </r>
       <r>    3.3540    1.0000 </r>
       <r>    3.4029    1.0000 </r>
       <r>    3.4680    1.0000 </r>
       <r>    3.5057    1.0000 </r>
       <r>    3.5710    1.0000 </r>
       <r>    3.6295    1.0000 </r>
       <r>    4.2252    1.0000 </r>
       <r>    4.2514    1.0000 </r>
       <r>    4.2543    1.0000 </r>
       <r>    4.2686    1.0000 </r>
       <r>    5.1319    0.0000 </r>
       <r>    5.1346    0.0000 </r>
       <r>    5.1392    0.0000 </r>
       <r>    5.1557    0.0000 </r>
       <r>    5.7688    0.0000 </r>
       <r>    5.7860    0.0000 </r>
       <r>    5.7929    0.0000 </r>
       <r>    5.8282    0.0000 </r>
       <r>    6.1429    0.0000 </r>
       <r>    6.1533    0.0000 </r>
       <r>    6.1738    0.0000 </r>
       <r>    6.1803    0.0000 </r>
       <r>    6.2824    0.0000 </r>
       <r>    6.2934    0.0000 </r>
       <r>    6.3004    0.0000 </r>
       <r>    6.3167    0.0000 </r>
       <r>    7.1361    0.0000 </r>
       <r>    7.2115    0.0000 </r>
       <r>    7.2282    0.0000 </r>
       <r>    7.3036    0.0000 </r>
       <r>    7.8602    0.0000 </r>
       <r>    7.8656    0.0000 </r>
       <r>    7.9870    0.0000 </r>
       <r>    8.0103    0.0000 </r>
       <r>    8.0194    0.0000 </r>
       <r>    8.0501    0.0000 </r>
       <r>    8.1888    0.0000 </r>
       <r>    8.2195    0.0000 </r>
       <r>    8.5202    0.0000 </r>
       <r>    8.6157    0.0000 </r>
       <r>    8.7483    0.0000 </r>
       <r>    8.8314    0.0000 </r>
       <r>    8.8455    0.0000 </r>
       <r>    8.9319    0.0000 </r>
       <r>    8.9814    0.0000 </r>
       <r>    8.9832    0.0000 </r>
       <r>    9.0299    0.0000 </r>
       <r>    9.0401    0.0000 </r>
       <r>    9.1017    0.0000 </r>
       <r>    9.1661    0.0000 </r>
       <r>    9.1683    0.0000 </r>
       <r>    9.2260    0.0000 </r>
       <r>    9.2397    0.0000 </r>
       <r>    9.2879    0.0000 </r>
       <r>    9.4557    0.0000 </r>
       <r>    9.5499    0.0000 </r>
       <r>    9.5597    0.0000 </r>
       <r>    9.6900    0.0000 </r>
       <r>    9.7083    0.0000 </r>
       <r>    9.7149    0.0000 </r>
       <r>    9.7190    0.0000 </r>
       <r>    9.8306    0.0000 </r>
       <r>   10.2230    0.0000 </r>
       <r>   10.2554    0.0000 </r>
       <r>   10.2724    0.0000 </r>
       <r>   10.2901    0.0000 </r>
       <r>   10.4374    0.0000 </r>
       <r>   10.4936    0.0000 </r>
       <r>   10.6089    0.0000 </r>
       <r>   10.6263    0.0000 </r>
       <r>   10.6312    0.0000 </r>
       <r>   10.6812    0.0000 </r>
       <r>   11.0958    0.0000 </r>
       <r>   11.3470    0.0000 </r>
       <r>   11.4365    0.0000 </r>
       <r>   11.5026    0.0000 </r>
       <r>   11.5716    0.0000 </r>
       <r>   11.6214    0.0000 </r>
       <r>   11.6447    0.0000 </r>
       <r>   11.7927    0.0000 </r>
       <r>   11.8813    0.0000 </r>
       <r>   11.9379    0.0000 </r>
      </set>
      <set comment="kpoint 2">
       <r>  -40.4148    1.0000 </r>
       <r>  -40.2473    1.0000 </r>
       <r>  -40.0810    1.0000 </r>
       <r>  -39.9860    1.0000 </r>
       <r>  -39.7917    1.0000 </r>
       <r>  -39.7898    1.0000 </r>
       <r>  -39.7792    1.0000 </r>
       <r>  -39.7772    1.0000 </r>
       <r>  -39.5829    1.0000 </r>
       <r>  -39.4958    1.0000 </r>
       <r>  -39.3341    1.0000 </r>
       <r>  -39.1782    1.0000 </r>
       <r>  -18.9813    1.0000 </r>
       <r>  -18.9071    1.0000 </r>
       <r>  -18.8998    1.0000 </r>
       <r>  -18.8993    1.0000 </r>
       <r>  -18.8922    1.0000 </r>
       <r>  -18.8325    1.0000 </r>
       <r>  -18.8259    1.0000 </r>
       <r>  -18.8181    1.0000 </r>
       <r>  -18.8097    1.0000 </r>
       <r>  -18.8024    1.0000 </r>
       <r>  -18.7973    1.0000 </r>
       <r>  -18.7237    1.0000 </r>
       <r>  -18.7204    1.0000 </r>
       <r>  -18.7105    1.0000 </r>
       <r>  -18.7073    1.0000 </r>
       <r>  -18.6964    1.0000 </r>
       <r>  -18.6859    1.0000 </r>
       <r>  -18.6835    1.0000 </r>
       <r>  -18.6780    1.0000 </r>
       <r>  -18.6674    1.0000 </r>
       <r>  -18.6610    1.0000 </r>
       <r>  -18.6376    1.0000 </r>
       <r>  -18.6325    1.0000 </r>
       <r>  -18.6279    1.0000 </r>
       <r>  -18.6230    1.0000 </r>
       <r>  -18.6220    1.0000 </r>
       <r>  -18.6193    1.0000 </r>
       <r>  -18.6159    1.0000 </r>
       <r>  -18.6145    1.0000 </r>
       <r>  -18.6133    1.0000 </r>
       <r>  -18.6078    1.0000 </r>
       <r>  -18.6055    1.0000 </r>
       <r>  -18.6036    1.0000 </r>
       <r>  -18.6004    1.0000 </r>
       <r>  -18.5965    1.0000 </r>
       <r>  -18.5919    1.0000 </r>
       <r>  -18.5880    1.0000 </r>
       <r>  -18.5816    1.0000 </r>
       <r>  -18.5758    1.0000 </r>
       <r>  -18.5507    1.0000 </r>
       <r>  -18.5412    1.0000 </r>
       <r>  -18.5406    1.0000 </r>
       <r>  -18.5355    1.0000 </r>
       <r>  -18.5260    1.0000 </r>
       <r>  -18.5248    1.0000 </r>
       <r>  -18.5223    1.0000 </r>
       <r>  -18.5215    1.0000 </r>
       <r>  -18.5142    1.0000 </r>
       <r>  -18.5102    1.0000 </r>
       <r>  -18.4709    1.0000 </r>
       <r>  -18.4684    1.0000 </r>
       <r>  -18.4663    1.0000 </r>
       <r>  -18.4567    1.0000 </r>
       <r>  -18.4567    1.0000 </r>
       <r>  -18.4557    1.0000 </r>
       <r>  -18.4531    1.0000 </r>
       <r>  -18.4508    1.0000 </r>
       <r>  -18.4480    1.0000 </r>
       <r>  -18.4477    1.0000 </r>
       <r>  -18.4444    1.0000 </r>
       <r>  -18.4295    1.0000 </r>
       <r>  -18.3890    1.0000 </r>
       <r>  -18.3757    1.0000 </r>
       <r>  -18.3702    1.0000 </r>
       <r>  -18.3682    1.0000 </r>
       <r>  -18.3637    1.0000 </r>
       <r>  -18.3567    1.0000 </r>
       <r>  -18.3540    1.0000 </r>
       <r>  -18.3404    1.0000 </r>
       <r>  -18.2981    1.0000 </r>
       <r>  -18.2857    1.0000 </r>
       <r>  -18.2726    1.0000 </r>
       <r>  -18.2640    1.0000 </r>
       <r>  -18.2024    1.0000 </r>
       <r>  -18.1551    1.0000 </r>
       <r>  -18.1518    1.0000 </r>
       <r>  -18.1418    1.0000 </r>
       <r>  -18.1380    1.0000 </r>
       <r>  -18.0857    1.0000 </r>
       <r>  -18.0767    1.0000 </r>
       <r>  -13.6117    1.0000 </r>
       <r>  -13.4659    1.0000 </r>
       <r>  -13.4539    1.0000 </r>
       <r>  -12.8437    1.0000 </r>
       <r>  -12.7803    1.0000 </r>
       <r>  -12.7422    1.0000 </r>
       <r>  -12.6999    1.0000 </r>
       <r>  -12.6730    1.0000 </r>
       <r>  -12.6447    1.0000 </r>
       <r>  -12.6356    1.0000 </r>
       <r>  -12.6167    1.0000 </r>
       <r>  -12.5687    1.0000 </r>
       <r>  -12.5195    1.0000 </r>
       <r>  -11.9319    1.0000 </r>
       <r>  -11.8829    1.0000 </r>
       <r>  -11.8056    1.0000 </r>
       <r>   -9.1661    1.0000 </r>
       <r>   -9.0032    1.0000 </r>
       <r>   -8.8931    1.0000 </r>
       <r>   -8.7280    1.0000 </r>
       <r>   -8.3737    1.0000 </r>
       <r>   -8.3559    1.0000 </r>
       <r>   -8.2294    1.0000 </r>
       <r>   -8.2183    1.0000 </r>
       <r>   -8.1716    1.0000 </r>
       <r>   -8.1578    1.0000 </r>
       <r>   -8.0296    1.0000 </r>
       <r>   -8.0165    1.0000 </r>
       <r>   -7.7151    1.0000 </r>
       <r>   -7.6070    1.0000 </r>
       <r>   -7.5931    1.0000 </r>
       <r>   -7.4848    1.0000 </r>
       <r>   -6.0214    1.0000 </r>
       <r>   -5.9933    1.0000 </r>
       <r>   -5.9039    1.0000 </r>
       <r>   -5.8086    1.0000 </r>
       <r>   -5.8005    1.0000 </r>
       <r>   -5.7654    1.0000 </r>
       <r>   -5.6816    1.0000 </r>
       <r>   -5.6534    1.0000 </r>
       <r>   -5.6168    1.0000 </r>
       <r>   -5.5801    1.0000 </r>
       <r>   -5.4430    1.0000 </r>
       <r>   -5.3870    1.0000 </r>
       <r>   -4.4686    1.0000 </r>
       <r>   -4.3093    1.0000 </r>
       <r>   -4.2978    1.0000 </r>
       <r>   -4.1250    1.0000 </r>
       <r>   -1.2072    1.0000 </r>
       <r>   -0.9994    1.0000 </r>
       <r>   -0.8688    1.0000 </r>
       <r>   -0.6899    1.0000 </r>
       <r>   -0.4682    1.0000 </r>
       <r>   -0.2505    1.0000 </r>
       <r>   -0.0470    1.0000 </r>
       <r>    0.0150    1.0000 </r>
       <r>    0.0408    1.0000 </r>
       <r>    0.0999    1.0000 </r>
       <r>    0.1395    1.0000 </r>
       <r>    0.1837    1.0000 </r>
       <r>    0.2526    1.0000 </r>
       <r>    0.2733    1.0000 </r>
       <r>    0.3746    1.0000 </r>
       <r>    0.3803    1.0000 </r>
       <r>    0.5118    1.0000 </r>
       <r>    0.5346    1.0000 </r>
       <r>    0.5484    1.0000 </r>
       <r>    0.6219    1.0000 </r>
       <r>    0.6639    1.0000 </r>
       <r>    0.6958    1.0000 </r>
       <r>    0.7039    1.0000 </r>
       <r>    0.7252    1.0000 </r>
       <r>    0.7457    1.0000 </r>
       <r>    0.8344    1.0000 </r>
       <r>    0.9122    1.0000 </r>
       <r>    0.9174    1.0000 </r>
       <r>    0.9958    1.0000 </r>
       <r>    1.0538    1.0000 </r>
       <r>    1.0619    1.0000 </r>
       <r>    1.1010    1.0000 </r>
       <r>    1.1862    1.0000 </r>
       <r>    1.2616    1.0000 </r>
       <r>    1.2780    1.0000 </r>
       <r>    1.3012    1.0000 </r>
       <r>    1.3247    1.0000 </r>
       <r>    1.3782    1.0000 </r>
       <r>    1.4240    1.0000 </r>
       <r>    1.5018    1.0000 </r>
       <r>    1.5378    1.0000 </r>
       <r>    1.5685    1.0000 </r>
       <r>    1.5823    1.0000 </r>
       <r>    1.6039    1.0000 </r>
       <r>    1.6079    1.0000 </r>
       <r>    1.7006    1.0000 </r>
       <r>    1.7345    1.0000 </r>
       <r>    1.8220    1.0000 </r>
       <r>    1.8389    1.0000 </r>
       <r>    1.8974    1.0000 </r>
       <r>    1.9301    1.0000 </r>
       <r>    1.9711    1.0000 </r>
       <r>    2.0119    1.0000 </r>
       <r>    2.0559    1.0000 </r>
       <r>    2.0794    1.0000 </r>
       <r>    2.1318    1.0000 </r>
       <r>    2.1701    1.0000 </r>
       <r>    2.2075    1.0000 </r>
       <r>    2.2735    1.0000 </r>
       <r>    2.3012    1.0000 </r>
       <r>    2.3468    1.0000 </r>
       <r>    2.3833    1.0000 </r>
       <r>    2.3952    1.0000 </r>
       <r>    2.4590    1.0000 </r>
       <r>    2.5082    1.0000 </r>
       <r>    2.5499    1.0000 </r>
       <r>    2.6051    1.0000 </r>
       <r>    2.6252    1.0000 </r>
       <r>    2.6646    1.0000 </r>
       <r>    2.7101    1.0000 </r>
       <r>    2.7627    1.0000 </r>
       <r>    2.7844    1.0000 </r>
       <r>    2.7892    1.0000 </r>
       <r>    2.8332    1.0000 </r>
       <r>    2.8369    1.0000 </r>
       <r>    2.8731    1.0000 </r>
       <r>    2.9058    1.0000 </r>
       <r>    2.9398    1.0000 </r>
       <r>    2.9942    1.0000 </r>
       <r>    3.0559    1.0000 </r>
       <r>    3.1093    1.0000 </r>
       <r>    3.1247    1.0000 </r>
       <r>    3.1665    1.0000 </r>
       <r>    3.1748    1.0000 </r>
       <r>    3.2215    1.0000 </r>
       <r>    3.2983    1.0000 </r>
       <r>    3.3422    1.0000 </r>
       <r>    3.4243    1.0000 </r>
       <r>    3.4857    1.0000 </r>
       <r>    3.5166    1.0000 </r>
       <r>    3.5702    1.0000 </r>
       <r>    3.5934    1.0000 </r>
       <r>    3.6769    1.0000 </r>
       <r>    3.7002    1.0000 </r>
       <r>    3.7839    1.0000 </r>
       <r>    3.7895    1.0000 </r>
       <r>    5.5901    0.0000 </r>
       <r>    5.5945    0.0000 </r>
       <r>    5.7418    0.0000 </r>
       <r>    5.7525    0.0000 </r>
       <r>    5.7707    0.0000 </r>
       <r>    5.7918    0.0000 </r>
       <r>    5.9328    0.0000 </r>
       <r>    5.9451    0.0000 </r>
       <r>    7.1934    0.0000 </r>
       <r>    7.2411    0.0000 </r>
       <r>    7.2753    0.0000 </r>
       <r>    7.3350    0.0000 </r>
       <r>    7.3741    0.0000 </r>
       <r>    7.4211    0.0000 </r>
       <r>    7.4568    0.0000 </r>
       <r>    7.5056    0.0000 </r>
       <r>    7.5181    0.0000 </r>
       <r>    7.5420    0.0000 </r>
       <r>    7.5976    0.0000 </r>
       <r>    7.6328    0.0000 </r>
       <r>    7.8385    0.0000 </r>
       <r>    7.8556    0.0000 </r>
       <r>    7.8748    0.0000 </r>
       <r>    7.9022    0.0000 </r>
       <r>    7.9458    0.0000 </r>
       <r>    7.9631    0.0000 </r>
       <r>    7.9956    0.0000 </r>
       <r>    8.0064    0.0000 </r>
       <r>    8.0268    0.0000 </r>
       <r>    8.0625    0.0000 </r>
       <r>    8.0801    0.0000 </r>
       <r>    8.1773    0.0000 </r>
       <r>    8.2947    0.0000 </r>
       <r>    8.4133    0.0000 </r>
       <r>    8.5063    0.0000 </r>
       <r>    8.6446    0.0000 </r>
       <r>    8.7051    0.0000 </r>
       <r>    8.7719    0.0000 </r>
       <r>    8.7840    0.0000 </r>
       <r>    8.7877    0.0000 </r>
       <r>    8.8194    0.0000 </r>
       <r>    8.9144    0.0000 </r>
       <r>    8.9720    0.0000 </r>
       <r>    8.9796    0.0000 </r>
       <r>    9.1152    0.0000 </r>
       <r>    9.3621    0.0000 </r>
       <r>    9.3881    0.0000 </r>
       <r>    9.4207    0.0000 </r>
       <r>    9.6303    0.0000 </r>
       <r>    9.7317    0.0000 </r>
       <r>   10.2011    0.0000 </r>
       <r>   10.2388    0.0000 </r>
       <r>   10.3616    0.0000 </r>
       <r>   10.5048    0.0000 </r>
       <r>   10.5753    0.0000 </r>
       <r>   10.5932    0.0000 </r>
       <r>   10.7353    0.0000 </r>
       <r>   10.7865    0.0000 </r>
       <r>   10.8016    0.0000 </r>
       <r>   10.8291    0.0000 </r>
       <r>   10.8574    0.0000 </r>
       <r>   10.9542    0.0000 </r>
       <r>   10.9831    0.0000 </r>
       <r>   11.0904    0.0000 </r>
       <r>   11.2046    0.0000 </r>
       <r>   11.2868    0.0000 </r>
       <r>   11.3199    0.0000 </r>
       <r>   11.3808    0.0000 </r>
       <r>   11.4443    0.0000 </r>
       <r>   11.4628    0.0000 </r>
       <r>   11.5265    0.0000 </r>
       <r>   11.6040    0.0000 </r>
      </set>
      <set comment="kpoint 3">
       <r>  -40.4148    1.0000 </r>
       <r>  -40.2473    1.0000 </r>
       <r>  -40.0810    1.0000 </r>
       <r>  -39.9860    1.0000 </r>
       <r>  -39.7917    1.0000 </r>
       <r>  -39.7898    1.0000 </r>
       <r>  -39.7792    1.0000 </r>
       <r>  -39.7772    1.0000 </r>
       <r>  -39.5829    1.0000 </r>
       <r>  -39.4958    1.0000 </r>
       <r>  -39.3341    1.0000 </r>
       <r>  -39.1782    1.0000 </r>
       <r>  -18.9813    1.0000 </r>
       <r>  -18.9072    1.0000 </r>
       <r>  -18.8998    1.0000 </r>
       <r>  -18.8993    1.0000 </r>
       <r>  -18.8922    1.0000 </r>
       <r>  -18.8327    1.0000 </r>
       <r>  -18.8259    1.0000 </r>
       <r>  -18.8180    1.0000 </r>
       <r>  -18.8096    1.0000 </r>
       <r>  -18.8024    1.0000 </r>
       <r>  -18.7973    1.0000 </r>
       <r>  -18.7237    1.0000 </r>
       <r>  -18.7204    1.0000 </r>
       <r>  -18.7105    1.0000 </r>
       <r>  -18.7073    1.0000 </r>
       <r>  -18.6963    1.0000 </r>
       <r>  -18.6859    1.0000 </r>
       <r>  -18.6835    1.0000 </r>
       <r>  -18.6780    1.0000 </r>
       <r>  -18.6674    1.0000 </r>
       <r>  -18.6610    1.0000 </r>
       <r>  -18.6416    1.0000 </r>
       <r>  -18.6330    1.0000 </r>
       <r>  -18.6273    1.0000 </r>
       <r>  -18.6231    1.0000 </r>
       <r>  -18.6194    1.0000 </r>
       <r>  -18.6148    1.0000 </r>
       <r>  -18.6141    1.0000 </r>
       <r>  -18.6125    1.0000 </r>
       <r>  -18.6101    1.0000 </r>
       <r>  -18.6076    1.0000 </r>
       <r>  -18.6067    1.0000 </r>
       <r>  -18.6046    1.0000 </r>
       <r>  -18.6025    1.0000 </r>
       <r>  -18.6016    1.0000 </r>
       <r>  -18.5954    1.0000 </r>
       <r>  -18.5905    1.0000 </r>
       <r>  -18.5774    1.0000 </r>
       <r>  -18.5749    1.0000 </r>
       <r>  -18.5506    1.0000 </r>
       <r>  -18.5412    1.0000 </r>
       <r>  -18.5406    1.0000 </r>
       <r>  -18.5355    1.0000 </r>
       <r>  -18.5260    1.0000 </r>
       <r>  -18.5248    1.0000 </r>
       <r>  -18.5223    1.0000 </r>
       <r>  -18.5215    1.0000 </r>
       <r>  -18.5142    1.0000 </r>
       <r>  -18.5102    1.0000 </r>
       <r>  -18.4710    1.0000 </r>
       <r>  -18.4684    1.0000 </r>
       <r>  -18.4663    1.0000 </r>
       <r>  -18.4576    1.0000 </r>
       <r>  -18.4557    1.0000 </r>
       <r>  -18.4552    1.0000 </r>
       <r>  -18.4531    1.0000 </r>
       <r>  -18.4509    1.0000 </r>
       <r>  -18.4486    1.0000 </r>
       <r>  -18.4480    1.0000 </r>
       <r>  -18.4440    1.0000 </r>
       <r>  -18.4295    1.0000 </r>
       <r>  -18.3890    1.0000 </r>
       <r>  -18.3757    1.0000 </r>
       <r>  -18.3702    1.0000 </r>
       <r>  -18.3681    1.0000 </r>
       <r>  -18.3637    1.0000 </r>
       <r>  -18.3567    1.0000 </r>
       <r>  -18.3541    1.0000 </r>
       <r>  -18.3404    1.0000 </r>
       <r>  -18.2981    1.0000 </r>
       <r>  -18.2857    1.0000 </r>
       <r>  -18.2726    1.0000 </r>
       <r>  -18.2640    1.0000 </r>
       <r>  -18.2024    1.0000 </r>
       <r>  -18.1551    1.0000 </r>
       <r>  -18.1518    1.0000 </r>
       <r>  -18.1418    1.0000 </r>
       <r>  -18.1380    1.0000 </r>
       <r>  -18.0857    1.0000 </r>
       <r>  -18.0767    1.0000 </r>
       <r>  -13.6119    1.0000 </r>
       <r>  -13.4658    1.0000 </r>
       <r>  -13.4538    1.0000 </r>
       <r>  -12.8470    1.0000 </r>
       <r>  -12.7742    1.0000 </r>
       <r>  -12.7399    1.0000 </r>
       <r>  -12.7024    1.0000 </r>
       <r>  -12.6706    1.0000 </r>
       <r>  -12.6444    1.0000 </r>
       <r>  -12.6440    1.0000 </r>
       <r>  -12.6122    1.0000 </r>
       <r>  -12.5702    1.0000 </r>
       <r>  -12.5200    1.0000 </r>
       <r>  -11.9313    1.0000 </r>
       <r>  -11.8826    1.0000 </r>
       <r>  -11.8073    1.0000 </r>
       <r>   -9.2992    1.0000 </r>
       <r>   -9.0210    1.0000 </r>
       <r>   -8.5196    1.0000 </r>
       <r>   -8.5100    1.0000 </r>
       <r>   -8.4557    1.0000 </r>
       <r>   -8.4501    1.0000 </r>
       <r>   -8.2592    1.0000 </r>
       <r>   -8.2488    1.0000 </r>
       <r>   -8.2026    1.0000 </r>
       <r>   -8.1890    1.0000 </r>
       <r>   -7.9997    1.0000 </r>
       <r>   -7.9690    1.0000 </r>
       <r>   -7.9667    1.0000 </r>
       <r>   -7.9299    1.0000 </r>
       <r>   -7.3249    1.0000 </r>
       <r>   -7.3213    1.0000 </r>
       <r>   -6.3443    1.0000 </r>
       <r>   -6.3325    1.0000 </r>
       <r>   -6.3187    1.0000 </r>
       <r>   -6.3048    1.0000 </r>
       <r>   -5.5225    1.0000 </r>
       <r>   -5.5186    1.0000 </r>
       <r>   -5.3724    1.0000 </r>
       <r>   -5.3622    1.0000 </r>
       <r>   -5.2662    1.0000 </r>
       <r>   -5.2631    1.0000 </r>
       <r>   -5.1064    1.0000 </r>
       <r>   -5.0772    1.0000 </r>
       <r>   -4.9949    1.0000 </r>
       <r>   -4.9799    1.0000 </r>
       <r>   -3.8365    1.0000 </r>
       <r>   -3.5278    1.0000 </r>
       <r>   -1.2963    1.0000 </r>
       <r>   -1.2898    1.0000 </r>
       <r>   -1.1304    1.0000 </r>
       <r>   -1.1052    1.0000 </r>
       <r>   -0.3924    1.0000 </r>
       <r>   -0.3849    1.0000 </r>
       <r>   -0.3705    1.0000 </r>
       <r>   -0.3598    1.0000 </r>
       <r>   -0.3480    1.0000 </r>
       <r>   -0.2777    1.0000 </r>
       <r>   -0.2460    1.0000 </r>
       <r>   -0.2268    1.0000 </r>
       <r>   -0.1851    1.0000 </r>
       <r>   -0.0204    1.0000 </r>
       <r>    0.0603    1.0000 </r>
       <r>    0.1870    1.0000 </r>
       <r>    0.3095    1.0000 </r>
       <r>    0.3715    1.0000 </r>
       <r>    0.3828    1.0000 </r>
       <r>    0.4850    1.0000 </r>
       <r>    0.5775    1.0000 </r>
       <r>    0.6533    1.0000 </r>
       <r>    0.7493    1.0000 </r>
       <r>    0.7841    1.0000 </r>
       <r>    0.8154    1.0000 </r>
       <r>    0.8248    1.0000 </r>
       <r>    0.8981    1.0000 </r>
       <r>    0.9203    1.0000 </r>
       <r>    1.0222    1.0000 </r>
       <r>    1.1232    1.0000 </r>
       <r>    1.1482    1.0000 </r>
       <r>    1.2057    1.0000 </r>
       <r>    1.2636    1.0000 </r>
       <r>    1.3296    1.0000 </r>
       <r>    1.3649    1.0000 </r>
       <r>    1.4099    1.0000 </r>
       <r>    1.4406    1.0000 </r>
       <r>    1.5357    1.0000 </r>
       <r>    1.5605    1.0000 </r>
       <r>    1.6684    1.0000 </r>
       <r>    1.6965    1.0000 </r>
       <r>    1.7320    1.0000 </r>
       <r>    1.7500    1.0000 </r>
       <r>    1.7971    1.0000 </r>
       <r>    1.8470    1.0000 </r>
       <r>    1.8837    1.0000 </r>
       <r>    1.9475    1.0000 </r>
       <r>    1.9660    1.0000 </r>
       <r>    1.9940    1.0000 </r>
       <r>    2.0384    1.0000 </r>
       <r>    2.1230    1.0000 </r>
       <r>    2.1320    1.0000 </r>
       <r>    2.2006    1.0000 </r>
       <r>    2.2371    1.0000 </r>
       <r>    2.3087    1.0000 </r>
       <r>    2.3141    1.0000 </r>
       <r>    2.4564    1.0000 </r>
       <r>    2.5044    1.0000 </r>
       <r>    2.5229    1.0000 </r>
       <r>    2.5320    1.0000 </r>
       <r>    2.5732    1.0000 </r>
       <r>    2.5802    1.0000 </r>
       <r>    2.6102    1.0000 </r>
       <r>    2.6156    1.0000 </r>
       <r>    2.6168    1.0000 </r>
       <r>    2.6203    1.0000 </r>
       <r>    2.6655    1.0000 </r>
       <r>    2.7347    1.0000 </r>
       <r>    2.7477    1.0000 </r>
       <r>    2.7574    1.0000 </r>
       <r>    2.8117    1.0000 </r>
       <r>    2.8570    1.0000 </r>
       <r>    2.8657    1.0000 </r>
       <r>    2.9210    1.0000 </r>
       <r>    2.9627    1.0000 </r>
       <r>    2.9863    1.0000 </r>
       <r>    3.0018    1.0000 </r>
       <r>    3.0299    1.0000 </r>
       <r>    3.0808    1.0000 </r>
       <r>    3.0964    1.0000 </r>
       <r>    3.1203    1.0000 </r>
       <r>    3.1879    1.0000 </r>
       <r>    3.2933    1.0000 </r>
       <r>    3.3406    1.0000 </r>
       <r>    3.4037    1.0000 </r>
       <r>    3.4371    1.0000 </r>
       <r>    3.4561    1.0000 </r>
       <r>    3.4791    1.0000 </r>
       <r>    3.4924    1.0000 </r>
       <r>    3.5611    1.0000 </r>
       <r>    3.6006    1.0000 </r>
       <r>    3.6248    1.0000 </r>
       <r>    4.2734    1.0000 </r>
       <r>    4.3029    1.0000 </r>
       <r>    4.3078    1.0000 </r>
       <r>    4.3195    1.0000 </r>
       <r>    5.1983    0.0000 </r>
       <r>    5.2032    0.0000 </r>
       <r>    5.2040    0.0000 </r>
       <r>    5.2226    0.0000 </r>
       <r>    5.7793    0.0000 </r>
       <r>    5.7957    0.0000 </r>
       <r>    5.8010    0.0000 </r>
       <r>    5.8354    0.0000 </r>
       <r>    6.2059    0.0000 </r>
       <r>    6.2081    0.0000 </r>
       <r>    6.2241    0.0000 </r>
       <r>    6.2282    0.0000 </r>
       <r>    6.2885    0.0000 </r>
       <r>    6.3036    0.0000 </r>
       <r>    6.3148    0.0000 </r>
       <r>    6.3297    0.0000 </r>
       <r>    6.7597    0.0000 </r>
       <r>    6.9020    0.0000 </r>
       <r>    6.9677    0.0000 </r>
       <r>    7.0626    0.0000 </r>
       <r>    7.3137    0.0000 </r>
       <r>    7.3840    0.0000 </r>
       <r>    7.5167    0.0000 </r>
       <r>    7.5647    0.0000 </r>
       <r>    7.8680    0.0000 </r>
       <r>    7.8977    0.0000 </r>
       <r>    7.9062    0.0000 </r>
       <r>    7.9892    0.0000 </r>
       <r>    8.0694    0.0000 </r>
       <r>    8.3800    0.0000 </r>
       <r>    8.4015    0.0000 </r>
       <r>    8.4965    0.0000 </r>
       <r>    8.7109    0.0000 </r>
       <r>    8.8514    0.0000 </r>
       <r>    8.8979    0.0000 </r>
       <r>    8.9525    0.0000 </r>
       <r>    9.0183    0.0000 </r>
       <r>    9.0768    0.0000 </r>
       <r>    9.1118    0.0000 </r>
       <r>    9.1301    0.0000 </r>
       <r>    9.1755    0.0000 </r>
       <r>    9.1818    0.0000 </r>
       <r>    9.1954    0.0000 </r>
       <r>    9.2416    0.0000 </r>
       <r>    9.5167    0.0000 </r>
       <r>    9.5271    0.0000 </r>
       <r>    9.7455    0.0000 </r>
       <r>    9.7557    0.0000 </r>
       <r>    9.7788    0.0000 </r>
       <r>    9.8269    0.0000 </r>
[...]
       <r>   11.3181    0.0000 </r>
       <r>   11.4025    0.0000 </r>
       <r>   11.4216    0.0000 </r>
       <r>   11.4913    0.0000 </r>
      </set>
     </set>
    </set>
   </array>
  </eigenvalues>
  <separator name="orbital magnetization" >
   <v name="MAGDIPOLOUT">      0.00000000      0.00000000      0.00000000</v>
  </separator>
  <dos>
   <i name="efermi">      4.40196977 </i>
   <total>
    <array>
     <dimension dim="1">gridpoints</dimension>
     <dimension dim="2">spin</dimension>
     <field>energy</field>
     <field>total</field>
     <field>integrated</field>
     <set>
      <set comment="spin 1">
       <r>   -43.0534     0.0000     0.0000 </r>
       <r>   -42.8599     0.0000     0.0000 </r>
       <r>   -42.6664     0.0000     0.0000 </r>
       <r>   -42.4729     0.0000     0.0000 </r>
       <r>   -42.2794     0.0000     0.0000 </r>
       <r>   -42.0859     0.0000     0.0000 </r>
       <r>   -41.8924     0.0000     0.0000 </r>
       <r>   -41.6989     0.0000     0.0000 </r>
       <r>   -41.5054     0.0000     0.0000 </r>
       <r>   -41.3120     0.0000     0.0000 </r>
       <r>   -41.1185     0.0000     0.0000 </r>
       <r>   -40.9250     0.0000     0.0000 </r>
       <r>   -40.7315     0.0000     0.0000 </r>
       <r>   -40.5380     0.0000     0.0000 </r>
       <r>   -40.3445     0.0000     2.0000 </r>
       <r>   -40.1510     0.0000     4.0000 </r>
       <r>   -39.9575     0.0000     8.0000 </r>
       <r>   -39.7640     0.0000    16.0000 </r>
       <r>   -39.5705     0.0000    18.0000 </r>
       <r>   -39.3770     0.0000    20.0000 </r>
       <r>   -39.1835     0.0000    22.0000 </r>
       <r>   -38.9900     0.0000    24.0000 </r>
       <r>   -38.7965     0.0000    24.0000 </r>
       <r>   -38.6030     0.0000    24.0000 </r>
       <r>   -38.4095     0.0000    24.0000 </r>
       <r>   -38.2160     0.0000    24.0000 </r>
       <r>   -38.0225     0.0000    24.0000 </r>
       <r>   -37.8290     0.0000    24.0000 </r>
       <r>   -37.6355     0.0000    24.0000 </r>
       <r>   -37.4420     0.0000    24.0000 </r>
       <r>   -37.2485     0.0000    24.0000 </r>
       <r>   -37.0550     0.0000    24.0000 </r>
       <r>   -36.8615     0.0000    24.0000 </r>
       <r>   -36.6680     0.0000    24.0000 </r>
       <r>   -36.4745     0.0000    24.0000 </r>
       <r>   -36.2810     0.0000    24.0000 </r>
       <r>   -36.0875     0.0000    24.0000 </r>
       <r>   -35.8940     0.0000    24.0000 </r>
       <r>   -35.7005     0.0000    24.0000 </r>
       <r>   -35.5070     0.0000    24.0000 </r>
       <r>   -35.3135     0.0000    24.0000 </r>
       <r>   -35.1200     0.0000    24.0000 </r>
       <r>   -34.9265     0.0000    24.0000 </r>
       <r>   -34.7330     0.0000    24.0000 </r>
       <r>   -34.5395     0.0000    24.0000 </r>
       <r>   -34.3460     0.0000    24.0000 </r>
       <r>   -34.1525     0.0000    24.0000 </r>
       <r>   -33.9590     0.0000    24.0000 </r>
       <r>   -33.7655     0.0000    24.0000 </r>
       <r>   -33.5720     0.0000    24.0000 </r>
       <r>   -33.3785     0.0000    24.0000 </r>
       <r>   -33.1850     0.0000    24.0000 </r>
       <r>   -32.9915     0.0000    24.0000 </r>
       <r>   -32.7980     0.0000    24.0000 </r>
       <r>   -32.6045     0.0000    24.0000 </r>
       <r>   -32.4110     0.0000    24.0000 </r>
       <r>   -32.2175     0.0000    24.0000 </r>
       <r>   -32.0240     0.0000    24.0000 </r>
       <r>   -31.8305     0.0000    24.0000 </r>
       <r>   -31.6370     0.0000    24.0000 </r>
       <r>   -31.4435     0.0000    24.0000 </r>
       <r>   -31.2501     0.0000    24.0000 </r>
       <r>   -31.0566     0.0000    24.0000 </r>
       <r>   -30.8631     0.0000    24.0000 </r>
       <r>   -30.6696     0.0000    24.0000 </r>
       <r>   -30.4761     0.0000    24.0000 </r>
       <r>   -30.2826     0.0000    24.0000 </r>
       <r>   -30.0891     0.0000    24.0000 </r>
       <r>   -29.8956     0.0000    24.0000 </r>
       <r>   -29.7021     0.0000    24.0000 </r>
       <r>   -29.5086     0.0000    24.0000 </r>
       <r>   -29.3151     0.0000    24.0000 </r>
       <r>   -29.1216     0.0000    24.0000 </r>
       <r>   -28.9281     0.0000    24.0000 </r>
       <r>   -28.7346     0.0000    24.0000 </r>
       <r>   -28.5411     0.0000    24.0000 </r>
       <r>   -28.3476     0.0000    24.0000 </r>
       <r>   -28.1541     0.0000    24.0000 </r>
       <r>   -27.9606     0.0000    24.0000 </r>
       <r>   -27.7671     0.0000    24.0000 </r>
       <r>   -27.5736     0.0000    24.0000 </r>
       <r>   -27.3801     0.0000    24.0000 </r>
       <r>   -27.1866     0.0000    24.0000 </r>
       <r>   -26.9931     0.0000    24.0000 </r>
       <r>   -26.7996     0.0000    24.0000 </r>
       <r>   -26.6061     0.0000    24.0000 </r>
       <r>   -26.4126     0.0000    24.0000 </r>
       <r>   -26.2191     0.0000    24.0000 </r>
       <r>   -26.0256     0.0000    24.0000 </r>
       <r>   -25.8321     0.0000    24.0000 </r>
       <r>   -25.6386     0.0000    24.0000 </r>
       <r>   -25.4451     0.0000    24.0000 </r>
       <r>   -25.2516     0.0000    24.0000 </r>
       <r>   -25.0581     0.0000    24.0000 </r>
       <r>   -24.8646     0.0000    24.0000 </r>
       <r>   -24.6711     0.0000    24.0000 </r>
       <r>   -24.4776     0.0000    24.0000 </r>
       <r>   -24.2841     0.0000    24.0000 </r>
       <r>   -24.0906     0.0000    24.0000 </r>
       <r>   -23.8971     0.0000    24.0000 </r>
       <r>   -23.7036     0.0000    24.0000 </r>
       <r>   -23.5101     0.0000    24.0000 </r>
       <r>   -23.3166     0.0000    24.0000 </r>
       <r>   -23.1231     0.0000    24.0000 </r>
       <r>   -22.9296     0.0000    24.0000 </r>
       <r>   -22.7361     0.0000    24.0000 </r>
       <r>   -22.5426     0.0000    24.0000 </r>
       <r>   -22.3491     0.0000    24.0000 </r>
       <r>   -22.1556     0.0000    24.0000 </r>
       <r>   -21.9621     0.0000    24.0000 </r>
       <r>   -21.7686     0.0000    24.0000 </r>
       <r>   -21.5751     0.0000    24.0000 </r>
       <r>   -21.3816     0.0000    24.0000 </r>
       <r>   -21.1882     0.0000    24.0000 </r>
       <r>   -20.9947     0.0000    24.0000 </r>
       <r>   -20.8012     0.0000    24.0000 </r>
       <r>   -20.6077     0.0000    24.0000 </r>
       <r>   -20.4142     0.0000    24.0000 </r>
       <r>   -20.2207     0.0000    24.0000 </r>
       <r>   -20.0272     0.0000    24.0000 </r>
       <r>   -19.8337     0.0000    24.0000 </r>
       <r>   -19.6402     0.0000    24.0000 </r>
       <r>   -19.4467     0.0000    24.0000 </r>
       <r>   -19.2532     0.0000    24.0000 </r>
       <r>   -19.0597     0.0000    24.0000 </r>
       <r>   -18.8662     0.0000    34.0000 </r>
       <r>   -18.6727     0.0000    62.0000 </r>
       <r>   -18.4792     0.0000   122.0000 </r>
       <r>   -18.2857 58563.4140   165.9805 </r>
       <r>   -18.0922     0.0000   180.0000 </r>
       <r>   -17.8987     0.0000   184.0000 </r>
       <r>   -17.7052     0.0000   184.0000 </r>
       <r>   -17.5117     0.0000   184.0000 </r>
       <r>   -17.3182     0.0000   184.0000 </r>
       <r>   -17.1247     0.0000   184.0000 </r>
       <r>   -16.9312     0.0000   184.0000 </r>
       <r>   -16.7377     0.0000   184.0000 </r>
       <r>   -16.5442     0.0000   184.0000 </r>
       <r>   -16.3507     0.0000   184.0000 </r>
       <r>   -16.1572     0.0000   184.0000 </r>
       <r>   -15.9637     0.0000   184.0000 </r>
       <r>   -15.7702     0.0000   184.0000 </r>
       <r>   -15.5767     0.0000   184.0000 </r>
       <r>   -15.3832     0.0000   184.0000 </r>
       <r>   -15.1897     0.0000   184.0000 </r>
       <r>   -14.9962     0.0000   184.0000 </r>
       <r>   -14.8027     0.0000   184.0000 </r>
       <r>   -14.6092     0.0000   184.0000 </r>
       <r>   -14.4157     0.0000   184.0000 </r>
       <r>   -14.2222     0.0000   184.0000 </r>
       <r>   -14.0287     0.0000   184.0000 </r>
       <r>   -13.8352     0.0000   184.0000 </r>
       <r>   -13.6417     0.0000   184.0000 </r>
       <r>   -13.4482     0.0000   190.0000 </r>
       <r>   -13.2547     0.0000   190.0000 </r>
       <r>   -13.0612     0.0000   190.0000 </r>
       <r>   -12.8677     0.0000   190.0000 </r>
       <r>   -12.6742   328.4952   198.1996 </r>
       <r>   -12.4807     0.0000   210.0000 </r>
       <r>   -12.2872     0.0000   210.0000 </r>
       <r>   -12.0937     0.0000   210.0000 </r>
       <r>   -11.9002     0.0000   212.0000 </r>
       <r>   -11.7067     0.0000   216.0000 </r>
       <r>   -11.5132     0.0000   216.0000 </r>
       <r>   -11.3197     0.0000   216.0000 </r>
       <r>   -11.1263     0.0000   216.0000 </r>
       <r>   -10.9328     0.0000   216.0000 </r>
       <r>   -10.7393     0.0000   216.0000 </r>
       <r>   -10.5458     0.0000   216.0000 </r>
       <r>   -10.3523     0.0000   216.0000 </r>
       <r>   -10.1588     0.0000   216.0000 </r>
       <r>    -9.9653     0.0000   216.0000 </r>
       <r>    -9.7718     0.0000   216.0000 </r>
       <r>    -9.5783     0.0000   216.0000 </r>
       <r>    -9.3848     0.0000   216.0000 </r>
       <r>    -9.1913    11.8742   216.6658 </r>
       <r>    -8.9978    20.6948   218.7810 </r>
       <r>    -8.8043     6.3917   221.0621 </r>
       <r>    -8.6108    11.3811   223.7441 </r>
       <r>    -8.4173    32.1017   227.0946 </r>
       <r>    -8.2238     5.3151   231.9898 </r>
       <r>    -8.0303    10.2585   234.8683 </r>
       <r>    -7.8368    19.4457   239.8726 </r>
       <r>    -7.6433    12.8202   243.4976 </r>
       <r>    -7.4498    17.2704   246.8879 </r>
       <r>    -7.2563     0.0000   248.0000 </r>
       <r>    -7.0628     0.0000   248.0000 </r>
       <r>    -6.8693     0.0000   248.0000 </r>
       <r>    -6.6758     0.0000   248.0000 </r>
       <r>    -6.4823     0.0000   248.0000 </r>
       <r>    -6.2888     5.5865   248.1421 </r>
       <r>    -6.0953    25.9251   251.3728 </r>
       <r>    -5.9018    12.7927   255.4231 </r>
       <r>    -5.7083    27.4308   259.1838 </r>
       <r>    -5.5148    19.0728   263.9781 </r>
       <r>    -5.3213    21.3641   267.6400 </r>
       <r>    -5.1278    12.3073   271.0438 </r>
       <r>    -4.9343     3.6655   272.1431 </r>
       <r>    -4.7408     8.1818   273.4332 </r>
       <r>    -4.5473    10.4260   275.2030 </r>
       <r>    -4.3538     8.2830   276.8543 </r>
       <r>    -4.1603     6.7148   278.1517 </r>
       <r>    -3.9668     4.4457   279.2901 </r>
       <r>    -3.7733     1.4991   279.8451 </r>
       <r>    -3.5798     0.1206   279.9979 </r>
       <r>    -3.3863     0.0000   280.0000 </r>
       <r>    -3.1928     0.0000   280.0000 </r>
       <r>    -2.9993     0.0000   280.0000 </r>
       <r>    -2.8058     0.0000   280.0000 </r>
       <r>    -2.6123     0.0000   280.0000 </r>
       <r>    -2.4188     0.0000   280.0000 </r>
       <r>    -2.2253     0.0000   280.0000 </r>
       <r>    -2.0318     0.0000   280.0000 </r>
       <r>    -1.8383     0.0000   280.0000 </r>
       <r>    -1.6448     0.0000   280.0000 </r>
       <r>    -1.4513     0.0000   280.0000 </r>
       <r>    -1.2578     4.6538   280.1746 </r>
       <r>    -1.0644     8.8268   281.6227 </r>
       <r>    -0.8709    12.1742   284.0608 </r>
       <r>    -0.6774     9.0789   286.2294 </r>
       <r>    -0.4839     7.1526   287.5286 </r>
       <r>    -0.2904    22.0727   290.8756 </r>
       <r>    -0.0969    37.1908   295.9504 </r>
       <r>     0.0966    33.6029   303.5334 </r>
       <r>     0.2901    40.0777   309.0968 </r>
       <r>     0.4836    39.5500   316.6649 </r>
       <r>     0.6771    32.7129   323.6895 </r>
       <r>     0.8706    31.0827   331.1415 </r>
       <r>     1.0641    51.8369   339.3735 </r>
       <r>     1.2576    57.4766   347.3079 </r>
       <r>     1.4511    44.3697   356.9731 </r>
       <r>     1.6446    53.6051   366.0751 </r>
       <r>     1.8381    55.9443   375.0473 </r>
       <r>     2.0316    39.2548   383.7550 </r>
       <r>     2.2251    46.7567   392.2555 </r>
       <r>     2.4186    52.6192   401.6526 </r>
       <r>     2.6121    72.1452   413.5766 </r>
       <r>     2.8056    69.2133   424.8604 </r>
       <r>     2.9991    57.6935   436.8786 </r>
       <r>     3.1926    41.3750   447.8863 </r>
       <r>     3.3861    37.0547   455.7433 </r>
       <r>     3.5796    41.6622   463.2583 </r>
       <r>     3.7731    21.8878   467.1927 </r>
       <r>     3.9666    11.1667   470.2525 </r>
       <r>     4.1601     4.2302   471.7423 </r>
       <r>     4.3536     0.0000   472.0000 </r>
       <r>     4.5471     0.0000   472.0000 </r>
       <r>     4.7406     0.0000   472.0000 </r>
       <r>     4.9341     0.0000   472.0000 </r>
       <r>     5.1276     0.0000   472.0000 </r>
       <r>     5.3211     3.5935   472.2729 </r>
       <r>     5.5146     8.2733   473.4208 </r>
       <r>     5.7081     8.5339   475.1521 </r>
       <r>     5.9016    20.8784   478.5069 </r>
       <r>     6.0951    12.6950   481.7021 </r>
       <r>     6.2886    11.5464   483.9863 </r>
       <r>     6.4821    13.4777   486.3946 </r>
       <r>     6.6756    15.5394   489.2024 </r>
       <r>     6.8691    17.4874   492.3948 </r>
       <r>     7.0626    21.2217   496.0736 </r>
       <r>     7.2561    31.7718   501.0914 </r>
       <r>     7.4496    42.8887   508.1034 </r>
       <r>     7.6431    22.3293   513.9867 </r>
       <r>     7.8366    44.5565   520.4981 </r>
       <r>     8.0301    40.6386   529.9738 </r>
       <r>     8.2236    22.0194   535.5706 </r>
       <r>     8.4171    18.8494   539.4048 </r>
       <r>     8.6106    23.7108   543.4237 </r>
       <r>     8.8041    30.4492   548.7588 </r>
       <r>     8.9975    39.6744   557.0812 </r>
       <r>     9.1910    16.5888   562.2965 </r>
       <r>     9.3845    13.5049   565.1421 </r>
       <r>     9.5780    12.6353   567.6352 </r>
       <r>     9.7715     8.3173   570.7383 </r>
       <r>     9.9650     6.5710   572.3084 </r>
       <r>    10.1585    10.9884   573.8359 </r>
       <r>    10.3520    26.9500   577.3366 </r>
       <r>    10.5455    22.2897   582.8732 </r>
       <r>    10.7390    46.7032   590.3968 </r>
       <r>    10.9325    23.8339   596.5759 </r>
       <r>    11.1260    14.8808   599.8912 </r>
       <r>    11.3195    25.4780   604.2799 </r>
       <r>    11.5130    23.2344   609.2022 </r>
       <r>    11.7065    14.5886   612.8348 </r>
       <r>    11.9000     7.7219   614.9886 </r>
       <r>    12.0935     1.8857   615.8576 </r>
       <r>    12.2870     0.0974   615.9977 </r>
       <r>    12.4805     0.0000   616.0000 </r>
       <r>    12.6740     0.0000   616.0000 </r>
       <r>    12.8675     0.0000   616.0000 </r>
       <r>    13.0610     0.0000   616.0000 </r>
       <r>    13.2545     0.0000   616.0000 </r>
       <r>    13.4480     0.0000   616.0000 </r>
       <r>    13.6415     0.0000   616.0000 </r>
       <r>    13.8350     0.0000   616.0000 </r>
       <r>    14.0285     0.0000   616.0000 </r>
       <r>    14.2220     0.0000   616.0000 </r>
       <r>    14.4155     0.0000   616.0000 </r>
       <r>    14.6090     0.0000   616.0000 </r>
       <r>    14.8025     0.0000   616.0000 </r>
       <r>    14.9960     0.0000   616.0000 </r>
      </set>
     </set>
    </array>
   </total>
  </dos>
 </calculation>
 <structure name="finalpos" >
  <crystal>
   <varray name="basis" >
    <v>      11.17850000       0.00000000       0.00000000 </v>
    <v>       0.00000000       9.57460000       0.00000000 </v>
    <v>       0.00000000       0.00000000      11.18240000 </v>
   </varray>
   <i name="volume">   1196.84853820 </i>
   <varray name="rec_basis" >
    <v>       0.08945744       0.00000000       0.00000000 </v>
    <v>       0.00000000       0.10444301       0.00000000 </v>
    <v>       0.00000000       0.00000000       0.08942624 </v>
   </varray>
  </crystal>
  <varray name="positions" >
   <v>       0.37539000       0.00017000       0.43687000 </v>
   <v>       0.12461000       0.99984000       0.18687000 </v>
   <v>       0.37461000       0.00017000       0.18687000 </v>
   <v>       0.62539000       0.99984000       0.43687000 </v>
   <v>       0.87539000       0.00017000       0.43687000 </v>
   <v>       0.12539000       0.99984000       0.93687000 </v>
   <v>       0.37539000       0.00017000       0.93687000 </v>
   <v>       0.37461000       0.00017000       0.68687000 </v>
   <v>       0.62539000       0.99984000       0.93687000 </v>
   <v>       0.87539000       0.00017000       0.93687000 </v>
   <v>       0.62461000       0.99984000       0.68687000 </v>
   <v>       0.87461000       0.00017000       0.68687000 </v>
   <v>       0.87461000       0.00017000       0.18687000 </v>
   <v>       0.12461000       0.99984000       0.68687000 </v>
   <v>       0.00013000       0.29519000       0.06281000 </v>
   <v>       0.25013000       0.70481000       0.06281000 </v>
   <v>       0.24987000       0.29519000       0.31282000 </v>
   <v>       0.49987000       0.70481000       0.31282000 </v>
   <v>       0.50013000       0.29519000       0.06281000 </v>
   <v>       0.75013000       0.70481000       0.06281000 </v>
   <v>       0.74987000       0.29519000       0.31282000 </v>
   <v>       0.99987000       0.70481000       0.31282000 </v>
   <v>       0.00013000       0.29519000       0.56281000 </v>
   <v>       0.25013000       0.70481000       0.56281000 </v>
   <v>       0.24987000       0.29519000       0.81282000 </v>
   <v>       0.49987000       0.70481000       0.81282000 </v>
   <v>       0.50013000       0.29519000       0.56281000 </v>
   <v>       0.75013000       0.70481000       0.56281000 </v>
   <v>       0.74987000       0.29519000       0.81282000 </v>
   <v>       0.99987000       0.70481000       0.81282000 </v>
   <v>       0.25005000       0.32677000       0.06286000 </v>
   <v>       0.00005000       0.67323000       0.06286000 </v>
   <v>       0.49995000       0.32677000       0.31286000 </v>
   <v>       0.24995000       0.67323000       0.31286000 </v>
   <v>       0.75005000       0.32677000       0.06286000 </v>
   <v>       0.50005000       0.67323000       0.06286000 </v>
   <v>       0.99995000       0.32677000       0.31286000 </v>
   <v>       0.74995000       0.67323000       0.31286000 </v>
   <v>       0.25005000       0.32677000       0.56286000 </v>
   <v>       0.00005000       0.67323000       0.56286000 </v>
   <v>       0.49995000       0.32677000       0.81286000 </v>
   <v>       0.24995000       0.67323000       0.81286000 </v>
   <v>       0.75005000       0.32677000       0.56286000 </v>
   <v>       0.50005000       0.67323000       0.56286000 </v>
   <v>       0.99995000       0.32677000       0.81286000 </v>
   <v>       0.74995000       0.67323000       0.81286000 </v>
   <v>       0.49987000       0.07798000       0.06246000 </v>
   <v>       0.24987000       0.92202000       0.06246000 </v>
   <v>       0.25013000       0.07798000       0.31246000 </v>
   <v>       0.00013000       0.92202000       0.31246000 </v>
   <v>       0.99987000       0.07798000       0.06246000 </v>
   <v>       0.74987000       0.92202000       0.06246000 </v>
   <v>       0.75013000       0.07798000       0.31246000 </v>
   <v>       0.50013000       0.92202000       0.31246000 </v>
   <v>       0.49987000       0.07798000       0.56246000 </v>
   <v>       0.24987000       0.92202000       0.56246000 </v>
   <v>       0.25013000       0.07798000       0.81246000 </v>
   <v>       0.00013000       0.92202000       0.81246000 </v>
   <v>       0.99987000       0.07798000       0.56246000 </v>
   <v>       0.74987000       0.92202000       0.56246000 </v>
   <v>       0.75013000       0.07798000       0.81246000 </v>
   <v>       0.50013000       0.92202000       0.81246000 </v>
  </varray>
 </structure>
</modeling>
