<?xml version="1.0" encoding="ISO-8859-1"?>
<modeling>
 <generator>
  <i name="program" type="string">vasp </i>
  <i name="version" type="string">5.4.4.18Apr17-6-g9f103f2a35  </i>
  <i name="subversion" type="string">(build Jul 31 2017 11:33:29) complex            parallel </i>
  <i name="platform" type="string">LinuxIFC </i>
  <i name="date" type="string">2021 09 29 </i>
  <i name="time" type="string">09:00:47 </i>
 </generator>
 <incar>
  <i type="string" name="SYSTEM"> La2O2S</i>
  <i type="string" name="PREC">normal</i>
  <i type="int" name="NELMIN">     4</i>
  <i type="int" name="IBRION">     2</i>
  <i type="int" name="NFREE">    10</i>
  <i name="EDIFF">      0.00000100</i>
  <i name="EDIFFG">     -0.01000000</i>
  <i type="int" name="NSW">     1</i>
  <i type="int" name="ISIF">     2</i>
  <i name="ENCUT">    600.00000000</i>
  <i name="ENAUG">    900.00000000</i>
  <i type="int" name="ISMEAR">    -5</i>
  <i type="logical" name="LWAVE"> F  </i>
  <i type="logical" name="LCHARG"> F  </i>
  <v type="int" name="KPOINT_BSE">    -1     0     0     0</v>
 </incar>
 <structure name="primitive_cell" >
  <crystal>
   <varray name="basis" >
    <v>      11.17850000       0.00000000       0.00000000 </v>
    <v>       0.00000000       9.57460000       0.00000000 </v>
    <v>       0.00000000       0.00000000      11.18240000 </v>
   </varray>
   <i name="volume">   1196.84853820 </i>
   <varray name="rec_basis" >
    <v>       0.08945744       0.00000000       0.00000000 </v>
    <v>       0.00000000       0.10444301       0.00000000 </v>
    <v>       0.00000000       0.00000000       0.08942624 </v>
   </varray>
  </crystal>
  <varray name="positions" >
   <v>       0.37461000       0.00017000       0.18687000 </v>
   <v>       0.24987000      -0.07798000       0.06246000 </v>
   <v>       0.49987000       0.07798000       0.06246000 </v>
   <v>       0.25013000       0.07798000       0.31246000 </v>
   <v>      -0.49987000      -0.07798000       0.31246000 </v>
   <v>       0.12461000      -0.00016000       0.18687000 </v>
   <v>      -0.37539000      -0.00016000       0.18687000 </v>
   <v>       0.37539000       0.00017000      -0.06313000 </v>
   <v>       0.25013000      -0.29519000       0.06281000 </v>
   <v>      -0.49987000       0.29519000       0.06281000 </v>
   <v>       0.24987000       0.29519000       0.31282000 </v>
   <v>       0.49987000      -0.29519000       0.31282000 </v>
   <v>       0.25005000       0.32677000       0.06286000 </v>
   <v>      -0.49995000      -0.32677000       0.06286000 </v>
   <v>       0.24995000      -0.32677000       0.31286000 </v>
   <v>       0.49995000       0.32677000       0.31286000 </v>
   <v>      -0.37461000      -0.00016000       0.43687000 </v>
   <v>       0.25013000       0.07798000      -0.18754000 </v>
   <v>      -0.00013000       0.07798000       0.06246000 </v>
   <v>       0.00013000      -0.07798000       0.31246000 </v>
   <v>      -0.49987000      -0.07798000      -0.18754000 </v>
   <v>      -0.25013000      -0.07798000       0.06246000 </v>
   <v>       0.24987000      -0.07798000      -0.43754000 </v>
   <v>      -0.24987000       0.07798000       0.31246000 </v>
   <v>       0.49987000       0.07798000      -0.43754000 </v>
   <v>       0.24987000       0.29519000      -0.18718000 </v>
   <v>       0.00013000       0.29519000       0.06281000 </v>
   <v>       0.49987000      -0.29519000      -0.18718000 </v>
   <v>      -0.00013000      -0.29519000       0.31282000 </v>
   <v>      -0.24987000      -0.29519000       0.06281000 </v>
   <v>      -0.25013000       0.29519000       0.31282000 </v>
   <v>       0.25013000      -0.29519000      -0.43719000 </v>
   <v>      -0.49987000       0.29519000      -0.43719000 </v>
   <v>       0.24995000      -0.32677000      -0.18714000 </v>
   <v>       0.49995000       0.32677000      -0.18714000 </v>
   <v>       0.00005000      -0.32677000       0.06286000 </v>
   <v>      -0.00005000       0.32677000       0.31286000 </v>
   <v>      -0.24995000       0.32677000       0.06286000 </v>
   <v>      -0.25005000      -0.32677000       0.31286000 </v>
   <v>       0.25005000       0.32677000      -0.43714000 </v>
   <v>      -0.49995000      -0.32677000      -0.43714000 </v>
   <v>       0.00013000      -0.07798000      -0.18754000 </v>
   <v>      -0.24987000       0.07798000      -0.18754000 </v>
   <v>      -0.00013000       0.07798000      -0.43754000 </v>
   <v>      -0.25013000      -0.07798000      -0.43754000 </v>
   <v>      -0.12461000       0.00017000       0.43687000 </v>
   <v>      -0.12461000       0.00017000      -0.06313000 </v>
   <v>       0.12461000      -0.00016000      -0.31313000 </v>
   <v>      -0.37539000      -0.00016000      -0.31313000 </v>
   <v>      -0.00013000      -0.29519000      -0.18718000 </v>
   <v>      -0.25013000       0.29519000      -0.18718000 </v>
   <v>       0.00013000       0.29519000      -0.43719000 </v>
   <v>      -0.24987000      -0.29519000      -0.43719000 </v>
   <v>      -0.00005000       0.32677000      -0.18714000 </v>
   <v>      -0.25005000      -0.32677000      -0.18714000 </v>
   <v>       0.00005000      -0.32677000      -0.43714000 </v>
   <v>      -0.24995000       0.32677000      -0.43714000 </v>
  </varray>
 </structure>
 <varray name="primitive_index" >
  <v type="int" >        1 </v>
  <v type="int" >       43 </v>
  <v type="int" >       42 </v>
  <v type="int" >       44 </v>
  <v type="int" >       49 </v>
  <v type="int" >        3 </v>
  <v type="int" >        5 </v>
  <v type="int" >        6 </v>
  <v type="int" >       11 </v>
  <v type="int" >       14 </v>
  <v type="int" >       12 </v>
  <v type="int" >       13 </v>
  <v type="int" >       26 </v>
  <v type="int" >       31 </v>
  <v type="int" >       29 </v>
  <v type="int" >       28 </v>
  <v type="int" >        4 </v>
  <v type="int" >       52 </v>
  <v type="int" >       46 </v>
  <v type="int" >       45 </v>
  <v type="int" >       57 </v>
  <v type="int" >       47 </v>
  <v type="int" >       51 </v>
  <v type="int" >       48 </v>
  <v type="int" >       50 </v>
  <v type="int" >       20 </v>
  <v type="int" >       10 </v>
  <v type="int" >       21 </v>
  <v type="int" >       17 </v>
  <v type="int" >       15 </v>
  <v type="int" >       16 </v>
  <v type="int" >       19 </v>
  <v type="int" >       22 </v>
  <v type="int" >       37 </v>
  <v type="int" >       36 </v>
  <v type="int" >       27 </v>
  <v type="int" >       32 </v>
  <v type="int" >       30 </v>
  <v type="int" >       33 </v>
  <v type="int" >       34 </v>
  <v type="int" >       39 </v>
  <v type="int" >       53 </v>
  <v type="int" >       56 </v>
  <v type="int" >       54 </v>
  <v type="int" >       55 </v>
  <v type="int" >        2 </v>
  <v type="int" >        8 </v>
  <v type="int" >        7 </v>
  <v type="int" >        9 </v>
  <v type="int" >       25 </v>
  <v type="int" >       24 </v>
  <v type="int" >       18 </v>
  <v type="int" >       23 </v>
  <v type="int" >       40 </v>
  <v type="int" >       41 </v>
  <v type="int" >       35 </v>
  <v type="int" >       38 </v>
 </varray>
 <kpoints>
  <generation param="Gamma">
   <v type="int" name="divisions">       2        2        2 </v>
   <v name="usershift">      0.00000000       0.00000000       0.00000000 </v>
   <v name="genvec1">      0.50000000       0.00000000       0.00000000 </v>
   <v name="genvec2">      0.00000000       0.50000000       0.00000000 </v>
   <v name="genvec3">      0.00000000       0.00000000       0.50000000 </v>
   <v name="shift">      0.00000000       0.00000000       0.00000000 </v>
  </generation>
  <varray name="kpointlist" >
   <v>       0.00000000       0.00000000       0.00000000 </v>
   <v>       0.50000000       0.00000000       0.00000000 </v>
   <v>       0.00000000       0.50000000       0.00000000 </v>
   <v>       0.50000000       0.50000000       0.00000000 </v>
   <v>       0.00000000       0.00000000       0.50000000 </v>
   <v>       0.50000000       0.00000000       0.50000000 </v>
   <v>       0.00000000       0.50000000       0.50000000 </v>
   <v>       0.50000000       0.50000000       0.50000000 </v>
  </varray>
  <varray name="weights" >
   <v>       0.12500000 </v>
   <v>       0.12500000 </v>
   <v>       0.12500000 </v>
   <v>       0.12500000 </v>
   <v>       0.12500000 </v>
   <v>       0.12500000 </v>
   <v>       0.12500000 </v>
   <v>       0.12500000 </v>
  </varray>
  <varray name="tetrahedronlist"  type="int" >
   <v type="int" >        2        1        2        4        5 </v>
   <v type="int" >        2        1        3        4        5 </v>
   <v type="int" >        2        3        4        5        7 </v>
   <v type="int" >        2        2        4        5        6 </v>
   <v type="int" >        2        4        5        6        8 </v>
   <v type="int" >        2        4        5        7        8 </v>
   <v type="int" >        2        1        2        3        6 </v>
   <v type="int" >        2        2        3        4        6 </v>
   <v type="int" >        2        3        4        6        8 </v>
   <v type="int" >        2        1        3        5        6 </v>
   <v type="int" >        2        3        5        6        7 </v>
   <v type="int" >        2        3        6        7        8 </v>
   <v type="int" >        2        2        3        4        7 </v>
   <v type="int" >        2        1        2        3        7 </v>
   <v type="int" >        2        1        2        5        7 </v>
   <v type="int" >        2        2        4        7        8 </v>
   <v type="int" >        2        2        6        7        8 </v>
   <v type="int" >        2        2        5        6        7 </v>
   <v type="int" >        2        1        3        4        8 </v>
   <v type="int" >        2        1        2        4        8 </v>
   <v type="int" >        2        1        2        6        8 </v>
   <v type="int" >        2        1        3        7        8 </v>
   <v type="int" >        2        1        5        7        8 </v>
   <v type="int" >        2        1        5        6        8 </v>
  </varray>
  <i name="volumeweight">      0.02083333 </i>
 </kpoints>
 <parameters>
  <separator name="general" >
   <i type="string" name="SYSTEM">La2O2S</i>
   <i type="logical" name="LCOMPAT"> F  </i>
  </separator>
  <separator name="electronic" >
   <i type="string" name="PREC">normal</i>
   <i name="ENMAX">    600.00000000</i>
   <i name="ENAUG">    900.00000000</i>
   <i name="EDIFF">      0.00000100</i>
   <i type="int" name="IALGO">    38</i>
   <i type="int" name="IWAVPR">    11</i>
   <i type="int" name="NBANDS">   280</i>
   <i name="NELECT">    452.00000000</i>
   <i type="int" name="TURBO">     0</i>
   <i type="int" name="IRESTART">     0</i>
   <i type="int" name="NREBOOT">     0</i>
   <i type="int" name="NMIN">     0</i>
   <i name="EREF">      0.00000000</i>
   <separator name="electronic smearing" >
    <i type="int" name="ISMEAR">    -5</i>
    <i name="SIGMA">      0.20000000</i>
    <i name="KSPACING">      0.50000000</i>
    <i type="logical" name="KGAMMA"> T  </i>
   </separator>
   <separator name="electronic projectors" >
    <i type="logical" name="LREAL"> F  </i>
    <v name="ROPT">      0.00000000      0.00000000      0.00000000      0.00000000      0.00000000</v>
    <i type="int" name="LMAXPAW">  -100</i>
    <i type="int" name="LMAXMIX">     2</i>
    <i type="logical" name="NLSPLINE"> F  </i>
   </separator>
   <separator name="electronic startup" >
    <i type="int" name="ISTART">     0</i>
    <i type="int" name="ICHARG">     2</i>
    <i type="int" name="INIWAV">     1</i>
   </separator>
   <separator name="electronic spin" >
    <i type="int" name="ISPIN">     1</i>
    <i type="logical" name="LNONCOLLINEAR"> F  </i>
    <v name="MAGMOM">      1.00000000      1.00000000      1.00000000      1.00000000      1.00000000      1.00000000      1.00000000      1.00000000      1.00000000      1.00000000      1.00000000      1.00000000      1.00000000      1.00000000      1.00000000      1.00000000      1.00000000      1.00000000      1.00000000      1.00000000
      1.00000000      1.00000000      1.00000000      1.00000000      1.00000000      1.00000000      1.00000000      1.00000000      1.00000000      1.00000000      1.00000000      1.00000000      1.00000000      1.00000000      1.00000000      1.00000000      1.00000000      1.00000000      1.00000000      1.00000000
      1.00000000      1.00000000      1.00000000      1.00000000      1.00000000      1.00000000      1.00000000      1.00000000      1.00000000      1.00000000      1.00000000      1.00000000      1.00000000      1.00000000      1.00000000      1.00000000      1.00000000</v>
    <i name="NUPDOWN">     -1.00000000</i>
    <i type="logical" name="LSORBIT"> F  </i>
    <v name="SAXIS">      0.00000000      0.00000000      1.00000000</v>
    <i type="logical" name="LSPIRAL"> F  </i>
    <v name="QSPIRAL">      0.00000000      0.00000000      0.00000000</v>
    <i type="logical" name="LZEROZ"> F  </i>
   </separator>
   <separator name="electronic exchange-correlation" >
    <i type="logical" name="LASPH"> F  </i>
    <i type="logical" name="LMETAGGA"> F  </i>
   </separator>
   <separator name="electronic convergence" >
    <i type="int" name="NELM">    60</i>
    <i type="int" name="NELMDL">    -5</i>
    <i type="int" name="NELMIN">     4</i>
    <i name="ENINI">    600.00000000</i>
    <separator name="electronic convergence detail" >
     <i type="logical" name="LDIAG"> T  </i>
     <i type="logical" name="LSUBROT"> F  </i>
     <i name="WEIMIN">      0.00100000</i>
     <i name="EBREAK">      0.00000000</i>
     <i name="DEPER">      0.30000000</i>
     <i type="int" name="NRMM">     4</i>
     <i name="TIME">      0.40000000</i>
    </separator>
   </separator>
   <separator name="electronic mixer" >
    <i name="AMIX">      0.40000000</i>
    <i name="BMIX">      1.00000000</i>
    <i name="AMIN">      0.10000000</i>
    <i name="AMIX_MAG">      1.60000000</i>
    <i name="BMIX_MAG">      1.00000000</i>
    <separator name="electronic mixer details" >
     <i type="int" name="IMIX">     4</i>
     <i type="logical" name="MIXFIRST"> F  </i>
     <i type="int" name="MAXMIX">   -45</i>
     <i name="WC">    100.00000000</i>
     <i type="int" name="INIMIX">     1</i>
     <i type="int" name="MIXPRE">     1</i>
     <i type="int" name="MREMOVE">     5</i>
    </separator>
   </separator>
   <separator name="electronic dipolcorrection" >
    <i type="logical" name="LDIPOL"> F  </i>
    <i type="logical" name="LMONO"> F  </i>
    <i type="int" name="IDIPOL">     0</i>
    <i name="EPSILON">      1.00000000</i>
    <v name="DIPOL">   -100.00000000   -100.00000000   -100.00000000</v>
    <i name="EFIELD">      0.00000000</i>
   </separator>
  </separator>
  <separator name="grids" >
   <i type="int" name="NGX">    70</i>
   <i type="int" name="NGY">    60</i>
   <i type="int" name="NGZ">    70</i>
   <i type="int" name="NGXF">   140</i>
   <i type="int" name="NGYF">   120</i>
   <i type="int" name="NGZF">   140</i>
   <i type="logical" name="ADDGRID"> F  </i>
  </separator>
  <separator name="ionic" >
   <i type="int" name="NSW">     1</i>
   <i type="int" name="IBRION">     2</i>
   <i type="int" name="MDALGO">     0</i>
   <i type="int" name="ISIF">     2</i>
   <i name="PSTRESS">      0.00000000</i>
   <i name="EDIFFG">     -0.01000000</i>
   <i type="int" name="NFREE">    10</i>
   <i name="POTIM">      0.50000000</i>
   <i name="SMASS">     -3.00000000</i>
   <i name="SCALEE">      1.00000000</i>
  </separator>
  <separator name="ionic md" >
   <i name="TEBEG">      0.00010000</i>
   <i name="TEEND">      0.00010000</i>
   <i type="int" name="NBLOCK">     1</i>
   <i type="int" name="KBLOCK">     1</i>
   <i type="int" name="NPACO">   256</i>
   <i name="APACO">     16.00000000</i>
  </separator>
  <separator name="symmetry" >
   <i type="int" name="ISYM">     2</i>
   <i name="SYMPREC">      0.00001000</i>
  </separator>
  <separator name="dos" >
   <i type="int" name="LORBIT">     0</i>
   <v name="RWIGS">     -1.00000000     -1.00000000     -1.00000000     -1.00000000     -1.00000000</v>
   <i type="int" name="NEDOS">   301</i>
   <i name="EMIN">     10.00000000</i>
   <i name="EMAX">    -10.00000000</i>
   <i name="EFERMI">      0.00000000</i>
  </separator>
  <separator name="writing" >
   <i type="int" name="NWRITE">     2</i>
   <i type="logical" name="LWAVE"> F  </i>
   <i type="logical" name="LDOWNSAMPLE"> F  </i>
   <i type="logical" name="LCHARG"> F  </i>
   <i type="logical" name="LPARD"> F  </i>
   <i type="logical" name="LVTOT"> F  </i>
   <i type="logical" name="LVHAR"> F  </i>
   <i type="logical" name="LELF"> F  </i>
   <i type="logical" name="LOPTICS"> F  </i>
   <v name="STM">      0.00000000      0.00000000      0.00000000      0.00000000      0.00000000      0.00000000      0.00000000</v>
  </separator>
  <separator name="performance" >
   <i type="int" name="NPAR">    28</i>
   <i type="int" name="NSIM">     4</i>
   <i type="int" name="NBLK">    -1</i>
   <i type="logical" name="LPLANE"> T  </i>
   <i type="logical" name="LSCALAPACK"> T  </i>
   <i type="logical" name="LSCAAWARE"> F  </i>
   <i type="logical" name="LSCALU"> F  </i>
   <i type="logical" name="LASYNC"> F  </i>
   <i type="logical" name="LORBITALREAL"> F  </i>
  </separator>
  <separator name="miscellaneous" >
   <i type="int" name="IDIOT">     3</i>
   <i type="int" name="ISPECIAL">     0</i>
   <i type="logical" name="LMUSIC"> F  </i>
   <v name="POMASS">      7.01000000     24.30500000    208.98000000     32.06600000     16.00000000</v>
   <v name="DARWINR">      0.00000000      0.00000000      0.00000000      0.00000000      0.00000000</v>
   <v name="DARWINV">      1.00000000      1.00000000      1.00000000      1.00000000      1.00000000</v>
   <i type="logical" name="LCORR"> T  </i>
  </separator>
  <i type="logical" name="GGA_COMPAT"> T  </i>
  <i type="logical" name="LBERRY"> F  </i>
  <i type="int" name="ICORELEVEL">     0</i>
  <i type="logical" name="LDAU"> F  </i>
  <i type="int" name="I_CONSTRAINED_M">     0</i>
  <separator name="electronic exchange-correlation" >
   <i type="string" name="GGA">--</i>
   <i type="int" name="VOSKOWN">     0</i>
   <i type="logical" name="LHFCALC"> F  </i>
   <i type="string" name="PRECFOCK"></i>
   <i type="logical" name="LSYMGRAD"> F  </i>
   <i type="logical" name="LHFONE"> F  </i>
   <i type="logical" name="LRHFCALC"> F  </i>
   <i type="logical" name="LTHOMAS"> F  </i>
   <i type="logical" name="LMODELHF"> F  </i>
   <i name="ENCUT4O">     -1.00000000</i>
   <i type="int" name="EXXOEP">     0</i>
   <i type="int" name="FOURORBIT">     0</i>
   <i name="AEXX">      0.00000000</i>
   <i name="HFALPHA">      0.00000000</i>
   <i name="MCALPHA">      0.00000000</i>
   <i name="ALDAX">      1.00000000</i>
   <i name="AGGAX">      1.00000000</i>
   <i name="ALDAC">      1.00000000</i>
   <i name="AGGAC">      1.00000000</i>
   <i type="int" name="NKREDX">     1</i>
   <i type="int" name="NKREDY">     1</i>
   <i type="int" name="NKREDZ">     1</i>
   <i type="logical" name="SHIFTRED"> F  </i>
   <i type="logical" name="ODDONLY"> F  </i>
   <i type="logical" name="EVENONLY"> F  </i>
   <i type="int" name="LMAXFOCK">     0</i>
   <i type="int" name="NMAXFOCKAE">     0</i>
   <i type="logical" name="LFOCKAEDFT"> F  </i>
   <i name="HFSCREEN">      0.00000000</i>
   <i name="HFSCREENC">      0.00000000</i>
   <i type="int" name="NBANDSGWLOW">     0</i>
  </separator>
  <separator name="vdW DFT" >
   <i type="logical" name="LUSE_VDW"> F  </i>
   <i name="Zab_VDW">     -0.84910000</i>
   <i name="PARAM1">      0.12340000</i>
   <i name="PARAM2">      1.00000000</i>
   <i name="PARAM3">      0.00000000</i>
  </separator>
  <separator name="model GW" >
   <i type="int" name="MODEL_GW">     0</i>
   <i name="MODEL_EPS0">     12.59840567</i>
   <i name="MODEL_ALPHA">      1.00000000</i>
  </separator>
  <separator name="linear response parameters" >
   <i type="logical" name="LEPSILON"> F  </i>
   <i type="logical" name="LRPA"> F  </i>
   <i type="logical" name="LNABLA"> F  </i>
   <i type="logical" name="LVEL"> F  </i>
   <i type="int" name="KINTER">     0</i>
   <i name="CSHIFT">      0.10000000</i>
   <i name="OMEGAMAX">     -1.00000000</i>
   <i name="DEG_THRESHOLD">      0.00200000</i>
   <i name="RTIME">     -0.10000000</i>
   <i name="WPLASMAI">      0.00000000</i>
   <v name="DFIELD">      0.00000000      0.00000000      0.00000000</v>
   <v name="WPLASMA">      0.00000000      0.00000000      0.00000000      0.00000000      0.00000000      0.00000000      0.00000000      0.00000000      0.00000000</v>
  </separator>
  <separator name="orbital magnetization" >
   <i type="logical" name="NUCIND"> F  </i>
   <v name="MAGPOS">      0.00000000      0.00000000      0.00000000</v>
   <i type="logical" name="LNICSALL"> T  </i>
   <i type="logical" name="ORBITALMAG"> F  </i>
   <i type="logical" name="LMAGBLOCH"> F  </i>
   <i type="logical" name="LCHIMAG"> F  </i>
   <i type="logical" name="LGAUGE"> T  </i>
   <i type="int" name="MAGATOM">     0</i>
   <v name="MAGDIPOL">      0.00000000      0.00000000      0.00000000</v>
   <v name="AVECCONST">      0.00000000      0.00000000      0.00000000</v>
  </separator>
  <separator name="response functions" >
   <i type="logical" name="LADDER"> F  </i>
   <i type="logical" name="LRPAFORCE"> F  </i>
   <i type="logical" name="LFXC"> F  </i>
   <i type="logical" name="LHARTREE"> T  </i>
   <i type="int" name="IBSE">     0</i>
   <v type="int" name="KPOINT">    -1     0     0     0</v>
   <i type="logical" name="LTCTE"> F  </i>
   <i type="logical" name="LTETE"> F  </i>
   <i type="logical" name="LTRIPLET"> F  </i>
   <i type="logical" name="LFXCEPS"> F  </i>
   <i type="logical" name="LFXHEG"> F  </i>
   <i type="int" name="NATURALO">     2</i>
   <i type="logical" name="L2ORDER"> F  </i>
   <i type="logical" name="LMP2LT"> F  </i>
   <i type="logical" name="LUSEW"> F  </i>
   <i name="ENCUTGW">     -2.00000000</i>
   <i name="ENCUTGWSOFT">     -2.00000000</i>
   <i name="ENCUTLF">     -1.00000000</i>
   <i type="int" name="LMAXMP2">    -1</i>
   <i name="SCISSOR">      0.00000000</i>
   <i type="int" name="NOMEGA">     0</i>
   <i type="int" name="NOMEGAR">     0</i>
   <i type="int" name="NBANDSGW">    -1</i>
   <i type="int" name="NBANDSO">    -1</i>
   <i type="int" name="NBANDSV">    -1</i>
   <i type="int" name="NELM">     1</i>
   <i type="int" name="NELMHF">     1</i>
   <i type="int" name="DIM">     3</i>
   <i type="int" name="ANTIRES">     0</i>
   <i name="OMEGAMAX">    -30.00000000</i>
   <i name="OMEGAMIN">    -30.00000000</i>
   <i name="OMEGATL">   -200.00000000</i>
   <i type="int" name="OMEGAGRID">   140</i>
   <i name="CSHIFT">     -0.10000000</i>
   <i type="logical" name="SELFENERGY"> F  </i>
   <i type="logical" name="LSPECTRAL"> F  </i>
   <i type="logical" name="LSPECTRALGW"> F  </i>
   <i type="logical" name="LSINGLES"> F  </i>
   <i type="logical" name="LFERMIGW"> F  </i>
   <i type="logical" name="ODDONLYGW"> F  </i>
   <i type="logical" name="EVENONLYGW"> F  </i>
   <i type="int" name="NKREDLFX">     1</i>
   <i type="int" name="NKREDLFY">     1</i>
   <i type="int" name="NKREDLFZ">     1</i>
   <i type="int" name="MAXMEM">  2800</i>
   <i type="int" name="TELESCOPE">     0</i>
   <i type="int" name="TAUPAR">     1</i>
   <i type="int" name="OMEGAPAR">    -1</i>
   <i name="LAMBDA">      1.00000000</i>
  </separator>
  <separator name="External order field" >
   <i name="OFIELD_KAPPA">      0.00000000</i>
   <v name="OFIELD_K">      0.00000000      0.00000000      0.00000000</v>
   <i name="OFIELD_Q6_NEAR">      0.00000000</i>
   <i name="OFIELD_Q6_FAR">      0.00000000</i>
   <i name="OFIELD_A">      0.00000000</i>
  </separator>
 </parameters>
 <atominfo>
  <atoms>      57 </atoms>
  <types>       5 </types>
  <array name="atoms" >
   <dimension dim="1">ion</dimension>
   <field type="string">element</field>
   <field type="int">atomtype</field>
   <set>
    <rc><c>Li</c><c>   1</c></rc>
    <rc><c>Li</c><c>   1</c></rc>
    <rc><c>Mg</c><c>   2</c></rc>
    <rc><c>Mg</c><c>   2</c></rc>
    <rc><c>Mg</c><c>   2</c></rc>
    <rc><c>Mg</c><c>   2</c></rc>
    <rc><c>Mg</c><c>   2</c></rc>
    <rc><c>Mg</c><c>   2</c></rc>
    <rc><c>Mg</c><c>   2</c></rc>
    <rc><c>Bi</c><c>   3</c></rc>
    <rc><c>Bi</c><c>   3</c></rc>
    <rc><c>Bi</c><c>   3</c></rc>
    <rc><c>Bi</c><c>   3</c></rc>
    <rc><c>Bi</c><c>   3</c></rc>
    <rc><c>Bi</c><c>   3</c></rc>
    <rc><c>Bi</c><c>   3</c></rc>
    <rc><c>Bi</c><c>   3</c></rc>
    <rc><c>Bi</c><c>   3</c></rc>
    <rc><c>Bi</c><c>   3</c></rc>
    <rc><c>Bi</c><c>   3</c></rc>
    <rc><c>Bi</c><c>   3</c></rc>
    <rc><c>Bi</c><c>   3</c></rc>
    <rc><c>Bi</c><c>   3</c></rc>
    <rc><c>Bi</c><c>   3</c></rc>
    <rc><c>Bi</c><c>   3</c></rc>
    <rc><c>S </c><c>   4</c></rc>
    <rc><c>S </c><c>   4</c></rc>
    <rc><c>S </c><c>   4</c></rc>
    <rc><c>S </c><c>   4</c></rc>
    <rc><c>S </c><c>   4</c></rc>
    <rc><c>S </c><c>   4</c></rc>
    <rc><c>S </c><c>   4</c></rc>
    <rc><c>S </c><c>   4</c></rc>
    <rc><c>S </c><c>   4</c></rc>
    <rc><c>S </c><c>   4</c></rc>
    <rc><c>S </c><c>   4</c></rc>
    <rc><c>S </c><c>   4</c></rc>
    <rc><c>S </c><c>   4</c></rc>
    <rc><c>S </c><c>   4</c></rc>
    <rc><c>S </c><c>   4</c></rc>
    <rc><c>S </c><c>   4</c></rc>
    <rc><c>O </c><c>   5</c></rc>
    <rc><c>O </c><c>   5</c></rc>
    <rc><c>O </c><c>   5</c></rc>
    <rc><c>O </c><c>   5</c></rc>
    <rc><c>O </c><c>   5</c></rc>
    <rc><c>O </c><c>   5</c></rc>
    <rc><c>O </c><c>   5</c></rc>
    <rc><c>O </c><c>   5</c></rc>
    <rc><c>O </c><c>   5</c></rc>
    <rc><c>O </c><c>   5</c></rc>
    <rc><c>O </c><c>   5</c></rc>
    <rc><c>O </c><c>   5</c></rc>
    <rc><c>O </c><c>   5</c></rc>
    <rc><c>O </c><c>   5</c></rc>
    <rc><c>O </c><c>   5</c></rc>
    <rc><c>O </c><c>   5</c></rc>
   </set>
  </array>
  <array name="atomtypes" >
   <dimension dim="1">type</dimension>
   <field type="int">atomspertype</field>
   <field type="string">element</field>
   <field>mass</field>
   <field>valence</field>
   <field type="string">pseudopotential</field>
   <set>
    <rc><c>   2</c><c>Li</c><c>      7.01000000</c><c>      3.00000000</c><c>  PAW_PBE Li_sv 10Sep2004               </c></rc>
    <rc><c>   7</c><c>Mg</c><c>     24.30500000</c><c>      2.00000000</c><c>  PAW_PBE Mg 13Apr2007                  </c></rc>
    <rc><c>  16</c><c>Bi</c><c>    208.98000000</c><c>     15.00000000</c><c>  PAW_PBE Bi_d 06Sep2000                </c></rc>
    <rc><c>  16</c><c>S </c><c>     32.06600000</c><c>      6.00000000</c><c>  PAW_PBE S 06Sep2000                   </c></rc>
    <rc><c>  16</c><c>O </c><c>     16.00000000</c><c>      6.00000000</c><c>  PAW_PBE O 08Apr2002                   </c></rc>
   </set>
  </array>
 </atominfo>
 <structure name="initialpos" >
  <crystal>
   <varray name="basis" >
    <v>      11.17850000       0.00000000       0.00000000 </v>
    <v>       0.00000000       9.57460000       0.00000000 </v>
    <v>       0.00000000       0.00000000      11.18240000 </v>
   </varray>
   <i name="volume">   1196.84853820 </i>
   <varray name="rec_basis" >
    <v>       0.08945744       0.00000000       0.00000000 </v>
    <v>       0.00000000       0.10444301       0.00000000 </v>
    <v>       0.00000000       0.00000000       0.08942624 </v>
   </varray>
  </crystal>
  <varray name="positions" >
   <v>       0.37461000       0.00017000       0.18687000 </v>
   <v>       0.87539000       0.00017000       0.43687000 </v>
   <v>       0.12461000       0.99984000       0.18687000 </v>
   <v>       0.62539000       0.99984000       0.43687000 </v>
   <v>       0.62461000       0.99984000       0.18687000 </v>
   <v>       0.37539000       0.00017000       0.93687000 </v>
   <v>       0.12461000       0.99984000       0.68687000 </v>
   <v>       0.87539000       0.00017000       0.93687000 </v>
   <v>       0.62461000       0.99984000       0.68687000 </v>
   <v>       0.00013000       0.29519000       0.06281000 </v>
   <v>       0.25013000       0.70481000       0.06281000 </v>
   <v>       0.24987000       0.29519000       0.31282000 </v>
   <v>       0.49987000       0.70481000       0.31282000 </v>
   <v>       0.50013000       0.29519000       0.06281000 </v>
   <v>       0.75013000       0.70481000       0.06281000 </v>
   <v>       0.74987000       0.29519000       0.31282000 </v>
   <v>       0.99987000       0.70481000       0.31282000 </v>
   <v>       0.00013000       0.29519000       0.56281000 </v>
   <v>       0.25013000       0.70481000       0.56281000 </v>
   <v>       0.24987000       0.29519000       0.81282000 </v>
   <v>       0.49987000       0.70481000       0.81282000 </v>
   <v>       0.50013000       0.29519000       0.56281000 </v>
   <v>       0.75013000       0.70481000       0.56281000 </v>
   <v>       0.74987000       0.29519000       0.81282000 </v>
   <v>       0.99987000       0.70481000       0.81282000 </v>
   <v>       0.25005000       0.32677000       0.06286000 </v>
   <v>       0.00005000       0.67323000       0.06286000 </v>
   <v>       0.49995000       0.32677000       0.31286000 </v>
   <v>       0.24995000       0.67323000       0.31286000 </v>
   <v>       0.75005000       0.32677000       0.06286000 </v>
   <v>       0.50005000       0.67323000       0.06286000 </v>
   <v>       0.99995000       0.32677000       0.31286000 </v>
   <v>       0.74995000       0.67323000       0.31286000 </v>
   <v>       0.25005000       0.32677000       0.56286000 </v>
   <v>       0.00005000       0.67323000       0.56286000 </v>
   <v>       0.49995000       0.32677000       0.81286000 </v>
   <v>       0.24995000       0.67323000       0.81286000 </v>
   <v>       0.75005000       0.32677000       0.56286000 </v>
   <v>       0.50005000       0.67323000       0.56286000 </v>
   <v>       0.99995000       0.32677000       0.81286000 </v>
   <v>       0.74995000       0.67323000       0.81286000 </v>
   <v>       0.49987000       0.07798000       0.06246000 </v>
   <v>       0.24987000       0.92202000       0.06246000 </v>
   <v>       0.25013000       0.07798000       0.31246000 </v>
   <v>       0.00013000       0.92202000       0.31246000 </v>
   <v>       0.99987000       0.07798000       0.06246000 </v>
   <v>       0.74987000       0.92202000       0.06246000 </v>
   <v>       0.75013000       0.07798000       0.31246000 </v>
   <v>       0.50013000       0.92202000       0.31246000 </v>
   <v>       0.49987000       0.07798000       0.56246000 </v>
   <v>       0.24987000       0.92202000       0.56246000 </v>
   <v>       0.25013000       0.07798000       0.81246000 </v>
   <v>       0.00013000       0.92202000       0.81246000 </v>
   <v>       0.99987000       0.07798000       0.56246000 </v>
   <v>       0.74987000       0.92202000       0.56246000 </v>
   <v>       0.75013000       0.07798000       0.81246000 </v>
   <v>       0.50013000       0.92202000       0.81246000 </v>
  </varray>
 </structure>
 <calculation>
  <scstep>
   <time name="dav">   61.91   61.93</time>
   <time name="total">   61.99   62.02</time>
   <energy>
    <i name="alphaZ">   1047.62774490 </i>
    <i name="ewald"> -29942.27892154 </i>
    <i name="hartreedc"> -12707.30720199 </i>
    <i name="XCdc">   1099.45291526 </i>
    <i name="pawpsdc">  36446.83583027 </i>
    <i name="pawaedc"> -35618.96860492 </i>
    <i name="eentropy">      0.00000000 </i>
    <i name="bandstr">   1948.63810221 </i>
    <i name="atom">  43261.00331033 </i>
    <i name="e_fr_energy">   5535.00317453 </i>
    <i name="e_wo_entrp">   5535.00317453 </i>
    <i name="e_0_energy">   5535.00317453 </i>
   </energy>
  </scstep>
  <scstep>
   <time name="dav">   62.79   62.98</time>
   <time name="total">   62.80   62.99</time>
   <energy>
    <i name="e_fr_energy">    712.64802040 </i>
    <i name="e_wo_entrp">    712.64802040 </i>
    <i name="e_0_energy">    712.64802040 </i>
   </energy>
  </scstep>
  <scstep>
   <time name="dav">   71.49   72.01</time>
   <time name="total">   71.49   72.01</time>
   <energy>
    <i name="e_fr_energy">   -246.64234891 </i>
    <i name="e_wo_entrp">   -246.64234891 </i>
    <i name="e_0_energy">   -246.64234891 </i>
   </energy>
  </scstep>
  <scstep>
   <time name="dav">   74.15   74.76</time>
   <time name="total">   74.16   74.77</time>
   <energy>
    <i name="e_fr_energy">   -327.21987105 </i>
    <i name="e_wo_entrp">   -327.21987105 </i>
    <i name="e_0_energy">   -327.21987105 </i>
   </energy>
  </scstep>
  <scstep>
   <time name="dav">   88.26   89.10</time>
   <time name="total">   88.98   89.82</time>
   <energy>
    <i name="e_fr_energy">   -331.99592277 </i>
    <i name="e_wo_entrp">   -331.99592277 </i>
    <i name="e_0_energy">   -331.99592277 </i>
   </energy>
  </scstep>
  <scstep>
   <time name="dav">   92.56   92.73</time>
   <time name="total">   93.34   93.51</time>
   <energy>
    <i name="e_fr_energy">   -279.79894535 </i>
    <i name="e_wo_entrp">   -279.79894535 </i>
    <i name="e_0_energy">   -279.79894535 </i>
   </energy>
  </scstep>
  <scstep>
   <time name="dav">   66.60   66.61</time>
   <time name="total">   67.39   67.39</time>
   <energy>
    <i name="e_fr_energy">   -281.58166554 </i>
    <i name="e_wo_entrp">   -281.58166554 </i>
    <i name="e_0_energy">   -281.58166554 </i>
   </energy>
  </scstep>
  <scstep>
   <time name="dav">   78.43   78.43</time>
   <time name="total">   79.21   79.21</time>
   <energy>
    <i name="e_fr_energy">   -280.85179323 </i>
    <i name="e_wo_entrp">   -280.85179323 </i>
    <i name="e_0_energy">   -280.85179323 </i>
   </energy>
  </scstep>
  <scstep>
   <time name="dav">   71.33   71.49</time>
   <time name="total">   72.22   72.38</time>
   <energy>
    <i name="e_fr_energy">   -280.48612353 </i>
    <i name="e_wo_entrp">   -280.48612353 </i>
    <i name="e_0_energy">   -280.48612353 </i>
   </energy>
  </scstep>
  <scstep>
   <time name="dav">   70.89   70.90</time>
   <time name="total">   71.66   71.67</time>
   <energy>
    <i name="e_fr_energy">   -280.52170406 </i>
    <i name="e_wo_entrp">   -280.52170406 </i>
    <i name="e_0_energy">   -280.52170406 </i>
   </energy>
  </scstep>
  <scstep>
   <time name="dav">   89.46   89.50</time>
   <time name="total">   90.23   90.29</time>
   <energy>
    <i name="e_fr_energy">   -280.52263406 </i>
    <i name="e_wo_entrp">   -280.52263406 </i>
    <i name="e_0_energy">   -280.52263406 </i>
   </energy>
  </scstep>
  <scstep>
   <time name="dav">   72.66   72.91</time>
   <time name="total">   73.44   73.69</time>
   <energy>
    <i name="e_fr_energy">   -280.52483831 </i>
    <i name="e_wo_entrp">   -280.52483831 </i>
    <i name="e_0_energy">   -280.52483831 </i>
   </energy>
  </scstep>
  <scstep>
   <time name="dav">   76.23   76.23</time>
   <time name="total">   77.03   77.03</time>
   <energy>
    <i name="e_fr_energy">   -280.52652441 </i>
    <i name="e_wo_entrp">   -280.52652441 </i>
    <i name="e_0_energy">   -280.52652441 </i>
   </energy>
  </scstep>
  <scstep>
   <time name="dav">   72.20   72.24</time>
   <time name="total">   72.98   73.02</time>
   <energy>
    <i name="e_fr_energy">   -280.52653536 </i>
    <i name="e_wo_entrp">   -280.52653536 </i>
    <i name="e_0_energy">   -280.52653536 </i>
   </energy>
  </scstep>
  <scstep>
   <time name="dav">   80.15   80.14</time>
   <time name="total">   80.93   80.92</time>
   <energy>
    <i name="e_fr_energy">   -280.52666815 </i>
    <i name="e_wo_entrp">   -280.52666815 </i>
    <i name="e_0_energy">   -280.52666815 </i>
   </energy>
  </scstep>
  <scstep>
   <time name="dav">   81.45   81.43</time>
   <time name="total">   82.23   82.21</time>
   <energy>
    <i name="e_fr_energy">   -280.52666815 </i>
    <i name="e_wo_entrp">   -280.52666815 </i>
    <i name="e_0_energy">   -280.52666815 </i>
   </energy>
  </scstep>
  <scstep>
   <time name="dav">   67.71   67.71</time>
   <time name="total">   68.48   68.49</time>
   <energy>
    <i name="e_fr_energy">   -280.52667311 </i>
    <i name="e_wo_entrp">   -280.52667311 </i>
    <i name="e_0_energy">   -280.52667311 </i>
   </energy>
  </scstep>
  <scstep>
   <time name="dav">   72.56   72.57</time>
   <time name="total">   73.34   73.35</time>
   <energy>
    <i name="e_fr_energy">   -280.52667414 </i>
    <i name="e_wo_entrp">   -280.52667414 </i>
    <i name="e_0_energy">   -280.52667414 </i>
   </energy>
  </scstep>
  <scstep>
   <time name="dav">   64.27   64.28</time>
   <time name="total">   64.34   64.35</time>
   <energy>
    <i name="alphaZ">   1047.62774490 </i>
    <i name="ewald"> -29942.27892154 </i>
    <i name="hartreedc"> -12945.16371415 </i>
    <i name="XCdc">   1125.29699742 </i>
    <i name="pawpsdc">  43472.04306750 </i>
    <i name="pawaedc"> -42616.12464485 </i>
    <i name="eentropy">      0.00000000 </i>
    <i name="bandstr">  -3682.93051411 </i>
    <i name="atom">  43261.00331033 </i>
    <i name="e_fr_energy">   -280.52667450 </i>
    <i name="e_wo_entrp">   -280.52667450 </i>
    <i name="e_0_energy">   -280.52667450 </i>
   </energy>
  </scstep>
  <structure>
   <crystal>
    <varray name="basis" >
     <v>      11.17850000       0.00000000       0.00000000 </v>
     <v>       0.00000000       9.57460000       0.00000000 </v>
     <v>       0.00000000       0.00000000      11.18240000 </v>
    </varray>
    <i name="volume">   1196.84853820 </i>
    <varray name="rec_basis" >
     <v>       0.08945744       0.00000000       0.00000000 </v>
     <v>       0.00000000       0.10444301       0.00000000 </v>
     <v>       0.00000000       0.00000000       0.08942624 </v>
    </varray>
   </crystal>
   <varray name="positions" >
    <v>       0.37461000       0.00017000       0.18687000 </v>
    <v>       0.87539000       0.00017000       0.43687000 </v>
    <v>       0.12461000       0.99984000       0.18687000 </v>
    <v>       0.62539000       0.99984000       0.43687000 </v>
    <v>       0.62461000       0.99984000       0.18687000 </v>
    <v>       0.37539000       0.00017000       0.93687000 </v>
    <v>       0.12461000       0.99984000       0.68687000 </v>
    <v>       0.87539000       0.00017000       0.93687000 </v>
    <v>       0.62461000       0.99984000       0.68687000 </v>
    <v>       0.00013000       0.29519000       0.06281000 </v>
    <v>       0.25013000       0.70481000       0.06281000 </v>
    <v>       0.24987000       0.29519000       0.31282000 </v>
    <v>       0.49987000       0.70481000       0.31282000 </v>
    <v>       0.50013000       0.29519000       0.06281000 </v>
    <v>       0.75013000       0.70481000       0.06281000 </v>
    <v>       0.74987000       0.29519000       0.31282000 </v>
    <v>       0.99987000       0.70481000       0.31282000 </v>
    <v>       0.00013000       0.29519000       0.56281000 </v>
    <v>       0.25013000       0.70481000       0.56281000 </v>
    <v>       0.24987000       0.29519000       0.81282000 </v>
    <v>       0.49987000       0.70481000       0.81282000 </v>
    <v>       0.50013000       0.29519000       0.56281000 </v>
    <v>       0.75013000       0.70481000       0.56281000 </v>
    <v>       0.74987000       0.29519000       0.81282000 </v>
    <v>       0.99987000       0.70481000       0.81282000 </v>
    <v>       0.25005000       0.32677000       0.06286000 </v>
    <v>       0.00005000       0.67323000       0.06286000 </v>
    <v>       0.49995000       0.32677000       0.31286000 </v>
    <v>       0.24995000       0.67323000       0.31286000 </v>
    <v>       0.75005000       0.32677000       0.06286000 </v>
    <v>       0.50005000       0.67323000       0.06286000 </v>
    <v>       0.99995000       0.32677000       0.31286000 </v>
    <v>       0.74995000       0.67323000       0.31286000 </v>
    <v>       0.25005000       0.32677000       0.56286000 </v>
    <v>       0.00005000       0.67323000       0.56286000 </v>
    <v>       0.49995000       0.32677000       0.81286000 </v>
    <v>       0.24995000       0.67323000       0.81286000 </v>
    <v>       0.75005000       0.32677000       0.56286000 </v>
    <v>       0.50005000       0.67323000       0.56286000 </v>
    <v>       0.99995000       0.32677000       0.81286000 </v>
    <v>       0.74995000       0.67323000       0.81286000 </v>
    <v>       0.49987000       0.07798000       0.06246000 </v>
    <v>       0.24987000       0.92202000       0.06246000 </v>
    <v>       0.25013000       0.07798000       0.31246000 </v>
    <v>       0.00013000       0.92202000       0.31246000 </v>
    <v>       0.99987000       0.07798000       0.06246000 </v>
    <v>       0.74987000       0.92202000       0.06246000 </v>
    <v>       0.75013000       0.07798000       0.31246000 </v>
    <v>       0.50013000       0.92202000       0.31246000 </v>
    <v>       0.49987000       0.07798000       0.56246000 </v>
    <v>       0.24987000       0.92202000       0.56246000 </v>
    <v>       0.25013000       0.07798000       0.81246000 </v>
    <v>       0.00013000       0.92202000       0.81246000 </v>
    <v>       0.99987000       0.07798000       0.56246000 </v>
    <v>       0.74987000       0.92202000       0.56246000 </v>
    <v>       0.75013000       0.07798000       0.81246000 </v>
    <v>       0.50013000       0.92202000       0.81246000 </v>
   </varray>
  </structure>
  <varray name="forces" >
   <v>      -0.32943744       0.12064144       0.77000245 </v>
   <v>       1.06415551      -0.00549341       0.03856269 </v>
   <v>      -0.75715169       0.11980492       0.64691227 </v>
   <v>      -0.78688627       0.11064659       0.33786111 </v>
   <v>       0.81710422      -0.12156064      -1.31854234 </v>
   <v>      -0.18042566      -0.01448066      -1.05524361 </v>
   <v>       0.20387534      -0.09674826      -0.54985037 </v>
   <v>       0.12606679      -0.00839571      -0.04185349 </v>
   <v>      -0.19444478       0.11712614       1.36821843 </v>
   <v>       0.09747989      -0.05495832       0.06626478 </v>
   <v>      -0.32901670      -1.03688690      -0.06722031 </v>
   <v>      -0.18412778      -0.95603018       0.56788807 </v>
   <v>      -0.56178061      -1.10726014       0.31248854 </v>
   <v>       0.00987703       1.06730221      -0.17880089 </v>
   <v>       0.19421139       0.02722802      -0.04456225 </v>
   <v>       0.57182614       1.10782584      -0.03975956 </v>
   <v>       0.19840961       1.00899375       0.26157983 </v>
   <v>       0.21003950      -1.01493769      -0.12980548 </v>
   <v>      -0.04522339       1.92601214      -0.22637544 </v>
   <v>      -0.14707340      -0.06718838      -0.29825975 </v>
   <v>      -0.14975384       0.01904040      -0.19069722 </v>
   <v>      -0.70783959       0.10080635       0.04249849 </v>
   <v>       0.52779282      -1.10617071       0.17854110 </v>
   <v>       0.15800993      -0.05004319      -0.10828916 </v>
   <v>       0.16583888       0.07051293      -0.22664400 </v>
   <v>       0.20907295       0.12241991      -0.08098200 </v>
   <v>      -0.00413070      -0.10206395      -0.08932270 </v>
   <v>       0.34098673       0.04130522      -0.16529929 </v>
   <v>       0.23999684      -0.14061965      -0.42834289 </v>
   <v>      -0.17834262       0.02206015       0.10769918 </v>
   <v>      -0.02137553      -0.02231006       0.11394226 </v>
   <v>      -0.22164103       0.17213101      -0.19933327 </v>
   <v>      -0.35512797      -0.04136620       0.03132959 </v>
   <v>       0.13636143       0.17110354       0.13741594 </v>
   <v>      -0.35211919      -0.20925823       0.12235912 </v>
   <v>       0.06539118       0.06115380       0.15060076 </v>
   <v>       0.10955156      -0.13814167       0.37422920 </v>
   <v>      -0.26244075       0.10400323      -0.12439404 </v>
   <v>       0.45757860      -0.04862471      -0.10141425 </v>
   <v>      -0.09327466       0.13511319       0.17110249 </v>
   <v>      -0.07850272      -0.06489002      -0.01910672 </v>
   <v>      -0.61073377      -0.78089963       0.70330540 </v>
   <v>       0.84800585       0.66581110       0.48917089 </v>
   <v>      -0.27462577       0.70132654      -1.86136030 </v>
   <v>       0.30431272      -0.98111432      -0.57167662 </v>
   <v>      -0.03193852       0.27818553      -0.09065875 </v>
   <v>      -0.15963881      -0.15531956       0.10019785 </v>
   <v>      -1.73252192      -0.90948211       0.54881686 </v>
   <v>       1.69303757       0.92891928      -0.75011153 </v>
   <v>       2.28717563      -0.20117982      -0.09534859 </v>
   <v>      -0.87435716      -1.65051823       1.02727317 </v>
   <v>       0.13939366       0.31795299       0.30358841 </v>
   <v>      -0.12838304      -0.32514272       0.17494947 </v>
   <v>       0.23019020       1.04163518       0.48342369 </v>
   <v>      -1.60734343       0.83162267      -0.68997549 </v>
   <v>      -0.08827908       0.22644798      -0.01988754 </v>
   <v>       0.04219582      -0.20604694       0.13289580 </v>
  </varray>
  <varray name="stress" >
   <v>     -10.23105184      -0.10948556       0.89096520 </v>
   <v>      -0.10948561     -12.41998743      -0.34160935 </v>
   <v>       0.89096532      -0.34160934      -5.03922866 </v>
  </varray>
  <energy>
   <i name="e_fr_energy">   -291.39679375 </i>
   <i name="e_wo_entrp">   -291.39679375 </i>
   <i name="e_0_energy">      0.00000000 </i>
  </energy>
  <time name="totalsc"> 1538.44 1541.50</time>
  <eigenvalues>
   <array>
    <dimension dim="1">band</dimension>
    <dimension dim="2">kpoint</dimension>
    <dimension dim="3">spin</dimension>
    <field>eigene</field>
    <field>occ</field>
    <set>
     <set comment="spin 1">
      <set comment="kpoint 1">
       <r>  -40.3656    1.0000 </r>
       <r>  -39.8005    1.0000 </r>
       <r>  -19.0908    1.0000 </r>
       <r>  -19.0386    1.0000 </r>
       <r>  -19.0318    1.0000 </r>
       <r>  -19.0145    1.0000 </r>
       <r>  -19.0058    1.0000 </r>
       <r>  -18.9552    1.0000 </r>
       <r>  -18.9481    1.0000 </r>
       <r>  -18.9474    1.0000 </r>
       <r>  -18.9433    1.0000 </r>
       <r>  -18.9332    1.0000 </r>
       <r>  -18.9178    1.0000 </r>
       <r>  -18.9017    1.0000 </r>
       <r>  -18.8976    1.0000 </r>
       <r>  -18.8588    1.0000 </r>
       <r>  -18.8537    1.0000 </r>
       <r>  -18.8511    1.0000 </r>
       <r>  -18.8478    1.0000 </r>
       <r>  -18.8448    1.0000 </r>
       <r>  -18.8371    1.0000 </r>
       <r>  -18.8348    1.0000 </r>
       <r>  -18.8303    1.0000 </r>
       <r>  -18.8285    1.0000 </r>
       <r>  -18.8250    1.0000 </r>
       <r>  -18.8201    1.0000 </r>
       <r>  -18.7795    1.0000 </r>
       <r>  -18.7745    1.0000 </r>
       <r>  -18.7736    1.0000 </r>
       <r>  -18.7628    1.0000 </r>
       <r>  -18.7615    1.0000 </r>
       <r>  -18.7607    1.0000 </r>
       <r>  -18.7542    1.0000 </r>
       <r>  -18.7525    1.0000 </r>
       <r>  -18.7371    1.0000 </r>
       <r>  -18.7364    1.0000 </r>
       <r>  -18.7357    1.0000 </r>
       <r>  -18.7350    1.0000 </r>
       <r>  -18.7044    1.0000 </r>
       <r>  -18.7026    1.0000 </r>
       <r>  -18.6899    1.0000 </r>
       <r>  -18.6869    1.0000 </r>
       <r>  -18.6719    1.0000 </r>
       <r>  -18.6609    1.0000 </r>
       <r>  -18.6306    1.0000 </r>
       <r>  -18.6284    1.0000 </r>
       <r>  -18.6276    1.0000 </r>
       <r>  -18.6208    1.0000 </r>
       <r>  -18.6188    1.0000 </r>
       <r>  -18.6085    1.0000 </r>
       <r>  -18.6076    1.0000 </r>
       <r>  -18.6022    1.0000 </r>
       <r>  -18.5969    1.0000 </r>
       <r>  -18.5957    1.0000 </r>
       <r>  -18.5920    1.0000 </r>
       <r>  -18.5837    1.0000 </r>
       <r>  -18.5493    1.0000 </r>
       <r>  -18.5139    1.0000 </r>
       <r>  -18.4956    1.0000 </r>
       <r>  -18.4828    1.0000 </r>
       <r>  -18.4772    1.0000 </r>
       <r>  -18.4656    1.0000 </r>
       <r>  -18.4606    1.0000 </r>
       <r>  -18.4483    1.0000 </r>
       <r>  -18.4461    1.0000 </r>
       <r>  -18.4352    1.0000 </r>
       <r>  -18.4144    1.0000 </r>
       <r>  -18.3987    1.0000 </r>
       <r>  -18.3861    1.0000 </r>
       <r>  -18.3719    1.0000 </r>
       <r>  -18.3060    1.0000 </r>
       <r>  -18.2936    1.0000 </r>
       <r>  -18.2797    1.0000 </r>
       <r>  -18.2629    1.0000 </r>
       <r>  -18.2340    1.0000 </r>
       <r>  -18.2074    1.0000 </r>
       <r>  -18.1974    1.0000 </r>
       <r>  -18.1926    1.0000 </r>
       <r>  -18.1707    1.0000 </r>
       <r>  -18.0676    1.0000 </r>
       <r>  -17.9674    1.0000 </r>
       <r>  -17.9470    1.0000 </r>
       <r>  -13.8265    1.0000 </r>
       <r>  -13.7003    1.0000 </r>
       <r>  -13.6344    1.0000 </r>
       <r>  -13.5720    1.0000 </r>
       <r>  -13.4696    1.0000 </r>
       <r>  -13.0020    1.0000 </r>
       <r>  -12.9649    1.0000 </r>
       <r>  -12.8599    1.0000 </r>
       <r>  -12.8161    1.0000 </r>
       <r>  -12.7567    1.0000 </r>
       <r>  -12.6764    1.0000 </r>
       <r>  -12.6066    1.0000 </r>
       <r>  -12.1568    1.0000 </r>
       <r>  -12.0306    1.0000 </r>
       <r>  -11.9516    1.0000 </r>
       <r>  -11.4593    1.0000 </r>
       <r>   -9.4330    1.0000 </r>
       <r>   -9.1395    1.0000 </r>
       <r>   -8.6469    1.0000 </r>
       <r>   -8.6117    1.0000 </r>
       <r>   -8.5562    1.0000 </r>
       <r>   -8.5108    1.0000 </r>
       <r>   -8.4247    1.0000 </r>
       <r>   -8.3957    1.0000 </r>
       <r>   -8.3313    1.0000 </r>
       <r>   -8.2979    1.0000 </r>
       <r>   -8.0816    1.0000 </r>
       <r>   -8.0613    1.0000 </r>
       <r>   -8.0420    1.0000 </r>
       <r>   -8.0188    1.0000 </r>
       <r>   -7.4208    1.0000 </r>
       <r>   -7.4162    1.0000 </r>
       <r>   -6.4798    1.0000 </r>
       <r>   -6.4739    1.0000 </r>
       <r>   -6.4503    1.0000 </r>
       <r>   -6.4263    1.0000 </r>
       <r>   -5.6646    1.0000 </r>
       <r>   -5.6161    1.0000 </r>
       <r>   -5.5247    1.0000 </r>
       <r>   -5.4505    1.0000 </r>
       <r>   -5.3519    1.0000 </r>
       <r>   -5.3290    1.0000 </r>
       <r>   -5.3008    1.0000 </r>
       <r>   -5.1547    1.0000 </r>
       <r>   -5.1444    1.0000 </r>
       <r>   -5.0023    1.0000 </r>
       <r>   -3.8657    1.0000 </r>
       <r>   -3.7204    1.0000 </r>
       <r>   -1.6216    1.0000 </r>
       <r>   -1.4201    1.0000 </r>
       <r>   -1.2281    1.0000 </r>
       <r>   -1.0740    1.0000 </r>
       <r>   -0.6900    1.0000 </r>
       <r>   -0.6736    1.0000 </r>
       <r>   -0.6256    1.0000 </r>
       <r>   -0.6012    1.0000 </r>
       <r>   -0.2963    1.0000 </r>
       <r>   -0.2684    1.0000 </r>
       <r>   -0.2502    1.0000 </r>
       <r>   -0.2425    1.0000 </r>
       <r>   -0.2210    1.0000 </r>
       <r>   -0.1278    1.0000 </r>
       <r>   -0.0504    1.0000 </r>
       <r>    0.0797    1.0000 </r>
       <r>    0.1506    1.0000 </r>
       <r>    0.2400    1.0000 </r>
       <r>    0.3408    1.0000 </r>
       <r>    0.4044    1.0000 </r>
       <r>    0.4606    1.0000 </r>
       <r>    0.4953    1.0000 </r>
       <r>    0.5156    1.0000 </r>
       <r>    0.5564    1.0000 </r>
       <r>    0.6114    1.0000 </r>
       <r>    0.6883    1.0000 </r>
       <r>    0.7329    1.0000 </r>
       <r>    0.7669    1.0000 </r>
       <r>    0.7946    1.0000 </r>
       <r>    0.8131    1.0000 </r>
       <r>    0.8894    1.0000 </r>
       <r>    0.8956    1.0000 </r>
       <r>    0.9212    1.0000 </r>
       <r>    0.9705    1.0000 </r>
       <r>    1.0226    1.0000 </r>
       <r>    1.0919    1.0000 </r>
       <r>    1.1422    1.0000 </r>
       <r>    1.1529    1.0000 </r>
       <r>    1.2439    1.0000 </r>
       <r>    1.3029    1.0000 </r>
       <r>    1.3116    1.0000 </r>
       <r>    1.3998    1.0000 </r>
       <r>    1.4445    1.0000 </r>
       <r>    1.4981    1.0000 </r>
       <r>    1.5929    1.0000 </r>
       <r>    1.6144    1.0000 </r>
       <r>    1.6276    1.0000 </r>
       <r>    1.6627    1.0000 </r>
       <r>    1.7503    1.0000 </r>
       <r>    1.8065    1.0000 </r>
       <r>    1.8903    1.0000 </r>
       <r>    1.9556    1.0000 </r>
       <r>    1.9892    1.0000 </r>
       <r>    2.0848    1.0000 </r>
       <r>    2.1564    1.0000 </r>
       <r>    2.2785    1.0000 </r>
       <r>    2.3021    1.0000 </r>
       <r>    2.3529    1.0000 </r>
       <r>    2.3864    1.0000 </r>
       <r>    2.4705    1.0000 </r>
       <r>    2.4824    1.0000 </r>
       <r>    2.4925    1.0000 </r>
       <r>    2.5130    1.0000 </r>
       <r>    2.5162    1.0000 </r>
       <r>    2.5601    1.0000 </r>
       <r>    2.5634    1.0000 </r>
       <r>    2.6036    1.0000 </r>
       <r>    2.6132    1.0000 </r>
       <r>    2.6537    1.0000 </r>
       <r>    2.7263    1.0000 </r>
       <r>    2.8021    1.0000 </r>
       <r>    2.8464    1.0000 </r>
       <r>    2.8879    1.0000 </r>
       <r>    2.9112    1.0000 </r>
       <r>    2.9297    1.0000 </r>
       <r>    2.9719    1.0000 </r>
       <r>    3.0428    1.0000 </r>
       <r>    3.0656    1.0000 </r>
       <r>    3.0744    1.0000 </r>
       <r>    3.0884    1.0000 </r>
       <r>    3.1088    1.0000 </r>
       <r>    3.1388    1.0000 </r>
       <r>    3.1938    1.0000 </r>
       <r>    3.2015    1.0000 </r>
       <r>    3.2362    1.0000 </r>
       <r>    3.3056    1.0000 </r>
       <r>    3.3407    1.0000 </r>
       <r>    3.3878    1.0000 </r>
       <r>    3.5063    1.0000 </r>
       <r>    3.6052    1.0000 </r>
       <r>    3.7358    1.0000 </r>
       <r>    4.0356    1.0000 </r>
       <r>    4.1136    1.0000 </r>
       <r>    4.1410    1.0000 </r>
       <r>    4.1868    1.0000 </r>
       <r>    4.2119    1.0000 </r>
       <r>    4.9145    0.0000 </r>
       <r>    4.9325    0.0000 </r>
       <r>    5.1031    0.0000 </r>
       <r>    5.1246    0.0000 </r>
       <r>    5.6293    0.0000 </r>
       <r>    5.6469    0.0000 </r>
       <r>    5.7361    0.0000 </r>
       <r>    5.7602    0.0000 </r>
       <r>    6.0623    0.0000 </r>
       <r>    6.0638    0.0000 </r>
       <r>    6.1050    0.0000 </r>
       <r>    6.1259    0.0000 </r>
       <r>    6.1769    0.0000 </r>
       <r>    6.1921    0.0000 </r>
       <r>    6.2132    0.0000 </r>
       <r>    6.2235    0.0000 </r>
       <r>    6.8952    0.0000 </r>
       <r>    6.9440    0.0000 </r>
       <r>    7.0930    0.0000 </r>
       <r>    7.1780    0.0000 </r>
       <r>    7.5797    0.0000 </r>
       <r>    7.6108    0.0000 </r>
       <r>    7.7447    0.0000 </r>
       <r>    7.8001    0.0000 </r>
       <r>    7.8651    0.0000 </r>
       <r>    7.9482    0.0000 </r>
       <r>    8.0125    0.0000 </r>
       <r>    8.0616    0.0000 </r>
       <r>    8.2680    0.0000 </r>
       <r>    8.4622    0.0000 </r>
       <r>    8.6423    0.0000 </r>
       <r>    8.6804    0.0000 </r>
       <r>    8.7243    0.0000 </r>
       <r>    8.7628    0.0000 </r>
       <r>    8.8493    0.0000 </r>
       <r>    8.8807    0.0000 </r>
       <r>    8.9036    0.0000 </r>
       <r>    8.9449    0.0000 </r>
       <r>    8.9837    0.0000 </r>
       <r>    9.0318    0.0000 </r>
       <r>    9.0691    0.0000 </r>
       <r>    9.1163    0.0000 </r>
       <r>    9.1388    0.0000 </r>
       <r>    9.1803    0.0000 </r>
       <r>    9.3048    0.0000 </r>
       <r>    9.3626    0.0000 </r>
       <r>    9.4583    0.0000 </r>
       <r>    9.4713    0.0000 </r>
       <r>    9.5682    0.0000 </r>
       <r>    9.6387    0.0000 </r>
       <r>    9.6554    0.0000 </r>
       <r>    9.6702    0.0000 </r>
       <r>    9.7407    0.0000 </r>
       <r>    9.9046    0.0000 </r>
      </set>
      <set comment="kpoint 2">
       <r>  -40.3656    1.0000 </r>
       <r>  -39.8005    1.0000 </r>
       <r>  -19.0908    1.0000 </r>
       <r>  -19.0386    1.0000 </r>
       <r>  -19.0318    1.0000 </r>
       <r>  -19.0144    1.0000 </r>
       <r>  -19.0058    1.0000 </r>
       <r>  -18.9552    1.0000 </r>
       <r>  -18.9480    1.0000 </r>
       <r>  -18.9474    1.0000 </r>
       <r>  -18.9432    1.0000 </r>
       <r>  -18.9332    1.0000 </r>
       <r>  -18.9178    1.0000 </r>
       <r>  -18.9017    1.0000 </r>
       <r>  -18.8976    1.0000 </r>
       <r>  -18.8588    1.0000 </r>
       <r>  -18.8537    1.0000 </r>
       <r>  -18.8511    1.0000 </r>
       <r>  -18.8478    1.0000 </r>
       <r>  -18.8448    1.0000 </r>
       <r>  -18.8371    1.0000 </r>
       <r>  -18.8336    1.0000 </r>
       <r>  -18.8304    1.0000 </r>
       <r>  -18.8298    1.0000 </r>
       <r>  -18.8250    1.0000 </r>
       <r>  -18.8202    1.0000 </r>
       <r>  -18.7794    1.0000 </r>
       <r>  -18.7744    1.0000 </r>
       <r>  -18.7735    1.0000 </r>
       <r>  -18.7627    1.0000 </r>
       <r>  -18.7615    1.0000 </r>
       <r>  -18.7607    1.0000 </r>
       <r>  -18.7542    1.0000 </r>
       <r>  -18.7525    1.0000 </r>
       <r>  -18.7372    1.0000 </r>
       <r>  -18.7366    1.0000 </r>
       <r>  -18.7357    1.0000 </r>
       <r>  -18.7350    1.0000 </r>
       <r>  -18.7044    1.0000 </r>
       <r>  -18.7025    1.0000 </r>
       <r>  -18.6899    1.0000 </r>
       <r>  -18.6867    1.0000 </r>
       <r>  -18.6719    1.0000 </r>
       <r>  -18.6609    1.0000 </r>
       <r>  -18.6307    1.0000 </r>
       <r>  -18.6284    1.0000 </r>
       <r>  -18.6276    1.0000 </r>
       <r>  -18.6208    1.0000 </r>
       <r>  -18.6189    1.0000 </r>
       <r>  -18.6086    1.0000 </r>
       <r>  -18.6076    1.0000 </r>
       <r>  -18.6022    1.0000 </r>
       <r>  -18.5969    1.0000 </r>
       <r>  -18.5957    1.0000 </r>
       <r>  -18.5920    1.0000 </r>
       <r>  -18.5837    1.0000 </r>
       <r>  -18.5493    1.0000 </r>
       <r>  -18.5139    1.0000 </r>
       <r>  -18.4956    1.0000 </r>
       <r>  -18.4828    1.0000 </r>
       <r>  -18.4772    1.0000 </r>
       <r>  -18.4656    1.0000 </r>
       <r>  -18.4606    1.0000 </r>
       <r>  -18.4483    1.0000 </r>
       <r>  -18.4461    1.0000 </r>
       <r>  -18.4352    1.0000 </r>
       <r>  -18.4144    1.0000 </r>
       <r>  -18.3987    1.0000 </r>
       <r>  -18.3861    1.0000 </r>
       <r>  -18.3719    1.0000 </r>
       <r>  -18.3060    1.0000 </r>
       <r>  -18.2936    1.0000 </r>
       <r>  -18.2797    1.0000 </r>
       <r>  -18.2629    1.0000 </r>
       <r>  -18.2340    1.0000 </r>
       <r>  -18.2074    1.0000 </r>
       <r>  -18.1974    1.0000 </r>
       <r>  -18.1926    1.0000 </r>
       <r>  -18.1707    1.0000 </r>
       <r>  -18.0676    1.0000 </r>
       <r>  -17.9674    1.0000 </r>
       <r>  -17.9470    1.0000 </r>
       <r>  -13.8258    1.0000 </r>
       <r>  -13.7009    1.0000 </r>
       <r>  -13.6344    1.0000 </r>
       <r>  -13.5719    1.0000 </r>
       <r>  -13.4698    1.0000 </r>
       <r>  -12.9995    1.0000 </r>
       <r>  -12.9671    1.0000 </r>
       <r>  -12.8586    1.0000 </r>
       <r>  -12.8232    1.0000 </r>
       <r>  -12.7510    1.0000 </r>
       <r>  -12.6757    1.0000 </r>
       <r>  -12.6075    1.0000 </r>
       <r>  -12.1569    1.0000 </r>
       <r>  -12.0305    1.0000 </r>
       <r>  -11.9517    1.0000 </r>
       <r>  -11.4593    1.0000 </r>
       <r>   -9.3100    1.0000 </r>
       <r>   -9.0903    1.0000 </r>
       <r>   -9.0357    1.0000 </r>
       <r>   -8.8143    1.0000 </r>
       <r>   -8.5125    1.0000 </r>
       <r>   -8.5021    1.0000 </r>
       <r>   -8.3626    1.0000 </r>
       <r>   -8.3487    1.0000 </r>
       <r>   -8.2589    1.0000 </r>
       <r>   -8.2404    1.0000 </r>
       <r>   -8.1064    1.0000 </r>
       <r>   -8.0932    1.0000 </r>
       <r>   -7.8426    1.0000 </r>
       <r>   -7.7314    1.0000 </r>
       <r>   -7.6661    1.0000 </r>
       <r>   -7.5575    1.0000 </r>
       <r>   -6.1550    1.0000 </r>
       <r>   -6.1324    1.0000 </r>
       <r>   -6.0608    1.0000 </r>
       <r>   -6.0237    1.0000 </r>
       <r>   -5.9271    1.0000 </r>
       <r>   -5.8169    1.0000 </r>
       <r>   -5.7933    1.0000 </r>
       <r>   -5.7705    1.0000 </r>
       <r>   -5.7403    1.0000 </r>
       <r>   -5.6413    1.0000 </r>
       <r>   -5.5128    1.0000 </r>
       <r>   -5.3950    1.0000 </r>
       <r>   -4.6027    1.0000 </r>
       <r>   -4.4526    1.0000 </r>
       <r>   -4.3603    1.0000 </r>
       <r>   -4.1893    1.0000 </r>
       <r>   -1.4176    1.0000 </r>
       <r>   -1.1390    1.0000 </r>
       <r>   -1.0282    1.0000 </r>
       <r>   -0.7859    1.0000 </r>
       <r>   -0.7565    1.0000 </r>
       <r>   -0.4709    1.0000 </r>
       <r>   -0.3617    1.0000 </r>
       <r>   -0.2837    1.0000 </r>
       <r>   -0.1200    1.0000 </r>
       <r>   -0.0770    1.0000 </r>
       <r>   -0.0539    1.0000 </r>
       <r>   -0.0227    1.0000 </r>
       <r>    0.0515    1.0000 </r>
       <r>    0.0707    1.0000 </r>
       <r>    0.1317    1.0000 </r>
       <r>    0.2059    1.0000 </r>
       <r>    0.2316    1.0000 </r>
       <r>    0.3022    1.0000 </r>
       <r>    0.3501    1.0000 </r>
       <r>    0.4104    1.0000 </r>
       <r>    0.4287    1.0000 </r>
       <r>    0.4735    1.0000 </r>
       <r>    0.5140    1.0000 </r>
       <r>    0.5609    1.0000 </r>
       <r>    0.5915    1.0000 </r>
       <r>    0.6393    1.0000 </r>
       <r>    0.6944    1.0000 </r>
       <r>    0.7116    1.0000 </r>
       <r>    0.7838    1.0000 </r>
       <r>    0.8431    1.0000 </r>
       <r>    0.8931    1.0000 </r>
       <r>    0.9119    1.0000 </r>
       <r>    0.9538    1.0000 </r>
       <r>    1.0807    1.0000 </r>
       <r>    1.1030    1.0000 </r>
       <r>    1.1143    1.0000 </r>
       <r>    1.1540    1.0000 </r>
       <r>    1.1848    1.0000 </r>
       <r>    1.2010    1.0000 </r>
       <r>    1.2089    1.0000 </r>
       <r>    1.2802    1.0000 </r>
       <r>    1.3328    1.0000 </r>
       <r>    1.3757    1.0000 </r>
       <r>    1.4048    1.0000 </r>
       <r>    1.4623    1.0000 </r>
       <r>    1.5415    1.0000 </r>
       <r>    1.5904    1.0000 </r>
       <r>    1.5965    1.0000 </r>
       <r>    1.6637    1.0000 </r>
       <r>    1.6988    1.0000 </r>
       <r>    1.7539    1.0000 </r>
       <r>    1.7727    1.0000 </r>
       <r>    1.8424    1.0000 </r>
       <r>    1.8647    1.0000 </r>
       <r>    1.9624    1.0000 </r>
       <r>    1.9972    1.0000 </r>
       <r>    2.0467    1.0000 </r>
       <r>    2.0895    1.0000 </r>
       <r>    2.1431    1.0000 </r>
       <r>    2.2307    1.0000 </r>
       <r>    2.3320    1.0000 </r>
       <r>    2.3397    1.0000 </r>
       <r>    2.3799    1.0000 </r>
       <r>    2.4143    1.0000 </r>
       <r>    2.4618    1.0000 </r>
       <r>    2.4766    1.0000 </r>
       <r>    2.5232    1.0000 </r>
       <r>    2.5487    1.0000 </r>
       <r>    2.5877    1.0000 </r>
       <r>    2.6098    1.0000 </r>
       <r>    2.6267    1.0000 </r>
       <r>    2.6898    1.0000 </r>
       <r>    2.7570    1.0000 </r>
       <r>    2.7841    1.0000 </r>
       <r>    2.8141    1.0000 </r>
       <r>    2.8355    1.0000 </r>
       <r>    2.8559    1.0000 </r>
       <r>    2.9150    1.0000 </r>
       <r>    2.9883    1.0000 </r>
       <r>    3.0391    1.0000 </r>
       <r>    3.0890    1.0000 </r>
       <r>    3.1003    1.0000 </r>
       <r>    3.1463    1.0000 </r>
       <r>    3.1899    1.0000 </r>
       <r>    3.2569    1.0000 </r>
       <r>    3.2650    1.0000 </r>
       <r>    3.3448    1.0000 </r>
       <r>    3.3634    1.0000 </r>
       <r>    3.4562    1.0000 </r>
       <r>    3.5405    1.0000 </r>
       <r>    3.5794    1.0000 </r>
       <r>    3.6117    1.0000 </r>
       <r>    3.6948    1.0000 </r>
       <r>    3.7615    1.0000 </r>
       <r>    3.8197    1.0000 </r>
       <r>    4.1558    1.0000 </r>
       <r>    5.4383    0.0000 </r>
       <r>    5.4755    0.0000 </r>
       <r>    5.5044    0.0000 </r>
       <r>    5.5505    0.0000 </r>
       <r>    5.7823    0.0000 </r>
       <r>    5.8152    0.0000 </r>
       <r>    5.8406    0.0000 </r>
       <r>    5.8824    0.0000 </r>
       <r>    7.0125    0.0000 </r>
       <r>    7.0599    0.0000 </r>
       <r>    7.1216    0.0000 </r>
       <r>    7.1430    0.0000 </r>
       <r>    7.1595    0.0000 </r>
       <r>    7.2512    0.0000 </r>
       <r>    7.3070    0.0000 </r>
       <r>    7.3445    0.0000 </r>
       <r>    7.3886    0.0000 </r>
       <r>    7.4489    0.0000 </r>
       <r>    7.5060    0.0000 </r>
       <r>    7.5710    0.0000 </r>
       <r>    7.6664    0.0000 </r>
       <r>    7.7072    0.0000 </r>
       <r>    7.7366    0.0000 </r>
       <r>    7.7526    0.0000 </r>
       <r>    7.8115    0.0000 </r>
       <r>    7.8255    0.0000 </r>
       <r>    7.8439    0.0000 </r>
       <r>    7.8571    0.0000 </r>
       <r>    7.9081    0.0000 </r>
       <r>    7.9292    0.0000 </r>
       <r>    7.9389    0.0000 </r>
       <r>    7.9916    0.0000 </r>
       <r>    8.2189    0.0000 </r>
       <r>    8.2997    0.0000 </r>
       <r>    8.3597    0.0000 </r>
       <r>    8.4657    0.0000 </r>
       <r>    8.5098    0.0000 </r>
       <r>    8.6287    0.0000 </r>
       <r>    8.6666    0.0000 </r>
       <r>    8.6905    0.0000 </r>
       <r>    8.7120    0.0000 </r>
       <r>    8.8109    0.0000 </r>
       <r>    8.8901    0.0000 </r>
       <r>    8.9064    0.0000 </r>
       <r>    8.9766    0.0000 </r>
       <r>    9.0626    0.0000 </r>
       <r>    9.2644    0.0000 </r>
       <r>    9.2861    0.0000 </r>
       <r>    9.4193    0.0000 </r>
       <r>    9.5535    0.0000 </r>
       <r>    9.7201    0.0000 </r>
       <r>    9.7852    0.0000 </r>
       <r>   10.1275    0.0000 </r>
       <r>   10.2410    0.0000 </r>
      </set>
      <set comment="kpoint 3">
       <r>  -40.3656    1.0000 </r>
       <r>  -39.8005    1.0000 </r>
       <r>  -19.0908    1.0000 </r>
       <r>  -19.0387    1.0000 </r>
       <r>  -19.0317    1.0000 </r>
       <r>  -19.0145    1.0000 </r>
       <r>  -19.0058    1.0000 </r>
       <r>  -18.9552    1.0000 </r>
       <r>  -18.9481    1.0000 </r>
       <r>  -18.9474    1.0000 </r>
       <r>  -18.9433    1.0000 </r>
       <r>  -18.9332    1.0000 </r>
       <r>  -18.9178    1.0000 </r>
       <r>  -18.9018    1.0000 </r>
       <r>  -18.8976    1.0000 </r>
       <r>  -18.8588    1.0000 </r>
       <r>  -18.8537    1.0000 </r>
       <r>  -18.8511    1.0000 </r>
       <r>  -18.8478    1.0000 </r>
       <r>  -18.8448    1.0000 </r>
       <r>  -18.8371    1.0000 </r>
       <r>  -18.8348    1.0000 </r>
       <r>  -18.8303    1.0000 </r>
       <r>  -18.8285    1.0000 </r>
       <r>  -18.8250    1.0000 </r>
       <r>  -18.8201    1.0000 </r>
       <r>  -18.7795    1.0000 </r>
       <r>  -18.7747    1.0000 </r>
       <r>  -18.7735    1.0000 </r>
       <r>  -18.7628    1.0000 </r>
       <r>  -18.7615    1.0000 </r>
       <r>  -18.7606    1.0000 </r>
       <r>  -18.7542    1.0000 </r>
       <r>  -18.7524    1.0000 </r>
       <r>  -18.7371    1.0000 </r>
       <r>  -18.7365    1.0000 </r>
       <r>  -18.7357    1.0000 </r>
       <r>  -18.7350    1.0000 </r>
       <r>  -18.7044    1.0000 </r>
       <r>  -18.7026    1.0000 </r>
       <r>  -18.6899    1.0000 </r>
       <r>  -18.6869    1.0000 </r>
       <r>  -18.6719    1.0000 </r>
       <r>  -18.6609    1.0000 </r>
       <r>  -18.6306    1.0000 </r>
       <r>  -18.6283    1.0000 </r>
       <r>  -18.6277    1.0000 </r>
       <r>  -18.6208    1.0000 </r>
       <r>  -18.6188    1.0000 </r>
       <r>  -18.6086    1.0000 </r>
       <r>  -18.6076    1.0000 </r>
       <r>  -18.6022    1.0000 </r>
       <r>  -18.5969    1.0000 </r>
       <r>  -18.5957    1.0000 </r>
       <r>  -18.5920    1.0000 </r>
       <r>  -18.5837    1.0000 </r>
       <r>  -18.5493    1.0000 </r>
       <r>  -18.5139    1.0000 </r>
       <r>  -18.4956    1.0000 </r>
       <r>  -18.4828    1.0000 </r>
       <r>  -18.4772    1.0000 </r>
       <r>  -18.4656    1.0000 </r>
       <r>  -18.4605    1.0000 </r>
       <r>  -18.4483    1.0000 </r>
       <r>  -18.4461    1.0000 </r>
       <r>  -18.4352    1.0000 </r>
       <r>  -18.4144    1.0000 </r>
       <r>  -18.3987    1.0000 </r>
       <r>  -18.3861    1.0000 </r>
       <r>  -18.3719    1.0000 </r>
       <r>  -18.3060    1.0000 </r>
       <r>  -18.2936    1.0000 </r>
       <r>  -18.2797    1.0000 </r>
       <r>  -18.2629    1.0000 </r>
       <r>  -18.2340    1.0000 </r>
       <r>  -18.2074    1.0000 </r>
       <r>  -18.1974    1.0000 </r>
       <r>  -18.1926    1.0000 </r>
       <r>  -18.1707    1.0000 </r>
       <r>  -18.0676    1.0000 </r>
       <r>  -17.9674    1.0000 </r>
       <r>  -17.9470    1.0000 </r>
       <r>  -13.8262    1.0000 </r>
       <r>  -13.7003    1.0000 </r>
       <r>  -13.6346    1.0000 </r>
       <r>  -13.5720    1.0000 </r>
       <r>  -13.4696    1.0000 </r>
       <r>  -13.0013    1.0000 </r>
       <r>  -12.9649    1.0000 </r>
       <r>  -12.8599    1.0000 </r>
       <r>  -12.8169    1.0000 </r>
       <r>  -12.7565    1.0000 </r>
       <r>  -12.6764    1.0000 </r>
       <r>  -12.6076    1.0000 </r>
       <r>  -12.1560    1.0000 </r>
       <r>  -12.0312    1.0000 </r>
       <r>  -11.9523    1.0000 </r>
       <r>  -11.4601    1.0000 </r>
       <r>   -9.4221    1.0000 </r>
       <r>   -9.1471    1.0000 </r>
       <r>   -8.6654    1.0000 </r>
       <r>   -8.6289    1.0000 </r>
       <r>   -8.5732    1.0000 </r>
       <r>   -8.5255    1.0000 </r>
       <r>   -8.4039    1.0000 </r>
       <r>   -8.3775    1.0000 </r>
       <r>   -8.3126    1.0000 </r>
       <r>   -8.2834    1.0000 </r>
       <r>   -8.0849    1.0000 </r>
       <r>   -8.0645    1.0000 </r>
       <r>   -8.0446    1.0000 </r>
       <r>   -8.0206    1.0000 </r>
       <r>   -7.4235    1.0000 </r>
       <r>   -7.4189    1.0000 </r>
       <r>   -6.4726    1.0000 </r>
       <r>   -6.4606    1.0000 </r>
       <r>   -6.4410    1.0000 </r>
       <r>   -6.4166    1.0000 </r>
       <r>   -5.6751    1.0000 </r>
       <r>   -5.6193    1.0000 </r>
       <r>   -5.5543    1.0000 </r>
       <r>   -5.4824    1.0000 </r>
       <r>   -5.3624    1.0000 </r>
       <r>   -5.3395    1.0000 </r>
       <r>   -5.2634    1.0000 </r>
       <r>   -5.1192    1.0000 </r>
       <r>   -5.0935    1.0000 </r>
       <r>   -4.9726    1.0000 </r>
       <r>   -3.9446    1.0000 </r>
       <r>   -3.6289    1.0000 </r>
       <r>   -1.4800    1.0000 </r>
       <r>   -1.4186    1.0000 </r>
       <r>   -1.3416    1.0000 </r>
       <r>   -1.1890    1.0000 </r>
       <r>   -0.6112    1.0000 </r>
       <r>   -0.5480    1.0000 </r>
       <r>   -0.5230    1.0000 </r>
       <r>   -0.5070    1.0000 </r>
       <r>   -0.4890    1.0000 </r>
       <r>   -0.4698    1.0000 </r>
       <r>   -0.4466    1.0000 </r>
       <r>   -0.4158    1.0000 </r>
       <r>   -0.3269    1.0000 </r>
       <r>   -0.1952    1.0000 </r>
       <r>   -0.1780    1.0000 </r>
       <r>   -0.1356    1.0000 </r>
       <r>   -0.0726    1.0000 </r>
       <r>    0.0590    1.0000 </r>
       <r>    0.1786    1.0000 </r>
       <r>    0.3145    1.0000 </r>
       <r>    0.4144    1.0000 </r>
       <r>    0.4413    1.0000 </r>
       <r>    0.5253    1.0000 </r>
       <r>    0.6240    1.0000 </r>
       <r>    0.6569    1.0000 </r>
       <r>    0.6762    1.0000 </r>
       <r>    0.7169    1.0000 </r>
       <r>    0.7480    1.0000 </r>
       <r>    0.7765    1.0000 </r>
       <r>    0.7942    1.0000 </r>
       <r>    0.8900    1.0000 </r>
       <r>    0.9360    1.0000 </r>
       <r>    1.0020    1.0000 </r>
       <r>    1.1033    1.0000 </r>
       <r>    1.1240    1.0000 </r>
       <r>    1.1393    1.0000 </r>
       <r>    1.2278    1.0000 </r>
       <r>    1.2550    1.0000 </r>
       <r>    1.2838    1.0000 </r>
       <r>    1.3151    1.0000 </r>
       <r>    1.3576    1.0000 </r>
       <r>    1.4381    1.0000 </r>
       <r>    1.5359    1.0000 </r>
       <r>    1.5724    1.0000 </r>
       <r>    1.6072    1.0000 </r>
       <r>    1.7002    1.0000 </r>
       <r>    1.7390    1.0000 </r>
       <r>    1.7543    1.0000 </r>
       <r>    1.8696    1.0000 </r>
       <r>    1.9087    1.0000 </r>
       <r>    2.0506    1.0000 </r>
       <r>    2.1275    1.0000 </r>
       <r>    2.1867    1.0000 </r>
       <r>    2.2308    1.0000 </r>
       <r>    2.2793    1.0000 </r>
       <r>    2.3243    1.0000 </r>
       <r>    2.3318    1.0000 </r>
       <r>    2.3517    1.0000 </r>
       <r>    2.4158    1.0000 </r>
       <r>    2.4445    1.0000 </r>
       <r>    2.4768    1.0000 </r>
       <r>    2.4938    1.0000 </r>
       <r>    2.5007    1.0000 </r>
       <r>    2.5196    1.0000 </r>
       <r>    2.5373    1.0000 </r>
       <r>    2.5622    1.0000 </r>
       <r>    2.6135    1.0000 </r>
       <r>    2.6476    1.0000 </r>
       <r>    2.7002    1.0000 </r>
       <r>    2.7528    1.0000 </r>
       <r>    2.7951    1.0000 </r>
       <r>    2.8211    1.0000 </r>
       <r>    2.8587    1.0000 </r>
       <r>    2.8785    1.0000 </r>
       <r>    2.9111    1.0000 </r>
       <r>    2.9296    1.0000 </r>
       <r>    2.9952    1.0000 </r>
       <r>    3.0335    1.0000 </r>
       <r>    3.0463    1.0000 </r>
       <r>    3.1067    1.0000 </r>
       <r>    3.1885    1.0000 </r>
       <r>    3.2408    1.0000 </r>
       <r>    3.2687    1.0000 </r>
       <r>    3.2922    1.0000 </r>
       <r>    3.3173    1.0000 </r>
       <r>    3.3463    1.0000 </r>
       <r>    3.4142    1.0000 </r>
       <r>    3.4481    1.0000 </r>
       <r>    3.4840    1.0000 </r>
       <r>    3.6519    1.0000 </r>
       <r>    3.6894    1.0000 </r>
       <r>    4.0046    1.0000 </r>
       <r>    4.1633    1.0000 </r>
       <r>    4.1945    1.0000 </r>
       <r>    4.2254    1.0000 </r>
       <r>    4.2723    1.0000 </r>
       <r>    4.9954    0.0000 </r>
       <r>    5.0153    0.0000 </r>
       <r>    5.1658    0.0000 </r>
       <r>    5.1894    0.0000 </r>
       <r>    5.6379    0.0000 </r>
       <r>    5.6564    0.0000 </r>
       <r>    5.7432    0.0000 </r>
       <r>    5.7723    0.0000 </r>
       <r>    6.1008    0.0000 </r>
       <r>    6.1134    0.0000 </r>
       <r>    6.1485    0.0000 </r>
       <r>    6.1562    0.0000 </r>
       <r>    6.2005    0.0000 </r>
       <r>    6.2081    0.0000 </r>
       <r>    6.2347    0.0000 </r>
       <r>    6.2525    0.0000 </r>
       <r>    6.5094    0.0000 </r>
       <r>    6.6641    0.0000 </r>
       <r>    6.6772    0.0000 </r>
       <r>    6.9187    0.0000 </r>
       <r>    7.0146    0.0000 </r>
       <r>    7.1064    0.0000 </r>
       <r>    7.2954    0.0000 </r>
       <r>    7.3492    0.0000 </r>
       <r>    7.7114    0.0000 </r>
       <r>    7.7663    0.0000 </r>
       <r>    7.7897    0.0000 </r>
       <r>    7.9103    0.0000 </r>
       <r>    7.9905    0.0000 </r>
       <r>    8.3123    0.0000 </r>
       <r>    8.3466    0.0000 </r>
       <r>    8.4455    0.0000 </r>
       <r>    8.5357    0.0000 </r>
       <r>    8.6084    0.0000 </r>
       <r>    8.7211    0.0000 </r>
       <r>    8.8229    0.0000 </r>
       <r>    8.9076    0.0000 </r>
       <r>    8.9594    0.0000 </r>
       <r>    8.9841    0.0000 </r>
       <r>    8.9969    0.0000 </r>
       <r>    9.0285    0.0000 </r>
       <r>    9.0961    0.0000 </r>
       <r>    9.1185    0.0000 </r>
       <r>    9.1323    0.0000 </r>
       <r>    9.4215    0.0000 </r>
       <r>    9.4439    0.0000 </r>
       <r>    9.5473    0.0000 </r>
       <r>    9.6188    0.0000 </r>
       <r>    9.6665    0.0000 </r>
       <r>    9.6796    0.0000 </r>
       <r>    9.8500    0.0000 </r>
       <r>    9.9102    0.0000 </r>
       <r>    9.9817    0.0000 </r>
       <r>    9.9903    0.0000 </r>
      </set>
      <set comment="kpoint 4">
       <r>  -40.3656    1.0000 </r>
       <r>  -39.8005    1.0000 </r>
       <r>  -19.0908    1.0000 </r>
       <r>  -19.0387    1.0000 </r>
       <r>  -19.0317    1.0000 </r>
       <r>  -19.0144    1.0000 </r>
       <r>  -19.0058    1.0000 </r>
       <r>  -18.9552    1.0000 </r>
       <r>  -18.9480    1.0000 </r>
       <r>  -18.9474    1.0000 </r>
       <r>  -18.9432    1.0000 </r>
       <r>  -18.9332    1.0000 </r>
       <r>  -18.9178    1.0000 </r>
       <r>  -18.9017    1.0000 </r>
       <r>  -18.8976    1.0000 </r>
       <r>  -18.8588    1.0000 </r>
       <r>  -18.8537    1.0000 </r>
       <r>  -18.8511    1.0000 </r>
       <r>  -18.8478    1.0000 </r>
       <r>  -18.8448    1.0000 </r>
       <r>  -18.8371    1.0000 </r>
       <r>  -18.8336    1.0000 </r>
       <r>  -18.8304    1.0000 </r>
       <r>  -18.8298    1.0000 </r>
       <r>  -18.8250    1.0000 </r>
       <r>  -18.8202    1.0000 </r>
       <r>  -18.7794    1.0000 </r>
       <r>  -18.7746    1.0000 </r>
       <r>  -18.7734    1.0000 </r>
       <r>  -18.7628    1.0000 </r>
       <r>  -18.7615    1.0000 </r>
       <r>  -18.7607    1.0000 </r>
       <r>  -18.7542    1.0000 </r>
       <r>  -18.7524    1.0000 </r>
       <r>  -18.7372    1.0000 </r>
       <r>  -18.7366    1.0000 </r>
       <r>  -18.7357    1.0000 </r>
       <r>  -18.7350    1.0000 </r>
       <r>  -18.7044    1.0000 </r>
       <r>  -18.7025    1.0000 </r>
       <r>  -18.6899    1.0000 </r>
       <r>  -18.6867    1.0000 </r>
       <r>  -18.6719    1.0000 </r>
       <r>  -18.6609    1.0000 </r>
       <r>  -18.6307    1.0000 </r>
       <r>  -18.6283    1.0000 </r>
       <r>  -18.6277    1.0000 </r>
       <r>  -18.6208    1.0000 </r>
       <r>  -18.6189    1.0000 </r>
       <r>  -18.6085    1.0000 </r>
       <r>  -18.6076    1.0000 </r>
       <r>  -18.6022    1.0000 </r>
       <r>  -18.5969    1.0000 </r>
       <r>  -18.5957    1.0000 </r>
       <r>  -18.5920    1.0000 </r>
       <r>  -18.5837    1.0000 </r>
       <r>  -18.5493    1.0000 </r>
       <r>  -18.5139    1.0000 </r>
       <r>  -18.4956    1.0000 </r>
       <r>  -18.4828    1.0000 </r>
       <r>  -18.4772    1.0000 </r>
       <r>  -18.4656    1.0000 </r>
       <r>  -18.4606    1.0000 </r>
       <r>  -18.4483    1.0000 </r>
       <r>  -18.4461    1.0000 </r>
       <r>  -18.4352    1.0000 </r>
       <r>  -18.4144    1.0000 </r>
       <r>  -18.3987    1.0000 </r>
       <r>  -18.3861    1.0000 </r>
       <r>  -18.3719    1.0000 </r>
       <r>  -18.3060    1.0000 </r>
       <r>  -18.2936    1.0000 </r>
       <r>  -18.2797    1.0000 </r>
       <r>  -18.2629    1.0000 </r>
       <r>  -18.2340    1.0000 </r>
       <r>  -18.2074    1.0000 </r>
       <r>  -18.1974    1.0000 </r>
       <r>  -18.1926    1.0000 </r>
       <r>  -18.1707    1.0000 </r>
       <r>  -18.0676    1.0000 </r>
       <r>  -17.9674    1.0000 </r>
       <r>  -17.9470    1.0000 </r>
       <r>  -13.8256    1.0000 </r>
       <r>  -13.7008    1.0000 </r>
       <r>  -13.6345    1.0000 </r>
       <r>  -13.5719    1.0000 </r>
       <r>  -13.4698    1.0000 </r>
       <r>  -12.9990    1.0000 </r>
       <r>  -12.9670    1.0000 </r>
       <r>  -12.8586    1.0000 </r>
       <r>  -12.8237    1.0000 </r>
       <r>  -12.7511    1.0000 </r>
       <r>  -12.6758    1.0000 </r>
       <r>  -12.6084    1.0000 </r>
       <r>  -12.1562    1.0000 </r>
       <r>  -12.0309    1.0000 </r>
       <r>  -11.9525    1.0000 </r>
       <r>  -11.4599    1.0000 </r>
       <r>   -9.3112    1.0000 </r>
       <r>   -9.0898    1.0000 </r>
[...]
       <r>    8.8006    0.0000 </r>
       <r>    8.8546    0.0000 </r>
       <r>    8.8613    0.0000 </r>
       <r>    8.8808    0.0000 </r>
       <r>    8.8947    0.0000 </r>
       <r>    8.9391    0.0000 </r>
       <r>    9.2992    0.0000 </r>
       <r>    9.6066    0.0000 </r>
       <r>    9.8148    0.0000 </r>
       <r>    9.9453    0.0000 </r>
       <r>   10.0655    0.0000 </r>
       <r>   10.1269    0.0000 </r>
      </set>
     </set>
    </set>
   </array>
  </eigenvalues>
  <separator name="orbital magnetization" >
   <v name="MAGDIPOLOUT">      0.00000000      0.00000000      0.00000000</v>
  </separator>
  <dos>
   <i name="efermi">      4.32584921 </i>
   <total>
    <array>
     <dimension dim="1">gridpoints</dimension>
     <dimension dim="2">spin</dimension>
     <field>energy</field>
     <field>total</field>
     <field>integrated</field>
     <set>
      <set comment="spin 1">
       <r>   -42.8984     0.0000     0.0000 </r>
       <r>   -42.7127     0.0000     0.0000 </r>
       <r>   -42.5270     0.0000     0.0000 </r>
       <r>   -42.3412     0.0000     0.0000 </r>
       <r>   -42.1555     0.0000     0.0000 </r>
       <r>   -41.9697     0.0000     0.0000 </r>
       <r>   -41.7840     0.0000     0.0000 </r>
       <r>   -41.5983     0.0000     0.0000 </r>
       <r>   -41.4125     0.0000     0.0000 </r>
       <r>   -41.2268     0.0000     0.0000 </r>
       <r>   -41.0410     0.0000     0.0000 </r>
       <r>   -40.8553     0.0000     0.0000 </r>
       <r>   -40.6696     0.0000     0.0000 </r>
       <r>   -40.4838     0.0000     0.0000 </r>
       <r>   -40.2981     0.0000     2.0000 </r>
       <r>   -40.1123     0.0000     2.0000 </r>
       <r>   -39.9266     0.0000     2.0000 </r>
       <r>   -39.7409     0.0000     4.0000 </r>
       <r>   -39.5551     0.0000     4.0000 </r>
       <r>   -39.3694     0.0000     4.0000 </r>
       <r>   -39.1836     0.0000     4.0000 </r>
       <r>   -38.9979     0.0000     4.0000 </r>
       <r>   -38.8122     0.0000     4.0000 </r>
       <r>   -38.6264     0.0000     4.0000 </r>
       <r>   -38.4407     0.0000     4.0000 </r>
       <r>   -38.2549     0.0000     4.0000 </r>
       <r>   -38.0692     0.0000     4.0000 </r>
       <r>   -37.8835     0.0000     4.0000 </r>
       <r>   -37.6977     0.0000     4.0000 </r>
       <r>   -37.5120     0.0000     4.0000 </r>
       <r>   -37.3262     0.0000     4.0000 </r>
       <r>   -37.1405     0.0000     4.0000 </r>
       <r>   -36.9548     0.0000     4.0000 </r>
       <r>   -36.7690     0.0000     4.0000 </r>
       <r>   -36.5833     0.0000     4.0000 </r>
       <r>   -36.3975     0.0000     4.0000 </r>
       <r>   -36.2118     0.0000     4.0000 </r>
       <r>   -36.0261     0.0000     4.0000 </r>
       <r>   -35.8403     0.0000     4.0000 </r>
       <r>   -35.6546     0.0000     4.0000 </r>
       <r>   -35.4689     0.0000     4.0000 </r>
       <r>   -35.2831     0.0000     4.0000 </r>
       <r>   -35.0974     0.0000     4.0000 </r>
       <r>   -34.9116     0.0000     4.0000 </r>
       <r>   -34.7259     0.0000     4.0000 </r>
       <r>   -34.5402     0.0000     4.0000 </r>
       <r>   -34.3544     0.0000     4.0000 </r>
       <r>   -34.1687     0.0000     4.0000 </r>
       <r>   -33.9829     0.0000     4.0000 </r>
       <r>   -33.7972     0.0000     4.0000 </r>
       <r>   -33.6115     0.0000     4.0000 </r>
       <r>   -33.4257     0.0000     4.0000 </r>
       <r>   -33.2400     0.0000     4.0000 </r>
       <r>   -33.0542     0.0000     4.0000 </r>
       <r>   -32.8685     0.0000     4.0000 </r>
       <r>   -32.6828     0.0000     4.0000 </r>
       <r>   -32.4970     0.0000     4.0000 </r>
       <r>   -32.3113     0.0000     4.0000 </r>
       <r>   -32.1255     0.0000     4.0000 </r>
       <r>   -31.9398     0.0000     4.0000 </r>
       <r>   -31.7541     0.0000     4.0000 </r>
       <r>   -31.5683     0.0000     4.0000 </r>
       <r>   -31.3826     0.0000     4.0000 </r>
       <r>   -31.1968     0.0000     4.0000 </r>
       <r>   -31.0111     0.0000     4.0000 </r>
       <r>   -30.8254     0.0000     4.0000 </r>
       <r>   -30.6396     0.0000     4.0000 </r>
       <r>   -30.4539     0.0000     4.0000 </r>
       <r>   -30.2681     0.0000     4.0000 </r>
       <r>   -30.0824     0.0000     4.0000 </r>
       <r>   -29.8967     0.0000     4.0000 </r>
       <r>   -29.7109     0.0000     4.0000 </r>
       <r>   -29.5252     0.0000     4.0000 </r>
       <r>   -29.3394     0.0000     4.0000 </r>
       <r>   -29.1537     0.0000     4.0000 </r>
       <r>   -28.9680     0.0000     4.0000 </r>
       <r>   -28.7822     0.0000     4.0000 </r>
       <r>   -28.5965     0.0000     4.0000 </r>
       <r>   -28.4107     0.0000     4.0000 </r>
       <r>   -28.2250     0.0000     4.0000 </r>
       <r>   -28.0393     0.0000     4.0000 </r>
       <r>   -27.8535     0.0000     4.0000 </r>
       <r>   -27.6678     0.0000     4.0000 </r>
       <r>   -27.4820     0.0000     4.0000 </r>
       <r>   -27.2963     0.0000     4.0000 </r>
       <r>   -27.1106     0.0000     4.0000 </r>
       <r>   -26.9248     0.0000     4.0000 </r>
       <r>   -26.7391     0.0000     4.0000 </r>
       <r>   -26.5534     0.0000     4.0000 </r>
       <r>   -26.3676     0.0000     4.0000 </r>
       <r>   -26.1819     0.0000     4.0000 </r>
       <r>   -25.9961     0.0000     4.0000 </r>
       <r>   -25.8104     0.0000     4.0000 </r>
       <r>   -25.6247     0.0000     4.0000 </r>
       <r>   -25.4389     0.0000     4.0000 </r>
       <r>   -25.2532     0.0000     4.0000 </r>
       <r>   -25.0674     0.0000     4.0000 </r>
       <r>   -24.8817     0.0000     4.0000 </r>
       <r>   -24.6960     0.0000     4.0000 </r>
       <r>   -24.5102     0.0000     4.0000 </r>
       <r>   -24.3245     0.0000     4.0000 </r>
       <r>   -24.1387     0.0000     4.0000 </r>
       <r>   -23.9530     0.0000     4.0000 </r>
       <r>   -23.7673     0.0000     4.0000 </r>
       <r>   -23.5815     0.0000     4.0000 </r>
       <r>   -23.3958     0.0000     4.0000 </r>
       <r>   -23.2100     0.0000     4.0000 </r>
       <r>   -23.0243     0.0000     4.0000 </r>
       <r>   -22.8386     0.0000     4.0000 </r>
       <r>   -22.6528     0.0000     4.0000 </r>
       <r>   -22.4671     0.0000     4.0000 </r>
       <r>   -22.2813     0.0000     4.0000 </r>
       <r>   -22.0956     0.0000     4.0000 </r>
       <r>   -21.9099     0.0000     4.0000 </r>
       <r>   -21.7241     0.0000     4.0000 </r>
       <r>   -21.5384     0.0000     4.0000 </r>
       <r>   -21.3526     0.0000     4.0000 </r>
       <r>   -21.1669     0.0000     4.0000 </r>
       <r>   -20.9812     0.0000     4.0000 </r>
       <r>   -20.7954     0.0000     4.0000 </r>
       <r>   -20.6097     0.0000     4.0000 </r>
       <r>   -20.4239     0.0000     4.0000 </r>
       <r>   -20.2382     0.0000     4.0000 </r>
       <r>   -20.0525     0.0000     4.0000 </r>
       <r>   -19.8667     0.0000     4.0000 </r>
       <r>   -19.6810     0.0000     4.0000 </r>
       <r>   -19.4952     0.0000     4.0000 </r>
       <r>   -19.3095     0.0000     4.0000 </r>
       <r>   -19.1238     0.0000     4.0000 </r>
       <r>   -18.9380     0.0000    22.0000 </r>
       <r>   -18.7523     0.0000    68.0000 </r>
       <r>   -18.5666     0.0000   112.0000 </r>
       <r>   -18.3808     0.0000   138.0000 </r>
       <r>   -18.1951     0.0000   154.0000 </r>
       <r>   -18.0093     0.0000   160.0000 </r>
       <r>   -17.8236     0.0000   164.0000 </r>
       <r>   -17.6379     0.0000   164.0000 </r>
       <r>   -17.4521     0.0000   164.0000 </r>
       <r>   -17.2664     0.0000   164.0000 </r>
       <r>   -17.0806     0.0000   164.0000 </r>
       <r>   -16.8949     0.0000   164.0000 </r>
       <r>   -16.7092     0.0000   164.0000 </r>
       <r>   -16.5234     0.0000   164.0000 </r>
       <r>   -16.3377     0.0000   164.0000 </r>
       <r>   -16.1519     0.0000   164.0000 </r>
       <r>   -15.9662     0.0000   164.0000 </r>
       <r>   -15.7805     0.0000   164.0000 </r>
       <r>   -15.5947     0.0000   164.0000 </r>
       <r>   -15.4090     0.0000   164.0000 </r>
       <r>   -15.2232     0.0000   164.0000 </r>
       <r>   -15.0375     0.0000   164.0000 </r>
       <r>   -14.8518     0.0000   164.0000 </r>
       <r>   -14.6660     0.0000   164.0000 </r>
       <r>   -14.4803     0.0000   164.0000 </r>
       <r>   -14.2945     0.0000   164.0000 </r>
       <r>   -14.1088     0.0000   164.0000 </r>
       <r>   -13.9231     0.0000   164.0000 </r>
       <r>   -13.7373     0.0000   166.0000 </r>
       <r>   -13.5516     0.0000   172.0000 </r>
       <r>   -13.3658     0.0000   174.0000 </r>
       <r>   -13.1801     0.0000   174.0000 </r>
       <r>   -12.9944     0.0000   176.0000 </r>
       <r>   -12.8086     0.0000   182.0000 </r>
       <r>   -12.6229     0.0000   186.0000 </r>
       <r>   -12.4371     0.0000   188.0000 </r>
       <r>   -12.2514     0.0000   188.0000 </r>
       <r>   -12.0657     0.0000   190.0000 </r>
       <r>   -11.8799     0.0000   194.0000 </r>
       <r>   -11.6942     0.0000   194.0000 </r>
       <r>   -11.5084     0.0000   194.0000 </r>
       <r>   -11.3227     0.0000   196.0000 </r>
       <r>   -11.1370     0.0000   196.0000 </r>
       <r>   -10.9512     0.0000   196.0000 </r>
       <r>   -10.7655     0.0000   196.0000 </r>
       <r>   -10.5798     0.0000   196.0000 </r>
       <r>   -10.3940     0.0000   196.0000 </r>
       <r>   -10.2083     0.0000   196.0000 </r>
       <r>   -10.0225     0.0000   196.0000 </r>
       <r>    -9.8368     0.0000   196.0000 </r>
       <r>    -9.6511     0.0000   196.0000 </r>
       <r>    -9.4653     0.0000   196.0000 </r>
       <r>    -9.2796    13.1147   197.1822 </r>
       <r>    -9.0938    24.5455   199.3682 </r>
       <r>    -8.9081     6.4217   201.1914 </r>
       <r>    -8.7224    12.0594   203.8014 </r>
       <r>    -8.5366    29.6706   206.9598 </r>
       <r>    -8.3509    21.0225   211.5729 </r>
       <r>    -8.1651    12.3567   214.5690 </r>
       <r>    -7.9794    20.6078   219.1720 </r>
       <r>    -7.7937    15.1489   222.8467 </r>
       <r>    -7.6079    16.2436   225.1768 </r>
       <r>    -7.4222     0.5413   227.9987 </r>
       <r>    -7.2364     0.0000   228.0000 </r>
       <r>    -7.0507     0.0000   228.0000 </r>
       <r>    -6.8650     0.0000   228.0000 </r>
       <r>    -6.6792     0.0000   228.0000 </r>
       <r>    -6.4935     0.0000   228.0000 </r>
       <r>    -6.3077    20.3571   229.5710 </r>
       <r>    -6.1220    17.5347   234.2289 </r>
       <r>    -5.9363    17.6364   236.8666 </r>
       <r>    -5.7505    27.8348   241.3833 </r>
       <r>    -5.5648    14.9074   244.9625 </r>
       <r>    -5.3790    20.7622   248.0036 </r>
       <r>    -5.1933     9.4514   251.2233 </r>
       <r>    -5.0076     3.5092   252.1961 </r>
       <r>    -4.8218     8.8127   253.4890 </r>
       <r>    -4.6361     9.3895   255.2792 </r>
       <r>    -4.4503     8.4779   256.7578 </r>
       <r>    -4.2646     6.8407   258.0006 </r>
       <r>    -4.0789     5.0204   259.1713 </r>
       <r>    -3.8931     1.8642   259.7981 </r>
       <r>    -3.7074     0.2800   259.9927 </r>
       <r>    -3.5216     0.0000   260.0000 </r>
       <r>    -3.3359     0.0000   260.0000 </r>
       <r>    -3.1502     0.0000   260.0000 </r>
       <r>    -2.9644     0.0000   260.0000 </r>
       <r>    -2.7787     0.0000   260.0000 </r>
       <r>    -2.5929     0.0000   260.0000 </r>
       <r>    -2.4072     0.0000   260.0000 </r>
       <r>    -2.2215     0.0000   260.0000 </r>
       <r>    -2.0357     0.0000   260.0000 </r>
       <r>    -1.8500     0.0000   260.0000 </r>
       <r>    -1.6643     0.0000   260.0000 </r>
       <r>    -1.4785     2.4391   260.1163 </r>
       <r>    -1.2928     9.1049   261.2252 </r>
       <r>    -1.1070    12.3132   263.2811 </r>
       <r>    -0.9213    12.2664   265.7482 </r>
       <r>    -0.7356     8.2569   267.4833 </r>
       <r>    -0.5498    21.1566   270.0189 </r>
       <r>    -0.3641    26.4860   274.3198 </r>
       <r>    -0.1783    38.5370   280.1804 </r>
       <r>     0.0074    39.1866   287.5775 </r>
       <r>     0.1931    30.6535   293.6578 </r>
       <r>     0.3789    29.1684   299.2163 </r>
       <r>     0.5646    51.0550   306.7937 </r>
       <r>     0.7504    61.7631   314.3021 </r>
       <r>     0.9361    47.8058   323.5085 </r>
       <r>     1.1218    59.0231   330.9767 </r>
       <r>     1.3076    54.2465   340.7043 </r>
       <r>     1.4933    34.8851   348.4978 </r>
       <r>     1.6791    31.4789   356.5921 </r>
       <r>     1.8648    33.3719   363.2280 </r>
       <r>     2.0505    35.1265   369.4901 </r>
       <r>     2.2363    48.1516   377.0400 </r>
       <r>     2.4220    56.2565   386.6280 </r>
       <r>     2.6078    54.1606   397.7726 </r>
       <r>     2.7935    62.6865   407.1420 </r>
       <r>     2.9792    48.8650   417.6467 </r>
       <r>     3.1650    46.9796   426.7742 </r>
       <r>     3.3507    38.5984   434.9479 </r>
       <r>     3.5365    24.8000   440.4457 </r>
       <r>     3.7222    13.4649   444.2285 </r>
       <r>     3.9079    15.7204   447.9933 </r>
       <r>     4.0937     4.3323   449.7970 </r>
       <r>     4.2794     0.0000   452.0000 </r>
       <r>     4.4652     0.0000   452.0000 </r>
       <r>     4.6509     0.0000   452.0000 </r>
       <r>     4.8366     0.0000   452.0000 </r>
       <r>     5.0224     0.6617   452.0229 </r>
       <r>     5.2081     3.6941   452.3744 </r>
       <r>     5.3939     8.5401   453.5103 </r>
       <r>     5.5796     9.1598   455.3049 </r>
       <r>     5.7653    17.6658   457.8086 </r>
       <r>     5.9511    13.7512   461.3626 </r>
       <r>     6.1368    11.6594   463.6782 </r>
       <r>     6.3225    13.7163   465.9862 </r>
       <r>     6.5083    16.4717   468.7993 </r>
       <r>     6.6940    18.8621   472.0817 </r>
       <r>     6.8798    22.2194   475.8754 </r>
       <r>     7.0655    28.2715   480.5362 </r>
       <r>     7.2512    31.9497   486.2920 </r>
       <r>     7.4370    31.7997   492.3798 </r>
       <r>     7.6227    28.4072   497.4381 </r>
       <r>     7.8085    50.0089   505.5404 </r>
       <r>     7.9942    25.0135   512.7856 </r>
       <r>     8.1799    20.8318   516.9503 </r>
       <r>     8.3657    21.7281   520.7660 </r>
       <r>     8.5514    23.2803   525.0384 </r>
       <r>     8.7372    36.7644   530.6593 </r>
       <r>     8.9229    37.1676   538.1000 </r>
       <r>     9.1086    18.2341   543.0270 </r>
       <r>     9.2944    16.6407   546.0301 </r>
       <r>     9.4801    15.5353   549.1106 </r>
       <r>     9.6659    10.0980   551.5256 </r>
       <r>     9.8516    11.9217   553.4398 </r>
       <r>    10.0373    17.7716   556.2489 </r>
       <r>    10.2231    12.4914   559.5184 </r>
       <r>    10.4088     0.0000   560.0000 </r>
       <r>    10.5946     0.0000   560.0000 </r>
       <r>    10.7803     0.0000   560.0000 </r>
       <r>    10.9660     0.0000   560.0000 </r>
       <r>    11.1518     0.0000   560.0000 </r>
       <r>    11.3375     0.0000   560.0000 </r>
       <r>    11.5233     0.0000   560.0000 </r>
       <r>    11.7090     0.0000   560.0000 </r>
       <r>    11.8947     0.0000   560.0000 </r>
       <r>    12.0805     0.0000   560.0000 </r>
       <r>    12.2662     0.0000   560.0000 </r>
       <r>    12.4520     0.0000   560.0000 </r>
       <r>    12.6377     0.0000   560.0000 </r>
       <r>    12.8234     0.0000   560.0000 </r>
      </set>
     </set>
    </array>
   </total>
  </dos>
 </calculation>
 <structure name="finalpos" >
  <crystal>
   <varray name="basis" >
    <v>      11.17850000       0.00000000       0.00000000 </v>
    <v>       0.00000000       9.57460000       0.00000000 </v>
    <v>       0.00000000       0.00000000      11.18240000 </v>
   </varray>
   <i name="volume">   1196.84853820 </i>
   <varray name="rec_basis" >
    <v>       0.08945744       0.00000000       0.00000000 </v>
    <v>       0.00000000       0.10444301       0.00000000 </v>
    <v>       0.00000000       0.00000000       0.08942624 </v>
   </varray>
  </crystal>
  <varray name="positions" >
   <v>       0.37461000       0.00017000       0.18687000 </v>
   <v>       0.87539000       0.00017000       0.43687000 </v>
   <v>       0.12461000       0.99984000       0.18687000 </v>
   <v>       0.62539000       0.99984000       0.43687000 </v>
   <v>       0.62461000       0.99984000       0.18687000 </v>
   <v>       0.37539000       0.00017000       0.93687000 </v>
   <v>       0.12461000       0.99984000       0.68687000 </v>
   <v>       0.87539000       0.00017000       0.93687000 </v>
   <v>       0.62461000       0.99984000       0.68687000 </v>
   <v>       0.00013000       0.29519000       0.06281000 </v>
   <v>       0.25013000       0.70481000       0.06281000 </v>
   <v>       0.24987000       0.29519000       0.31282000 </v>
   <v>       0.49987000       0.70481000       0.31282000 </v>
   <v>       0.50013000       0.29519000       0.06281000 </v>
   <v>       0.75013000       0.70481000       0.06281000 </v>
   <v>       0.74987000       0.29519000       0.31282000 </v>
   <v>       0.99987000       0.70481000       0.31282000 </v>
   <v>       0.00013000       0.29519000       0.56281000 </v>
   <v>       0.25013000       0.70481000       0.56281000 </v>
   <v>       0.24987000       0.29519000       0.81282000 </v>
   <v>       0.49987000       0.70481000       0.81282000 </v>
   <v>       0.50013000       0.29519000       0.56281000 </v>
   <v>       0.75013000       0.70481000       0.56281000 </v>
   <v>       0.74987000       0.29519000       0.81282000 </v>
   <v>       0.99987000       0.70481000       0.81282000 </v>
   <v>       0.25005000       0.32677000       0.06286000 </v>
   <v>       0.00005000       0.67323000       0.06286000 </v>
   <v>       0.49995000       0.32677000       0.31286000 </v>
   <v>       0.24995000       0.67323000       0.31286000 </v>
   <v>       0.75005000       0.32677000       0.06286000 </v>
   <v>       0.50005000       0.67323000       0.06286000 </v>
   <v>       0.99995000       0.32677000       0.31286000 </v>
   <v>       0.74995000       0.67323000       0.31286000 </v>
   <v>       0.25005000       0.32677000       0.56286000 </v>
   <v>       0.00005000       0.67323000       0.56286000 </v>
   <v>       0.49995000       0.32677000       0.81286000 </v>
   <v>       0.24995000       0.67323000       0.81286000 </v>
   <v>       0.75005000       0.32677000       0.56286000 </v>
   <v>       0.50005000       0.67323000       0.56286000 </v>
   <v>       0.99995000       0.32677000       0.81286000 </v>
   <v>       0.74995000       0.67323000       0.81286000 </v>
   <v>       0.49987000       0.07798000       0.06246000 </v>
   <v>       0.24987000       0.92202000       0.06246000 </v>
   <v>       0.25013000       0.07798000       0.31246000 </v>
   <v>       0.00013000       0.92202000       0.31246000 </v>
   <v>       0.99987000       0.07798000       0.06246000 </v>
   <v>       0.74987000       0.92202000       0.06246000 </v>
   <v>       0.75013000       0.07798000       0.31246000 </v>
   <v>       0.50013000       0.92202000       0.31246000 </v>
   <v>       0.49987000       0.07798000       0.56246000 </v>
   <v>       0.24987000       0.92202000       0.56246000 </v>
   <v>       0.25013000       0.07798000       0.81246000 </v>
   <v>       0.00013000       0.92202000       0.81246000 </v>
   <v>       0.99987000       0.07798000       0.56246000 </v>
   <v>       0.74987000       0.92202000       0.56246000 </v>
   <v>       0.75013000       0.07798000       0.81246000 </v>
   <v>       0.50013000       0.92202000       0.81246000 </v>
  </varray>
 </structure>
</modeling>
