<?xml version="1.0" encoding="ISO-8859-1"?>
<modeling>
 <generator>
  <i name="program" type="string">vasp </i>
  <i name="version" type="string">5.4.4.18Apr17-6-g9f103f2a35  </i>
  <i name="subversion" type="string">(build Jul 31 2017 11:33:29) complex            parallel </i>
  <i name="platform" type="string">LinuxIFC </i>
  <i name="date" type="string">2021 09 23 </i>
  <i name="time" type="string">08:34:39 </i>
 </generator>
 <incar>
  <i type="string" name="SYSTEM"> La2O2S</i>
  <i type="string" name="PREC">normal</i>
  <i type="int" name="NELMIN">     4</i>
  <i type="int" name="IBRION">     2</i>
  <i type="int" name="NFREE">    10</i>
  <i name="EDIFF">      0.00000100</i>
  <i name="EDIFFG">     -0.01000000</i>
  <i type="int" name="NSW">   200</i>
  <i type="int" name="ISIF">     3</i>
  <i name="ENCUT">    600.00000000</i>
  <i name="ENAUG">    900.00000000</i>
  <i type="int" name="ISMEAR">    -5</i>
  <i type="logical" name="LWAVE"> F  </i>
  <i type="logical" name="LCHARG"> F  </i>
  <v type="int" name="KPOINT_BSE">    -1     0     0     0</v>
 </incar>
 <structure name="primitive_cell" >
  <crystal>
   <varray name="basis" >
    <v>      11.17850000       0.00000000       0.00000000 </v>
    <v>       0.00000000       9.57460000       0.00000000 </v>
    <v>       0.00000000       0.00000000      11.18240000 </v>
   </varray>
   <i name="volume">   1196.84853820 </i>
   <varray name="rec_basis" >
    <v>       0.08945744       0.00000000       0.00000000 </v>
    <v>       0.00000000       0.10444301       0.00000000 </v>
    <v>       0.00000000       0.00000000       0.08942624 </v>
   </varray>
  </crystal>
  <varray name="positions" >
   <v>       0.37539000       0.00017000       0.43687000 </v>
   <v>      -0.49987000      -0.07798000       0.31246000 </v>
   <v>       0.25013000       0.07798000       0.31246000 </v>
   <v>       0.49987000       0.07798000      -0.43754000 </v>
   <v>       0.24987000      -0.07798000      -0.43754000 </v>
   <v>       0.37461000       0.00017000       0.18687000 </v>
   <v>       0.37461000       0.00017000      -0.31313000 </v>
   <v>       0.49987000      -0.29519000       0.31282000 </v>
   <v>       0.24987000       0.29519000       0.31282000 </v>
   <v>      -0.49987000       0.29519000      -0.43719000 </v>
   <v>       0.25013000      -0.29519000      -0.43719000 </v>
   <v>       0.49995000       0.32677000       0.31286000 </v>
   <v>       0.24995000      -0.32677000       0.31286000 </v>
   <v>      -0.49995000      -0.32677000      -0.43714000 </v>
   <v>       0.25005000       0.32677000      -0.43714000 </v>
   <v>      -0.37539000      -0.00016000      -0.31313000 </v>
   <v>      -0.37539000      -0.00016000       0.18687000 </v>
   <v>       0.12461000      -0.00016000       0.18687000 </v>
   <v>       0.12461000      -0.00016000      -0.31313000 </v>
   <v>       0.49987000       0.07798000       0.06246000 </v>
   <v>      -0.24987000       0.07798000       0.31246000 </v>
   <v>      -0.25013000      -0.07798000      -0.43754000 </v>
   <v>       0.24987000      -0.07798000       0.06246000 </v>
   <v>       0.00013000      -0.07798000       0.31246000 </v>
   <v>      -0.49987000      -0.07798000      -0.18754000 </v>
   <v>      -0.00013000       0.07798000      -0.43754000 </v>
   <v>       0.25013000       0.07798000      -0.18754000 </v>
   <v>      -0.49987000       0.29519000       0.06281000 </v>
   <v>      -0.25013000       0.29519000       0.31282000 </v>
   <v>       0.25013000      -0.29519000       0.06281000 </v>
   <v>      -0.24987000      -0.29519000      -0.43719000 </v>
   <v>      -0.00013000      -0.29519000       0.31282000 </v>
   <v>       0.00013000       0.29519000      -0.43719000 </v>
   <v>       0.49987000      -0.29519000      -0.18718000 </v>
   <v>       0.24987000       0.29519000      -0.18718000 </v>
   <v>      -0.49995000      -0.32677000       0.06286000 </v>
   <v>       0.25005000       0.32677000       0.06286000 </v>
   <v>      -0.25005000      -0.32677000       0.31286000 </v>
   <v>      -0.24995000       0.32677000      -0.43714000 </v>
   <v>      -0.00005000       0.32677000       0.31286000 </v>
   <v>       0.00005000      -0.32677000      -0.43714000 </v>
   <v>       0.49995000       0.32677000      -0.18714000 </v>
   <v>       0.24995000      -0.32677000      -0.18714000 </v>
   <v>      -0.12461000       0.00017000       0.43687000 </v>
   <v>       0.37539000       0.00017000      -0.06313000 </v>
   <v>      -0.25013000      -0.07798000       0.06246000 </v>
   <v>      -0.00013000       0.07798000       0.06246000 </v>
   <v>      -0.24987000       0.07798000      -0.18754000 </v>
   <v>       0.00013000      -0.07798000      -0.18754000 </v>
   <v>      -0.12539000       0.00017000      -0.31313000 </v>
   <v>      -0.37461000      -0.00016000      -0.06313000 </v>
   <v>      -0.24987000      -0.29519000       0.06281000 </v>
   <v>       0.00013000       0.29519000       0.06281000 </v>
   <v>      -0.25013000       0.29519000      -0.18718000 </v>
   <v>      -0.00013000      -0.29519000      -0.18718000 </v>
   <v>      -0.24995000       0.32677000       0.06286000 </v>
   <v>       0.00005000      -0.32677000       0.06286000 </v>
   <v>      -0.25005000      -0.32677000      -0.18714000 </v>
   <v>      -0.00005000       0.32677000      -0.18714000 </v>
   <v>      -0.12461000       0.00017000      -0.06313000 </v>
  </varray>
 </structure>
 <varray name="primitive_index" >
  <v type="int" >        1 </v>
  <v type="int" >       52 </v>
  <v type="int" >       47 </v>
  <v type="int" >       53 </v>
  <v type="int" >       54 </v>
  <v type="int" >        3 </v>
  <v type="int" >       10 </v>
  <v type="int" >       16 </v>
  <v type="int" >       15 </v>
  <v type="int" >       25 </v>
  <v type="int" >       22 </v>
  <v type="int" >       31 </v>
  <v type="int" >       32 </v>
  <v type="int" >       42 </v>
  <v type="int" >       37 </v>
  <v type="int" >        8 </v>
  <v type="int" >        9 </v>
  <v type="int" >        2 </v>
  <v type="int" >        6 </v>
  <v type="int" >       45 </v>
  <v type="int" >       51 </v>
  <v type="int" >       58 </v>
  <v type="int" >       46 </v>
  <v type="int" >       48 </v>
  <v type="int" >       60 </v>
  <v type="int" >       57 </v>
  <v type="int" >       55 </v>
  <v type="int" >       17 </v>
  <v type="int" >       19 </v>
  <v type="int" >       14 </v>
  <v type="int" >       26 </v>
  <v type="int" >       20 </v>
  <v type="int" >       21 </v>
  <v type="int" >       24 </v>
  <v type="int" >       23 </v>
  <v type="int" >       34 </v>
  <v type="int" >       29 </v>
  <v type="int" >       36 </v>
  <v type="int" >       41 </v>
  <v type="int" >       35 </v>
  <v type="int" >       38 </v>
  <v type="int" >       39 </v>
  <v type="int" >       40 </v>
  <v type="int" >        4 </v>
  <v type="int" >        5 </v>
  <v type="int" >       50 </v>
  <v type="int" >       49 </v>
  <v type="int" >       59 </v>
  <v type="int" >       56 </v>
  <v type="int" >       12 </v>
  <v type="int" >        7 </v>
  <v type="int" >       18 </v>
  <v type="int" >       13 </v>
  <v type="int" >       27 </v>
  <v type="int" >       28 </v>
  <v type="int" >       33 </v>
  <v type="int" >       30 </v>
  <v type="int" >       44 </v>
  <v type="int" >       43 </v>
  <v type="int" >       11 </v>
 </varray>
 <kpoints>
  <generation param="Gamma">
   <v type="int" name="divisions">       2        2        2 </v>
   <v name="usershift">      0.00000000       0.00000000       0.00000000 </v>
   <v name="genvec1">      0.50000000       0.00000000       0.00000000 </v>
   <v name="genvec2">      0.00000000       0.50000000       0.00000000 </v>
   <v name="genvec3">      0.00000000       0.00000000       0.50000000 </v>
   <v name="shift">      0.00000000       0.00000000       0.00000000 </v>
  </generation>
  <varray name="kpointlist" >
   <v>       0.00000000       0.00000000       0.00000000 </v>
   <v>       0.50000000       0.00000000       0.00000000 </v>
   <v>       0.00000000       0.50000000       0.00000000 </v>
   <v>       0.50000000       0.50000000       0.00000000 </v>
   <v>       0.00000000       0.00000000       0.50000000 </v>
   <v>       0.50000000       0.00000000       0.50000000 </v>
   <v>       0.00000000       0.50000000       0.50000000 </v>
   <v>       0.50000000       0.50000000       0.50000000 </v>
  </varray>
  <varray name="weights" >
   <v>       0.12500000 </v>
   <v>       0.12500000 </v>
   <v>       0.12500000 </v>
   <v>       0.12500000 </v>
   <v>       0.12500000 </v>
   <v>       0.12500000 </v>
   <v>       0.12500000 </v>
   <v>       0.12500000 </v>
  </varray>
  <varray name="tetrahedronlist"  type="int" >
   <v type="int" >        2        1        2        4        5 </v>
   <v type="int" >        2        1        3        4        5 </v>
   <v type="int" >        2        3        4        5        7 </v>
   <v type="int" >        2        2        4        5        6 </v>
   <v type="int" >        2        4        5        6        8 </v>
   <v type="int" >        2        4        5        7        8 </v>
   <v type="int" >        2        1        2        3        6 </v>
   <v type="int" >        2        2        3        4        6 </v>
   <v type="int" >        2        3        4        6        8 </v>
   <v type="int" >        2        1        3        5        6 </v>
   <v type="int" >        2        3        5        6        7 </v>
   <v type="int" >        2        3        6        7        8 </v>
   <v type="int" >        2        2        3        4        7 </v>
   <v type="int" >        2        1        2        3        7 </v>
   <v type="int" >        2        1        2        5        7 </v>
   <v type="int" >        2        2        4        7        8 </v>
   <v type="int" >        2        2        6        7        8 </v>
   <v type="int" >        2        2        5        6        7 </v>
   <v type="int" >        2        1        3        4        8 </v>
   <v type="int" >        2        1        2        4        8 </v>
   <v type="int" >        2        1        2        6        8 </v>
   <v type="int" >        2        1        3        7        8 </v>
   <v type="int" >        2        1        5        7        8 </v>
   <v type="int" >        2        1        5        6        8 </v>
  </varray>
  <i name="volumeweight">      0.02083333 </i>
 </kpoints>
 <parameters>
  <separator name="general" >
   <i type="string" name="SYSTEM">La2O2S</i>
   <i type="logical" name="LCOMPAT"> F  </i>
  </separator>
  <separator name="electronic" >
   <i type="string" name="PREC">normal</i>
   <i name="ENMAX">    600.00000000</i>
   <i name="ENAUG">    900.00000000</i>
   <i name="EDIFF">      0.00000100</i>
   <i type="int" name="IALGO">    38</i>
   <i type="int" name="IWAVPR">    11</i>
   <i type="int" name="NBANDS">   280</i>
   <i name="NELECT">    464.00000000</i>
   <i type="int" name="TURBO">     0</i>
   <i type="int" name="IRESTART">     0</i>
   <i type="int" name="NREBOOT">     0</i>
   <i type="int" name="NMIN">     0</i>
   <i name="EREF">      0.00000000</i>
   <separator name="electronic smearing" >
    <i type="int" name="ISMEAR">    -5</i>
    <i name="SIGMA">      0.20000000</i>
    <i name="KSPACING">      0.50000000</i>
    <i type="logical" name="KGAMMA"> T  </i>
   </separator>
   <separator name="electronic projectors" >
    <i type="logical" name="LREAL"> F  </i>
    <v name="ROPT">      0.00000000      0.00000000      0.00000000      0.00000000      0.00000000</v>
    <i type="int" name="LMAXPAW">  -100</i>
    <i type="int" name="LMAXMIX">     2</i>
    <i type="logical" name="NLSPLINE"> F  </i>
   </separator>
   <separator name="electronic startup" >
    <i type="int" name="ISTART">     0</i>
    <i type="int" name="ICHARG">     2</i>
    <i type="int" name="INIWAV">     1</i>
   </separator>
   <separator name="electronic spin" >
    <i type="int" name="ISPIN">     1</i>
    <i type="logical" name="LNONCOLLINEAR"> F  </i>
    <v name="MAGMOM">      1.00000000      1.00000000      1.00000000      1.00000000      1.00000000      1.00000000      1.00000000      1.00000000      1.00000000      1.00000000      1.00000000      1.00000000      1.00000000      1.00000000      1.00000000      1.00000000      1.00000000      1.00000000      1.00000000      1.00000000
      1.00000000      1.00000000      1.00000000      1.00000000      1.00000000      1.00000000      1.00000000      1.00000000      1.00000000      1.00000000      1.00000000      1.00000000      1.00000000      1.00000000      1.00000000      1.00000000      1.00000000      1.00000000      1.00000000      1.00000000
      1.00000000      1.00000000      1.00000000      1.00000000      1.00000000      1.00000000      1.00000000      1.00000000      1.00000000      1.00000000      1.00000000      1.00000000      1.00000000      1.00000000      1.00000000      1.00000000      1.00000000      1.00000000      1.00000000      1.00000000
</v>
    <i name="NUPDOWN">     -1.00000000</i>
    <i type="logical" name="LSORBIT"> F  </i>
    <v name="SAXIS">      0.00000000      0.00000000      1.00000000</v>
    <i type="logical" name="LSPIRAL"> F  </i>
    <v name="QSPIRAL">      0.00000000      0.00000000      0.00000000</v>
    <i type="logical" name="LZEROZ"> F  </i>
   </separator>
   <separator name="electronic exchange-correlation" >
    <i type="logical" name="LASPH"> F  </i>
    <i type="logical" name="LMETAGGA"> F  </i>
   </separator>
   <separator name="electronic convergence" >
    <i type="int" name="NELM">    60</i>
    <i type="int" name="NELMDL">    -5</i>
    <i type="int" name="NELMIN">     4</i>
    <i name="ENINI">    600.00000000</i>
    <separator name="electronic convergence detail" >
     <i type="logical" name="LDIAG"> T  </i>
     <i type="logical" name="LSUBROT"> F  </i>
     <i name="WEIMIN">      0.00100000</i>
     <i name="EBREAK">      0.00000000</i>
     <i name="DEPER">      0.30000000</i>
     <i type="int" name="NRMM">     4</i>
     <i name="TIME">      0.40000000</i>
    </separator>
   </separator>
   <separator name="electronic mixer" >
    <i name="AMIX">      0.40000000</i>
    <i name="BMIX">      1.00000000</i>
    <i name="AMIN">      0.10000000</i>
    <i name="AMIX_MAG">      1.60000000</i>
    <i name="BMIX_MAG">      1.00000000</i>
    <separator name="electronic mixer details" >
     <i type="int" name="IMIX">     4</i>
     <i type="logical" name="MIXFIRST"> F  </i>
     <i type="int" name="MAXMIX">   -45</i>
     <i name="WC">    100.00000000</i>
     <i type="int" name="INIMIX">     1</i>
     <i type="int" name="MIXPRE">     1</i>
     <i type="int" name="MREMOVE">     5</i>
    </separator>
   </separator>
   <separator name="electronic dipolcorrection" >
    <i type="logical" name="LDIPOL"> F  </i>
    <i type="logical" name="LMONO"> F  </i>
    <i type="int" name="IDIPOL">     0</i>
    <i name="EPSILON">      1.00000000</i>
    <v name="DIPOL">   -100.00000000   -100.00000000   -100.00000000</v>
    <i name="EFIELD">      0.00000000</i>
   </separator>
  </separator>
  <separator name="grids" >
   <i type="int" name="NGX">    70</i>
   <i type="int" name="NGY">    60</i>
   <i type="int" name="NGZ">    70</i>
   <i type="int" name="NGXF">   140</i>
   <i type="int" name="NGYF">   120</i>
   <i type="int" name="NGZF">   140</i>
   <i type="logical" name="ADDGRID"> F  </i>
  </separator>
  <separator name="ionic" >
   <i type="int" name="NSW">   200</i>
   <i type="int" name="IBRION">     2</i>
   <i type="int" name="MDALGO">     0</i>
   <i type="int" name="ISIF">     3</i>
   <i name="PSTRESS">      0.00000000</i>
   <i name="EDIFFG">     -0.01000000</i>
   <i type="int" name="NFREE">    10</i>
   <i name="POTIM">      0.50000000</i>
   <i name="SMASS">     -3.00000000</i>
   <i name="SCALEE">      1.00000000</i>
  </separator>
  <separator name="ionic md" >
   <i name="TEBEG">      0.00010000</i>
   <i name="TEEND">      0.00010000</i>
   <i type="int" name="NBLOCK">     1</i>
   <i type="int" name="KBLOCK">   200</i>
   <i type="int" name="NPACO">   256</i>
   <i name="APACO">     16.00000000</i>
  </separator>
  <separator name="symmetry" >
   <i type="int" name="ISYM">     2</i>
   <i name="SYMPREC">      0.00001000</i>
  </separator>
  <separator name="dos" >
   <i type="int" name="LORBIT">     0</i>
   <v name="RWIGS">     -1.00000000     -1.00000000     -1.00000000     -1.00000000     -1.00000000</v>
   <i type="int" name="NEDOS">   301</i>
   <i name="EMIN">     10.00000000</i>
   <i name="EMAX">    -10.00000000</i>
   <i name="EFERMI">      0.00000000</i>
  </separator>
  <separator name="writing" >
   <i type="int" name="NWRITE">     2</i>
   <i type="logical" name="LWAVE"> F  </i>
   <i type="logical" name="LDOWNSAMPLE"> F  </i>
   <i type="logical" name="LCHARG"> F  </i>
   <i type="logical" name="LPARD"> F  </i>
   <i type="logical" name="LVTOT"> F  </i>
   <i type="logical" name="LVHAR"> F  </i>
   <i type="logical" name="LELF"> F  </i>
   <i type="logical" name="LOPTICS"> F  </i>
   <v name="STM">      0.00000000      0.00000000      0.00000000      0.00000000      0.00000000      0.00000000      0.00000000</v>
  </separator>
  <separator name="performance" >
   <i type="int" name="NPAR">    28</i>
   <i type="int" name="NSIM">     4</i>
   <i type="int" name="NBLK">    -1</i>
   <i type="logical" name="LPLANE"> T  </i>
   <i type="logical" name="LSCALAPACK"> T  </i>
   <i type="logical" name="LSCAAWARE"> F  </i>
   <i type="logical" name="LSCALU"> F  </i>
   <i type="logical" name="LASYNC"> F  </i>
   <i type="logical" name="LORBITALREAL"> F  </i>
  </separator>
  <separator name="miscellaneous" >
   <i type="int" name="IDIOT">     3</i>
   <i type="int" name="ISPECIAL">     0</i>
   <i type="logical" name="LMUSIC"> F  </i>
   <v name="POMASS">      7.01000000     24.30500000    208.98000000     32.06600000     16.00000000</v>
   <v name="DARWINR">      0.00000000      0.00000000      0.00000000      0.00000000      0.00000000</v>
   <v name="DARWINV">      1.00000000      1.00000000      1.00000000      1.00000000      1.00000000</v>
   <i type="logical" name="LCORR"> T  </i>
  </separator>
  <i type="logical" name="GGA_COMPAT"> T  </i>
  <i type="logical" name="LBERRY"> F  </i>
  <i type="int" name="ICORELEVEL">     0</i>
  <i type="logical" name="LDAU"> F  </i>
  <i type="int" name="I_CONSTRAINED_M">     0</i>
  <separator name="electronic exchange-correlation" >
   <i type="string" name="GGA">--</i>
   <i type="int" name="VOSKOWN">     0</i>
   <i type="logical" name="LHFCALC"> F  </i>
   <i type="string" name="PRECFOCK"></i>
   <i type="logical" name="LSYMGRAD"> F  </i>
   <i type="logical" name="LHFONE"> F  </i>
   <i type="logical" name="LRHFCALC"> F  </i>
   <i type="logical" name="LTHOMAS"> F  </i>
   <i type="logical" name="LMODELHF"> F  </i>
   <i name="ENCUT4O">     -1.00000000</i>
   <i type="int" name="EXXOEP">     0</i>
   <i type="int" name="FOURORBIT">     0</i>
   <i name="AEXX">      0.00000000</i>
   <i name="HFALPHA">      0.00000000</i>
   <i name="MCALPHA">      0.00000000</i>
   <i name="ALDAX">      1.00000000</i>
   <i name="AGGAX">      1.00000000</i>
   <i name="ALDAC">      1.00000000</i>
   <i name="AGGAC">      1.00000000</i>
   <i type="int" name="NKREDX">     1</i>
   <i type="int" name="NKREDY">     1</i>
   <i type="int" name="NKREDZ">     1</i>
   <i type="logical" name="SHIFTRED"> F  </i>
   <i type="logical" name="ODDONLY"> F  </i>
   <i type="logical" name="EVENONLY"> F  </i>
   <i type="int" name="LMAXFOCK">     0</i>
   <i type="int" name="NMAXFOCKAE">     0</i>
   <i type="logical" name="LFOCKAEDFT"> F  </i>
   <i name="HFSCREEN">      0.00000000</i>
   <i name="HFSCREENC">      0.00000000</i>
   <i type="int" name="NBANDSGWLOW">     0</i>
  </separator>
  <separator name="vdW DFT" >
   <i type="logical" name="LUSE_VDW"> F  </i>
   <i name="Zab_VDW">     -0.84910000</i>
   <i name="PARAM1">      0.12340000</i>
   <i name="PARAM2">      1.00000000</i>
   <i name="PARAM3">      0.00000000</i>
  </separator>
  <separator name="model GW" >
   <i type="int" name="MODEL_GW">     0</i>
   <i name="MODEL_EPS0">     11.96848538</i>
   <i name="MODEL_ALPHA">      1.00000000</i>
  </separator>
  <separator name="linear response parameters" >
   <i type="logical" name="LEPSILON"> F  </i>
   <i type="logical" name="LRPA"> F  </i>
   <i type="logical" name="LNABLA"> F  </i>
   <i type="logical" name="LVEL"> F  </i>
   <i type="int" name="KINTER">     0</i>
   <i name="CSHIFT">      0.10000000</i>
   <i name="OMEGAMAX">     -1.00000000</i>
   <i name="DEG_THRESHOLD">      0.00200000</i>
   <i name="RTIME">     -0.10000000</i>
   <i name="WPLASMAI">      0.00000000</i>
   <v name="DFIELD">      0.00000000      0.00000000      0.00000000</v>
   <v name="WPLASMA">      0.00000000      0.00000000      0.00000000      0.00000000      0.00000000      0.00000000      0.00000000      0.00000000      0.00000000</v>
  </separator>
  <separator name="orbital magnetization" >
   <i type="logical" name="NUCIND"> F  </i>
   <v name="MAGPOS">      0.00000000      0.00000000      0.00000000</v>
   <i type="logical" name="LNICSALL"> T  </i>
   <i type="logical" name="ORBITALMAG"> F  </i>
   <i type="logical" name="LMAGBLOCH"> F  </i>
   <i type="logical" name="LCHIMAG"> F  </i>
   <i type="logical" name="LGAUGE"> T  </i>
   <i type="int" name="MAGATOM">     0</i>
   <v name="MAGDIPOL">      0.00000000      0.00000000      0.00000000</v>
   <v name="AVECCONST">      0.00000000      0.00000000      0.00000000</v>
  </separator>
  <separator name="response functions" >
   <i type="logical" name="LADDER"> F  </i>
   <i type="logical" name="LRPAFORCE"> F  </i>
   <i type="logical" name="LFXC"> F  </i>
   <i type="logical" name="LHARTREE"> T  </i>
   <i type="int" name="IBSE">     0</i>
   <v type="int" name="KPOINT">    -1     0     0     0</v>
   <i type="logical" name="LTCTE"> F  </i>
   <i type="logical" name="LTETE"> F  </i>
   <i type="logical" name="LTRIPLET"> F  </i>
   <i type="logical" name="LFXCEPS"> F  </i>
   <i type="logical" name="LFXHEG"> F  </i>
   <i type="int" name="NATURALO">     2</i>
   <i type="logical" name="L2ORDER"> F  </i>
   <i type="logical" name="LMP2LT"> F  </i>
   <i type="logical" name="LUSEW"> F  </i>
   <i name="ENCUTGW">     -2.00000000</i>
   <i name="ENCUTGWSOFT">     -2.00000000</i>
   <i name="ENCUTLF">     -1.00000000</i>
   <i type="int" name="LMAXMP2">    -1</i>
   <i name="SCISSOR">      0.00000000</i>
   <i type="int" name="NOMEGA">     0</i>
   <i type="int" name="NOMEGAR">     0</i>
   <i type="int" name="NBANDSGW">    -1</i>
   <i type="int" name="NBANDSO">    -1</i>
   <i type="int" name="NBANDSV">    -1</i>
   <i type="int" name="NELM">     1</i>
   <i type="int" name="NELMHF">     1</i>
   <i type="int" name="DIM">     3</i>
   <i type="int" name="ANTIRES">     0</i>
   <i name="OMEGAMAX">    -30.00000000</i>
   <i name="OMEGAMIN">    -30.00000000</i>
   <i name="OMEGATL">   -200.00000000</i>
   <i type="int" name="OMEGAGRID">   140</i>
   <i name="CSHIFT">     -0.10000000</i>
   <i type="logical" name="SELFENERGY"> F  </i>
   <i type="logical" name="LSPECTRAL"> F  </i>
   <i type="logical" name="LSPECTRALGW"> F  </i>
   <i type="logical" name="LSINGLES"> F  </i>
   <i type="logical" name="LFERMIGW"> F  </i>
   <i type="logical" name="ODDONLYGW"> F  </i>
   <i type="logical" name="EVENONLYGW"> F  </i>
   <i type="int" name="NKREDLFX">     1</i>
   <i type="int" name="NKREDLFY">     1</i>
   <i type="int" name="NKREDLFZ">     1</i>
   <i type="int" name="MAXMEM">  2800</i>
   <i type="int" name="TELESCOPE">     0</i>
   <i type="int" name="TAUPAR">     1</i>
   <i type="int" name="OMEGAPAR">    -1</i>
   <i name="LAMBDA">      1.00000000</i>
  </separator>
  <separator name="External order field" >
   <i name="OFIELD_KAPPA">      0.00000000</i>
   <v name="OFIELD_K">      0.00000000      0.00000000      0.00000000</v>
   <i name="OFIELD_Q6_NEAR">      0.00000000</i>
   <i name="OFIELD_Q6_FAR">      0.00000000</i>
   <i name="OFIELD_A">      0.00000000</i>
  </separator>
 </parameters>
 <atominfo>
  <atoms>      60 </atoms>
  <types>       5 </types>
  <array name="atoms" >
   <dimension dim="1">ion</dimension>
   <field type="string">element</field>
   <field type="int">atomtype</field>
   <set>
    <rc><c>Li</c><c>   1</c></rc>
    <rc><c>Li</c><c>   1</c></rc>
    <rc><c>Li</c><c>   1</c></rc>
    <rc><c>Li</c><c>   1</c></rc>
    <rc><c>Li</c><c>   1</c></rc>
    <rc><c>Li</c><c>   1</c></rc>
    <rc><c>Li</c><c>   1</c></rc>
    <rc><c>Li</c><c>   1</c></rc>
    <rc><c>Mg</c><c>   2</c></rc>
    <rc><c>Mg</c><c>   2</c></rc>
    <rc><c>Mg</c><c>   2</c></rc>
    <rc><c>Mg</c><c>   2</c></rc>
    <rc><c>Bi</c><c>   3</c></rc>
    <rc><c>Bi</c><c>   3</c></rc>
    <rc><c>Bi</c><c>   3</c></rc>
    <rc><c>Bi</c><c>   3</c></rc>
    <rc><c>Bi</c><c>   3</c></rc>
    <rc><c>Bi</c><c>   3</c></rc>
    <rc><c>Bi</c><c>   3</c></rc>
    <rc><c>Bi</c><c>   3</c></rc>
    <rc><c>Bi</c><c>   3</c></rc>
    <rc><c>Bi</c><c>   3</c></rc>
    <rc><c>Bi</c><c>   3</c></rc>
    <rc><c>Bi</c><c>   3</c></rc>
    <rc><c>Bi</c><c>   3</c></rc>
    <rc><c>Bi</c><c>   3</c></rc>
    <rc><c>Bi</c><c>   3</c></rc>
    <rc><c>Bi</c><c>   3</c></rc>
    <rc><c>S </c><c>   4</c></rc>
    <rc><c>S </c><c>   4</c></rc>
    <rc><c>S </c><c>   4</c></rc>
    <rc><c>S </c><c>   4</c></rc>
    <rc><c>S </c><c>   4</c></rc>
    <rc><c>S </c><c>   4</c></rc>
    <rc><c>S </c><c>   4</c></rc>
    <rc><c>S </c><c>   4</c></rc>
    <rc><c>S </c><c>   4</c></rc>
    <rc><c>S </c><c>   4</c></rc>
    <rc><c>S </c><c>   4</c></rc>
    <rc><c>S </c><c>   4</c></rc>
    <rc><c>S </c><c>   4</c></rc>
    <rc><c>S </c><c>   4</c></rc>
    <rc><c>S </c><c>   4</c></rc>
    <rc><c>S </c><c>   4</c></rc>
    <rc><c>O </c><c>   5</c></rc>
    <rc><c>O </c><c>   5</c></rc>
    <rc><c>O </c><c>   5</c></rc>
    <rc><c>O </c><c>   5</c></rc>
    <rc><c>O </c><c>   5</c></rc>
    <rc><c>O </c><c>   5</c></rc>
    <rc><c>O </c><c>   5</c></rc>
    <rc><c>O </c><c>   5</c></rc>
    <rc><c>O </c><c>   5</c></rc>
    <rc><c>O </c><c>   5</c></rc>
    <rc><c>O </c><c>   5</c></rc>
    <rc><c>O </c><c>   5</c></rc>
    <rc><c>O </c><c>   5</c></rc>
    <rc><c>O </c><c>   5</c></rc>
    <rc><c>O </c><c>   5</c></rc>
    <rc><c>O </c><c>   5</c></rc>
   </set>
  </array>
  <array name="atomtypes" >
   <dimension dim="1">type</dimension>
   <field type="int">atomspertype</field>
   <field type="string">element</field>
   <field>mass</field>
   <field>valence</field>
   <field type="string">pseudopotential</field>
   <set>
    <rc><c>   8</c><c>Li</c><c>      7.01000000</c><c>      3.00000000</c><c>  PAW_PBE Li_sv 10Sep2004               </c></rc>
    <rc><c>   4</c><c>Mg</c><c>     24.30500000</c><c>      2.00000000</c><c>  PAW_PBE Mg 13Apr2007                  </c></rc>
    <rc><c>  16</c><c>Bi</c><c>    208.98000000</c><c>     15.00000000</c><c>  PAW_PBE Bi_d 06Sep2000                </c></rc>
    <rc><c>  16</c><c>S </c><c>     32.06600000</c><c>      6.00000000</c><c>  PAW_PBE S 06Sep2000                   </c></rc>
    <rc><c>  16</c><c>O </c><c>     16.00000000</c><c>      6.00000000</c><c>  PAW_PBE O 08Apr2002                   </c></rc>
   </set>
  </array>
 </atominfo>
 <structure name="initialpos" >
  <crystal>
   <varray name="basis" >
    <v>      11.17850000       0.00000000       0.00000000 </v>
    <v>       0.00000000       9.57460000       0.00000000 </v>
    <v>       0.00000000       0.00000000      11.18240000 </v>
   </varray>
   <i name="volume">   1196.84853820 </i>
   <varray name="rec_basis" >
    <v>       0.08945744       0.00000000       0.00000000 </v>
    <v>       0.00000000       0.10444301       0.00000000 </v>
    <v>       0.00000000       0.00000000       0.08942624 </v>
   </varray>
  </crystal>
  <varray name="positions" >
   <v>       0.37539000       0.00017000       0.43687000 </v>
   <v>       0.12461000       0.99984000       0.18687000 </v>
   <v>       0.37461000       0.00017000       0.18687000 </v>
   <v>       0.87539000       0.00017000       0.43687000 </v>
   <v>       0.37539000       0.00017000       0.93687000 </v>
   <v>       0.12461000       0.99984000       0.68687000 </v>
   <v>       0.62539000       0.99984000       0.93687000 </v>
   <v>       0.62461000       0.99984000       0.68687000 </v>
   <v>       0.62461000       0.99984000       0.18687000 </v>
   <v>       0.37461000       0.00017000       0.68687000 </v>
   <v>       0.87539000       0.00017000       0.93687000 </v>
   <v>       0.87461000       0.00017000       0.68687000 </v>
   <v>       0.00013000       0.29519000       0.06281000 </v>
   <v>       0.25013000       0.70481000       0.06281000 </v>
   <v>       0.24987000       0.29519000       0.31282000 </v>
   <v>       0.49987000       0.70481000       0.31282000 </v>
   <v>       0.50013000       0.29519000       0.06281000 </v>
   <v>       0.75013000       0.70481000       0.06281000 </v>
   <v>       0.74987000       0.29519000       0.31282000 </v>
   <v>       0.99987000       0.70481000       0.31282000 </v>
   <v>       0.00013000       0.29519000       0.56281000 </v>
   <v>       0.25013000       0.70481000       0.56281000 </v>
   <v>       0.24987000       0.29519000       0.81282000 </v>
   <v>       0.49987000       0.70481000       0.81282000 </v>
   <v>       0.50013000       0.29519000       0.56281000 </v>
   <v>       0.75013000       0.70481000       0.56281000 </v>
   <v>       0.74987000       0.29519000       0.81282000 </v>
   <v>       0.99987000       0.70481000       0.81282000 </v>
   <v>       0.25005000       0.32677000       0.06286000 </v>
   <v>       0.00005000       0.67323000       0.06286000 </v>
   <v>       0.49995000       0.32677000       0.31286000 </v>
   <v>       0.24995000       0.67323000       0.31286000 </v>
   <v>       0.75005000       0.32677000       0.06286000 </v>
   <v>       0.50005000       0.67323000       0.06286000 </v>
   <v>       0.99995000       0.32677000       0.31286000 </v>
   <v>       0.74995000       0.67323000       0.31286000 </v>
   <v>       0.25005000       0.32677000       0.56286000 </v>
   <v>       0.00005000       0.67323000       0.56286000 </v>
   <v>       0.49995000       0.32677000       0.81286000 </v>
   <v>       0.24995000       0.67323000       0.81286000 </v>
   <v>       0.75005000       0.32677000       0.56286000 </v>
   <v>       0.50005000       0.67323000       0.56286000 </v>
   <v>       0.99995000       0.32677000       0.81286000 </v>
   <v>       0.74995000       0.67323000       0.81286000 </v>
   <v>       0.49987000       0.07798000       0.06246000 </v>
   <v>       0.24987000       0.92202000       0.06246000 </v>
   <v>       0.25013000       0.07798000       0.31246000 </v>
   <v>       0.00013000       0.92202000       0.31246000 </v>
   <v>       0.99987000       0.07798000       0.06246000 </v>
   <v>       0.74987000       0.92202000       0.06246000 </v>
   <v>       0.75013000       0.07798000       0.31246000 </v>
   <v>       0.50013000       0.92202000       0.31246000 </v>
   <v>       0.49987000       0.07798000       0.56246000 </v>
   <v>       0.24987000       0.92202000       0.56246000 </v>
   <v>       0.25013000       0.07798000       0.81246000 </v>
   <v>       0.00013000       0.92202000       0.81246000 </v>
   <v>       0.99987000       0.07798000       0.56246000 </v>
   <v>       0.74987000       0.92202000       0.56246000 </v>
   <v>       0.75013000       0.07798000       0.81246000 </v>
   <v>       0.50013000       0.92202000       0.81246000 </v>
  </varray>
 </structure>
 <calculation>
  <scstep>
   <time name="dav">   59.41   60.68</time>
   <time name="total">   59.49   60.76</time>
   <energy>
    <i name="alphaZ">   1067.11773629 </i>
    <i name="ewald"> -30660.87861179 </i>
    <i name="hartreedc"> -12693.64082431 </i>
    <i name="XCdc">   1321.10537107 </i>
    <i name="pawpsdc">  36729.48549953 </i>
    <i name="pawaedc"> -36149.63912807 </i>
    <i name="eentropy">      0.00000000 </i>
    <i name="bandstr">   1839.92690267 </i>
    <i name="atom">  44408.54722957 </i>
    <i name="e_fr_energy">   5862.02417495 </i>
    <i name="e_wo_entrp">   5862.02417495 </i>
    <i name="e_0_energy">   5862.02417495 </i>
   </energy>
  </scstep>
  <scstep>
   <time name="dav">   60.67   61.15</time>
   <time name="total">   60.68   61.17</time>
   <energy>
    <i name="e_fr_energy">    784.55285411 </i>
    <i name="e_wo_entrp">    784.55285411 </i>
    <i name="e_0_energy">    784.55285411 </i>
   </energy>
  </scstep>
  <scstep>
   <time name="dav">   70.89   71.37</time>
   <time name="total">   70.89   71.37</time>
   <energy>
    <i name="e_fr_energy">   -243.00754427 </i>
    <i name="e_wo_entrp">   -243.00754427 </i>
    <i name="e_0_energy">   -243.00754427 </i>
   </energy>
  </scstep>
  <scstep>
   <time name="dav">   71.99   72.37</time>
   <time name="total">   71.99   72.37</time>
   <energy>
    <i name="e_fr_energy">   -339.98233938 </i>
    <i name="e_wo_entrp">   -339.98233938 </i>
    <i name="e_0_energy">   -339.98233938 </i>
   </energy>
  </scstep>
  <scstep>
   <time name="dav">   96.69   96.97</time>
   <time name="total">   97.41   97.69</time>
   <energy>
    <i name="e_fr_energy">   -348.24676328 </i>
    <i name="e_wo_entrp">   -348.24676328 </i>
    <i name="e_0_energy">   -348.24676328 </i>
   </energy>
  </scstep>
  <scstep>
   <time name="dav">   85.91   86.18</time>
   <time name="total">   86.70   86.98</time>
   <energy>
    <i name="e_fr_energy">   -291.06006976 </i>
    <i name="e_wo_entrp">   -291.06006976 </i>
    <i name="e_0_energy">   -291.06006976 </i>
   </energy>
  </scstep>
  <scstep>
   <time name="dav">   65.51   65.92</time>
   <time name="total">   66.30   66.72</time>
   <energy>
    <i name="e_fr_energy">   -293.56636569 </i>
    <i name="e_wo_entrp">   -293.56636569 </i>
    <i name="e_0_energy">   -293.56636569 </i>
   </energy>
  </scstep>
  <scstep>
   <time name="dav">   77.90   78.13</time>
   <time name="total">   78.69   78.95</time>
   <energy>
    <i name="e_fr_energy">   -292.39848375 </i>
    <i name="e_wo_entrp">   -292.39848375 </i>
    <i name="e_0_energy">   -292.39848375 </i>
   </energy>
  </scstep>
  <scstep>
   <time name="dav">   69.81   70.08</time>
   <time name="total">   70.60   70.88</time>
   <energy>
    <i name="e_fr_energy">   -291.80163371 </i>
    <i name="e_wo_entrp">   -291.80163371 </i>
    <i name="e_0_energy">   -291.80163371 </i>
   </energy>
  </scstep>
  <scstep>
   <time name="dav">   74.04   74.53</time>
   <time name="total">   74.82   75.32</time>
   <energy>
    <i name="e_fr_energy">   -291.84806125 </i>
    <i name="e_wo_entrp">   -291.84806125 </i>
    <i name="e_0_energy">   -291.84806125 </i>
   </energy>
  </scstep>
  <scstep>
   <time name="dav">   80.74   81.29</time>
   <time name="total">   81.52   82.08</time>
   <energy>
    <i name="e_fr_energy">   -291.85009499 </i>
    <i name="e_wo_entrp">   -291.85009499 </i>
    <i name="e_0_energy">   -291.85009499 </i>
   </energy>
  </scstep>
  <scstep>
   <time name="dav">   75.31   76.07</time>
   <time name="total">   76.10   76.87</time>
   <energy>
    <i name="e_fr_energy">   -291.85400258 </i>
    <i name="e_wo_entrp">   -291.85400258 </i>
    <i name="e_0_energy">   -291.85400258 </i>
   </energy>
  </scstep>
  <scstep>
   <time name="dav">   77.34   77.76</time>
   <time name="total">   78.14   78.55</time>
   <energy>
    <i name="e_fr_energy">   -291.85521200 </i>
    <i name="e_wo_entrp">   -291.85521200 </i>
    <i name="e_0_energy">   -291.85521200 </i>
   </energy>
  </scstep>
  <scstep>
   <time name="dav">   78.08   78.60</time>
   <time name="total">   78.87   79.39</time>
   <energy>
    <i name="e_fr_energy">   -291.85516808 </i>
    <i name="e_wo_entrp">   -291.85516808 </i>
    <i name="e_0_energy">   -291.85516808 </i>
   </energy>
  </scstep>
  <scstep>
   <time name="dav">   72.40   73.14</time>
   <time name="total">   73.19   73.93</time>
   <energy>
    <i name="e_fr_energy">   -291.85530249 </i>
    <i name="e_wo_entrp">   -291.85530249 </i>
    <i name="e_0_energy">   -291.85530249 </i>
   </energy>
  </scstep>
  <scstep>
   <time name="dav">   72.58   73.52</time>
   <time name="total">   73.38   74.32</time>
   <energy>
    <i name="e_fr_energy">   -291.85530657 </i>
    <i name="e_wo_entrp">   -291.85530657 </i>
    <i name="e_0_energy">   -291.85530657 </i>
   </energy>
  </scstep>
  <scstep>
   <time name="dav">   69.68   69.86</time>
   <time name="total">   70.47   70.66</time>
   <energy>
    <i name="e_fr_energy">   -291.85531192 </i>
    <i name="e_wo_entrp">   -291.85531192 </i>
    <i name="e_0_energy">   -291.85531192 </i>
   </energy>
  </scstep>
  <scstep>
   <time name="dav">   68.98   69.36</time>
   <time name="total">   69.84   70.24</time>
   <energy>
    <i name="e_fr_energy">   -291.85531345 </i>
    <i name="e_wo_entrp">   -291.85531345 </i>
    <i name="e_0_energy">   -291.85531345 </i>
   </energy>
  </scstep>
  <scstep>
   <time name="dav">   60.68   60.92</time>
   <time name="total">   61.47   61.71</time>
   <energy>
    <i name="e_fr_energy">   -291.85531477 </i>
    <i name="e_wo_entrp">   -291.85531477 </i>
    <i name="e_0_energy">   -291.85531477 </i>
   </energy>
  </scstep>
  <scstep>
   <time name="dav">   43.44   43.60</time>
   <time name="total">   43.51   43.67</time>
   <energy>
    <i name="alphaZ">   1067.11773629 </i>
    <i name="ewald"> -30660.87861179 </i>
    <i name="hartreedc"> -12924.28159559 </i>
    <i name="XCdc">   1345.01280644 </i>
    <i name="pawpsdc">  43748.32559708 </i>
    <i name="pawaedc"> -43142.72603814 </i>
    <i name="eentropy">      0.00000000 </i>
    <i name="bandstr">  -4132.97243848 </i>
    <i name="atom">  44408.54722957 </i>
    <i name="e_fr_energy">   -291.85531462 </i>
    <i name="e_wo_entrp">   -291.85531462 </i>
    <i name="e_0_energy">   -291.85531462 </i>
   </energy>
  </scstep>
  <structure>
   <crystal>
    <varray name="basis" >
     <v>      11.17850000       0.00000000       0.00000000 </v>
     <v>       0.00000000       9.57460000       0.00000000 </v>
     <v>       0.00000000       0.00000000      11.18240000 </v>
    </varray>
    <i name="volume">   1196.84853820 </i>
    <varray name="rec_basis" >
     <v>       0.08945744       0.00000000       0.00000000 </v>
     <v>       0.00000000       0.10444301       0.00000000 </v>
     <v>       0.00000000       0.00000000       0.08942624 </v>
    </varray>
   </crystal>
   <varray name="positions" >
    <v>       0.37539000       0.00017000       0.43687000 </v>
    <v>       0.12461000       0.99984000       0.18687000 </v>
    <v>       0.37461000       0.00017000       0.18687000 </v>
    <v>       0.87539000       0.00017000       0.43687000 </v>
    <v>       0.37539000       0.00017000       0.93687000 </v>
    <v>       0.12461000       0.99984000       0.68687000 </v>
    <v>       0.62539000       0.99984000       0.93687000 </v>
    <v>       0.62461000       0.99984000       0.68687000 </v>
    <v>       0.62461000       0.99984000       0.18687000 </v>
    <v>       0.37461000       0.00017000       0.68687000 </v>
    <v>       0.87539000       0.00017000       0.93687000 </v>
    <v>       0.87461000       0.00017000       0.68687000 </v>
    <v>       0.00013000       0.29519000       0.06281000 </v>
    <v>       0.25013000       0.70481000       0.06281000 </v>
    <v>       0.24987000       0.29519000       0.31282000 </v>
    <v>       0.49987000       0.70481000       0.31282000 </v>
    <v>       0.50013000       0.29519000       0.06281000 </v>
    <v>       0.75013000       0.70481000       0.06281000 </v>
    <v>       0.74987000       0.29519000       0.31282000 </v>
    <v>       0.99987000       0.70481000       0.31282000 </v>
    <v>       0.00013000       0.29519000       0.56281000 </v>
    <v>       0.25013000       0.70481000       0.56281000 </v>
    <v>       0.24987000       0.29519000       0.81282000 </v>
    <v>       0.49987000       0.70481000       0.81282000 </v>
    <v>       0.50013000       0.29519000       0.56281000 </v>
    <v>       0.75013000       0.70481000       0.56281000 </v>
    <v>       0.74987000       0.29519000       0.81282000 </v>
    <v>       0.99987000       0.70481000       0.81282000 </v>
    <v>       0.25005000       0.32677000       0.06286000 </v>
    <v>       0.00005000       0.67323000       0.06286000 </v>
    <v>       0.49995000       0.32677000       0.31286000 </v>
    <v>       0.24995000       0.67323000       0.31286000 </v>
    <v>       0.75005000       0.32677000       0.06286000 </v>
    <v>       0.50005000       0.67323000       0.06286000 </v>
    <v>       0.99995000       0.32677000       0.31286000 </v>
    <v>       0.74995000       0.67323000       0.31286000 </v>
    <v>       0.25005000       0.32677000       0.56286000 </v>
    <v>       0.00005000       0.67323000       0.56286000 </v>
    <v>       0.49995000       0.32677000       0.81286000 </v>
    <v>       0.24995000       0.67323000       0.81286000 </v>
    <v>       0.75005000       0.32677000       0.56286000 </v>
    <v>       0.50005000       0.67323000       0.56286000 </v>
    <v>       0.99995000       0.32677000       0.81286000 </v>
    <v>       0.74995000       0.67323000       0.81286000 </v>
    <v>       0.49987000       0.07798000       0.06246000 </v>
    <v>       0.24987000       0.92202000       0.06246000 </v>
    <v>       0.25013000       0.07798000       0.31246000 </v>
    <v>       0.00013000       0.92202000       0.31246000 </v>
    <v>       0.99987000       0.07798000       0.06246000 </v>
    <v>       0.74987000       0.92202000       0.06246000 </v>
    <v>       0.75013000       0.07798000       0.31246000 </v>
    <v>       0.50013000       0.92202000       0.31246000 </v>
    <v>       0.49987000       0.07798000       0.56246000 </v>
    <v>       0.24987000       0.92202000       0.56246000 </v>
    <v>       0.25013000       0.07798000       0.81246000 </v>
    <v>       0.00013000       0.92202000       0.81246000 </v>
    <v>       0.99987000       0.07798000       0.56246000 </v>
    <v>       0.74987000       0.92202000       0.56246000 </v>
    <v>       0.75013000       0.07798000       0.81246000 </v>
    <v>       0.50013000       0.92202000       0.81246000 </v>
   </varray>
  </structure>
  <varray name="forces" >
   <v>      -0.14208011       0.06059370      -0.46459186 </v>
   <v>      -0.37332387      -0.05854596       0.13394402 </v>
   <v>      -0.69920620      -0.07094976       0.25054028 </v>
   <v>       0.11278342      -0.05631884      -0.94421149 </v>
   <v>      -0.66686157      -0.06496413       0.46762593 </v>
   <v>       0.11510211       0.06498149      -0.13521651 </v>
   <v>      -0.33978010      -0.06568361      -0.07170500 </v>
   <v>      -0.09661057      -0.06683669      -0.66274246 </v>
   <v>       0.80750168       0.11338260       1.35638844 </v>
   <v>      -0.33998205       0.11341017      -0.31309052 </v>
   <v>       1.29729268       0.10068796       1.96632878 </v>
   <v>       0.37755287      -0.12543096      -1.30926696 </v>
   <v>       0.28510530      -0.99941817       0.49875142 </v>
   <v>      -0.30944983       0.99581274       0.22668651 </v>
   <v>      -0.31994872      -1.02181355       0.03640119 </v>
   <v>      -0.12967495      -0.00909848       0.20355991 </v>
   <v>      -0.38200066       1.07981046       0.26539423 </v>
   <v>       0.38185386      -1.02962006       0.58416109 </v>
   <v>       0.30892956      -1.01871253       0.08942627 </v>
   <v>       0.15689152       1.94055461      -0.05598255 </v>
   <v>       0.32034593       0.08565661      -0.65329173 </v>
   <v>      -0.32438133      -0.03618400      -0.55351584 </v>
   <v>      -0.27433030       0.05868901       0.26290196 </v>
   <v>      -0.19425956      -1.09037270       0.03039032 </v>
   <v>       0.03153520       0.05354701      -0.51005393 </v>
   <v>      -0.04961242      -0.09838268      -0.61885050 </v>
   <v>      -0.03141824       2.09883619      -0.06512891 </v>
   <v>       0.52774577      -1.10685333       0.18046655 </v>
   <v>       0.28654457       0.20508712      -0.24110596 </v>
   <v>      -0.31586661      -0.12312446      -0.49781439 </v>
   <v>       0.08897426       0.17688390      -0.14853970 </v>
   <v>       0.30553292      -0.26707346       0.10079770 </v>
   <v>      -0.25452498       0.04308169      -0.42295187 </v>
   <v>       0.28210720      -0.11460524      -0.19957954 </v>
   <v>      -0.06536743       0.23776343       0.12606829 </v>
   <v>      -0.31509742      -0.14159428      -0.12138241 </v>
   <v>       0.13083650       0.16724133       0.29159864 </v>
   <v>      -0.14626519      -0.14735554       0.48661591 </v>
   <v>       0.17363400       0.05532934       0.03455300 </v>
   <v>       0.16102446      -0.10361824      -0.14821244 </v>
   <v>      -0.00844984       0.08361185       0.47010626 </v>
   <v>       0.01671889      -0.09617033       0.30434934 </v>
   <v>      -0.34577927       0.03923525      -0.11272586 </v>
   <v>       0.01017391       0.02055393       0.06624819 </v>
   <v>       0.70175594      -0.85841612       0.21277442 </v>
   <v>       0.84977940      -0.82604642       0.37098016 </v>
   <v>       0.78737666       0.91444519      -0.52831548 </v>
   <v>      -0.08661852      -1.74267929       0.07438119 </v>
   <v>      -0.75131455       0.90116350      -0.84353234 </v>
   <v>      -0.77475045       0.78459472      -1.02111792 </v>
   <v>      -0.67284999       0.93755536      -0.61024405 </v>
   <v>      -0.05217016      -0.05541796      -1.22047088 </v>
   <v>      -0.93939378      -0.12646794       1.30326126 </v>
   <v>       1.11571551       0.03681725       1.24431590 </v>
   <v>       1.16093968      -0.12871541      -1.08822883 </v>
   <v>      -1.80013345       0.94354668      -0.63275122 </v>
   <v>      -1.12174837      -0.09865083       1.39739777 </v>
   <v>       0.95258313       0.18429199       1.45859693 </v>
   <v>       0.80100690      -1.68886028       0.08395447 </v>
   <v>      -0.22409333       0.94081621      -0.38434516 </v>
  </varray>
  <varray name="stress" >
   <v>      -5.43973919      -0.52072355      -1.20224827 </v>
   <v>      -0.52072357     -13.11415129      -0.28727840 </v>
   <v>      -1.20224811      -0.28727843      -5.23786575 </v>
  </varray>
  <energy>
   <i name="e_fr_energy">   -305.59553945 </i>
   <i name="e_wo_entrp">   -305.59553945 </i>
   <i name="e_0_energy">      0.00000000 </i>
  </energy>
  <time name="totalsc"> 1561.51 1571.85</time>
 </calculation>
 <calculation>
  <scstep>
   <time name="dav">   60.68   61.07</time>
   <time name="total">   61.47   61.86</time>
   <energy>
    <i name="alphaZ">   1082.52205033 </i>
    <i name="ewald"> -30793.68929320 </i>
    <i name="hartreedc"> -12987.54434883 </i>
    <i name="XCdc">   1353.42841826 </i>
    <i name="pawpsdc">  43748.36286014 </i>
    <i name="pawaedc"> -43142.76592420 </i>
    <i name="eentropy">      0.00000000 </i>
    <i name="bandstr">  -3960.03768371 </i>
    <i name="atom">  44408.54722957 </i>
    <i name="e_fr_energy">   -291.17669164 </i>
    <i name="e_wo_entrp">   -291.17669164 </i>
    <i name="e_0_energy">   -291.17669164 </i>
   </energy>
  </scstep>
  <scstep>
   <time name="dav">   72.64   73.03</time>
   <time name="total">   73.43   73.83</time>
   <energy>
    <i name="e_fr_energy">   -293.84809132 </i>
    <i name="e_wo_entrp">   -293.84809132 </i>
    <i name="e_0_energy">   -293.84809132 </i>
   </energy>
  </scstep>
  <scstep>
   <time name="dav">   87.54   87.96</time>
   <time name="total">   88.33   88.76</time>
   <energy>
    <i name="e_fr_energy">   -293.59636387 </i>
    <i name="e_wo_entrp">   -293.59636387 </i>
    <i name="e_0_energy">   -293.59636387 </i>
   </energy>
  </scstep>
  <scstep>
   <time name="dav">   73.61   73.64</time>
   <time name="total">   74.40   74.43</time>
   <energy>
    <i name="e_fr_energy">   -293.45253939 </i>
    <i name="e_wo_entrp">   -293.45253939 </i>
    <i name="e_0_energy">   -293.45253939 </i>
   </energy>
  </scstep>
  <scstep>
   <time name="dav">   77.18   77.24</time>
   <time name="total">   77.96   78.03</time>
   <energy>
    <i name="e_fr_energy">   -293.45180004 </i>
    <i name="e_wo_entrp">   -293.45180004 </i>
    <i name="e_0_energy">   -293.45180004 </i>
   </energy>
  </scstep>
  <scstep>
   <time name="dav">   78.90   79.10</time>
   <time name="total">   79.67   79.91</time>
   <energy>
    <i name="e_fr_energy">   -293.45026535 </i>
    <i name="e_wo_entrp">   -293.45026535 </i>
    <i name="e_0_energy">   -293.45026535 </i>
   </energy>
  </scstep>
  <scstep>
   <time name="dav">   71.26   71.38</time>
   <time name="total">   72.05   72.17</time>
   <energy>
    <i name="e_fr_energy">   -293.44897048 </i>
    <i name="e_wo_entrp">   -293.44897048 </i>
    <i name="e_0_energy">   -293.44897048 </i>
   </energy>
  </scstep>
  <scstep>
   <time name="dav">   97.43   97.63</time>
   <time name="total">   98.22   98.42</time>
   <energy>
    <i name="e_fr_energy">   -293.44892603 </i>
    <i name="e_wo_entrp">   -293.44892603 </i>
    <i name="e_0_energy">   -293.44892603 </i>
   </energy>
  </scstep>
  <scstep>
   <time name="dav">   69.16   69.23</time>
   <time name="total">   69.95   70.02</time>
   <energy>
    <i name="e_fr_energy">   -293.44896895 </i>
    <i name="e_wo_entrp">   -293.44896895 </i>
    <i name="e_0_energy">   -293.44896895 </i>
   </energy>
  </scstep>
  <scstep>
   <time name="dav">   83.65   83.66</time>
   <time name="total">   84.44   84.45</time>
   <energy>
    <i name="e_fr_energy">   -293.44897359 </i>
    <i name="e_wo_entrp">   -293.44897359 </i>
    <i name="e_0_energy">   -293.44897359 </i>
   </energy>
  </scstep>
  <scstep>
   <time name="dav">   69.68   69.69</time>
   <time name="total">   70.47   70.49</time>
   <energy>
    <i name="e_fr_energy">   -293.44897451 </i>
    <i name="e_wo_entrp">   -293.44897451 </i>
    <i name="e_0_energy">   -293.44897451 </i>
   </energy>
  </scstep>
  <scstep>
   <time name="dav">   75.97   76.00</time>
   <time name="total">   76.04   76.07</time>
   <energy>
    <i name="alphaZ">   1082.52205033 </i>
    <i name="ewald"> -30793.68929320 </i>
    <i name="hartreedc"> -12861.62361746 </i>
    <i name="XCdc">   1347.87691875 </i>
    <i name="pawpsdc">  44093.89429182 </i>
    <i name="pawaedc"> -43491.08935260 </i>
    <i name="eentropy">      0.00000000 </i>
    <i name="bandstr">  -4079.88720122 </i>
    <i name="atom">  44408.54722957 </i>
    <i name="e_fr_energy">   -293.44897401 </i>
    <i name="e_wo_entrp">   -293.44897401 </i>
    <i name="e_0_energy">   -293.44897401 </i>
   </energy>
  </scstep>
  <structure>
   <crystal>
    <varray name="basis" >
     <v>      11.14197669      -0.00349622      -0.00807209 </v>
     <v>      -0.00299458       9.49918298      -0.00165208 </v>
     <v>      -0.00807491      -0.00192951      11.14721983 </v>
    </varray>
    <i name="volume">   1179.81735556 </i>
    <varray name="rec_basis" >
     <v>       0.08975074       0.00002830       0.00006502 </v>
     <v>       0.00003305       0.10527223       0.00001825 </v>
     <v>       0.00006500       0.00001562       0.08970852 </v>
    </varray>
   </crystal>
   <varray name="positions" >
    <v>       0.37477683       0.00047531       0.43486568 </v>
    <v>       0.12299886       0.99954501       0.18744786 </v>
    <v>       0.37159246      -0.00018749       0.18795087 </v>
    <v>       0.87587674      -0.00011377       0.43279652 </v>
    <v>       0.37251205      -0.00015733       0.93888741 </v>
    <v>       0.12510674       0.00016742       0.68628665 </v>
    <v>       0.62392362       0.99950905       0.93656065 </v>
    <v>       0.62419306       0.99950324       0.68401082 </v>
    <v>       0.62809491       0.00041129       0.19272168 </v>
    <v>       0.37314275       0.00074143       0.68551928 </v>
    <v>       0.88098868       0.00067733       0.94535306 </v>
    <v>       0.87623939      -0.00046200       0.68122161 </v>
    <v>       0.00136042       0.29015432       0.06496169 </v>
    <v>       0.24879452       0.70982751       0.06378796 </v>
    <v>       0.24848921       0.29004148       0.31297704 </v>
    <v>       0.49931037       0.70476416       0.31369819 </v>
    <v>       0.49848141       0.30063074       0.06395495 </v>
    <v>       0.75177795       0.69962215       0.06533016 </v>
    <v>       0.75120324       0.29005711       0.31320580 </v>
    <v>       0.00054709       0.71458769       0.31257848 </v>
    <v>       0.00151251       0.29562159       0.55999160 </v>
    <v>       0.24873008       0.70462768       0.56042204 </v>
    <v>       0.24868608       0.29548571       0.81395420 </v>
    <v>       0.49903164       0.69931604       0.81295111 </v>
    <v>       0.50026610       0.29545980       0.56060955 </v>
    <v>       0.74991589       0.70431429       0.56014018 </v>
    <v>       0.74973441       0.30576521       0.81253902 </v>
    <v>       0.00214757       0.69923300       0.81359856 </v>
    <v>       0.25128663       0.32780335       0.06181983 </v>
    <v>      -0.00131317       0.67260962       0.06071235 </v>
    <v>       0.50033398       0.32766125       0.31221918 </v>
    <v>       0.25126858       0.67188432       0.31329486 </v>
    <v>       0.74895156       0.32698707       0.06103532 </v>
    <v>       0.50126748       0.67265255       0.06199898 </v>
    <v>       0.99966790       0.32796800       0.31340388 </v>
    <v>       0.74859015       0.67251656       0.31233634 </v>
    <v>       0.25061465       0.32761266       0.56411800 </v>
    <v>      -0.00058123       0.67248753       0.56495934 </v>
    <v>       0.50069935       0.32704878       0.81300907 </v>
    <v>       0.25064493       0.67270791       0.81222059 </v>
    <v>       0.75001353       0.32719129       0.56488811 </v>
    <v>       0.50012215       0.67274544       0.56417301 </v>
    <v>       0.99845773       0.32696769       0.81237368 </v>
    <v>       0.74999391       0.67333356       0.81314581 </v>
    <v>       0.50289854       0.07365478       0.06337794 </v>
    <v>       0.25353736       0.91785788       0.06406047 </v>
    <v>       0.25352805       0.08258753       0.31018076 </v>
    <v>      -0.00024382       0.91323932       0.31278089 </v>
    <v>       0.99662758       0.08252061       0.05882087 </v>
    <v>       0.74652644       0.92597327       0.05805473 </v>
    <v>       0.74722621       0.08270397       0.30982731 </v>
    <v>       0.49990485       0.92174077       0.30719469 </v>
    <v>       0.49581589       0.07734278       0.56808248 </v>
    <v>       0.25468505       0.92220551       0.56782818 </v>
    <v>       0.25514023       0.07733145       0.80776521 </v>
    <v>      -0.00763877       0.92677416       0.80973021 </v>
    <v>       0.99502891       0.07748294       0.56848860 </v>
    <v>       0.75398103       0.92294858       0.56875262 </v>
    <v>       0.75358688       0.06947050       0.81282219 </v>
    <v>       0.49916289       0.92676040       0.81080187 </v>
   </varray>
  </structure>
  <varray name="forces" >
   <v>      -0.03829758       0.02554659      -0.28326488 </v>
   <v>      -0.29461072      -0.02932552       0.06153175 </v>
   <v>      -0.28687105      -0.03896021       0.08667920 </v>
   <v>       0.04042448      -0.02600204      -0.64094129 </v>
   <v>      -0.32877238      -0.03059547       0.26563814 </v>
   <v>       0.00145142       0.03245363      -0.00422959 </v>
   <v>      -0.15141039      -0.02561555      -0.15141853 </v>
   <v>       0.02748010      -0.03789225      -0.28910008 </v>
   <v>       0.35663687      -0.02905615       0.30924942 </v>
   <v>       0.14008942       0.02630211       0.15841376 </v>
   <v>       0.16699088      -0.15477059       0.40242518 </v>
   <v>      -0.12061245      -0.04232181       0.22895591 </v>
   <v>       0.10160831       1.21445804       0.17526776 </v>
   <v>      -0.07166733      -1.04349944       0.03070583 </v>
   <v>      -0.12398449       1.18786387       0.09353043 </v>
   <v>      -0.08304756      -0.32579420       0.05351402 </v>
   <v>      -0.09844484      -0.10890189       0.07188426 </v>
   <v>       0.06937334       0.02552250       0.10576099 </v>
   <v>       0.12741257       1.27277810       0.04251074 </v>
   <v>       0.10164852      -2.71569773       0.02051711 </v>
   <v>       0.17680519       0.18704922      -0.21591362 </v>
   <v>      -0.17032578      -0.22332159      -0.25176575 </v>
   <v>      -0.12368303       0.10365066       0.11197992 </v>
   <v>       0.00114626       0.14606978       0.04701393 </v>
   <v>       0.04541411       0.11088903      -0.18795635 </v>
   <v>      -0.06806285      -0.08190444      -0.14408059 </v>
   <v>       0.01988719      -0.19515325      -0.00025607 </v>
   <v>       0.11420972       0.18114899       0.02832642 </v>
   <v>       0.12197337       0.12651715      -0.09541007 </v>
   <v>      -0.16655908      -0.04320630      -0.24952658 </v>
   <v>       0.05013496       0.16880287      -0.07595525 </v>
   <v>       0.16802087      -0.17335719       0.05477101 </v>
   <v>      -0.07546756       0.16553346      -0.14756338 </v>
   <v>       0.12076883      -0.23724778      -0.06767734 </v>
   <v>      -0.03252704       0.08076773       0.07096006 </v>
   <v>      -0.16240786      -0.05606198      -0.06686955 </v>
   <v>       0.06960466       0.17161328       0.13858959 </v>
   <v>      -0.08975226      -0.16383753       0.23372720 </v>
   <v>       0.02704159       0.20447910      -0.01009663 </v>
   <v>       0.09360643      -0.14004084      -0.08342680 </v>
   <v>       0.02488532       0.12073869       0.18678649 </v>
   <v>      -0.01413678      -0.12745531       0.13838456 </v>
   <v>      -0.14040305       0.18829920      -0.03675662 </v>
   <v>       0.01592422      -0.27118503       0.01253931 </v>
   <v>       0.34970208       0.34784884       0.33772429 </v>
   <v>       0.49728610       1.15900316       0.45274507 </v>
   <v>       0.52085484      -1.28393438      -0.49271250 </v>
   <v>      -0.04514809       2.91494766      -0.00280396 </v>
   <v>      -0.05483353      -0.96073174      -0.06211010 </v>
   <v>      -0.44760552      -0.36645983      -0.33091608 </v>
   <v>      -0.23158188      -1.14819683      -0.22913302 </v>
   <v>      -0.17942553       0.17758458      -0.72193552 </v>
   <v>      -0.61793647       0.01079611       0.61235191 </v>
   <v>       0.56888362       0.03264903       0.56780357 </v>
   <v>       0.62137846       0.00912193      -0.62325102 </v>
   <v>      -0.83874310      -0.52796115      -0.32601589 </v>
   <v>      -0.44198360       0.08914405       0.43328699 </v>
   <v>       0.48783132      -0.12822563       0.46571036 </v>
   <v>       0.55866126       0.64222619       0.07059670 </v>
   <v>      -0.28883448      -0.38709189      -0.27879479 </v>
  </varray>
  <varray name="stress" >
   <v>       7.49824513       1.94379227       0.84647255 </v>
   <v>       1.94379259      10.58756590       1.02562383 </v>
   <v>       0.84647237       1.02562377       6.41869413 </v>
  </varray>
  <energy>
   <i name="e_fr_energy">   -307.34473484 </i>
   <i name="e_wo_entrp">   -307.34473484 </i>
   <i name="e_0_energy">      0.00000000 </i>
  </energy>
  <time name="totalsc"> 1032.48 1034.56</time>
 </calculation>
 <calculation>
  <scstep>
   <time name="dav">   66.16   66.45</time>
   <time name="total">   66.98   67.28</time>
   <energy>
    <i name="alphaZ">   1081.31632989 </i>
    <i name="ewald"> -30785.01907891 </i>
    <i name="hartreedc"> -12855.27894214 </i>
    <i name="XCdc">   1347.19919720 </i>
    <i name="pawpsdc">  44094.17805600 </i>
    <i name="pawaedc"> -43491.37630127 </i>
    <i name="eentropy">      0.00000000 </i>
    <i name="bandstr">  -4093.03088061 </i>
    <i name="atom">  44408.54722957 </i>
    <i name="e_fr_energy">   -293.46439028 </i>
    <i name="e_wo_entrp">   -293.46439028 </i>
    <i name="e_0_energy">   -293.46439028 </i>
   </energy>
  </scstep>
  <scstep>
   <time name="dav">   69.85   70.11</time>
   <time name="total">   70.63   70.89</time>
   <energy>
    <i name="e_fr_energy">   -293.47845904 </i>
    <i name="e_wo_entrp">   -293.47845904 </i>
    <i name="e_0_energy">   -293.47845904 </i>
   </energy>
  </scstep>
  <scstep>
   <time name="dav">   82.92   83.42</time>
   <time name="total">   83.71   84.21</time>
   <energy>
    <i name="e_fr_energy">   -293.47711980 </i>
    <i name="e_wo_entrp">   -293.47711980 </i>
    <i name="e_0_energy">   -293.47711980 </i>
   </energy>
  </scstep>
  <scstep>
   <time name="dav">   74.09   74.97</time>
   <time name="total">   74.87   75.76</time>
   <energy>
    <i name="e_fr_energy">   -293.47631493 </i>
    <i name="e_wo_entrp">   -293.47631493 </i>
    <i name="e_0_energy">   -293.47631493 </i>
   </energy>
  </scstep>
  <scstep>
   <time name="dav">   81.47   82.02</time>
   <time name="total">   82.26   82.81</time>
   <energy>
    <i name="e_fr_energy">   -293.47628059 </i>
    <i name="e_wo_entrp">   -293.47628059 </i>
    <i name="e_0_energy">   -293.47628059 </i>
   </energy>
  </scstep>
  <scstep>
   <time name="dav">   74.58   75.18</time>
   <time name="total">   75.34   75.98</time>
   <energy>
    <i name="e_fr_energy">   -293.47626807 </i>
    <i name="e_wo_entrp">   -293.47626807 </i>
    <i name="e_0_energy">   -293.47626807 </i>
   </energy>
  </scstep>
  <scstep>
   <time name="dav">   75.33   75.60</time>
   <time name="total">   76.12   76.39</time>
   <energy>
    <i name="e_fr_energy">   -293.47625421 </i>
    <i name="e_wo_entrp">   -293.47625421 </i>
    <i name="e_0_energy">   -293.47625421 </i>
   </energy>
  </scstep>
  <scstep>
   <time name="dav">   80.78   80.87</time>
   <time name="total">   81.58   81.66</time>
   <energy>
    <i name="e_fr_energy">   -293.47625108 </i>
    <i name="e_wo_entrp">   -293.47625108 </i>
    <i name="e_0_energy">   -293.47625108 </i>
   </energy>
  </scstep>
  <scstep>
   <time name="dav">   58.26   58.27</time>
   <time name="total">   58.32   58.34</time>
   <energy>
    <i name="alphaZ">   1081.31632989 </i>
    <i name="ewald"> -30785.01907891 </i>
    <i name="hartreedc"> -12865.19392198 </i>
    <i name="XCdc">   1347.63990492 </i>
    <i name="pawpsdc">  44061.45641899 </i>
    <i name="pawaedc"> -43458.33984108 </i>
    <i name="eentropy">      0.00000000 </i>
    <i name="bandstr">  -4083.88329281 </i>
    <i name="atom">  44408.54722957 </i>
    <i name="e_fr_energy">   -293.47625141 </i>
    <i name="e_wo_entrp">   -293.47625141 </i>
    <i name="e_0_energy">   -293.47625141 </i>
   </energy>
  </scstep>
  <structure>
   <crystal>
    <varray name="basis" >
     <v>      11.14480890      -0.00322511      -0.00744614 </v>
     <v>      -0.00276237       9.50503122      -0.00152397 </v>
     <v>      -0.00744874      -0.00177988      11.14994789 </v>
    </varray>
    <i name="volume">   1181.13290945 </i>
    <varray name="rec_basis" >
     <v>       0.08972792       0.00002609       0.00005995 </v>
     <v>       0.00003046       0.10520745       0.00001681 </v>
     <v>       0.00005993       0.00001440       0.08968656 </v>
    </varray>
   </crystal>
   <varray name="positions" >
    <v>       0.37482464       0.00045149       0.43502162 </v>
    <v>       0.12312418       0.99956810       0.18740300 </v>
    <v>       0.37182717      -0.00015948       0.18786696 </v>
    <v>       0.87583910      -0.00009154       0.43311337 </v>
    <v>       0.37273585      -0.00013169       0.93873064 </v>
    <v>       0.12506812       0.00014182       0.68633200 </v>
    <v>       0.62403773       0.99953496       0.93658480 </v>
    <v>       0.62422567       0.99952962       0.68423327 </v>
    <v>       0.62782344       0.00036645       0.19226627 </v>
    <v>       0.37325697       0.00069683       0.68562443 </v>
    <v>       0.88055262       0.00063738       0.94469284 </v>
    <v>       0.87611296      -0.00041256       0.68166092 </v>
    <v>       0.00126468       0.29054785       0.06479430 </v>
    <v>       0.24889826       0.70943536       0.06371190 </v>
    <v>       0.24859673       0.29044393       0.31296496 </v>
    <v>       0.49935386       0.70476774       0.31362991 </v>
    <v>       0.49860949       0.30020552       0.06386592 </v>
    <v>       0.75164971       0.70002755       0.06513409 </v>
    <v>       0.75109960       0.29045826       0.31317577 </v>
    <v>       0.00049422       0.71382344       0.31259712 </v>
    <v>       0.00140510       0.29558786       0.56021076 </v>
    <v>       0.24883913       0.70464201       0.56060789 </v>
    <v>       0.24877812       0.29546261       0.81386603 </v>
    <v>       0.49909697       0.69974548       0.81294102 </v>
    <v>       0.50025563       0.29543875       0.56078071 </v>
    <v>       0.74993271       0.70435308       0.56034788 </v>
    <v>       0.74974475       0.30493865       0.81256077 </v>
    <v>       0.00197045       0.69966883       0.81353793 </v>
    <v>       0.25119046       0.32772257       0.06190066 </v>
    <v>      -0.00120699       0.67265819       0.06087950 </v>
    <v>       0.50030413       0.32759159       0.31226899 </v>
    <v>       0.25116600       0.67198946       0.31326097 </v>
    <v>       0.74903711       0.32697017       0.06117732 </v>
    <v>       0.50117282       0.67269766       0.06206590 </v>
    <v>       0.99968979       0.32787436       0.31336157 </v>
    <v>       0.74869599       0.67257237       0.31237716 </v>
    <v>       0.25057063       0.32754676       0.56402010 </v>
    <v>      -0.00053222       0.67254555       0.56479607 </v>
    <v>       0.50064103       0.32702697       0.81299743 </v>
    <v>       0.25059091       0.67274871       0.81227029 </v>
    <v>       0.75001625       0.32715833       0.56473034 </v>
    <v>       0.50011648       0.67278329       0.56407087 </v>
    <v>       0.99857385       0.32695229       0.81241160 </v>
    <v>       0.74999047       0.67332546       0.81312357 </v>
    <v>       0.50266296       0.07399274       0.06330642 </v>
    <v>       0.25325204       0.91818306       0.06393581 </v>
    <v>       0.25326372       0.08222734       0.31035782 </v>
    <v>      -0.00021457       0.91392564       0.31275605 </v>
    <v>       0.99687995       0.08216586       0.05910409 </v>
    <v>       0.74678673       0.92566444       0.05839756 </v>
    <v>       0.74745217       0.08233487       0.31003222 </v>
    <v>       0.49992267       0.92176269       0.30760430 </v>
    <v>       0.49613100       0.07739261       0.56764534 </v>
    <v>       0.25431014       0.92219079       0.56741031 </v>
    <v>       0.25475071       0.07738208       0.80813014 </v>
    <v>      -0.00703431       0.92640284       0.80994294 </v>
    <v>       0.99540522       0.07752183       0.56801991 </v>
    <v>       0.75366082       0.92287578       0.56826287 </v>
    <v>       0.75331809       0.07013550       0.81279392 </v>
    <v>       0.49923812       0.92638994       0.81093086 </v>
   </varray>
  </structure>
  <varray name="forces" >
   <v>      -0.04703215       0.02873158      -0.29788074 </v>
   <v>      -0.30184567      -0.03225727       0.06730016 </v>
   <v>      -0.31993559      -0.04121541       0.09955155 </v>
   <v>       0.04679078      -0.02937793      -0.66552256 </v>
   <v>      -0.35574494      -0.03410486       0.28212186 </v>
   <v>       0.01007728       0.03485641      -0.01474473 </v>
   <v>      -0.16487753      -0.02888355      -0.14384525 </v>
   <v>       0.01828989      -0.03991519      -0.31842655 </v>
   <v>       0.39738495      -0.01197150       0.39762432 </v>
   <v>       0.09634556       0.03293268       0.11579668 </v>
   <v>       0.26958795      -0.11855316       0.53524854 </v>
   <v>      -0.07680793      -0.04625772       0.09531493 </v>
   <v>       0.11159703       1.00099215       0.19590049 </v>
   <v>      -0.08600473      -0.84551147       0.04703788 </v>
   <v>      -0.13548329       0.97217672       0.08679619 </v>
   <v>      -0.08691334      -0.30075600       0.06445700 </v>
   <v>      -0.12227432      -0.03149639       0.08750346 </v>
   <v>       0.09540779      -0.04331621       0.14470762 </v>
   <v>       0.13839649       1.04901570       0.04282361 </v>
   <v>       0.10374149      -2.17500703       0.01539587 </v>
   <v>       0.18846349       0.18092396      -0.25165539 </v>
   <v>      -0.18241226      -0.21039061      -0.27652795 </v>
   <v>      -0.13524560       0.10145638       0.12462219 </v>
   <v>      -0.01384374       0.06629748       0.04602671 </v>
   <v>       0.04412928       0.10769041      -0.21336821 </v>
   <v>      -0.06684610      -0.08424419      -0.18136859 </v>
   <v>       0.01610048      -0.07025479      -0.00587238 </v>
   <v>       0.14764073       0.09750453       0.04193223 </v>
   <v>       0.13598426       0.13322593      -0.10749814 </v>
   <v>      -0.17935192      -0.05086709      -0.27074194 </v>
   <v>       0.05316849       0.16975774      -0.08189950 </v>
   <v>       0.17959173      -0.18202726       0.05962643 </v>
   <v>      -0.08959027       0.15703985      -0.16999855 </v>
   <v>       0.13322141      -0.22843763      -0.07800993 </v>
   <v>      -0.03501104       0.09438153       0.07631759 </v>
   <v>      -0.17502878      -0.06376832      -0.07183176 </v>
   <v>       0.07435061       0.17141536       0.15062444 </v>
   <v>      -0.09385132      -0.16346304       0.25460855 </v>
   <v>       0.03864000       0.19372289      -0.00694775 </v>
   <v>       0.09893853      -0.13743940      -0.08852971 </v>
   <v>       0.02235915       0.11842147       0.21011746 </v>
   <v>      -0.01185418      -0.12522945       0.15169944 </v>
   <v>      -0.15740283       0.17751790      -0.04272840 </v>
   <v>       0.01599698      -0.25071972       0.01644965 </v>
   <v>       0.37896440       0.26735207       0.32798811 </v>
   <v>       0.52139870       0.96689085       0.44633623 </v>
   <v>       0.53826552      -1.07059260      -0.49368638 </v>
   <v>      -0.04554378       2.37815978       0.00220716 </v>
   <v>      -0.12028003      -0.78882289      -0.13283647 </v>
   <v>      -0.47562814      -0.28902912      -0.38850321 </v>
   <v>      -0.26879398      -0.94666326      -0.26148836 </v>
   <v>      -0.16792691       0.15957091      -0.76193800 </v>
   <v>      -0.64805250      -0.00425799       0.67097388 </v>
   <v>       0.61965363       0.04031067       0.62858434 </v>
   <v>       0.66843011      -0.00595859      -0.66505344 </v>
   <v>      -0.92012643      -0.42729402      -0.35568428 </v>
   <v>      -0.51142243       0.06224665       0.52378239 </v>
   <v>       0.53630066      -0.09550229       0.55348555 </v>
   <v>       0.58098290       0.51002931       0.07206105 </v>
   <v>      -0.28506856      -0.29903497      -0.28843538 </v>
  </varray>
  <varray name="stress" >
   <v>       6.31348629       1.65724639       0.67294526 </v>
   <v>       1.65724653       7.66584538       0.85549376 </v>
   <v>       0.67294521       0.85549393       5.34102426 </v>
  </varray>
  <energy>
   <i name="e_fr_energy">   -307.35939566 </i>
   <i name="e_wo_entrp">   -307.35939566 </i>
   <i name="e_0_energy">      0.00000000 </i>
  </energy>
  <time name="totalsc">  774.54  779.48</time>
 </calculation>
 <calculation>
  <scstep>
   <time name="dav">   69.08   69.80</time>
   <time name="total">   69.86   70.58</time>
   <energy>
    <i name="alphaZ">   1075.15879844 </i>
    <i name="ewald"> -30832.38283900 </i>
    <i name="hartreedc"> -12740.14808174 </i>
    <i name="XCdc">   1343.76091084 </i>
    <i name="pawpsdc">  44061.53888446 </i>
    <i name="pawaedc"> -43458.42232368 </i>
    <i name="eentropy">      0.00000000 </i>
    <i name="bandstr">  -4150.98403397 </i>
    <i name="atom">  44408.54722957 </i>
    <i name="e_fr_energy">   -292.93145509 </i>
    <i name="e_wo_entrp">   -292.93145509 </i>
    <i name="e_0_energy">   -292.93145509 </i>
   </energy>
  </scstep>
  <scstep>
   <time name="dav">   68.56   69.47</time>
   <time name="total">   69.34   70.26</time>
   <energy>
    <i name="e_fr_energy">   -294.16317317 </i>
    <i name="e_wo_entrp">   -294.16317317 </i>
    <i name="e_0_energy">   -294.16317317 </i>
   </energy>
  </scstep>
  <scstep>
   <time name="dav">   87.77   88.33</time>
   <time name="total">   88.56   89.13</time>
   <energy>
    <i name="e_fr_energy">   -294.12724185 </i>
    <i name="e_wo_entrp">   -294.12724185 </i>
    <i name="e_0_energy">   -294.12724185 </i>
   </energy>
  </scstep>
  <scstep>
   <time name="dav">   73.09   73.54</time>
   <time name="total">   73.88   74.33</time>
   <energy>
    <i name="e_fr_energy">   -294.09996352 </i>
    <i name="e_wo_entrp">   -294.09996352 </i>
    <i name="e_0_energy">   -294.09996352 </i>
   </energy>
  </scstep>
  <scstep>
   <time name="dav">   75.71   76.18</time>
   <time name="total">   76.50   76.97</time>
   <energy>
    <i name="e_fr_energy">   -294.08457328 </i>
    <i name="e_wo_entrp">   -294.08457328 </i>
    <i name="e_0_energy">   -294.08457328 </i>
   </energy>
  </scstep>
  <scstep>
   <time name="dav">   73.90   74.34</time>
   <time name="total">   74.69   75.14</time>
   <energy>
    <i name="e_fr_energy">   -294.08435192 </i>
    <i name="e_wo_entrp">   -294.08435192 </i>
    <i name="e_0_energy">   -294.08435192 </i>
   </energy>
  </scstep>
  <scstep>
   <time name="dav">   77.19   77.83</time>
   <time name="total">   77.98   78.62</time>
   <energy>
    <i name="e_fr_energy">   -294.08438621 </i>
    <i name="e_wo_entrp">   -294.08438621 </i>
    <i name="e_0_energy">   -294.08438621 </i>
   </energy>
  </scstep>
  <scstep>
   <time name="dav">   72.29   72.90</time>
   <time name="total">   73.08   73.69</time>
   <energy>
    <i name="e_fr_energy">   -294.08430224 </i>
    <i name="e_wo_entrp">   -294.08430224 </i>
    <i name="e_0_energy">   -294.08430224 </i>
   </energy>
  </scstep>
  <scstep>
   <time name="dav">   79.00   79.62</time>
   <time name="total">   79.87   80.50</time>
   <energy>
    <i name="e_fr_energy">   -294.08429714 </i>
    <i name="e_wo_entrp">   -294.08429714 </i>
    <i name="e_0_energy">   -294.08429714 </i>
   </energy>
  </scstep>
  <scstep>
   <time name="dav">   78.41   78.86</time>
   <time name="total">   79.22   79.68</time>
   <energy>
    <i name="e_fr_energy">   -294.08429832 </i>
    <i name="e_wo_entrp">   -294.08429832 </i>
    <i name="e_0_energy">   -294.08429832 </i>
   </energy>
  </scstep>
  <scstep>
   <time name="dav">   70.07   70.94</time>
   <time name="total">   70.86   71.74</time>
   <energy>
    <i name="e_fr_energy">   -294.08429958 </i>
    <i name="e_wo_entrp">   -294.08429958 </i>
    <i name="e_0_energy">   -294.08429958 </i>
   </energy>
  </scstep>
  <scstep>
   <time name="dav">   60.88   61.73</time>
   <time name="total">   61.66   62.52</time>
   <energy>
    <i name="e_fr_energy">   -294.08430082 </i>
    <i name="e_wo_entrp">   -294.08430082 </i>
    <i name="e_0_energy">   -294.08430082 </i>
   </energy>
  </scstep>
  <scstep>
   <time name="dav">   53.79   55.02</time>
   <time name="total">   54.58   55.90</time>
   <energy>
    <i name="e_fr_energy">   -294.08430194 </i>
    <i name="e_wo_entrp">   -294.08430194 </i>
    <i name="e_0_energy">   -294.08430194 </i>
   </energy>
  </scstep>
  <scstep>
   <time name="dav">   43.06   43.81</time>
   <time name="total">   43.13   43.88</time>
   <energy>
    <i name="alphaZ">   1075.15879844 </i>
    <i name="ewald"> -30832.38283900 </i>
    <i name="hartreedc"> -12789.82603109 </i>
    <i name="XCdc">   1346.09620594 </i>
    <i name="pawpsdc">  43778.64322773 </i>
    <i name="pawaedc"> -43171.68073701 </i>
    <i name="eentropy">      0.00000000 </i>
    <i name="bandstr">  -4108.64015662 </i>
    <i name="atom">  44408.54722957 </i>
    <i name="e_fr_energy">   -294.08430203 </i>
    <i name="e_wo_entrp">   -294.08430203 </i>
    <i name="e_0_energy">   -294.08430203 </i>
   </energy>
  </scstep>
  <structure>
   <crystal>
    <varray name="basis" >
     <v>      11.17170535       0.00618966      -0.00621467 </v>
     <v>       0.00526695       9.51843342       0.00258020 </v>
     <v>      -0.00622068       0.00302948      11.17105704 </v>
    </varray>
    <i name="volume">   1187.89736420 </i>
    <varray name="rec_basis" >
     <v>       0.08951190      -0.00004954       0.00004986 </v>
     <v>      -0.00005822       0.10505934      -0.00002852 </v>
     <v>       0.00004981      -0.00002429       0.08951708 </v>
    </varray>
   </crystal>
   <varray name="positions" >
    <v>       0.37438374       0.00071412       0.43297081 </v>
    <v>       0.12120968       0.99929081       0.18791372 </v>
    <v>       0.36928722      -0.00050616       0.18871082 </v>
    <v>       0.87622534      -0.00035019       0.42869004 </v>
    <v>       0.37009851      -0.00043085       0.94071738 </v>
    <v>       0.12530470       0.00044427       0.68604188 </v>
    <v>       0.62276257       0.99926042       0.93585054 </v>
    <v>       0.62413925       0.99919776       0.68176169 </v>
    <v>       0.63087892       0.00053220       0.19624426 </v>
    <v>       0.37309532       0.00108517       0.68559083 </v>
    <v>       0.88388890       0.00024591       0.95028343 </v>
    <v>       0.87641986      -0.00089150       0.67986414 </v>
    <v>       0.00222205       0.29357762       0.06646899 </v>
    <v>       0.24801066       0.70717581       0.06429278 </v>
    <v>       0.24748177       0.29328459       0.31339557 </v>
    <v>       0.49876522       0.70324689       0.31424637 </v>
    <v>       0.49744641       0.30217916       0.06468468 </v>
    <v>       0.75269960       0.69777956       0.06673376 </v>
    <v>       0.75221044       0.29368971       0.31350983 </v>
    <v>       0.00119866       0.70678581       0.31256801 </v>
    <v>       0.00274631       0.29666101       0.55804064 </v>
    <v>       0.24751404       0.70351847       0.55849762 </v>
    <v>       0.24774078       0.29608523       0.81483862 </v>
    <v>       0.49871069       0.69792455       0.81318770 </v>
    <v>       0.50049575       0.29608229       0.55901390 </v>
    <v>       0.74956296       0.70373749       0.55853374 </v>
    <v>       0.74976133       0.30873014       0.81242670 </v>
    <v>       0.00348791       0.69797200       0.81402098 </v>
    <v>       0.25225200       0.32879325       0.06103794 </v>
    <v>      -0.00250447       0.67216019       0.05888771 </v>
    <v>       0.50068038       0.32878897       0.31167062 </v>
    <v>       0.25244558       0.67055329       0.31368521 </v>
    <v>       0.74822612       0.32783935       0.05974113 </v>
    <v>       0.50221465       0.67133024       0.06139831 </v>
    <v>       0.99943114       0.32881526       0.31389873 </v>
    <v>       0.74741918       0.67197374       0.31186601 </v>
    <v>       0.25110877       0.32873377       0.56515286 </v>
    <v>      -0.00117740       0.67143806       0.56669879 </v>
    <v>       0.50109827       0.32810432       0.81302642 </v>
    <v>       0.25128296       0.67185756       0.81164416 </v>
    <v>       0.75009862       0.32791542       0.56641650 </v>
    <v>       0.50009467       0.67196794       0.56522901 </v>
[...]
       <r>    8.6459    0.0000 </r>
       <r>    8.6729    0.0000 </r>
       <r>    8.7060    0.0000 </r>
       <r>    8.7266    0.0000 </r>
       <r>    8.8469    0.0000 </r>
       <r>    8.8702    0.0000 </r>
       <r>    8.9390    0.0000 </r>
      </set>
     </set>
    </set>
   </array>
  </eigenvalues>
  <separator name="orbital magnetization" >
   <v name="MAGDIPOLOUT">      0.00000000      0.00000000      0.00000000</v>
  </separator>
  <dos>
   <i name="efermi">      4.19649949 </i>
   <total>
    <array>
     <dimension dim="1">gridpoints</dimension>
     <dimension dim="2">spin</dimension>
     <field>energy</field>
     <field>total</field>
     <field>integrated</field>
     <set>
      <set comment="spin 1">
       <r>   -42.6642     0.0000     0.0000 </r>
       <r>   -42.4821     0.0000     0.0000 </r>
       <r>   -42.2999     0.0000     0.0000 </r>
       <r>   -42.1178     0.0000     0.0000 </r>
       <r>   -41.9356     0.0000     0.0000 </r>
       <r>   -41.7534     0.0000     0.0000 </r>
       <r>   -41.5713     0.0000     0.0000 </r>
       <r>   -41.3891     0.0000     0.0000 </r>
       <r>   -41.2070     0.0000     0.0000 </r>
       <r>   -41.0248     0.0000     0.0000 </r>
       <r>   -40.8426     0.0000     0.0000 </r>
       <r>   -40.6605     0.0000     0.0000 </r>
       <r>   -40.4783     0.0000     0.0000 </r>
       <r>   -40.2961     0.0000     0.0000 </r>
       <r>   -40.1140     0.0000     2.0000 </r>
       <r>   -39.9318     0.0000     4.0000 </r>
       <r>   -39.7497     0.0000     8.0000 </r>
       <r>   -39.5675     0.0000    12.0000 </r>
       <r>   -39.3853     0.0000    12.0000 </r>
       <r>   -39.2032     0.0000    16.0000 </r>
       <r>   -39.0210     0.0000    16.0000 </r>
       <r>   -38.8389     0.0000    16.0000 </r>
       <r>   -38.6567     0.0000    16.0000 </r>
       <r>   -38.4745     0.0000    16.0000 </r>
       <r>   -38.2924     0.0000    16.0000 </r>
       <r>   -38.1102     0.0000    16.0000 </r>
       <r>   -37.9281     0.0000    16.0000 </r>
       <r>   -37.7459     0.0000    16.0000 </r>
       <r>   -37.5637     0.0000    16.0000 </r>
       <r>   -37.3816     0.0000    16.0000 </r>
       <r>   -37.1994     0.0000    16.0000 </r>
       <r>   -37.0173     0.0000    16.0000 </r>
       <r>   -36.8351     0.0000    16.0000 </r>
       <r>   -36.6529     0.0000    16.0000 </r>
       <r>   -36.4708     0.0000    16.0000 </r>
       <r>   -36.2886     0.0000    16.0000 </r>
       <r>   -36.1065     0.0000    16.0000 </r>
       <r>   -35.9243     0.0000    16.0000 </r>
       <r>   -35.7421     0.0000    16.0000 </r>
       <r>   -35.5600     0.0000    16.0000 </r>
       <r>   -35.3778     0.0000    16.0000 </r>
       <r>   -35.1957     0.0000    16.0000 </r>
       <r>   -35.0135     0.0000    16.0000 </r>
       <r>   -34.8313     0.0000    16.0000 </r>
       <r>   -34.6492     0.0000    16.0000 </r>
       <r>   -34.4670     0.0000    16.0000 </r>
       <r>   -34.2849     0.0000    16.0000 </r>
       <r>   -34.1027     0.0000    16.0000 </r>
       <r>   -33.9205     0.0000    16.0000 </r>
       <r>   -33.7384     0.0000    16.0000 </r>
       <r>   -33.5562     0.0000    16.0000 </r>
       <r>   -33.3741     0.0000    16.0000 </r>
       <r>   -33.1919     0.0000    16.0000 </r>
       <r>   -33.0097     0.0000    16.0000 </r>
       <r>   -32.8276     0.0000    16.0000 </r>
       <r>   -32.6454     0.0000    16.0000 </r>
       <r>   -32.4633     0.0000    16.0000 </r>
       <r>   -32.2811     0.0000    16.0000 </r>
       <r>   -32.0989     0.0000    16.0000 </r>
       <r>   -31.9168     0.0000    16.0000 </r>
       <r>   -31.7346     0.0000    16.0000 </r>
       <r>   -31.5525     0.0000    16.0000 </r>
       <r>   -31.3703     0.0000    16.0000 </r>
       <r>   -31.1881     0.0000    16.0000 </r>
       <r>   -31.0060     0.0000    16.0000 </r>
       <r>   -30.8238     0.0000    16.0000 </r>
       <r>   -30.6417     0.0000    16.0000 </r>
       <r>   -30.4595     0.0000    16.0000 </r>
       <r>   -30.2773     0.0000    16.0000 </r>
       <r>   -30.0952     0.0000    16.0000 </r>
       <r>   -29.9130     0.0000    16.0000 </r>
       <r>   -29.7309     0.0000    16.0000 </r>
       <r>   -29.5487     0.0000    16.0000 </r>
       <r>   -29.3665     0.0000    16.0000 </r>
       <r>   -29.1844     0.0000    16.0000 </r>
       <r>   -29.0022     0.0000    16.0000 </r>
       <r>   -28.8201     0.0000    16.0000 </r>
       <r>   -28.6379     0.0000    16.0000 </r>
       <r>   -28.4557     0.0000    16.0000 </r>
       <r>   -28.2736     0.0000    16.0000 </r>
       <r>   -28.0914     0.0000    16.0000 </r>
       <r>   -27.9092     0.0000    16.0000 </r>
       <r>   -27.7271     0.0000    16.0000 </r>
       <r>   -27.5449     0.0000    16.0000 </r>
       <r>   -27.3628     0.0000    16.0000 </r>
       <r>   -27.1806     0.0000    16.0000 </r>
       <r>   -26.9984     0.0000    16.0000 </r>
       <r>   -26.8163     0.0000    16.0000 </r>
       <r>   -26.6341     0.0000    16.0000 </r>
       <r>   -26.4520     0.0000    16.0000 </r>
       <r>   -26.2698     0.0000    16.0000 </r>
       <r>   -26.0876     0.0000    16.0000 </r>
       <r>   -25.9055     0.0000    16.0000 </r>
       <r>   -25.7233     0.0000    16.0000 </r>
       <r>   -25.5412     0.0000    16.0000 </r>
       <r>   -25.3590     0.0000    16.0000 </r>
       <r>   -25.1768     0.0000    16.0000 </r>
       <r>   -24.9947     0.0000    16.0000 </r>
       <r>   -24.8125     0.0000    16.0000 </r>
       <r>   -24.6304     0.0000    16.0000 </r>
       <r>   -24.4482     0.0000    16.0000 </r>
       <r>   -24.2660     0.0000    16.0000 </r>
       <r>   -24.0839     0.0000    16.0000 </r>
       <r>   -23.9017     0.0000    16.0000 </r>
       <r>   -23.7196     0.0000    16.0000 </r>
       <r>   -23.5374     0.0000    16.0000 </r>
       <r>   -23.3552     0.0000    16.0000 </r>
       <r>   -23.1731     0.0000    16.0000 </r>
       <r>   -22.9909     0.0000    16.0000 </r>
       <r>   -22.8088     0.0000    16.0000 </r>
       <r>   -22.6266     0.0000    16.0000 </r>
       <r>   -22.4444     0.0000    16.0000 </r>
       <r>   -22.2623     0.0000    16.0000 </r>
       <r>   -22.0801     0.0000    16.0000 </r>
       <r>   -21.8980     0.0000    16.0000 </r>
       <r>   -21.7158     0.0000    16.0000 </r>
       <r>   -21.5336     0.0000    16.0000 </r>
       <r>   -21.3515     0.0000    16.0000 </r>
       <r>   -21.1693     0.0000    16.0000 </r>
       <r>   -20.9872     0.0000    16.0000 </r>
       <r>   -20.8050     0.0000    16.0000 </r>
       <r>   -20.6228     0.0000    16.0000 </r>
       <r>   -20.4407     0.0000    16.0000 </r>
       <r>   -20.2585     0.0000    16.0000 </r>
       <r>   -20.0764     0.0000    16.0000 </r>
       <r>   -19.8942     0.0000    16.0000 </r>
       <r>   -19.7120     0.0000    16.0000 </r>
       <r>   -19.5299     0.0000    16.0000 </r>
       <r>   -19.3477     0.0000    16.0000 </r>
       <r>   -19.1656     0.0000    16.0000 </r>
       <r>   -18.9834     0.0000    16.0000 </r>
       <r>   -18.8012     0.0000    24.0000 </r>
       <r>   -18.6191     0.0000   128.0000 </r>
       <r>   -18.4369     0.0000   172.0000 </r>
       <r>   -18.2548     0.0000   176.0000 </r>
       <r>   -18.0726     0.0000   176.0000 </r>
       <r>   -17.8904     0.0000   176.0000 </r>
       <r>   -17.7083     0.0000   176.0000 </r>
       <r>   -17.5261     0.0000   176.0000 </r>
       <r>   -17.3440     0.0000   176.0000 </r>
       <r>   -17.1618     0.0000   176.0000 </r>
       <r>   -16.9796     0.0000   176.0000 </r>
       <r>   -16.7975     0.0000   176.0000 </r>
       <r>   -16.6153     0.0000   176.0000 </r>
       <r>   -16.4332     0.0000   176.0000 </r>
       <r>   -16.2510     0.0000   176.0000 </r>
       <r>   -16.0688     0.0000   176.0000 </r>
       <r>   -15.8867     0.0000   176.0000 </r>
       <r>   -15.7045     0.0000   176.0000 </r>
       <r>   -15.5224     0.0000   176.0000 </r>
       <r>   -15.3402     0.0000   176.0000 </r>
       <r>   -15.1580     0.0000   176.0000 </r>
       <r>   -14.9759     0.0000   176.0000 </r>
       <r>   -14.7937     0.0000   176.0000 </r>
       <r>   -14.6115     0.0000   176.0000 </r>
       <r>   -14.4294     0.0000   176.0000 </r>
       <r>   -14.2472     0.0000   176.0000 </r>
       <r>   -14.0651     0.0000   176.0000 </r>
       <r>   -13.8829     0.0000   176.0000 </r>
       <r>   -13.7007     0.0000   176.0000 </r>
       <r>   -13.5186     0.0000   176.0000 </r>
       <r>   -13.3364     0.0000   176.0000 </r>
       <r>   -13.1543     0.0000   178.0000 </r>
       <r>   -12.9721     0.0000   182.0000 </r>
       <r>   -12.7899     0.0000   196.0000 </r>
       <r>   -12.6078     0.0000   204.0000 </r>
       <r>   -12.4256     0.0000   208.0000 </r>
       <r>   -12.2435     0.0000   208.0000 </r>
       <r>   -12.0613     0.0000   208.0000 </r>
       <r>   -11.8791     0.0000   208.0000 </r>
       <r>   -11.6970     0.0000   208.0000 </r>
       <r>   -11.5148     0.0000   208.0000 </r>
       <r>   -11.3327     0.0000   208.0000 </r>
       <r>   -11.1505     0.0000   208.0000 </r>
       <r>   -10.9683     0.0000   208.0000 </r>
       <r>   -10.7862     0.0000   208.0000 </r>
       <r>   -10.6040     0.0000   208.0000 </r>
       <r>   -10.4219     0.0000   208.0000 </r>
       <r>   -10.2397     0.0000   208.0000 </r>
       <r>   -10.0575     0.0000   208.0000 </r>
       <r>    -9.8754     0.0000   208.0000 </r>
       <r>    -9.6932     0.0000   208.0000 </r>
       <r>    -9.5111     0.0000   208.0000 </r>
       <r>    -9.3289    13.2983   208.8964 </r>
       <r>    -9.1467    11.6996   210.3997 </r>
       <r>    -8.9646     3.4388   212.0747 </r>
       <r>    -8.7824    29.5841   214.0266 </r>
       <r>    -8.6003    36.5338   216.6124 </r>
       <r>    -8.4181    21.6754   221.6358 </r>
       <r>    -8.2359     0.0000   224.0000 </r>
       <r>    -8.0538    36.1149   228.6775 </r>
       <r>    -7.8716    26.0753   234.0207 </r>
       <r>    -7.6895    17.4502   236.7667 </r>
       <r>    -7.5073     3.0801   239.9735 </r>
       <r>    -7.3251     0.0000   240.0000 </r>
       <r>    -7.1430     0.0000   240.0000 </r>
       <r>    -6.9608     0.0000   240.0000 </r>
       <r>    -6.7787     0.0000   240.0000 </r>
       <r>    -6.5965     0.0000   240.0000 </r>
       <r>    -6.4143     0.3565   240.0016 </r>
       <r>    -6.2322    21.0836   241.6451 </r>
       <r>    -6.0500    39.2336   246.8825 </r>
       <r>    -5.8679    26.4952   249.6146 </r>
       <r>    -5.6857    20.2587   254.8947 </r>
       <r>    -5.5035    26.4711   259.4368 </r>
       <r>    -5.3214    11.6914   262.7817 </r>
       <r>    -5.1392     0.7112   264.0112 </r>
       <r>    -4.9571    10.2226   264.9643 </r>
       <r>    -4.7749    10.5541   267.3479 </r>
       <r>    -4.5927     4.1957   268.5498 </r>
       <r>    -4.4106     7.1463   269.5830 </r>
       <r>    -4.2284     6.2017   271.1529 </r>
       <r>    -4.0463     1.9469   271.7305 </r>
       <r>    -3.8641     0.6491   271.9668 </r>
       <r>    -3.6819     0.0000   272.0000 </r>
       <r>    -3.4998     0.0000   272.0000 </r>
       <r>    -3.3176     0.0000   272.0000 </r>
       <r>    -3.1355     0.0000   272.0000 </r>
       <r>    -2.9533     0.0000   272.0000 </r>
       <r>    -2.7711     0.0000   272.0000 </r>
       <r>    -2.5890     0.0000   272.0000 </r>
       <r>    -2.4068     0.0000   272.0000 </r>
       <r>    -2.2247     0.0000   272.0000 </r>
       <r>    -2.0425     0.0000   272.0000 </r>
       <r>    -1.8603     0.0000   272.0000 </r>
       <r>    -1.6782     0.0000   272.0000 </r>
       <r>    -1.4960     0.0000   272.0000 </r>
       <r>    -1.3138     4.4275   272.1742 </r>
       <r>    -1.1317     8.2419   273.5983 </r>
       <r>    -0.9495     7.4289   274.7409 </r>
       <r>    -0.7674    14.2125   276.9736 </r>
       <r>    -0.5852     8.7574   278.9890 </r>
       <r>    -0.4030    23.3205   281.5911 </r>
       <r>    -0.2209    25.3642   286.6977 </r>
       <r>    -0.0387    39.6676   293.6520 </r>
       <r>     0.1434    33.5722   300.6045 </r>
       <r>     0.3256    48.9534   308.4029 </r>
       <r>     0.5078    29.4187   314.1522 </r>
       <r>     0.6899    36.5740   320.7359 </r>
       <r>     0.8721    37.2967   327.9473 </r>
       <r>     1.0542    36.6539   336.0535 </r>
       <r>     1.2364    43.2940   344.7718 </r>
       <r>     1.4186    38.5296   352.1750 </r>
       <r>     1.6007    48.2108   360.7773 </r>
       <r>     1.7829    47.6370   368.6543 </r>
       <r>     1.9650    53.2257   377.4777 </r>
       <r>     2.1472    50.8628   387.1816 </r>
       <r>     2.3294    59.8559   396.6496 </r>
       <r>     2.5115    66.6904   409.0883 </r>
       <r>     2.6937    64.0170   419.7091 </r>
       <r>     2.8758    76.8254   433.2763 </r>
       <r>     3.0580    43.2654   443.4031 </r>
       <r>     3.2402    24.9458   449.5844 </r>
       <r>     3.4223    33.6100   456.7074 </r>
       <r>     3.6045    15.5729   460.6503 </r>
       <r>     3.7866     8.9206   462.8769 </r>
       <r>     3.9688     2.3267   463.9011 </r>
       <r>     4.1510     0.0000   464.0000 </r>
       <r>     4.3331     0.0000   464.0000 </r>
       <r>     4.5153     0.0000   464.0000 </r>
       <r>     4.6974     0.0000   464.0000 </r>
       <r>     4.8796     0.0000   464.0000 </r>
       <r>     5.0618     0.2467   464.0033 </r>
       <r>     5.2439     4.2195   464.3448 </r>
       <r>     5.4261     9.6514   465.6144 </r>
       <r>     5.6082     9.4951   467.4806 </r>
       <r>     5.7904    28.7531   471.1548 </r>
       <r>     5.9726    13.6234   474.0939 </r>
       <r>     6.1547    12.8984   476.4816 </r>
       <r>     6.3369    13.6842   478.8839 </r>
       <r>     6.5190    14.8146   481.4796 </r>
       <r>     6.7012    16.3869   484.3058 </r>
       <r>     6.8834    19.5072   487.5124 </r>
       <r>     7.0655    21.5653   491.3284 </r>
       <r>     7.2477    25.5061   495.6654 </r>
       <r>     7.4298    41.6972   502.0678 </r>
       <r>     7.6120    32.3409   508.1088 </r>
       <r>     7.7942    33.4834   514.1392 </r>
       <r>     7.9763    33.1317   520.6677 </r>
       <r>     8.1585    28.4596   526.2954 </r>
       <r>     8.3406    24.0454   530.9543 </r>
       <r>     8.5228    35.4316   535.8091 </r>
       <r>     8.7050    36.6803   542.9393 </r>
       <r>     8.8871    29.1291   549.2810 </r>
       <r>     9.0693    20.6257   553.7080 </r>
       <r>     9.2514    13.1461   556.8743 </r>
       <r>     9.4336    12.4908   559.1814 </r>
       <r>     9.6158     0.0000   560.0000 </r>
       <r>     9.7979     0.0000   560.0000 </r>
       <r>     9.9801     0.0000   560.0000 </r>
       <r>    10.1622     0.0000   560.0000 </r>
       <r>    10.3444     0.0000   560.0000 </r>
       <r>    10.5266     0.0000   560.0000 </r>
       <r>    10.7087     0.0000   560.0000 </r>
       <r>    10.8909     0.0000   560.0000 </r>
       <r>    11.0731     0.0000   560.0000 </r>
       <r>    11.2552     0.0000   560.0000 </r>
       <r>    11.4374     0.0000   560.0000 </r>
       <r>    11.6195     0.0000   560.0000 </r>
       <r>    11.8017     0.0000   560.0000 </r>
       <r>    11.9839     0.0000   560.0000 </r>
      </set>
     </set>
    </array>
   </total>
  </dos>
 </calculation>
 <structure name="finalpos" >
  <crystal>
   <varray name="basis" >
    <v>      11.23846113      -0.05853359       0.05056733 </v>
    <v>      -0.05095467       9.57370785      -0.00017318 </v>
    <v>       0.05039851       0.00107485      11.22374223 </v>
   </varray>
   <i name="volume">   1207.54656871 </i>
   <varray name="rec_basis" >
    <v>       0.08898442       0.00047360      -0.00039962 </v>
    <v>       0.00054410       0.10445563      -0.00001245 </v>
    <v>      -0.00040090      -0.00000052       0.08909864 </v>
   </varray>
  </crystal>
  <varray name="positions" >
   <v>       0.41493085       0.01579825       0.41220776 </v>
   <v>       0.15477715      -0.01791879       0.22579723 </v>
   <v>       0.38105952       0.00065498       0.17260110 </v>
   <v>       0.89031048       0.01852251       0.32609853 </v>
   <v>       0.16356482       0.02269005       0.95810773 </v>
   <v>       0.12025079      -0.01770516       0.58808977 </v>
   <v>       0.60258142       0.00906289       0.91878000 </v>
   <v>       0.60163786       0.97505048       0.63774486 </v>
   <v>       0.63499555      -0.00266274       0.18470173 </v>
   <v>       0.36805538       0.00106086       0.70228197 </v>
   <v>       0.87279902       0.00064347       0.96117108 </v>
   <v>       0.86895077       0.00065990       0.70205476 </v>
   <v>       0.00718462       0.30782572       0.06689191 </v>
   <v>       0.25120146       0.70437597       0.06972054 </v>
   <v>       0.25593332       0.29490617       0.31539035 </v>
   <v>       0.50324300       0.69592233       0.30958411 </v>
   <v>       0.50465000       0.30504845       0.06724685 </v>
   <v>       0.75119920       0.68733086       0.06762000 </v>
   <v>       0.75145176       0.30892092       0.31476383 </v>
   <v>       0.00791626       0.69599698       0.31575828 </v>
   <v>      -0.00044216       0.30619805       0.57071242 </v>
   <v>       0.25729233       0.68723976       0.56910505 </v>
   <v>       0.25348934       0.30673277       0.81685233 </v>
   <v>       0.50120331       0.69912260       0.81077562 </v>
   <v>       0.49909530       0.30543114       0.56811017 </v>
   <v>       0.75625979       0.69349056       0.57002357 </v>
   <v>       0.75547371       0.31545777       0.81955607 </v>
   <v>      -0.00313147       0.68732050       0.81972537 </v>
   <v>       0.25210580       0.34267162       0.06794742 </v>
   <v>       0.00581341       0.65434915       0.06772543 </v>
   <v>       0.50554385       0.35180339       0.31747490 </v>
   <v>       0.25647371       0.65042216       0.31717883 </v>
   <v>       0.75219673       0.35657145       0.06759288 </v>
   <v>       0.50764017       0.64972515       0.06791181 </v>
   <v>       0.00247474       0.27938598       0.31935941 </v>
   <v>       0.75489358       0.68131255       0.31490267 </v>
   <v>       0.25205333       0.34269483       0.56893856 </v>
   <v>       0.00895466       0.69337120       0.57107759 </v>
   <v>       0.50246276       0.33919544       0.81673331 </v>
   <v>       0.25812156       0.66849832       0.81809934 </v>
   <v>       0.75197904       0.32780475       0.56939656 </v>
   <v>       0.50917962       0.65259480       0.56926592 </v>
   <v>       0.00128211       0.36257356       0.81725404 </v>
   <v>       0.75369398       0.63555112       0.81684217 </v>
   <v>       0.52414336       0.08912156       0.07119401 </v>
   <v>       0.24432671       0.91723145       0.08486129 </v>
   <v>       0.28699029       0.08539559       0.30434627 </v>
   <v>       0.01969750       0.90512917       0.30488901 </v>
   <v>       0.01015080       0.09646001       0.03229248 </v>
   <v>       0.73869562       0.91008612       0.05420017 </v>
   <v>       0.74341635       0.09683410       0.29056398 </v>
   <v>       0.50297794       0.91202673       0.28470766 </v>
   <v>       0.47656519       0.08844340       0.57321738 </v>
   <v>       0.27041816       0.90275580       0.58142090 </v>
   <v>       0.25465622       0.09168140       0.81396492 </v>
   <v>      -0.04368156       0.89999690       0.82996647 </v>
   <v>       0.99008651       0.09548307       0.60260489 </v>
   <v>       0.75104672       0.90382049       0.60317369 </v>
   <v>       0.77000702       0.09357926       0.83482409 </v>
   <v>       0.50892075       0.91664222       0.78719894 </v>
  </varray>
 </structure>
</modeling>
