<?xml version="1.0" encoding="ISO-8859-1"?>
<modeling>
 <generator>
  <i name="program" type="string">vasp </i>
  <i name="version" type="string">5.4.4.18Apr17-6-g9f103f2a35  </i>
  <i name="subversion" type="string">(build Jul 31 2017 11:33:29) complex            parallel </i>
  <i name="platform" type="string">LinuxIFC </i>
  <i name="date" type="string">2021 09 29 </i>
  <i name="time" type="string">02:25:18 </i>
 </generator>
 <incar>
  <i type="string" name="SYSTEM"> La2O2S</i>
  <i type="string" name="PREC">normal</i>
  <i type="int" name="NELMIN">     4</i>
  <i type="int" name="IBRION">     2</i>
  <i type="int" name="NFREE">    10</i>
  <i name="EDIFF">      0.00000100</i>
  <i name="EDIFFG">     -0.01000000</i>
  <i type="int" name="NSW">     1</i>
  <i type="int" name="ISIF">     2</i>
  <i name="ENCUT">    600.00000000</i>
  <i name="ENAUG">    900.00000000</i>
  <i type="int" name="ISMEAR">    -5</i>
  <i type="logical" name="LWAVE"> F  </i>
  <i type="logical" name="LCHARG"> F  </i>
  <v type="int" name="KPOINT_BSE">    -1     0     0     0</v>
 </incar>
 <structure name="primitive_cell" >
  <crystal>
   <varray name="basis" >
    <v>      11.17850000       0.00000000       0.00000000 </v>
    <v>       0.00000000       9.57460000       0.00000000 </v>
    <v>       0.00000000       0.00000000      11.18240000 </v>
   </varray>
   <i name="volume">   1196.84853820 </i>
   <varray name="rec_basis" >
    <v>       0.08945744       0.00000000       0.00000000 </v>
    <v>       0.00000000       0.10444301       0.00000000 </v>
    <v>       0.00000000       0.00000000       0.08942624 </v>
   </varray>
  </crystal>
  <varray name="positions" >
   <v>       0.37539000       0.00017000       0.43687000 </v>
   <v>      -0.49987000      -0.07798000       0.31246000 </v>
   <v>       0.25013000       0.07798000       0.31246000 </v>
   <v>       0.49987000       0.07798000      -0.43754000 </v>
   <v>       0.24987000      -0.07798000      -0.43754000 </v>
   <v>      -0.37461000      -0.00016000       0.43687000 </v>
   <v>       0.37461000       0.00017000       0.18687000 </v>
   <v>       0.37461000       0.00017000      -0.31313000 </v>
   <v>       0.49987000      -0.29519000       0.31282000 </v>
   <v>       0.24987000       0.29519000       0.31282000 </v>
   <v>      -0.49987000       0.29519000      -0.43719000 </v>
   <v>       0.25013000      -0.29519000      -0.43719000 </v>
   <v>       0.49995000       0.32677000       0.31286000 </v>
   <v>       0.24995000      -0.32677000       0.31286000 </v>
   <v>      -0.49995000      -0.32677000      -0.43714000 </v>
   <v>       0.25005000       0.32677000      -0.43714000 </v>
   <v>       0.12461000      -0.00016000       0.18687000 </v>
   <v>       0.12461000      -0.00016000      -0.31313000 </v>
   <v>       0.49987000       0.07798000       0.06246000 </v>
   <v>      -0.24987000       0.07798000       0.31246000 </v>
   <v>      -0.25013000      -0.07798000      -0.43754000 </v>
   <v>       0.24987000      -0.07798000       0.06246000 </v>
   <v>       0.00013000      -0.07798000       0.31246000 </v>
   <v>      -0.49987000      -0.07798000      -0.18754000 </v>
   <v>      -0.00013000       0.07798000      -0.43754000 </v>
   <v>       0.25013000       0.07798000      -0.18754000 </v>
   <v>      -0.49987000       0.29519000       0.06281000 </v>
   <v>      -0.25013000       0.29519000       0.31282000 </v>
   <v>       0.25013000      -0.29519000       0.06281000 </v>
   <v>      -0.24987000      -0.29519000      -0.43719000 </v>
   <v>      -0.00013000      -0.29519000       0.31282000 </v>
   <v>       0.00013000       0.29519000      -0.43719000 </v>
   <v>       0.49987000      -0.29519000      -0.18718000 </v>
   <v>       0.24987000       0.29519000      -0.18718000 </v>
   <v>      -0.49995000      -0.32677000       0.06286000 </v>
   <v>       0.25005000       0.32677000       0.06286000 </v>
   <v>      -0.25005000      -0.32677000       0.31286000 </v>
   <v>      -0.24995000       0.32677000      -0.43714000 </v>
   <v>      -0.00005000       0.32677000       0.31286000 </v>
   <v>       0.00005000      -0.32677000      -0.43714000 </v>
   <v>       0.49995000       0.32677000      -0.18714000 </v>
   <v>       0.24995000      -0.32677000      -0.18714000 </v>
   <v>      -0.12461000       0.00017000       0.43687000 </v>
   <v>       0.37539000       0.00017000      -0.06313000 </v>
   <v>      -0.25013000      -0.07798000       0.06246000 </v>
   <v>      -0.00013000       0.07798000       0.06246000 </v>
   <v>      -0.24987000       0.07798000      -0.18754000 </v>
   <v>       0.00013000      -0.07798000      -0.18754000 </v>
   <v>      -0.12539000       0.00017000       0.18687000 </v>
   <v>      -0.12539000       0.00017000      -0.31313000 </v>
   <v>       0.12539000      -0.00016000      -0.06313000 </v>
   <v>      -0.37461000      -0.00016000      -0.06313000 </v>
   <v>      -0.24987000      -0.29519000       0.06281000 </v>
   <v>       0.00013000       0.29519000       0.06281000 </v>
   <v>      -0.25013000       0.29519000      -0.18718000 </v>
   <v>      -0.00013000      -0.29519000      -0.18718000 </v>
   <v>      -0.24995000       0.32677000       0.06286000 </v>
   <v>       0.00005000      -0.32677000       0.06286000 </v>
   <v>      -0.25005000      -0.32677000      -0.18714000 </v>
   <v>      -0.00005000       0.32677000      -0.18714000 </v>
   <v>      -0.12461000       0.00017000      -0.06313000 </v>
  </varray>
 </structure>
 <varray name="primitive_index" >
  <v type="int" >        1 </v>
  <v type="int" >       53 </v>
  <v type="int" >       48 </v>
  <v type="int" >       54 </v>
  <v type="int" >       55 </v>
  <v type="int" >       11 </v>
  <v type="int" >        3 </v>
  <v type="int" >        8 </v>
  <v type="int" >       17 </v>
  <v type="int" >       16 </v>
  <v type="int" >       26 </v>
  <v type="int" >       23 </v>
  <v type="int" >       32 </v>
  <v type="int" >       33 </v>
  <v type="int" >       43 </v>
  <v type="int" >       38 </v>
  <v type="int" >        2 </v>
  <v type="int" >        7 </v>
  <v type="int" >       46 </v>
  <v type="int" >       52 </v>
  <v type="int" >       59 </v>
  <v type="int" >       47 </v>
  <v type="int" >       49 </v>
  <v type="int" >       61 </v>
  <v type="int" >       58 </v>
  <v type="int" >       56 </v>
  <v type="int" >       18 </v>
  <v type="int" >       20 </v>
  <v type="int" >       15 </v>
  <v type="int" >       27 </v>
  <v type="int" >       21 </v>
  <v type="int" >       22 </v>
  <v type="int" >       25 </v>
  <v type="int" >       24 </v>
  <v type="int" >       35 </v>
  <v type="int" >       30 </v>
  <v type="int" >       37 </v>
  <v type="int" >       42 </v>
  <v type="int" >       36 </v>
  <v type="int" >       39 </v>
  <v type="int" >       40 </v>
  <v type="int" >       41 </v>
  <v type="int" >       12 </v>
  <v type="int" >        6 </v>
  <v type="int" >       51 </v>
  <v type="int" >       50 </v>
  <v type="int" >       60 </v>
  <v type="int" >       57 </v>
  <v type="int" >        4 </v>
  <v type="int" >       10 </v>
  <v type="int" >        5 </v>
  <v type="int" >       13 </v>
  <v type="int" >       19 </v>
  <v type="int" >       14 </v>
  <v type="int" >       28 </v>
  <v type="int" >       29 </v>
  <v type="int" >       34 </v>
  <v type="int" >       31 </v>
  <v type="int" >       45 </v>
  <v type="int" >       44 </v>
  <v type="int" >        9 </v>
 </varray>
 <kpoints>
  <generation param="Gamma">
   <v type="int" name="divisions">       2        2        2 </v>
   <v name="usershift">      0.00000000       0.00000000       0.00000000 </v>
   <v name="genvec1">      0.50000000       0.00000000       0.00000000 </v>
   <v name="genvec2">      0.00000000       0.50000000       0.00000000 </v>
   <v name="genvec3">      0.00000000       0.00000000       0.50000000 </v>
   <v name="shift">      0.00000000       0.00000000       0.00000000 </v>
  </generation>
  <varray name="kpointlist" >
   <v>       0.00000000       0.00000000       0.00000000 </v>
   <v>       0.50000000       0.00000000       0.00000000 </v>
   <v>       0.00000000       0.50000000       0.00000000 </v>
   <v>       0.50000000       0.50000000       0.00000000 </v>
   <v>       0.00000000       0.00000000       0.50000000 </v>
   <v>       0.50000000       0.00000000       0.50000000 </v>
   <v>       0.00000000       0.50000000       0.50000000 </v>
   <v>       0.50000000       0.50000000       0.50000000 </v>
  </varray>
  <varray name="weights" >
   <v>       0.12500000 </v>
   <v>       0.12500000 </v>
   <v>       0.12500000 </v>
   <v>       0.12500000 </v>
   <v>       0.12500000 </v>
   <v>       0.12500000 </v>
   <v>       0.12500000 </v>
   <v>       0.12500000 </v>
  </varray>
  <varray name="tetrahedronlist"  type="int" >
   <v type="int" >        2        1        2        4        5 </v>
   <v type="int" >        2        1        3        4        5 </v>
   <v type="int" >        2        3        4        5        7 </v>
   <v type="int" >        2        2        4        5        6 </v>
   <v type="int" >        2        4        5        6        8 </v>
   <v type="int" >        2        4        5        7        8 </v>
   <v type="int" >        2        1        2        3        6 </v>
   <v type="int" >        2        2        3        4        6 </v>
   <v type="int" >        2        3        4        6        8 </v>
   <v type="int" >        2        1        3        5        6 </v>
   <v type="int" >        2        3        5        6        7 </v>
   <v type="int" >        2        3        6        7        8 </v>
   <v type="int" >        2        2        3        4        7 </v>
   <v type="int" >        2        1        2        3        7 </v>
   <v type="int" >        2        1        2        5        7 </v>
   <v type="int" >        2        2        4        7        8 </v>
   <v type="int" >        2        2        6        7        8 </v>
   <v type="int" >        2        2        5        6        7 </v>
   <v type="int" >        2        1        3        4        8 </v>
   <v type="int" >        2        1        2        4        8 </v>
   <v type="int" >        2        1        2        6        8 </v>
   <v type="int" >        2        1        3        7        8 </v>
   <v type="int" >        2        1        5        7        8 </v>
   <v type="int" >        2        1        5        6        8 </v>
  </varray>
  <i name="volumeweight">      0.02083333 </i>
 </kpoints>
 <parameters>
  <separator name="general" >
   <i type="string" name="SYSTEM">La2O2S</i>
   <i type="logical" name="LCOMPAT"> F  </i>
  </separator>
  <separator name="electronic" >
   <i type="string" name="PREC">normal</i>
   <i name="ENMAX">    600.00000000</i>
   <i name="ENAUG">    900.00000000</i>
   <i name="EDIFF">      0.00000100</i>
   <i type="int" name="IALGO">    38</i>
   <i type="int" name="IWAVPR">    11</i>
   <i type="int" name="NBANDS">   280</i>
   <i name="NELECT">    468.00000000</i>
   <i type="int" name="TURBO">     0</i>
   <i type="int" name="IRESTART">     0</i>
   <i type="int" name="NREBOOT">     0</i>
   <i type="int" name="NMIN">     0</i>
   <i name="EREF">      0.00000000</i>
   <separator name="electronic smearing" >
    <i type="int" name="ISMEAR">    -5</i>
    <i name="SIGMA">      0.20000000</i>
    <i name="KSPACING">      0.50000000</i>
    <i type="logical" name="KGAMMA"> T  </i>
   </separator>
   <separator name="electronic projectors" >
    <i type="logical" name="LREAL"> F  </i>
    <v name="ROPT">      0.00000000      0.00000000      0.00000000      0.00000000      0.00000000</v>
    <i type="int" name="LMAXPAW">  -100</i>
    <i type="int" name="LMAXMIX">     2</i>
    <i type="logical" name="NLSPLINE"> F  </i>
   </separator>
   <separator name="electronic startup" >
    <i type="int" name="ISTART">     0</i>
    <i type="int" name="ICHARG">     2</i>
    <i type="int" name="INIWAV">     1</i>
   </separator>
   <separator name="electronic spin" >
    <i type="int" name="ISPIN">     1</i>
    <i type="logical" name="LNONCOLLINEAR"> F  </i>
    <v name="MAGMOM">      1.00000000      1.00000000      1.00000000      1.00000000      1.00000000      1.00000000      1.00000000      1.00000000      1.00000000      1.00000000      1.00000000      1.00000000      1.00000000      1.00000000      1.00000000      1.00000000      1.00000000      1.00000000      1.00000000      1.00000000
      1.00000000      1.00000000      1.00000000      1.00000000      1.00000000      1.00000000      1.00000000      1.00000000      1.00000000      1.00000000      1.00000000      1.00000000      1.00000000      1.00000000      1.00000000      1.00000000      1.00000000      1.00000000      1.00000000      1.00000000
      1.00000000      1.00000000      1.00000000      1.00000000      1.00000000      1.00000000      1.00000000      1.00000000      1.00000000      1.00000000      1.00000000      1.00000000      1.00000000      1.00000000      1.00000000      1.00000000      1.00000000      1.00000000      1.00000000      1.00000000
      1.00000000</v>
    <i name="NUPDOWN">     -1.00000000</i>
    <i type="logical" name="LSORBIT"> F  </i>
    <v name="SAXIS">      0.00000000      0.00000000      1.00000000</v>
    <i type="logical" name="LSPIRAL"> F  </i>
    <v name="QSPIRAL">      0.00000000      0.00000000      0.00000000</v>
    <i type="logical" name="LZEROZ"> F  </i>
   </separator>
   <separator name="electronic exchange-correlation" >
    <i type="logical" name="LASPH"> F  </i>
    <i type="logical" name="LMETAGGA"> F  </i>
   </separator>
   <separator name="electronic convergence" >
    <i type="int" name="NELM">    60</i>
    <i type="int" name="NELMDL">    -5</i>
    <i type="int" name="NELMIN">     4</i>
    <i name="ENINI">    600.00000000</i>
    <separator name="electronic convergence detail" >
     <i type="logical" name="LDIAG"> T  </i>
     <i type="logical" name="LSUBROT"> F  </i>
     <i name="WEIMIN">      0.00100000</i>
     <i name="EBREAK">      0.00000000</i>
     <i name="DEPER">      0.30000000</i>
     <i type="int" name="NRMM">     4</i>
     <i name="TIME">      0.40000000</i>
    </separator>
   </separator>
   <separator name="electronic mixer" >
    <i name="AMIX">      0.40000000</i>
    <i name="BMIX">      1.00000000</i>
    <i name="AMIN">      0.10000000</i>
    <i name="AMIX_MAG">      1.60000000</i>
    <i name="BMIX_MAG">      1.00000000</i>
    <separator name="electronic mixer details" >
     <i type="int" name="IMIX">     4</i>
     <i type="logical" name="MIXFIRST"> F  </i>
     <i type="int" name="MAXMIX">   -45</i>
     <i name="WC">    100.00000000</i>
     <i type="int" name="INIMIX">     1</i>
     <i type="int" name="MIXPRE">     1</i>
     <i type="int" name="MREMOVE">     5</i>
    </separator>
   </separator>
   <separator name="electronic dipolcorrection" >
    <i type="logical" name="LDIPOL"> F  </i>
    <i type="logical" name="LMONO"> F  </i>
    <i type="int" name="IDIPOL">     0</i>
    <i name="EPSILON">      1.00000000</i>
    <v name="DIPOL">   -100.00000000   -100.00000000   -100.00000000</v>
    <i name="EFIELD">      0.00000000</i>
   </separator>
  </separator>
  <separator name="grids" >
   <i type="int" name="NGX">    70</i>
   <i type="int" name="NGY">    60</i>
   <i type="int" name="NGZ">    70</i>
   <i type="int" name="NGXF">   140</i>
   <i type="int" name="NGYF">   120</i>
   <i type="int" name="NGZF">   140</i>
   <i type="logical" name="ADDGRID"> F  </i>
  </separator>
  <separator name="ionic" >
   <i type="int" name="NSW">     1</i>
   <i type="int" name="IBRION">     2</i>
   <i type="int" name="MDALGO">     0</i>
   <i type="int" name="ISIF">     2</i>
   <i name="PSTRESS">      0.00000000</i>
   <i name="EDIFFG">     -0.01000000</i>
   <i type="int" name="NFREE">    10</i>
   <i name="POTIM">      0.50000000</i>
   <i name="SMASS">     -3.00000000</i>
   <i name="SCALEE">      1.00000000</i>
  </separator>
  <separator name="ionic md" >
   <i name="TEBEG">      0.00010000</i>
   <i name="TEEND">      0.00010000</i>
   <i type="int" name="NBLOCK">     1</i>
   <i type="int" name="KBLOCK">     1</i>
   <i type="int" name="NPACO">   256</i>
   <i name="APACO">     16.00000000</i>
  </separator>
  <separator name="symmetry" >
   <i type="int" name="ISYM">     2</i>
   <i name="SYMPREC">      0.00001000</i>
  </separator>
  <separator name="dos" >
   <i type="int" name="LORBIT">     0</i>
   <v name="RWIGS">     -1.00000000     -1.00000000     -1.00000000     -1.00000000     -1.00000000</v>
   <i type="int" name="NEDOS">   301</i>
   <i name="EMIN">     10.00000000</i>
   <i name="EMAX">    -10.00000000</i>
   <i name="EFERMI">      0.00000000</i>
  </separator>
  <separator name="writing" >
   <i type="int" name="NWRITE">     2</i>
   <i type="logical" name="LWAVE"> F  </i>
   <i type="logical" name="LDOWNSAMPLE"> F  </i>
   <i type="logical" name="LCHARG"> F  </i>
   <i type="logical" name="LPARD"> F  </i>
   <i type="logical" name="LVTOT"> F  </i>
   <i type="logical" name="LVHAR"> F  </i>
   <i type="logical" name="LELF"> F  </i>
   <i type="logical" name="LOPTICS"> F  </i>
   <v name="STM">      0.00000000      0.00000000      0.00000000      0.00000000      0.00000000      0.00000000      0.00000000</v>
  </separator>
  <separator name="performance" >
   <i type="int" name="NPAR">    28</i>
   <i type="int" name="NSIM">     4</i>
   <i type="int" name="NBLK">    -1</i>
   <i type="logical" name="LPLANE"> T  </i>
   <i type="logical" name="LSCALAPACK"> T  </i>
   <i type="logical" name="LSCAAWARE"> F  </i>
   <i type="logical" name="LSCALU"> F  </i>
   <i type="logical" name="LASYNC"> F  </i>
   <i type="logical" name="LORBITALREAL"> F  </i>
  </separator>
  <separator name="miscellaneous" >
   <i type="int" name="IDIOT">     3</i>
   <i type="int" name="ISPECIAL">     0</i>
   <i type="logical" name="LMUSIC"> F  </i>
   <v name="POMASS">      7.01000000     24.30500000    208.98000000     32.06600000     16.00000000</v>
   <v name="DARWINR">      0.00000000      0.00000000      0.00000000      0.00000000      0.00000000</v>
   <v name="DARWINV">      1.00000000      1.00000000      1.00000000      1.00000000      1.00000000</v>
   <i type="logical" name="LCORR"> T  </i>
  </separator>
  <i type="logical" name="GGA_COMPAT"> T  </i>
  <i type="logical" name="LBERRY"> F  </i>
  <i type="int" name="ICORELEVEL">     0</i>
  <i type="logical" name="LDAU"> F  </i>
  <i type="int" name="I_CONSTRAINED_M">     0</i>
  <separator name="electronic exchange-correlation" >
   <i type="string" name="GGA">--</i>
   <i type="int" name="VOSKOWN">     0</i>
   <i type="logical" name="LHFCALC"> F  </i>
   <i type="string" name="PRECFOCK"></i>
   <i type="logical" name="LSYMGRAD"> F  </i>
   <i type="logical" name="LHFONE"> F  </i>
   <i type="logical" name="LRHFCALC"> F  </i>
   <i type="logical" name="LTHOMAS"> F  </i>
   <i type="logical" name="LMODELHF"> F  </i>
   <i name="ENCUT4O">     -1.00000000</i>
   <i type="int" name="EXXOEP">     0</i>
   <i type="int" name="FOURORBIT">     0</i>
   <i name="AEXX">      0.00000000</i>
   <i name="HFALPHA">      0.00000000</i>
   <i name="MCALPHA">      0.00000000</i>
   <i name="ALDAX">      1.00000000</i>
   <i name="AGGAX">      1.00000000</i>
   <i name="ALDAC">      1.00000000</i>
   <i name="AGGAC">      1.00000000</i>
   <i type="int" name="NKREDX">     1</i>
   <i type="int" name="NKREDY">     1</i>
   <i type="int" name="NKREDZ">     1</i>
   <i type="logical" name="SHIFTRED"> F  </i>
   <i type="logical" name="ODDONLY"> F  </i>
   <i type="logical" name="EVENONLY"> F  </i>
   <i type="int" name="LMAXFOCK">     0</i>
   <i type="int" name="NMAXFOCKAE">     0</i>
   <i type="logical" name="LFOCKAEDFT"> F  </i>
   <i name="HFSCREEN">      0.00000000</i>
   <i name="HFSCREENC">      0.00000000</i>
   <i type="int" name="NBANDSGWLOW">     0</i>
  </separator>
  <separator name="vdW DFT" >
   <i type="logical" name="LUSE_VDW"> F  </i>
   <i name="Zab_VDW">     -0.84910000</i>
   <i name="PARAM1">      0.12340000</i>
   <i name="PARAM2">      1.00000000</i>
   <i name="PARAM3">      0.00000000</i>
  </separator>
  <separator name="model GW" >
   <i type="int" name="MODEL_GW">     0</i>
   <i name="MODEL_EPS0">     11.77228070</i>
   <i name="MODEL_ALPHA">      1.00000000</i>
  </separator>
  <separator name="linear response parameters" >
   <i type="logical" name="LEPSILON"> F  </i>
   <i type="logical" name="LRPA"> F  </i>
   <i type="logical" name="LNABLA"> F  </i>
   <i type="logical" name="LVEL"> F  </i>
   <i type="int" name="KINTER">     0</i>
   <i name="CSHIFT">      0.10000000</i>
   <i name="OMEGAMAX">     -1.00000000</i>
   <i name="DEG_THRESHOLD">      0.00200000</i>
   <i name="RTIME">     -0.10000000</i>
   <i name="WPLASMAI">      0.00000000</i>
   <v name="DFIELD">      0.00000000      0.00000000      0.00000000</v>
   <v name="WPLASMA">      0.00000000      0.00000000      0.00000000      0.00000000      0.00000000      0.00000000      0.00000000      0.00000000      0.00000000</v>
  </separator>
  <separator name="orbital magnetization" >
   <i type="logical" name="NUCIND"> F  </i>
   <v name="MAGPOS">      0.00000000      0.00000000      0.00000000</v>
   <i type="logical" name="LNICSALL"> T  </i>
   <i type="logical" name="ORBITALMAG"> F  </i>
   <i type="logical" name="LMAGBLOCH"> F  </i>
   <i type="logical" name="LCHIMAG"> F  </i>
   <i type="logical" name="LGAUGE"> T  </i>
   <i type="int" name="MAGATOM">     0</i>
   <v name="MAGDIPOL">      0.00000000      0.00000000      0.00000000</v>
   <v name="AVECCONST">      0.00000000      0.00000000      0.00000000</v>
  </separator>
  <separator name="response functions" >
   <i type="logical" name="LADDER"> F  </i>
   <i type="logical" name="LRPAFORCE"> F  </i>
   <i type="logical" name="LFXC"> F  </i>
   <i type="logical" name="LHARTREE"> T  </i>
   <i type="int" name="IBSE">     0</i>
   <v type="int" name="KPOINT">    -1     0     0     0</v>
   <i type="logical" name="LTCTE"> F  </i>
   <i type="logical" name="LTETE"> F  </i>
   <i type="logical" name="LTRIPLET"> F  </i>
   <i type="logical" name="LFXCEPS"> F  </i>
   <i type="logical" name="LFXHEG"> F  </i>
   <i type="int" name="NATURALO">     2</i>
   <i type="logical" name="L2ORDER"> F  </i>
   <i type="logical" name="LMP2LT"> F  </i>
   <i type="logical" name="LUSEW"> F  </i>
   <i name="ENCUTGW">     -2.00000000</i>
   <i name="ENCUTGWSOFT">     -2.00000000</i>
   <i name="ENCUTLF">     -1.00000000</i>
   <i type="int" name="LMAXMP2">    -1</i>
   <i name="SCISSOR">      0.00000000</i>
   <i type="int" name="NOMEGA">     0</i>
   <i type="int" name="NOMEGAR">     0</i>
   <i type="int" name="NBANDSGW">    -1</i>
   <i type="int" name="NBANDSO">    -1</i>
   <i type="int" name="NBANDSV">    -1</i>
   <i type="int" name="NELM">     1</i>
   <i type="int" name="NELMHF">     1</i>
   <i type="int" name="DIM">     3</i>
   <i type="int" name="ANTIRES">     0</i>
   <i name="OMEGAMAX">    -30.00000000</i>
   <i name="OMEGAMIN">    -30.00000000</i>
   <i name="OMEGATL">   -200.00000000</i>
   <i type="int" name="OMEGAGRID">   140</i>
   <i name="CSHIFT">     -0.10000000</i>
   <i type="logical" name="SELFENERGY"> F  </i>
   <i type="logical" name="LSPECTRAL"> F  </i>
   <i type="logical" name="LSPECTRALGW"> F  </i>
   <i type="logical" name="LSINGLES"> F  </i>
   <i type="logical" name="LFERMIGW"> F  </i>
   <i type="logical" name="ODDONLYGW"> F  </i>
   <i type="logical" name="EVENONLYGW"> F  </i>
   <i type="int" name="NKREDLFX">     1</i>
   <i type="int" name="NKREDLFY">     1</i>
   <i type="int" name="NKREDLFZ">     1</i>
   <i type="int" name="MAXMEM">  2800</i>
   <i type="int" name="TELESCOPE">     0</i>
   <i type="int" name="TAUPAR">     1</i>
   <i type="int" name="OMEGAPAR">    -1</i>
   <i name="LAMBDA">      1.00000000</i>
  </separator>
  <separator name="External order field" >
   <i name="OFIELD_KAPPA">      0.00000000</i>
   <v name="OFIELD_K">      0.00000000      0.00000000      0.00000000</v>
   <i name="OFIELD_Q6_NEAR">      0.00000000</i>
   <i name="OFIELD_Q6_FAR">      0.00000000</i>
   <i name="OFIELD_A">      0.00000000</i>
  </separator>
 </parameters>
 <atominfo>
  <atoms>      61 </atoms>
  <types>       5 </types>
  <array name="atoms" >
   <dimension dim="1">ion</dimension>
   <field type="string">element</field>
   <field type="int">atomtype</field>
   <set>
    <rc><c>Li</c><c>   1</c></rc>
    <rc><c>Li</c><c>   1</c></rc>
    <rc><c>Li</c><c>   1</c></rc>
    <rc><c>Li</c><c>   1</c></rc>
    <rc><c>Li</c><c>   1</c></rc>
    <rc><c>Li</c><c>   1</c></rc>
    <rc><c>Li</c><c>   1</c></rc>
    <rc><c>Li</c><c>   1</c></rc>
    <rc><c>Li</c><c>   1</c></rc>
    <rc><c>Li</c><c>   1</c></rc>
    <rc><c>Mg</c><c>   2</c></rc>
    <rc><c>Mg</c><c>   2</c></rc>
    <rc><c>Mg</c><c>   2</c></rc>
    <rc><c>Bi</c><c>   3</c></rc>
    <rc><c>Bi</c><c>   3</c></rc>
    <rc><c>Bi</c><c>   3</c></rc>
    <rc><c>Bi</c><c>   3</c></rc>
    <rc><c>Bi</c><c>   3</c></rc>
    <rc><c>Bi</c><c>   3</c></rc>
    <rc><c>Bi</c><c>   3</c></rc>
    <rc><c>Bi</c><c>   3</c></rc>
    <rc><c>Bi</c><c>   3</c></rc>
    <rc><c>Bi</c><c>   3</c></rc>
    <rc><c>Bi</c><c>   3</c></rc>
    <rc><c>Bi</c><c>   3</c></rc>
    <rc><c>Bi</c><c>   3</c></rc>
    <rc><c>Bi</c><c>   3</c></rc>
    <rc><c>Bi</c><c>   3</c></rc>
    <rc><c>Bi</c><c>   3</c></rc>
    <rc><c>S </c><c>   4</c></rc>
    <rc><c>S </c><c>   4</c></rc>
    <rc><c>S </c><c>   4</c></rc>
    <rc><c>S </c><c>   4</c></rc>
    <rc><c>S </c><c>   4</c></rc>
    <rc><c>S </c><c>   4</c></rc>
    <rc><c>S </c><c>   4</c></rc>
    <rc><c>S </c><c>   4</c></rc>
    <rc><c>S </c><c>   4</c></rc>
    <rc><c>S </c><c>   4</c></rc>
    <rc><c>S </c><c>   4</c></rc>
    <rc><c>S </c><c>   4</c></rc>
    <rc><c>S </c><c>   4</c></rc>
    <rc><c>S </c><c>   4</c></rc>
    <rc><c>S </c><c>   4</c></rc>
    <rc><c>S </c><c>   4</c></rc>
    <rc><c>O </c><c>   5</c></rc>
    <rc><c>O </c><c>   5</c></rc>
    <rc><c>O </c><c>   5</c></rc>
    <rc><c>O </c><c>   5</c></rc>
    <rc><c>O </c><c>   5</c></rc>
    <rc><c>O </c><c>   5</c></rc>
    <rc><c>O </c><c>   5</c></rc>
    <rc><c>O </c><c>   5</c></rc>
    <rc><c>O </c><c>   5</c></rc>
    <rc><c>O </c><c>   5</c></rc>
    <rc><c>O </c><c>   5</c></rc>
    <rc><c>O </c><c>   5</c></rc>
    <rc><c>O </c><c>   5</c></rc>
    <rc><c>O </c><c>   5</c></rc>
    <rc><c>O </c><c>   5</c></rc>
    <rc><c>O </c><c>   5</c></rc>
   </set>
  </array>
  <array name="atomtypes" >
   <dimension dim="1">type</dimension>
   <field type="int">atomspertype</field>
   <field type="string">element</field>
   <field>mass</field>
   <field>valence</field>
   <field type="string">pseudopotential</field>
   <set>
    <rc><c>  10</c><c>Li</c><c>      7.01000000</c><c>      3.00000000</c><c>  PAW_PBE Li_sv 10Sep2004               </c></rc>
    <rc><c>   3</c><c>Mg</c><c>     24.30500000</c><c>      2.00000000</c><c>  PAW_PBE Mg 13Apr2007                  </c></rc>
    <rc><c>  16</c><c>Bi</c><c>    208.98000000</c><c>     15.00000000</c><c>  PAW_PBE Bi_d 06Sep2000                </c></rc>
    <rc><c>  16</c><c>S </c><c>     32.06600000</c><c>      6.00000000</c><c>  PAW_PBE S 06Sep2000                   </c></rc>
    <rc><c>  16</c><c>O </c><c>     16.00000000</c><c>      6.00000000</c><c>  PAW_PBE O 08Apr2002                   </c></rc>
   </set>
  </array>
 </atominfo>
 <structure name="initialpos" >
  <crystal>
   <varray name="basis" >
    <v>      11.17850000       0.00000000       0.00000000 </v>
    <v>       0.00000000       9.57460000       0.00000000 </v>
    <v>       0.00000000       0.00000000      11.18240000 </v>
   </varray>
   <i name="volume">   1196.84853820 </i>
   <varray name="rec_basis" >
    <v>       0.08945744       0.00000000       0.00000000 </v>
    <v>       0.00000000       0.10444301       0.00000000 </v>
    <v>       0.00000000       0.00000000       0.08942624 </v>
   </varray>
  </crystal>
  <varray name="positions" >
   <v>       0.37539000       0.00017000       0.43687000 </v>
   <v>       0.12461000       0.99984000       0.18687000 </v>
   <v>       0.37461000       0.00017000       0.18687000 </v>
   <v>       0.87461000       0.00017000       0.18687000 </v>
   <v>       0.12539000       0.99984000       0.93687000 </v>
   <v>       0.37539000       0.00017000       0.93687000 </v>
   <v>       0.12461000       0.99984000       0.68687000 </v>
   <v>       0.37461000       0.00017000       0.68687000 </v>
   <v>       0.87539000       0.00017000       0.93687000 </v>
   <v>       0.87461000       0.00017000       0.68687000 </v>
   <v>       0.62539000       0.99984000       0.43687000 </v>
   <v>       0.87539000       0.00017000       0.43687000 </v>
   <v>       0.62539000       0.99984000       0.93687000 </v>
   <v>       0.00013000       0.29519000       0.06281000 </v>
   <v>       0.25013000       0.70481000       0.06281000 </v>
   <v>       0.24987000       0.29519000       0.31282000 </v>
   <v>       0.49987000       0.70481000       0.31282000 </v>
   <v>       0.50013000       0.29519000       0.06281000 </v>
   <v>       0.75013000       0.70481000       0.06281000 </v>
   <v>       0.74987000       0.29519000       0.31282000 </v>
   <v>       0.99987000       0.70481000       0.31282000 </v>
   <v>       0.00013000       0.29519000       0.56281000 </v>
   <v>       0.25013000       0.70481000       0.56281000 </v>
   <v>       0.24987000       0.29519000       0.81282000 </v>
   <v>       0.49987000       0.70481000       0.81282000 </v>
   <v>       0.50013000       0.29519000       0.56281000 </v>
   <v>       0.75013000       0.70481000       0.56281000 </v>
   <v>       0.74987000       0.29519000       0.81282000 </v>
   <v>       0.99987000       0.70481000       0.81282000 </v>
   <v>       0.25005000       0.32677000       0.06286000 </v>
   <v>       0.00005000       0.67323000       0.06286000 </v>
   <v>       0.49995000       0.32677000       0.31286000 </v>
   <v>       0.24995000       0.67323000       0.31286000 </v>
   <v>       0.75005000       0.32677000       0.06286000 </v>
   <v>       0.50005000       0.67323000       0.06286000 </v>
   <v>       0.99995000       0.32677000       0.31286000 </v>
   <v>       0.74995000       0.67323000       0.31286000 </v>
   <v>       0.25005000       0.32677000       0.56286000 </v>
   <v>       0.00005000       0.67323000       0.56286000 </v>
   <v>       0.49995000       0.32677000       0.81286000 </v>
   <v>       0.24995000       0.67323000       0.81286000 </v>
   <v>       0.75005000       0.32677000       0.56286000 </v>
   <v>       0.50005000       0.67323000       0.56286000 </v>
   <v>       0.99995000       0.32677000       0.81286000 </v>
   <v>       0.74995000       0.67323000       0.81286000 </v>
   <v>       0.49987000       0.07798000       0.06246000 </v>
   <v>       0.24987000       0.92202000       0.06246000 </v>
   <v>       0.25013000       0.07798000       0.31246000 </v>
   <v>       0.00013000       0.92202000       0.31246000 </v>
   <v>       0.99987000       0.07798000       0.06246000 </v>
   <v>       0.74987000       0.92202000       0.06246000 </v>
   <v>       0.75013000       0.07798000       0.31246000 </v>
   <v>       0.50013000       0.92202000       0.31246000 </v>
   <v>       0.49987000       0.07798000       0.56246000 </v>
   <v>       0.24987000       0.92202000       0.56246000 </v>
   <v>       0.25013000       0.07798000       0.81246000 </v>
   <v>       0.00013000       0.92202000       0.81246000 </v>
   <v>       0.99987000       0.07798000       0.56246000 </v>
   <v>       0.74987000       0.92202000       0.56246000 </v>
   <v>       0.75013000       0.07798000       0.81246000 </v>
   <v>       0.50013000       0.92202000       0.81246000 </v>
  </varray>
 </structure>
 <calculation>
  <scstep>
   <time name="dav">   60.23   60.26</time>
   <time name="total">   60.31   60.34</time>
   <energy>
    <i name="alphaZ">   1073.51873187 </i>
    <i name="ewald"> -30879.83506041 </i>
    <i name="hartreedc"> -12709.31342692 </i>
    <i name="XCdc">   1394.97315674 </i>
    <i name="pawpsdc">  36823.70205594 </i>
    <i name="pawaedc"> -36326.52930246 </i>
    <i name="eentropy">      0.00000000 </i>
    <i name="bandstr">   1807.87541501 </i>
    <i name="atom">  44791.06186932 </i>
    <i name="e_fr_energy">   5975.45343909 </i>
    <i name="e_wo_entrp">   5975.45343909 </i>
    <i name="e_0_energy">   5975.45343909 </i>
   </energy>
  </scstep>
  <scstep>
   <time name="dav">   61.03   61.09</time>
   <time name="total">   61.04   61.10</time>
   <energy>
    <i name="e_fr_energy">    793.85686281 </i>
    <i name="e_wo_entrp">    793.85686281 </i>
    <i name="e_0_energy">    793.85686281 </i>
   </energy>
  </scstep>
  <scstep>
   <time name="dav">   70.49   70.62</time>
   <time name="total">   70.50   70.63</time>
   <energy>
    <i name="e_fr_energy">   -246.81082596 </i>
    <i name="e_wo_entrp">   -246.81082596 </i>
    <i name="e_0_energy">   -246.81082596 </i>
   </energy>
  </scstep>
  <scstep>
   <time name="dav">   74.55   74.74</time>
   <time name="total">   74.56   74.74</time>
   <energy>
    <i name="e_fr_energy">   -346.56244062 </i>
    <i name="e_wo_entrp">   -346.56244062 </i>
    <i name="e_0_energy">   -346.56244062 </i>
   </energy>
  </scstep>
  <scstep>
   <time name="dav">   98.19   98.75</time>
   <time name="total">   98.93   99.49</time>
   <energy>
    <i name="e_fr_energy">   -355.28392184 </i>
    <i name="e_wo_entrp">   -355.28392184 </i>
    <i name="e_0_energy">   -355.28392184 </i>
   </energy>
  </scstep>
  <scstep>
   <time name="dav">   84.59   85.49</time>
   <time name="total">   85.40   86.31</time>
   <energy>
    <i name="e_fr_energy">   -296.53382355 </i>
    <i name="e_wo_entrp">   -296.53382355 </i>
    <i name="e_0_energy">   -296.53382355 </i>
   </energy>
  </scstep>
  <scstep>
   <time name="dav">   64.85   65.73</time>
   <time name="total">   65.65   66.54</time>
   <energy>
    <i name="e_fr_energy">   -299.33583513 </i>
    <i name="e_wo_entrp">   -299.33583513 </i>
    <i name="e_0_energy">   -299.33583513 </i>
   </energy>
  </scstep>
  <scstep>
   <time name="dav">   79.38   80.00</time>
   <time name="total">   80.19   80.81</time>
   <energy>
    <i name="e_fr_energy">   -298.07429229 </i>
    <i name="e_wo_entrp">   -298.07429229 </i>
    <i name="e_0_energy">   -298.07429229 </i>
   </energy>
  </scstep>
  <scstep>
   <time name="dav">   83.83   84.34</time>
   <time name="total">   84.63   85.15</time>
   <energy>
    <i name="e_fr_energy">   -297.41121541 </i>
    <i name="e_wo_entrp">   -297.41121541 </i>
    <i name="e_0_energy">   -297.41121541 </i>
   </energy>
  </scstep>
  <scstep>
   <time name="dav">   72.39   73.20</time>
   <time name="total">   73.20   74.01</time>
   <energy>
    <i name="e_fr_energy">   -297.41270724 </i>
    <i name="e_wo_entrp">   -297.41270724 </i>
    <i name="e_0_energy">   -297.41270724 </i>
   </energy>
  </scstep>
  <scstep>
   <time name="dav">   80.18   80.48</time>
   <time name="total">   80.98   81.29</time>
   <energy>
    <i name="e_fr_energy">   -297.42397488 </i>
    <i name="e_wo_entrp">   -297.42397488 </i>
    <i name="e_0_energy">   -297.42397488 </i>
   </energy>
  </scstep>
  <scstep>
   <time name="dav">   75.95   76.37</time>
   <time name="total">   76.78   77.21</time>
   <energy>
    <i name="e_fr_energy">   -297.42742697 </i>
    <i name="e_wo_entrp">   -297.42742697 </i>
    <i name="e_0_energy">   -297.42742697 </i>
   </energy>
  </scstep>
  <scstep>
   <time name="dav">   80.99   81.82</time>
   <time name="total">   81.80   82.63</time>
   <energy>
    <i name="e_fr_energy">   -297.42852420 </i>
    <i name="e_wo_entrp">   -297.42852420 </i>
    <i name="e_0_energy">   -297.42852420 </i>
   </energy>
  </scstep>
  <scstep>
   <time name="dav">   74.26   74.50</time>
   <time name="total">   75.07   75.32</time>
   <energy>
    <i name="e_fr_energy">   -297.42870860 </i>
    <i name="e_wo_entrp">   -297.42870860 </i>
    <i name="e_0_energy">   -297.42870860 </i>
   </energy>
  </scstep>
  <scstep>
   <time name="dav">   82.68   83.01</time>
   <time name="total">   83.49   83.83</time>
   <energy>
    <i name="e_fr_energy">   -297.42876184 </i>
    <i name="e_wo_entrp">   -297.42876184 </i>
    <i name="e_0_energy">   -297.42876184 </i>
   </energy>
  </scstep>
  <scstep>
   <time name="dav">   68.17   68.80</time>
   <time name="total">   68.97   69.61</time>
   <energy>
    <i name="e_fr_energy">   -297.42877769 </i>
    <i name="e_wo_entrp">   -297.42877769 </i>
    <i name="e_0_energy">   -297.42877769 </i>
   </energy>
  </scstep>
  <scstep>
   <time name="dav">   65.92   66.60</time>
   <time name="total">   66.72   67.41</time>
   <energy>
    <i name="e_fr_energy">   -297.42877977 </i>
    <i name="e_wo_entrp">   -297.42877977 </i>
    <i name="e_0_energy">   -297.42877977 </i>
   </energy>
  </scstep>
  <scstep>
   <time name="dav">   58.05   58.49</time>
   <time name="total">   58.12   58.57</time>
   <energy>
    <i name="alphaZ">   1073.51873187 </i>
    <i name="ewald"> -30879.83506041 </i>
    <i name="hartreedc"> -12947.48713964 </i>
    <i name="XCdc">   1418.52651420 </i>
    <i name="pawpsdc">  43845.46552805 </i>
    <i name="pawaedc"> -43322.90928552 </i>
    <i name="eentropy">      0.00000000 </i>
    <i name="bandstr">  -4275.76993811 </i>
    <i name="atom">  44791.06186932 </i>
    <i name="e_fr_energy">   -297.42878023 </i>
    <i name="e_wo_entrp">   -297.42878023 </i>
    <i name="e_0_energy">   -297.42878023 </i>
   </energy>
  </scstep>
  <structure>
   <crystal>
    <varray name="basis" >
     <v>      11.17850000       0.00000000       0.00000000 </v>
     <v>       0.00000000       9.57460000       0.00000000 </v>
     <v>       0.00000000       0.00000000      11.18240000 </v>
    </varray>
    <i name="volume">   1196.84853820 </i>
    <varray name="rec_basis" >
     <v>       0.08945744       0.00000000       0.00000000 </v>
     <v>       0.00000000       0.10444301       0.00000000 </v>
     <v>       0.00000000       0.00000000       0.08942624 </v>
    </varray>
   </crystal>
   <varray name="positions" >
    <v>       0.37539000       0.00017000       0.43687000 </v>
    <v>       0.12461000       0.99984000       0.18687000 </v>
    <v>       0.37461000       0.00017000       0.18687000 </v>
    <v>       0.87461000       0.00017000       0.18687000 </v>
    <v>       0.12539000       0.99984000       0.93687000 </v>
    <v>       0.37539000       0.00017000       0.93687000 </v>
    <v>       0.12461000       0.99984000       0.68687000 </v>
    <v>       0.37461000       0.00017000       0.68687000 </v>
    <v>       0.87539000       0.00017000       0.93687000 </v>
    <v>       0.87461000       0.00017000       0.68687000 </v>
    <v>       0.62539000       0.99984000       0.43687000 </v>
    <v>       0.87539000       0.00017000       0.43687000 </v>
    <v>       0.62539000       0.99984000       0.93687000 </v>
    <v>       0.00013000       0.29519000       0.06281000 </v>
    <v>       0.25013000       0.70481000       0.06281000 </v>
    <v>       0.24987000       0.29519000       0.31282000 </v>
    <v>       0.49987000       0.70481000       0.31282000 </v>
    <v>       0.50013000       0.29519000       0.06281000 </v>
    <v>       0.75013000       0.70481000       0.06281000 </v>
    <v>       0.74987000       0.29519000       0.31282000 </v>
    <v>       0.99987000       0.70481000       0.31282000 </v>
    <v>       0.00013000       0.29519000       0.56281000 </v>
    <v>       0.25013000       0.70481000       0.56281000 </v>
    <v>       0.24987000       0.29519000       0.81282000 </v>
    <v>       0.49987000       0.70481000       0.81282000 </v>
    <v>       0.50013000       0.29519000       0.56281000 </v>
    <v>       0.75013000       0.70481000       0.56281000 </v>
    <v>       0.74987000       0.29519000       0.81282000 </v>
    <v>       0.99987000       0.70481000       0.81282000 </v>
    <v>       0.25005000       0.32677000       0.06286000 </v>
    <v>       0.00005000       0.67323000       0.06286000 </v>
    <v>       0.49995000       0.32677000       0.31286000 </v>
    <v>       0.24995000       0.67323000       0.31286000 </v>
    <v>       0.75005000       0.32677000       0.06286000 </v>
    <v>       0.50005000       0.67323000       0.06286000 </v>
    <v>       0.99995000       0.32677000       0.31286000 </v>
    <v>       0.74995000       0.67323000       0.31286000 </v>
    <v>       0.25005000       0.32677000       0.56286000 </v>
    <v>       0.00005000       0.67323000       0.56286000 </v>
    <v>       0.49995000       0.32677000       0.81286000 </v>
    <v>       0.24995000       0.67323000       0.81286000 </v>
    <v>       0.75005000       0.32677000       0.56286000 </v>
    <v>       0.50005000       0.67323000       0.56286000 </v>
    <v>       0.99995000       0.32677000       0.81286000 </v>
    <v>       0.74995000       0.67323000       0.81286000 </v>
    <v>       0.49987000       0.07798000       0.06246000 </v>
    <v>       0.24987000       0.92202000       0.06246000 </v>
    <v>       0.25013000       0.07798000       0.31246000 </v>
    <v>       0.00013000       0.92202000       0.31246000 </v>
    <v>       0.99987000       0.07798000       0.06246000 </v>
    <v>       0.74987000       0.92202000       0.06246000 </v>
    <v>       0.75013000       0.07798000       0.31246000 </v>
    <v>       0.50013000       0.92202000       0.31246000 </v>
    <v>       0.49987000       0.07798000       0.56246000 </v>
    <v>       0.24987000       0.92202000       0.56246000 </v>
    <v>       0.25013000       0.07798000       0.81246000 </v>
    <v>       0.00013000       0.92202000       0.81246000 </v>
    <v>       0.99987000       0.07798000       0.56246000 </v>
    <v>       0.74987000       0.92202000       0.56246000 </v>
    <v>       0.75013000       0.07798000       0.81246000 </v>
    <v>       0.50013000       0.92202000       0.81246000 </v>
   </varray>
  </structure>
  <varray name="forces" >
   <v>      -0.68179871       0.00010711       0.00713745 </v>
   <v>       0.12925309       0.06545292       0.41717480 </v>
   <v>       0.14424173       0.06225447       0.15739429 </v>
   <v>      -0.13164951      -0.06730097      -0.32682348 </v>
   <v>       0.03514291      -0.00002475       0.00604389 </v>
   <v>      -0.18227812       0.00023743       0.00745594 </v>
   <v>       0.12940515      -0.06555936      -0.40689876 </v>
   <v>       0.14437184      -0.06351093      -0.14838294 </v>
   <v>       0.17061201      -0.00128369       0.00763186 </v>
   <v>      -0.13229784       0.06353853       0.33486592 </v>
   <v>      -1.09970066       0.00130242       0.03405275 </v>
   <v>       1.58953795      -0.00823620       0.03575197 </v>
   <v>      -0.09870538       0.00369136       0.03351637 </v>
   <v>       0.15750645       0.01781982      -0.03741070 </v>
   <v>      -0.01412773       0.00028671       0.02370509 </v>
   <v>      -0.09391307      -1.02677009       0.15052781 </v>
   <v>      -0.23160538      -0.00051625      -0.18979629 </v>
   <v>      -0.13445854      -0.04533445       0.17798669 </v>
   <v>      -0.03476323       0.00762505       0.10792514 </v>
   <v>      -0.12523653       1.06695320      -0.35534059 </v>
   <v>       0.47382029       0.00027475       0.02984134 </v>
   <v>       0.45607510       0.00420628      -0.03846353 </v>
   <v>      -0.10684031       1.01848917      -0.16117449 </v>
   <v>      -0.00184059      -0.00020115      -0.03076389 </v>
   <v>      -0.12636224       0.02705314      -0.18771606 </v>
   <v>      -0.23719686      -0.01794370       0.18049220 </v>
   <v>      -0.13603777      -1.03690426       0.34658371 </v>
   <v>      -0.01843783       0.01025517      -0.11835381 </v>
   <v>       0.16896662      -0.01685308       0.02864459 </v>
   <v>      -0.01824857       0.22826782      -0.10581908 </v>
   <v>      -0.06621885      -0.19050993      -0.00165757 </v>
   <v>       0.29292240       0.14530295       0.06623974 </v>
   <v>       0.01243510      -0.20031625      -0.11901322 </v>
   <v>      -0.01716325       0.11592373       0.01891665 </v>
   <v>       0.09888813      -0.14187915      -0.05834193 </v>
   <v>      -0.31455365       0.11755933       0.03056115 </v>
   <v>       0.01359834      -0.05258802       0.18895032 </v>
   <v>       0.00746736       0.19961941       0.11831408 </v>
   <v>      -0.31094759      -0.12022220      -0.02992895 </v>
   <v>       0.10331335       0.13997951       0.05699671 </v>
   <v>      -0.01451344      -0.22741617       0.10400062 </v>
   <v>       0.01596037       0.05517026      -0.18947210 </v>
   <v>       0.28693649      -0.14760037      -0.06716065 </v>
   <v>      -0.06684565       0.18931755       0.00058099 </v>
   <v>      -0.01913342      -0.11467386      -0.01823154 </v>
   <v>      -0.05272581       0.06085722      -1.12109085 </v>
   <v>      -0.00154230      -0.03612790      -0.07916598 </v>
   <v>       0.59426766       0.84474136      -0.65802502 </v>
   <v>      -1.31257145      -0.00030394      -0.11827834 </v>
   <v>      -0.07648085      -0.01847403      -0.00474961 </v>
   <v>       0.16559657      -0.01429679      -1.04286045 </v>
   <v>       0.58329858      -0.85594018       1.59006543 </v>
   <v>       0.08958243      -0.04766581       1.11565227 </v>
   <v>       0.10843121       0.04990931      -1.13069224 </v>
   <v>       0.60310886      -0.84070456       0.66068119 </v>
   <v>      -0.01181206       0.03547909       0.07552841 </v>
   <v>      -0.08758323       0.01987213       0.00200501 </v>
   <v>      -1.30388186      -0.00210141       0.10968053 </v>
   <v>       0.60203020       0.85744955      -1.61915055 </v>
   <v>       0.15788621       0.01148266       1.03422961 </v>
   <v>      -0.07318410      -0.05921997       1.10562808 </v>
  </varray>
  <varray name="stress" >
   <v>      -5.64043983       0.06233771       0.05588494 </v>
   <v>       0.06233792     -14.26785350      -0.46129869 </v>
   <v>       0.05588500      -0.46129866     -11.73623970 </v>
  </varray>
  <energy>
   <i name="e_fr_energy">   -312.02983318 </i>
   <i name="e_wo_entrp">   -312.02983318 </i>
   <i name="e_0_energy">      0.00000000 </i>
  </energy>
  <time name="totalsc"> 1452.78 1462.44</time>
  <eigenvalues>
   <array>
    <dimension dim="1">band</dimension>
    <dimension dim="2">kpoint</dimension>
    <dimension dim="3">spin</dimension>
    <field>eigene</field>
    <field>occ</field>
    <set>
     <set comment="spin 1">
      <set comment="kpoint 1">
       <r>  -40.0211    1.0000 </r>
       <r>  -40.0208    1.0000 </r>
       <r>  -39.8811    1.0000 </r>
       <r>  -39.7849    1.0000 </r>
       <r>  -39.7518    1.0000 </r>
       <r>  -39.5663    1.0000 </r>
       <r>  -39.5660    1.0000 </r>
       <r>  -39.5499    1.0000 </r>
       <r>  -39.5497    1.0000 </r>
       <r>  -39.4433    1.0000 </r>
       <r>  -18.9455    1.0000 </r>
       <r>  -18.9379    1.0000 </r>
       <r>  -18.8657    1.0000 </r>
       <r>  -18.8606    1.0000 </r>
       <r>  -18.8585    1.0000 </r>
       <r>  -18.8534    1.0000 </r>
       <r>  -18.7665    1.0000 </r>
       <r>  -18.7600    1.0000 </r>
       <r>  -18.7535    1.0000 </r>
       <r>  -18.7468    1.0000 </r>
       <r>  -18.7111    1.0000 </r>
       <r>  -18.7072    1.0000 </r>
       <r>  -18.7012    1.0000 </r>
       <r>  -18.6974    1.0000 </r>
       <r>  -18.6941    1.0000 </r>
       <r>  -18.6892    1.0000 </r>
       <r>  -18.6497    1.0000 </r>
       <r>  -18.6488    1.0000 </r>
       <r>  -18.6418    1.0000 </r>
       <r>  -18.6409    1.0000 </r>
       <r>  -18.6388    1.0000 </r>
       <r>  -18.6386    1.0000 </r>
       <r>  -18.6381    1.0000 </r>
       <r>  -18.6363    1.0000 </r>
       <r>  -18.6341    1.0000 </r>
       <r>  -18.6331    1.0000 </r>
       <r>  -18.6319    1.0000 </r>
       <r>  -18.6295    1.0000 </r>
       <r>  -18.6293    1.0000 </r>
       <r>  -18.6287    1.0000 </r>
       <r>  -18.6286    1.0000 </r>
       <r>  -18.6267    1.0000 </r>
       <r>  -18.6233    1.0000 </r>
       <r>  -18.6206    1.0000 </r>
       <r>  -18.6205    1.0000 </r>
       <r>  -18.6188    1.0000 </r>
       <r>  -18.6185    1.0000 </r>
       <r>  -18.6166    1.0000 </r>
       <r>  -18.6162    1.0000 </r>
       <r>  -18.6122    1.0000 </r>
       <r>  -18.5600    1.0000 </r>
       <r>  -18.5588    1.0000 </r>
       <r>  -18.5542    1.0000 </r>
       <r>  -18.5493    1.0000 </r>
       <r>  -18.5465    1.0000 </r>
       <r>  -18.5455    1.0000 </r>
       <r>  -18.5374    1.0000 </r>
       <r>  -18.5337    1.0000 </r>
       <r>  -18.5325    1.0000 </r>
       <r>  -18.5325    1.0000 </r>
       <r>  -18.4952    1.0000 </r>
       <r>  -18.4938    1.0000 </r>
       <r>  -18.4817    1.0000 </r>
       <r>  -18.4815    1.0000 </r>
       <r>  -18.4801    1.0000 </r>
       <r>  -18.4782    1.0000 </r>
       <r>  -18.4758    1.0000 </r>
       <r>  -18.4748    1.0000 </r>
       <r>  -18.4736    1.0000 </r>
       <r>  -18.4730    1.0000 </r>
       <r>  -18.4726    1.0000 </r>
       <r>  -18.4720    1.0000 </r>
       <r>  -18.4674    1.0000 </r>
       <r>  -18.4639    1.0000 </r>
       <r>  -18.4627    1.0000 </r>
       <r>  -18.4589    1.0000 </r>
       <r>  -18.3979    1.0000 </r>
       <r>  -18.3966    1.0000 </r>
       <r>  -18.3916    1.0000 </r>
       <r>  -18.3913    1.0000 </r>
       <r>  -18.3870    1.0000 </r>
       <r>  -18.3854    1.0000 </r>
       <r>  -18.3785    1.0000 </r>
       <r>  -18.3783    1.0000 </r>
       <r>  -18.2995    1.0000 </r>
       <r>  -18.2989    1.0000 </r>
       <r>  -18.1843    1.0000 </r>
       <r>  -18.1838    1.0000 </r>
       <r>  -18.1714    1.0000 </r>
       <r>  -18.1702    1.0000 </r>
       <r>  -13.6691    1.0000 </r>
       <r>  -13.5199    1.0000 </r>
       <r>  -12.9006    1.0000 </r>
       <r>  -12.7909    1.0000 </r>
       <r>  -12.7604    1.0000 </r>
       <r>  -12.7534    1.0000 </r>
       <r>  -12.7000    1.0000 </r>
       <r>  -12.6955    1.0000 </r>
       <r>  -12.6824    1.0000 </r>
       <r>  -12.6642    1.0000 </r>
       <r>  -12.6279    1.0000 </r>
       <r>  -12.6114    1.0000 </r>
       <r>  -12.5611    1.0000 </r>
       <r>  -12.5195    1.0000 </r>
       <r>  -11.9578    1.0000 </r>
       <r>  -11.9046    1.0000 </r>
       <r>   -9.3209    1.0000 </r>
       <r>   -9.0264    1.0000 </r>
       <r>   -8.5315    1.0000 </r>
       <r>   -8.4881    1.0000 </r>
       <r>   -8.4778    1.0000 </r>
       <r>   -8.4357    1.0000 </r>
       <r>   -8.3091    1.0000 </r>
       <r>   -8.2687    1.0000 </r>
       <r>   -8.2513    1.0000 </r>
       <r>   -8.2112    1.0000 </r>
       <r>   -8.0212    1.0000 </r>
       <r>   -8.0189    1.0000 </r>
       <r>   -7.9853    1.0000 </r>
       <r>   -7.9832    1.0000 </r>
       <r>   -7.3487    1.0000 </r>
       <r>   -7.3477    1.0000 </r>
       <r>   -6.3690    1.0000 </r>
       <r>   -6.3622    1.0000 </r>
       <r>   -6.3361    1.0000 </r>
       <r>   -6.3329    1.0000 </r>
       <r>   -5.5239    1.0000 </r>
       <r>   -5.4894    1.0000 </r>
       <r>   -5.3514    1.0000 </r>
       <r>   -5.3326    1.0000 </r>
       <r>   -5.3307    1.0000 </r>
       <r>   -5.2404    1.0000 </r>
       <r>   -5.2032    1.0000 </r>
       <r>   -5.1639    1.0000 </r>
       <r>   -5.1139    1.0000 </r>
       <r>   -5.0497    1.0000 </r>
       <r>   -3.7995    1.0000 </r>
       <r>   -3.6470    1.0000 </r>
       <r>   -1.4031    1.0000 </r>
       <r>   -1.3492    1.0000 </r>
       <r>   -1.0665    1.0000 </r>
       <r>   -1.0233    1.0000 </r>
       <r>   -0.5510    1.0000 </r>
       <r>   -0.5147    1.0000 </r>
       <r>   -0.4573    1.0000 </r>
       <r>   -0.4557    1.0000 </r>
       <r>   -0.1831    1.0000 </r>
       <r>   -0.1550    1.0000 </r>
       <r>   -0.1511    1.0000 </r>
       <r>   -0.1281    1.0000 </r>
       <r>   -0.1246    1.0000 </r>
       <r>    0.2731    1.0000 </r>
       <r>    0.3084    1.0000 </r>
       <r>    0.4020    1.0000 </r>
       <r>    0.5285    1.0000 </r>
       <r>    0.5954    1.0000 </r>
       <r>    0.6352    1.0000 </r>
       <r>    0.6843    1.0000 </r>
       <r>    0.7436    1.0000 </r>
       <r>    0.7476    1.0000 </r>
       <r>    0.7527    1.0000 </r>
       <r>    0.7868    1.0000 </r>
       <r>    0.8023    1.0000 </r>
       <r>    0.8417    1.0000 </r>
       <r>    0.8774    1.0000 </r>
       <r>    0.9868    1.0000 </r>
       <r>    1.0094    1.0000 </r>
       <r>    1.0373    1.0000 </r>
       <r>    1.0775    1.0000 </r>
       <r>    1.0903    1.0000 </r>
       <r>    1.0997    1.0000 </r>
       <r>    1.2358    1.0000 </r>
       <r>    1.2615    1.0000 </r>
       <r>    1.3128    1.0000 </r>
       <r>    1.3610    1.0000 </r>
       <r>    1.3758    1.0000 </r>
       <r>    1.4433    1.0000 </r>
       <r>    1.4717    1.0000 </r>
       <r>    1.5177    1.0000 </r>
       <r>    1.5417    1.0000 </r>
       <r>    1.6715    1.0000 </r>
       <r>    1.6998    1.0000 </r>
       <r>    1.7332    1.0000 </r>
       <r>    1.7526    1.0000 </r>
       <r>    1.7577    1.0000 </r>
       <r>    1.8495    1.0000 </r>
       <r>    1.8955    1.0000 </r>
       <r>    1.8995    1.0000 </r>
       <r>    1.9472    1.0000 </r>
       <r>    1.9857    1.0000 </r>
       <r>    2.0024    1.0000 </r>
       <r>    2.0434    1.0000 </r>
       <r>    2.2597    1.0000 </r>
       <r>    2.2630    1.0000 </r>
       <r>    2.3527    1.0000 </r>
       <r>    2.4277    1.0000 </r>
       <r>    2.5730    1.0000 </r>
       <r>    2.5752    1.0000 </r>
       <r>    2.5822    1.0000 </r>
       <r>    2.5830    1.0000 </r>
       <r>    2.6050    1.0000 </r>
       <r>    2.6107    1.0000 </r>
       <r>    2.6414    1.0000 </r>
       <r>    2.6443    1.0000 </r>
       <r>    2.6746    1.0000 </r>
       <r>    2.7180    1.0000 </r>
       <r>    2.7504    1.0000 </r>
       <r>    2.7751    1.0000 </r>
       <r>    2.7891    1.0000 </r>
       <r>    2.8464    1.0000 </r>
       <r>    2.8630    1.0000 </r>
       <r>    2.9173    1.0000 </r>
       <r>    2.9189    1.0000 </r>
       <r>    2.9364    1.0000 </r>
       <r>    2.9609    1.0000 </r>
       <r>    2.9934    1.0000 </r>
       <r>    3.0498    1.0000 </r>
       <r>    3.1109    1.0000 </r>
       <r>    3.1255    1.0000 </r>
       <r>    3.1492    1.0000 </r>
       <r>    3.1696    1.0000 </r>
       <r>    3.1797    1.0000 </r>
       <r>    3.1931    1.0000 </r>
       <r>    3.2369    1.0000 </r>
       <r>    3.3010    1.0000 </r>
       <r>    3.3059    1.0000 </r>
       <r>    3.4176    1.0000 </r>
       <r>    3.4553    1.0000 </r>
       <r>    3.4591    1.0000 </r>
       <r>    3.5750    1.0000 </r>
       <r>    4.2004    1.0000 </r>
       <r>    4.2061    1.0000 </r>
       <r>    4.2275    1.0000 </r>
       <r>    4.2315    1.0000 </r>
       <r>    5.0939    0.0000 </r>
       <r>    5.1010    0.0000 </r>
       <r>    5.1295    0.0000 </r>
       <r>    5.1475    0.0000 </r>
       <r>    5.7616    0.0000 </r>
       <r>    5.7734    0.0000 </r>
       <r>    5.8062    0.0000 </r>
       <r>    5.8110    0.0000 </r>
       <r>    6.1030    0.0000 </r>
       <r>    6.1244    0.0000 </r>
       <r>    6.1478    0.0000 </r>
       <r>    6.1510    0.0000 </r>
       <r>    6.2401    0.0000 </r>
       <r>    6.2510    0.0000 </r>
       <r>    6.2731    0.0000 </r>
       <r>    6.2787    0.0000 </r>
       <r>    7.0941    0.0000 </r>
       <r>    7.2185    0.0000 </r>
       <r>    7.2451    0.0000 </r>
       <r>    7.3075    0.0000 </r>
       <r>    7.8124    0.0000 </r>
       <r>    7.8455    0.0000 </r>
       <r>    7.9288    0.0000 </r>
       <r>    7.9474    0.0000 </r>
       <r>    8.0091    0.0000 </r>
       <r>    8.0274    0.0000 </r>
       <r>    8.1697    0.0000 </r>
       <r>    8.1954    0.0000 </r>
       <r>    8.4722    0.0000 </r>
       <r>    8.5167    0.0000 </r>
       <r>    8.6854    0.0000 </r>
       <r>    8.7807    0.0000 </r>
       <r>    8.7942    0.0000 </r>
       <r>    8.9140    0.0000 </r>
       <r>    8.9630    0.0000 </r>
       <r>    8.9943    0.0000 </r>
       <r>    9.0172    0.0000 </r>
       <r>    9.0263    0.0000 </r>
       <r>    9.1068    0.0000 </r>
       <r>    9.1218    0.0000 </r>
       <r>    9.1280    0.0000 </r>
       <r>    9.2067    0.0000 </r>
       <r>    9.2217    0.0000 </r>
       <r>    9.2492    0.0000 </r>
       <r>    9.4049    0.0000 </r>
       <r>    9.6154    0.0000 </r>
      </set>
      <set comment="kpoint 2">
       <r>  -40.0211    1.0000 </r>
       <r>  -40.0208    1.0000 </r>
       <r>  -39.8811    1.0000 </r>
       <r>  -39.7849    1.0000 </r>
       <r>  -39.7518    1.0000 </r>
       <r>  -39.5663    1.0000 </r>
       <r>  -39.5660    1.0000 </r>
       <r>  -39.5499    1.0000 </r>
       <r>  -39.5497    1.0000 </r>
       <r>  -39.4433    1.0000 </r>
       <r>  -18.9455    1.0000 </r>
       <r>  -18.9379    1.0000 </r>
       <r>  -18.8657    1.0000 </r>
       <r>  -18.8605    1.0000 </r>
       <r>  -18.8585    1.0000 </r>
       <r>  -18.8534    1.0000 </r>
       <r>  -18.7665    1.0000 </r>
       <r>  -18.7600    1.0000 </r>
       <r>  -18.7535    1.0000 </r>
       <r>  -18.7468    1.0000 </r>
       <r>  -18.7109    1.0000 </r>
       <r>  -18.7070    1.0000 </r>
       <r>  -18.7011    1.0000 </r>
       <r>  -18.6973    1.0000 </r>
       <r>  -18.6940    1.0000 </r>
       <r>  -18.6891    1.0000 </r>
       <r>  -18.6502    1.0000 </r>
       <r>  -18.6494    1.0000 </r>
       <r>  -18.6420    1.0000 </r>
       <r>  -18.6411    1.0000 </r>
       <r>  -18.6398    1.0000 </r>
       <r>  -18.6391    1.0000 </r>
       <r>  -18.6363    1.0000 </r>
       <r>  -18.6351    1.0000 </r>
       <r>  -18.6346    1.0000 </r>
       <r>  -18.6337    1.0000 </r>
       <r>  -18.6324    1.0000 </r>
       <r>  -18.6315    1.0000 </r>
       <r>  -18.6306    1.0000 </r>
       <r>  -18.6295    1.0000 </r>
       <r>  -18.6268    1.0000 </r>
       <r>  -18.6249    1.0000 </r>
       <r>  -18.6226    1.0000 </r>
       <r>  -18.6209    1.0000 </r>
       <r>  -18.6198    1.0000 </r>
       <r>  -18.6194    1.0000 </r>
       <r>  -18.6182    1.0000 </r>
       <r>  -18.6163    1.0000 </r>
       <r>  -18.6160    1.0000 </r>
       <r>  -18.6122    1.0000 </r>
       <r>  -18.5600    1.0000 </r>
       <r>  -18.5587    1.0000 </r>
       <r>  -18.5542    1.0000 </r>
       <r>  -18.5493    1.0000 </r>
       <r>  -18.5467    1.0000 </r>
       <r>  -18.5456    1.0000 </r>
       <r>  -18.5374    1.0000 </r>
       <r>  -18.5337    1.0000 </r>
       <r>  -18.5326    1.0000 </r>
       <r>  -18.5324    1.0000 </r>
       <r>  -18.4952    1.0000 </r>
       <r>  -18.4938    1.0000 </r>
       <r>  -18.4817    1.0000 </r>
       <r>  -18.4815    1.0000 </r>
       <r>  -18.4801    1.0000 </r>
       <r>  -18.4782    1.0000 </r>
       <r>  -18.4758    1.0000 </r>
       <r>  -18.4748    1.0000 </r>
       <r>  -18.4736    1.0000 </r>
       <r>  -18.4730    1.0000 </r>
       <r>  -18.4726    1.0000 </r>
       <r>  -18.4721    1.0000 </r>
       <r>  -18.4674    1.0000 </r>
       <r>  -18.4639    1.0000 </r>
       <r>  -18.4627    1.0000 </r>
       <r>  -18.4589    1.0000 </r>
       <r>  -18.3979    1.0000 </r>
       <r>  -18.3966    1.0000 </r>
       <r>  -18.3916    1.0000 </r>
       <r>  -18.3913    1.0000 </r>
       <r>  -18.3870    1.0000 </r>
       <r>  -18.3854    1.0000 </r>
       <r>  -18.3785    1.0000 </r>
       <r>  -18.3783    1.0000 </r>
       <r>  -18.2996    1.0000 </r>
       <r>  -18.2989    1.0000 </r>
       <r>  -18.1843    1.0000 </r>
       <r>  -18.1838    1.0000 </r>
       <r>  -18.1714    1.0000 </r>
       <r>  -18.1702    1.0000 </r>
       <r>  -13.6690    1.0000 </r>
       <r>  -13.5198    1.0000 </r>
       <r>  -12.8937    1.0000 </r>
       <r>  -12.8074    1.0000 </r>
       <r>  -12.7555    1.0000 </r>
       <r>  -12.7482    1.0000 </r>
       <r>  -12.7133    1.0000 </r>
       <r>  -12.7000    1.0000 </r>
       <r>  -12.6673    1.0000 </r>
       <r>  -12.6605    1.0000 </r>
       <r>  -12.6219    1.0000 </r>
       <r>  -12.6170    1.0000 </r>
       <r>  -12.5637    1.0000 </r>
       <r>  -12.5191    1.0000 </r>
       <r>  -11.9577    1.0000 </r>
       <r>  -11.9046    1.0000 </r>
       <r>   -9.1799    1.0000 </r>
       <r>   -9.0142    1.0000 </r>
       <r>   -8.9045    1.0000 </r>
       <r>   -8.7367    1.0000 </r>
       <r>   -8.3975    1.0000 </r>
       <r>   -8.3841    1.0000 </r>
       <r>   -8.2518    1.0000 </r>
       <r>   -8.2504    1.0000 </r>
       <r>   -8.1946    1.0000 </r>
       <r>   -8.1833    1.0000 </r>
       <r>   -8.0495    1.0000 </r>
       <r>   -8.0482    1.0000 </r>
       <r>   -7.7442    1.0000 </r>
       <r>   -7.6317    1.0000 </r>
       <r>   -7.6256    1.0000 </r>
       <r>   -7.5127    1.0000 </r>
       <r>   -6.0230    1.0000 </r>
       <r>   -6.0171    1.0000 </r>
       <r>   -5.8296    1.0000 </r>
       <r>   -5.8281    1.0000 </r>
       <r>   -5.7965    1.0000 </r>
       <r>   -5.7941    1.0000 </r>
       <r>   -5.7258    1.0000 </r>
       <r>   -5.6556    1.0000 </r>
       <r>   -5.6460    1.0000 </r>
       <r>   -5.6351    1.0000 </r>
       <r>   -5.5257    1.0000 </r>
       <r>   -5.4499    1.0000 </r>
       <r>   -4.5032    1.0000 </r>
       <r>   -4.3455    1.0000 </r>
       <r>   -4.3342    1.0000 </r>
       <r>   -4.1592    1.0000 </r>
       <r>   -1.2449    1.0000 </r>
       <r>   -1.0197    1.0000 </r>
       <r>   -0.8883    1.0000 </r>
       <r>   -0.7094    1.0000 </r>
       <r>   -0.4400    1.0000 </r>
       <r>   -0.3152    1.0000 </r>
       <r>   -0.1157    1.0000 </r>
       <r>    0.0323    1.0000 </r>
       <r>    0.0467    1.0000 </r>
       <r>    0.0953    1.0000 </r>
       <r>    0.1984    1.0000 </r>
       <r>    0.2196    1.0000 </r>
       <r>    0.2577    1.0000 </r>
       <r>    0.2725    1.0000 </r>
       <r>    0.3808    1.0000 </r>
       <r>    0.4292    1.0000 </r>
       <r>    0.4391    1.0000 </r>
       <r>    0.4988    1.0000 </r>
       <r>    0.5292    1.0000 </r>
       <r>    0.5909    1.0000 </r>
       <r>    0.6103    1.0000 </r>
       <r>    0.6309    1.0000 </r>
       <r>    0.6384    1.0000 </r>
       <r>    0.6504    1.0000 </r>
       <r>    0.7172    1.0000 </r>
       <r>    0.9090    1.0000 </r>
       <r>    0.9784    1.0000 </r>
       <r>    1.0020    1.0000 </r>
       <r>    1.0258    1.0000 </r>
       <r>    1.0324    1.0000 </r>
       <r>    1.1510    1.0000 </r>
       <r>    1.1525    1.0000 </r>
       <r>    1.1905    1.0000 </r>
       <r>    1.2249    1.0000 </r>
       <r>    1.2388    1.0000 </r>
       <r>    1.2612    1.0000 </r>
       <r>    1.2689    1.0000 </r>
       <r>    1.3209    1.0000 </r>
       <r>    1.4650    1.0000 </r>
       <r>    1.4688    1.0000 </r>
       <r>    1.5046    1.0000 </r>
       <r>    1.5538    1.0000 </r>
       <r>    1.5571    1.0000 </r>
       <r>    1.5744    1.0000 </r>
       <r>    1.6127    1.0000 </r>
       <r>    1.6776    1.0000 </r>
       <r>    1.7701    1.0000 </r>
       <r>    1.8128    1.0000 </r>
       <r>    1.8443    1.0000 </r>
       <r>    1.8835    1.0000 </r>
       <r>    1.8902    1.0000 </r>
       <r>    1.9429    1.0000 </r>
       <r>    1.9640    1.0000 </r>
       <r>    1.9994    1.0000 </r>
       <r>    2.0749    1.0000 </r>
       <r>    2.1041    1.0000 </r>
       <r>    2.1281    1.0000 </r>
       <r>    2.1455    1.0000 </r>
       <r>    2.2291    1.0000 </r>
       <r>    2.2638    1.0000 </r>
       <r>    2.3013    1.0000 </r>
       <r>    2.3672    1.0000 </r>
       <r>    2.4103    1.0000 </r>
       <r>    2.4812    1.0000 </r>
       <r>    2.4989    1.0000 </r>
       <r>    2.5073    1.0000 </r>
       <r>    2.5498    1.0000 </r>
       <r>    2.5889    1.0000 </r>
       <r>    2.6185    1.0000 </r>
       <r>    2.6591    1.0000 </r>
       <r>    2.7452    1.0000 </r>
       <r>    2.7486    1.0000 </r>
       <r>    2.7917    1.0000 </r>
       <r>    2.8091    1.0000 </r>
       <r>    2.8284    1.0000 </r>
       <r>    2.8679    1.0000 </r>
       <r>    2.9221    1.0000 </r>
       <r>    2.9353    1.0000 </r>
       <r>    2.9540    1.0000 </r>
       <r>    2.9655    1.0000 </r>
       <r>    3.0217    1.0000 </r>
       <r>    3.0516    1.0000 </r>
       <r>    3.1430    1.0000 </r>
       <r>    3.1533    1.0000 </r>
       <r>    3.1681    1.0000 </r>
       <r>    3.2244    1.0000 </r>
       <r>    3.3048    1.0000 </r>
       <r>    3.3483    1.0000 </r>
       <r>    3.4588    1.0000 </r>
       <r>    3.4827    1.0000 </r>
       <r>    3.5247    1.0000 </r>
       <r>    3.5382    1.0000 </r>
       <r>    3.6016    1.0000 </r>
       <r>    3.6084    1.0000 </r>
       <r>    3.6657    1.0000 </r>
       <r>    3.7352    1.0000 </r>
       <r>    5.5705    0.0000 </r>
       <r>    5.5740    0.0000 </r>
       <r>    5.7181    0.0000 </r>
       <r>    5.7266    0.0000 </r>
       <r>    5.7426    0.0000 </r>
       <r>    5.7715    0.0000 </r>
       <r>    5.9065    0.0000 </r>
       <r>    5.9243    0.0000 </r>
       <r>    7.1600    0.0000 </r>
       <r>    7.2542    0.0000 </r>
       <r>    7.2684    0.0000 </r>
       <r>    7.3541    0.0000 </r>
       <r>    7.4013    0.0000 </r>
       <r>    7.4082    0.0000 </r>
       <r>    7.4556    0.0000 </r>
       <r>    7.4865    0.0000 </r>
       <r>    7.5030    0.0000 </r>
       <r>    7.5475    0.0000 </r>
       <r>    7.5846    0.0000 </r>
       <r>    7.6322    0.0000 </r>
       <r>    7.8110    0.0000 </r>
       <r>    7.8296    0.0000 </r>
       <r>    7.8311    0.0000 </r>
       <r>    7.8902    0.0000 </r>
       <r>    7.9085    0.0000 </r>
       <r>    7.9272    0.0000 </r>
       <r>    7.9523    0.0000 </r>
       <r>    7.9748    0.0000 </r>
       <r>    7.9998    0.0000 </r>
       <r>    8.0157    0.0000 </r>
       <r>    8.0437    0.0000 </r>
       <r>    8.1087    0.0000 </r>
       <r>    8.2386    0.0000 </r>
       <r>    8.2426    0.0000 </r>
       <r>    8.4474    0.0000 </r>
       <r>    8.6142    0.0000 </r>
       <r>    8.6800    0.0000 </r>
       <r>    8.7408    0.0000 </r>
       <r>    8.7483    0.0000 </r>
       <r>    8.7725    0.0000 </r>
       <r>    8.7907    0.0000 </r>
       <r>    8.8752    0.0000 </r>
       <r>    8.9341    0.0000 </r>
       <r>    8.9413    0.0000 </r>
       <r>    9.0595    0.0000 </r>
       <r>    9.3452    0.0000 </r>
      </set>
      <set comment="kpoint 3">
       <r>  -40.0211    1.0000 </r>
       <r>  -40.0208    1.0000 </r>
       <r>  -39.8811    1.0000 </r>
       <r>  -39.7849    1.0000 </r>
       <r>  -39.7518    1.0000 </r>
       <r>  -39.5663    1.0000 </r>
       <r>  -39.5660    1.0000 </r>
       <r>  -39.5499    1.0000 </r>
       <r>  -39.5497    1.0000 </r>
       <r>  -39.4433    1.0000 </r>
       <r>  -18.9457    1.0000 </r>
       <r>  -18.9377    1.0000 </r>
       <r>  -18.8657    1.0000 </r>
       <r>  -18.8606    1.0000 </r>
       <r>  -18.8586    1.0000 </r>
       <r>  -18.8534    1.0000 </r>
       <r>  -18.7665    1.0000 </r>
       <r>  -18.7600    1.0000 </r>
       <r>  -18.7535    1.0000 </r>
       <r>  -18.7468    1.0000 </r>
       <r>  -18.7111    1.0000 </r>
       <r>  -18.7072    1.0000 </r>
       <r>  -18.7012    1.0000 </r>
       <r>  -18.6974    1.0000 </r>
       <r>  -18.6941    1.0000 </r>
       <r>  -18.6892    1.0000 </r>
       <r>  -18.6497    1.0000 </r>
       <r>  -18.6487    1.0000 </r>
       <r>  -18.6419    1.0000 </r>
       <r>  -18.6409    1.0000 </r>
       <r>  -18.6388    1.0000 </r>
       <r>  -18.6386    1.0000 </r>
       <r>  -18.6381    1.0000 </r>
       <r>  -18.6363    1.0000 </r>
       <r>  -18.6340    1.0000 </r>
       <r>  -18.6332    1.0000 </r>
       <r>  -18.6319    1.0000 </r>
       <r>  -18.6295    1.0000 </r>
       <r>  -18.6293    1.0000 </r>
       <r>  -18.6287    1.0000 </r>
       <r>  -18.6286    1.0000 </r>
       <r>  -18.6267    1.0000 </r>
       <r>  -18.6233    1.0000 </r>
       <r>  -18.6207    1.0000 </r>
       <r>  -18.6204    1.0000 </r>
       <r>  -18.6189    1.0000 </r>
       <r>  -18.6184    1.0000 </r>
       <r>  -18.6166    1.0000 </r>
       <r>  -18.6161    1.0000 </r>
       <r>  -18.6121    1.0000 </r>
       <r>  -18.5600    1.0000 </r>
       <r>  -18.5588    1.0000 </r>
       <r>  -18.5541    1.0000 </r>
       <r>  -18.5494    1.0000 </r>
       <r>  -18.5466    1.0000 </r>
       <r>  -18.5455    1.0000 </r>
       <r>  -18.5374    1.0000 </r>
       <r>  -18.5339    1.0000 </r>
       <r>  -18.5325    1.0000 </r>
       <r>  -18.5323    1.0000 </r>
       <r>  -18.4951    1.0000 </r>
       <r>  -18.4938    1.0000 </r>
       <r>  -18.4817    1.0000 </r>
       <r>  -18.4815    1.0000 </r>
       <r>  -18.4801    1.0000 </r>
       <r>  -18.4782    1.0000 </r>
       <r>  -18.4758    1.0000 </r>
       <r>  -18.4748    1.0000 </r>
       <r>  -18.4736    1.0000 </r>
       <r>  -18.4731    1.0000 </r>
       <r>  -18.4726    1.0000 </r>
       <r>  -18.4720    1.0000 </r>
       <r>  -18.4674    1.0000 </r>
       <r>  -18.4639    1.0000 </r>
       <r>  -18.4627    1.0000 </r>
       <r>  -18.4589    1.0000 </r>
       <r>  -18.3979    1.0000 </r>
       <r>  -18.3966    1.0000 </r>
       <r>  -18.3916    1.0000 </r>
       <r>  -18.3914    1.0000 </r>
       <r>  -18.3870    1.0000 </r>
       <r>  -18.3854    1.0000 </r>
       <r>  -18.3785    1.0000 </r>
       <r>  -18.3783    1.0000 </r>
       <r>  -18.2998    1.0000 </r>
       <r>  -18.2987    1.0000 </r>
       <r>  -18.1843    1.0000 </r>
       <r>  -18.1838    1.0000 </r>
       <r>  -18.1714    1.0000 </r>
       <r>  -18.1702    1.0000 </r>
       <r>  -13.6689    1.0000 </r>
       <r>  -13.5200    1.0000 </r>
       <r>  -12.8991    1.0000 </r>
       <r>  -12.7903    1.0000 </r>
       <r>  -12.7604    1.0000 </r>
       <r>  -12.7532    1.0000 </r>
       <r>  -12.6999    1.0000 </r>
       <r>  -12.6957    1.0000 </r>
       <r>  -12.6821    1.0000 </r>
       <r>  -12.6644    1.0000 </r>
       <r>  -12.6296    1.0000 </r>
       <r>  -12.6120    1.0000 </r>
       <r>  -12.5611    1.0000 </r>
       <r>  -12.5205    1.0000 </r>
       <r>  -11.9569    1.0000 </r>
       <r>  -11.9062    1.0000 </r>
       <r>   -9.3111    1.0000 </r>
       <r>   -9.0332    1.0000 </r>
       <r>   -8.5491    1.0000 </r>
       <r>   -8.5072    1.0000 </r>
       <r>   -8.4958    1.0000 </r>
       <r>   -8.4525    1.0000 </r>
       <r>   -8.2893    1.0000 </r>
       <r>   -8.2481    1.0000 </r>
       <r>   -8.2306    1.0000 </r>
       <r>   -8.1924    1.0000 </r>
       <r>   -8.0252    1.0000 </r>
       <r>   -8.0228    1.0000 </r>
       <r>   -7.9878    1.0000 </r>
       <r>   -7.9866    1.0000 </r>
       <r>   -7.3517    1.0000 </r>
       <r>   -7.3503    1.0000 </r>
       <r>   -6.3611    1.0000 </r>
       <r>   -6.3508    1.0000 </r>
       <r>   -6.3286    1.0000 </r>
       <r>   -6.3208    1.0000 </r>
       <r>   -5.5422    1.0000 </r>
       <r>   -5.4733    1.0000 </r>
       <r>   -5.3909    1.0000 </r>
       <r>   -5.3789    1.0000 </r>
       <r>   -5.3682    1.0000 </r>
       <r>   -5.2623    1.0000 </r>
       <r>   -5.1448    1.0000 </r>
       <r>   -5.1070    1.0000 </r>
       <r>   -5.0751    1.0000 </r>
       <r>   -5.0005    1.0000 </r>
       <r>   -3.8729    1.0000 </r>
       <r>   -3.5619    1.0000 </r>
       <r>   -1.3263    1.0000 </r>
       <r>   -1.2889    1.0000 </r>
       <r>   -1.1733    1.0000 </r>
       <r>   -1.1075    1.0000 </r>
       <r>   -0.4252    1.0000 </r>
       <r>   -0.4214    1.0000 </r>
       <r>   -0.3955    1.0000 </r>
       <r>   -0.3786    1.0000 </r>
       <r>   -0.3759    1.0000 </r>
       <r>   -0.3578    1.0000 </r>
       <r>   -0.2405    1.0000 </r>
       <r>   -0.2372    1.0000 </r>
       <r>   -0.1339    1.0000 </r>
       <r>   -0.1031    1.0000 </r>
       <r>    0.2163    1.0000 </r>
       <r>    0.2650    1.0000 </r>
       <r>    0.2899    1.0000 </r>
       <r>    0.3592    1.0000 </r>
       <r>    0.3983    1.0000 </r>
       <r>    0.4483    1.0000 </r>
       <r>    0.5724    1.0000 </r>
       <r>    0.5743    1.0000 </r>
       <r>    0.7265    1.0000 </r>
       <r>    0.7691    1.0000 </r>
       <r>    0.7718    1.0000 </r>
       <r>    0.8188    1.0000 </r>
       <r>    0.8193    1.0000 </r>
       <r>    0.9564    1.0000 </r>
       <r>    1.0423    1.0000 </r>
       <r>    1.0905    1.0000 </r>
       <r>    1.1146    1.0000 </r>
       <r>    1.1928    1.0000 </r>
       <r>    1.2585    1.0000 </r>
       <r>    1.2616    1.0000 </r>
       <r>    1.3989    1.0000 </r>
       <r>    1.4041    1.0000 </r>
       <r>    1.4658    1.0000 </r>
       <r>    1.6245    1.0000 </r>
       <r>    1.6429    1.0000 </r>
       <r>    1.6681    1.0000 </r>
       <r>    1.6877    1.0000 </r>
       <r>    1.7380    1.0000 </r>
       <r>    1.7738    1.0000 </r>
       <r>    1.7889    1.0000 </r>
       <r>    1.8271    1.0000 </r>
       <r>    1.8322    1.0000 </r>
       <r>    1.9268    1.0000 </r>
       <r>    1.9613    1.0000 </r>
       <r>    1.9650    1.0000 </r>
       <r>    2.0248    1.0000 </r>
       <r>    2.0621    1.0000 </r>
       <r>    2.0911    1.0000 </r>
       <r>    2.1492    1.0000 </r>
       <r>    2.1534    1.0000 </r>
       <r>    2.2589    1.0000 </r>
       <r>    2.3079    1.0000 </r>
       <r>    2.4268    1.0000 </r>
       <r>    2.4745    1.0000 </r>
       <r>    2.5068    1.0000 </r>
       <r>    2.5304    1.0000 </r>
       <r>    2.5416    1.0000 </r>
       <r>    2.5840    1.0000 </r>
       <r>    2.5894    1.0000 </r>
       <r>    2.5914    1.0000 </r>
       <r>    2.5944    1.0000 </r>
       <r>    2.6282    1.0000 </r>
       <r>    2.7337    1.0000 </r>
       <r>    2.7539    1.0000 </r>
       <r>    2.7555    1.0000 </r>
       <r>    2.7888    1.0000 </r>
       <r>    2.7910    1.0000 </r>
       <r>    2.8143    1.0000 </r>
       <r>    2.8279    1.0000 </r>
       <r>    2.8627    1.0000 </r>
       <r>    2.8648    1.0000 </r>
       <r>    2.9190    1.0000 </r>
       <r>    2.9287    1.0000 </r>
       <r>    2.9820    1.0000 </r>
       <r>    3.0219    1.0000 </r>
       <r>    3.0322    1.0000 </r>
       <r>    3.0619    1.0000 </r>
       <r>    3.0745    1.0000 </r>
       <r>    3.1522    1.0000 </r>
       <r>    3.2999    1.0000 </r>
       <r>    3.3429    1.0000 </r>
       <r>    3.3801    1.0000 </r>
       <r>    3.4059    1.0000 </r>
       <r>    3.4537    1.0000 </r>
       <r>    3.4651    1.0000 </r>
       <r>    3.4786    1.0000 </r>
       <r>    3.5113    1.0000 </r>
       <r>    3.5858    1.0000 </r>
       <r>    4.2490    1.0000 </r>
       <r>    4.2545    1.0000 </r>
       <r>    4.2778    1.0000 </r>
       <r>    4.2835    1.0000 </r>
       <r>    5.1621    0.0000 </r>
       <r>    5.1721    0.0000 </r>
       <r>    5.2036    0.0000 </r>
       <r>    5.2047    0.0000 </r>
       <r>    5.7708    0.0000 </r>
       <r>    5.7813    0.0000 </r>
       <r>    5.8130    0.0000 </r>
       <r>    5.8181    0.0000 </r>
       <r>    6.1642    0.0000 </r>
       <r>    6.1773    0.0000 </r>
       <r>    6.1990    0.0000 </r>
       <r>    6.2008    0.0000 </r>
       <r>    6.2476    0.0000 </r>
       <r>    6.2651    0.0000 </r>
       <r>    6.2865    0.0000 </r>
       <r>    6.2901    0.0000 </r>
       <r>    6.6700    0.0000 </r>
       <r>    6.9571    0.0000 </r>
       <r>    6.9985    0.0000 </r>
       <r>    7.0856    0.0000 </r>
       <r>    7.2043    0.0000 </r>
       <r>    7.3808    0.0000 </r>
       <r>    7.4842    0.0000 </r>
       <r>    7.5193    0.0000 </r>
       <r>    7.7772    0.0000 </r>
       <r>    7.8431    0.0000 </r>
       <r>    7.9428    0.0000 </r>
       <r>    7.9797    0.0000 </r>
       <r>    8.0287    0.0000 </r>
       <r>    8.3061    0.0000 </r>
       <r>    8.3400    0.0000 </r>
       <r>    8.4707    0.0000 </r>
       <r>    8.6396    0.0000 </r>
       <r>    8.8338    0.0000 </r>
       <r>    8.9131    0.0000 </r>
       <r>    8.9379    0.0000 </r>
       <r>    9.0272    0.0000 </r>
       <r>    9.0504    0.0000 </r>
       <r>    9.0682    0.0000 </r>
       <r>    9.1284    0.0000 </r>
       <r>    9.1420    0.0000 </r>
       <r>    9.1540    0.0000 </r>
       <r>    9.1862    0.0000 </r>
       <r>    9.2001    0.0000 </r>
       <r>    9.5163    0.0000 </r>
       <r>    9.6633    0.0000 </r>
      </set>
      <set comment="kpoint 4">
       <r>  -40.0211    1.0000 </r>
       <r>  -40.0208    1.0000 </r>
       <r>  -39.8811    1.0000 </r>
       <r>  -39.7849    1.0000 </r>
       <r>  -39.7518    1.0000 </r>
       <r>  -39.5663    1.0000 </r>
       <r>  -39.5660    1.0000 </r>
       <r>  -39.5499    1.0000 </r>
       <r>  -39.5497    1.0000 </r>
       <r>  -39.4433    1.0000 </r>
       <r>  -18.9457    1.0000 </r>
       <r>  -18.9377    1.0000 </r>
       <r>  -18.8657    1.0000 </r>
       <r>  -18.8605    1.0000 </r>
       <r>  -18.8585    1.0000 </r>
       <r>  -18.8534    1.0000 </r>
       <r>  -18.7665    1.0000 </r>
       <r>  -18.7600    1.0000 </r>
       <r>  -18.7535    1.0000 </r>
       <r>  -18.7468    1.0000 </r>
       <r>  -18.7109    1.0000 </r>
       <r>  -18.7070    1.0000 </r>
       <r>  -18.7011    1.0000 </r>
       <r>  -18.6973    1.0000 </r>
       <r>  -18.6940    1.0000 </r>
       <r>  -18.6891    1.0000 </r>
       <r>  -18.6502    1.0000 </r>
       <r>  -18.6494    1.0000 </r>
       <r>  -18.6420    1.0000 </r>
       <r>  -18.6411    1.0000 </r>
       <r>  -18.6398    1.0000 </r>
       <r>  -18.6391    1.0000 </r>
       <r>  -18.6364    1.0000 </r>
       <r>  -18.6351    1.0000 </r>
       <r>  -18.6344    1.0000 </r>
       <r>  -18.6337    1.0000 </r>
       <r>  -18.6324    1.0000 </r>
       <r>  -18.6315    1.0000 </r>
       <r>  -18.6306    1.0000 </r>
       <r>  -18.6295    1.0000 </r>
       <r>  -18.6268    1.0000 </r>
       <r>  -18.6249    1.0000 </r>
       <r>  -18.6226    1.0000 </r>
       <r>  -18.6210    1.0000 </r>
       <r>  -18.6198    1.0000 </r>
       <r>  -18.6193    1.0000 </r>
       <r>  -18.6182    1.0000 </r>
       <r>  -18.6164    1.0000 </r>
       <r>  -18.6159    1.0000 </r>
       <r>  -18.6122    1.0000 </r>
       <r>  -18.5600    1.0000 </r>
       <r>  -18.5588    1.0000 </r>
       <r>  -18.5541    1.0000 </r>
       <r>  -18.5494    1.0000 </r>
       <r>  -18.5467    1.0000 </r>
       <r>  -18.5456    1.0000 </r>
       <r>  -18.5374    1.0000 </r>
       <r>  -18.5339    1.0000 </r>
       <r>  -18.5325    1.0000 </r>
       <r>  -18.5323    1.0000 </r>
       <r>  -18.4951    1.0000 </r>
       <r>  -18.4938    1.0000 </r>
       <r>  -18.4816    1.0000 </r>
       <r>  -18.4815    1.0000 </r>
       <r>  -18.4801    1.0000 </r>
       <r>  -18.4782    1.0000 </r>
       <r>  -18.4758    1.0000 </r>
       <r>  -18.4748    1.0000 </r>
       <r>  -18.4736    1.0000 </r>
       <r>  -18.4731    1.0000 </r>
[...]
       <r>    8.8689    0.0000 </r>
       <r>    8.8972    0.0000 </r>
       <r>    8.9019    0.0000 </r>
       <r>    8.9151    0.0000 </r>
       <r>    8.9387    0.0000 </r>
      </set>
     </set>
    </set>
   </array>
  </eigenvalues>
  <separator name="orbital magnetization" >
   <v name="MAGDIPOLOUT">      0.00000000      0.00000000      0.00000000</v>
  </separator>
  <dos>
   <i name="efermi">      4.35951824 </i>
   <total>
    <array>
     <dimension dim="1">gridpoints</dimension>
     <dimension dim="2">spin</dimension>
     <field>energy</field>
     <field>total</field>
     <field>integrated</field>
     <set>
      <set comment="spin 1">
       <r>   -42.5053     0.0000     0.0000 </r>
       <r>   -42.3232     0.0000     0.0000 </r>
       <r>   -42.1410     0.0000     0.0000 </r>
       <r>   -41.9588     0.0000     0.0000 </r>
       <r>   -41.7766     0.0000     0.0000 </r>
       <r>   -41.5944     0.0000     0.0000 </r>
       <r>   -41.4123     0.0000     0.0000 </r>
       <r>   -41.2301     0.0000     0.0000 </r>
       <r>   -41.0479     0.0000     0.0000 </r>
       <r>   -40.8657     0.0000     0.0000 </r>
       <r>   -40.6836     0.0000     0.0000 </r>
       <r>   -40.5014     0.0000     0.0000 </r>
       <r>   -40.3192     0.0000     0.0000 </r>
       <r>   -40.1370     0.0000     0.0000 </r>
       <r>   -39.9549     0.0000     4.0000 </r>
       <r>   -39.7727     0.0000     8.0000 </r>
       <r>   -39.5905     0.0000    10.0000 </r>
       <r>   -39.4083     0.0000    20.0000 </r>
       <r>   -39.2262     0.0000    20.0000 </r>
       <r>   -39.0440     0.0000    20.0000 </r>
       <r>   -38.8618     0.0000    20.0000 </r>
       <r>   -38.6796     0.0000    20.0000 </r>
       <r>   -38.4974     0.0000    20.0000 </r>
       <r>   -38.3153     0.0000    20.0000 </r>
       <r>   -38.1331     0.0000    20.0000 </r>
       <r>   -37.9509     0.0000    20.0000 </r>
       <r>   -37.7687     0.0000    20.0000 </r>
       <r>   -37.5866     0.0000    20.0000 </r>
       <r>   -37.4044     0.0000    20.0000 </r>
       <r>   -37.2222     0.0000    20.0000 </r>
       <r>   -37.0400     0.0000    20.0000 </r>
       <r>   -36.8579     0.0000    20.0000 </r>
       <r>   -36.6757     0.0000    20.0000 </r>
       <r>   -36.4935     0.0000    20.0000 </r>
       <r>   -36.3113     0.0000    20.0000 </r>
       <r>   -36.1292     0.0000    20.0000 </r>
       <r>   -35.9470     0.0000    20.0000 </r>
       <r>   -35.7648     0.0000    20.0000 </r>
       <r>   -35.5826     0.0000    20.0000 </r>
       <r>   -35.4005     0.0000    20.0000 </r>
       <r>   -35.2183     0.0000    20.0000 </r>
       <r>   -35.0361     0.0000    20.0000 </r>
       <r>   -34.8539     0.0000    20.0000 </r>
       <r>   -34.6717     0.0000    20.0000 </r>
       <r>   -34.4896     0.0000    20.0000 </r>
       <r>   -34.3074     0.0000    20.0000 </r>
       <r>   -34.1252     0.0000    20.0000 </r>
       <r>   -33.9430     0.0000    20.0000 </r>
       <r>   -33.7609     0.0000    20.0000 </r>
       <r>   -33.5787     0.0000    20.0000 </r>
       <r>   -33.3965     0.0000    20.0000 </r>
       <r>   -33.2143     0.0000    20.0000 </r>
       <r>   -33.0322     0.0000    20.0000 </r>
       <r>   -32.8500     0.0000    20.0000 </r>
       <r>   -32.6678     0.0000    20.0000 </r>
       <r>   -32.4856     0.0000    20.0000 </r>
       <r>   -32.3035     0.0000    20.0000 </r>
       <r>   -32.1213     0.0000    20.0000 </r>
       <r>   -31.9391     0.0000    20.0000 </r>
       <r>   -31.7569     0.0000    20.0000 </r>
       <r>   -31.5748     0.0000    20.0000 </r>
       <r>   -31.3926     0.0000    20.0000 </r>
       <r>   -31.2104     0.0000    20.0000 </r>
       <r>   -31.0282     0.0000    20.0000 </r>
       <r>   -30.8460     0.0000    20.0000 </r>
       <r>   -30.6639     0.0000    20.0000 </r>
       <r>   -30.4817     0.0000    20.0000 </r>
       <r>   -30.2995     0.0000    20.0000 </r>
       <r>   -30.1173     0.0000    20.0000 </r>
       <r>   -29.9352     0.0000    20.0000 </r>
       <r>   -29.7530     0.0000    20.0000 </r>
       <r>   -29.5708     0.0000    20.0000 </r>
       <r>   -29.3886     0.0000    20.0000 </r>
       <r>   -29.2065     0.0000    20.0000 </r>
       <r>   -29.0243     0.0000    20.0000 </r>
       <r>   -28.8421     0.0000    20.0000 </r>
       <r>   -28.6599     0.0000    20.0000 </r>
       <r>   -28.4778     0.0000    20.0000 </r>
       <r>   -28.2956     0.0000    20.0000 </r>
       <r>   -28.1134     0.0000    20.0000 </r>
       <r>   -27.9312     0.0000    20.0000 </r>
       <r>   -27.7490     0.0000    20.0000 </r>
       <r>   -27.5669     0.0000    20.0000 </r>
       <r>   -27.3847     0.0000    20.0000 </r>
       <r>   -27.2025     0.0000    20.0000 </r>
       <r>   -27.0203     0.0000    20.0000 </r>
       <r>   -26.8382     0.0000    20.0000 </r>
       <r>   -26.6560     0.0000    20.0000 </r>
       <r>   -26.4738     0.0000    20.0000 </r>
       <r>   -26.2916     0.0000    20.0000 </r>
       <r>   -26.1095     0.0000    20.0000 </r>
       <r>   -25.9273     0.0000    20.0000 </r>
       <r>   -25.7451     0.0000    20.0000 </r>
       <r>   -25.5629     0.0000    20.0000 </r>
       <r>   -25.3808     0.0000    20.0000 </r>
       <r>   -25.1986     0.0000    20.0000 </r>
       <r>   -25.0164     0.0000    20.0000 </r>
       <r>   -24.8342     0.0000    20.0000 </r>
       <r>   -24.6521     0.0000    20.0000 </r>
       <r>   -24.4699     0.0000    20.0000 </r>
       <r>   -24.2877     0.0000    20.0000 </r>
       <r>   -24.1055     0.0000    20.0000 </r>
       <r>   -23.9233     0.0000    20.0000 </r>
       <r>   -23.7412     0.0000    20.0000 </r>
       <r>   -23.5590     0.0000    20.0000 </r>
       <r>   -23.3768     0.0000    20.0000 </r>
       <r>   -23.1946     0.0000    20.0000 </r>
       <r>   -23.0125     0.0000    20.0000 </r>
       <r>   -22.8303     0.0000    20.0000 </r>
       <r>   -22.6481     0.0000    20.0000 </r>
       <r>   -22.4659     0.0000    20.0000 </r>
       <r>   -22.2838     0.0000    20.0000 </r>
       <r>   -22.1016     0.0000    20.0000 </r>
       <r>   -21.9194     0.0000    20.0000 </r>
       <r>   -21.7372     0.0000    20.0000 </r>
       <r>   -21.5551     0.0000    20.0000 </r>
       <r>   -21.3729     0.0000    20.0000 </r>
       <r>   -21.1907     0.0000    20.0000 </r>
       <r>   -21.0085     0.0000    20.0000 </r>
       <r>   -20.8264     0.0000    20.0000 </r>
       <r>   -20.6442     0.0000    20.0000 </r>
       <r>   -20.4620     0.0000    20.0000 </r>
       <r>   -20.2798     0.0000    20.0000 </r>
       <r>   -20.0976     0.0000    20.0000 </r>
       <r>   -19.9155     0.0000    20.0000 </r>
       <r>   -19.7333     0.0000    20.0000 </r>
       <r>   -19.5511     0.0000    20.0000 </r>
       <r>   -19.3689     0.0000    20.0000 </r>
       <r>   -19.1868     0.0000    20.0000 </r>
       <r>   -19.0046     0.0000    20.0000 </r>
       <r>   -18.8224     0.0000    32.0000 </r>
       <r>   -18.6402     0.0000    60.0000 </r>
       <r>   -18.4581     0.0000   152.0000 </r>
       <r>   -18.2759     0.0000   172.0000 </r>
       <r>   -18.0937     0.0000   180.0000 </r>
       <r>   -17.9115     0.0000   180.0000 </r>
       <r>   -17.7294     0.0000   180.0000 </r>
       <r>   -17.5472     0.0000   180.0000 </r>
       <r>   -17.3650     0.0000   180.0000 </r>
       <r>   -17.1828     0.0000   180.0000 </r>
       <r>   -17.0006     0.0000   180.0000 </r>
       <r>   -16.8185     0.0000   180.0000 </r>
       <r>   -16.6363     0.0000   180.0000 </r>
       <r>   -16.4541     0.0000   180.0000 </r>
       <r>   -16.2719     0.0000   180.0000 </r>
       <r>   -16.0898     0.0000   180.0000 </r>
       <r>   -15.9076     0.0000   180.0000 </r>
       <r>   -15.7254     0.0000   180.0000 </r>
       <r>   -15.5432     0.0000   180.0000 </r>
       <r>   -15.3611     0.0000   180.0000 </r>
       <r>   -15.1789     0.0000   180.0000 </r>
       <r>   -14.9967     0.0000   180.0000 </r>
       <r>   -14.8145     0.0000   180.0000 </r>
       <r>   -14.6324     0.0000   180.0000 </r>
       <r>   -14.4502     0.0000   180.0000 </r>
       <r>   -14.2680     0.0000   180.0000 </r>
       <r>   -14.0858     0.0000   180.0000 </r>
       <r>   -13.9037     0.0000   180.0000 </r>
       <r>   -13.7215     0.0000   180.0000 </r>
       <r>   -13.5393     0.0000   182.0000 </r>
       <r>   -13.3571     0.0000   184.0000 </r>
       <r>   -13.1749     0.0000   184.0000 </r>
       <r>   -12.9928     0.0000   184.0000 </r>
       <r>   -12.8106     0.0000   186.0000 </r>
       <r>   -12.6284   181.5239   201.4574 </r>
       <r>   -12.4462     0.0000   208.0000 </r>
       <r>   -12.2641     0.0000   208.0000 </r>
       <r>   -12.0819     0.0000   208.0000 </r>
       <r>   -11.8997     0.0000   212.0000 </r>
       <r>   -11.7175     0.0000   212.0000 </r>
       <r>   -11.5354     0.0000   212.0000 </r>
       <r>   -11.3532     0.0000   212.0000 </r>
       <r>   -11.1710     0.0000   212.0000 </r>
       <r>   -10.9888     0.0000   212.0000 </r>
       <r>   -10.8067     0.0000   212.0000 </r>
       <r>   -10.6245     0.0000   212.0000 </r>
       <r>   -10.4423     0.0000   212.0000 </r>
       <r>   -10.2601     0.0000   212.0000 </r>
       <r>   -10.0780     0.0000   212.0000 </r>
       <r>    -9.8958     0.0000   212.0000 </r>
       <r>    -9.7136     0.0000   212.0000 </r>
       <r>    -9.5314     0.0000   212.0000 </r>
       <r>    -9.3492     0.0000   212.0000 </r>
       <r>    -9.1671    10.7395   212.8641 </r>
       <r>    -8.9849    13.6937   215.7050 </r>
       <r>    -8.8027    18.4757   217.0569 </r>
       <r>    -8.6205    12.4759   219.8762 </r>
       <r>    -8.4384    27.5688   222.8923 </r>
       <r>    -8.2562     6.7454   227.9777 </r>
       <r>    -8.0740    28.3608   230.5979 </r>
       <r>    -7.8918    19.8868   235.4627 </r>
       <r>    -7.7097    22.4466   238.6822 </r>
       <r>    -7.5275    19.6979   242.2068 </r>
       <r>    -7.3453     0.0000   244.0000 </r>
       <r>    -7.1631     0.0000   244.0000 </r>
       <r>    -6.9810     0.0000   244.0000 </r>
       <r>    -6.7988     0.0000   244.0000 </r>
       <r>    -6.6166     0.0000   244.0000 </r>
       <r>    -6.4344     0.0000   244.0000 </r>
       <r>    -6.2522     9.8962   244.4955 </r>
       <r>    -6.0701    27.6019   247.9569 </r>
       <r>    -5.8879    22.1770   251.7959 </r>
       <r>    -5.7057    28.2298   256.1553 </r>
       <r>    -5.5235    18.9602   260.3301 </r>
       <r>    -5.3414    19.7471   264.1782 </r>
       <r>    -5.1592    10.8148   267.0967 </r>
       <r>    -4.9770     3.8033   268.1690 </r>
       <r>    -4.7948     7.6137   269.3532 </r>
       <r>    -4.6127     9.5118   270.8611 </r>
       <r>    -4.4305     7.6276   272.5918 </r>
       <r>    -4.2483     7.1068   273.7746 </r>
       <r>    -4.0661     5.5490   275.0129 </r>
       <r>    -3.8840     2.3349   275.7300 </r>
       <r>    -3.7018     0.6303   275.9674 </r>
       <r>    -3.5196     0.0000   276.0000 </r>
       <r>    -3.3374     0.0000   276.0000 </r>
       <r>    -3.1553     0.0000   276.0000 </r>
       <r>    -2.9731     0.0000   276.0000 </r>
       <r>    -2.7909     0.0000   276.0000 </r>
       <r>    -2.6087     0.0000   276.0000 </r>
       <r>    -2.4265     0.0000   276.0000 </r>
       <r>    -2.2444     0.0000   276.0000 </r>
       <r>    -2.0622     0.0000   276.0000 </r>
       <r>    -1.8800     0.0000   276.0000 </r>
       <r>    -1.6978     0.0000   276.0000 </r>
       <r>    -1.5157     0.0000   276.0000 </r>
       <r>    -1.3335     1.1962   276.0269 </r>
       <r>    -1.1513     8.8298   277.0615 </r>
       <r>    -0.9691    13.1067   278.9952 </r>
       <r>    -0.7870    11.5220   281.3951 </r>
       <r>    -0.6048     6.0730   282.9626 </r>
       <r>    -0.4226    13.2086   284.7361 </r>
       <r>    -0.2404    21.8450   288.2161 </r>
       <r>    -0.0583    35.9935   293.4963 </r>
       <r>     0.1239    27.2914   300.3953 </r>
       <r>     0.3061    43.1683   305.7470 </r>
       <r>     0.4883    38.5951   313.1836 </r>
       <r>     0.6704    38.5330   320.6863 </r>
       <r>     0.8526    34.9215   326.7701 </r>
       <r>     1.0348    56.0615   333.9716 </r>
       <r>     1.2170    39.9431   342.3372 </r>
       <r>     1.3992    32.3999   350.7388 </r>
       <r>     1.5813    50.7584   359.3646 </r>
       <r>     1.7635    43.9921   367.8992 </r>
       <r>     1.9457    47.1426   377.7736 </r>
       <r>     2.1279    37.0027   385.4624 </r>
       <r>     2.3100    40.8242   392.8923 </r>
       <r>     2.4922    55.6558   402.1258 </r>
       <r>     2.6744    59.8799   413.5534 </r>
       <r>     2.8566    68.6842   425.6182 </r>
       <r>     3.0387    66.8724   438.7824 </r>
       <r>     3.2209    40.4819   448.2384 </r>
       <r>     3.4031    31.2847   454.4802 </r>
       <r>     3.5853    21.1081   461.6457 </r>
       <r>     3.7674    14.7021   464.6230 </r>
       <r>     3.9496     8.7349   466.7086 </r>
       <r>     4.1318     3.3284   467.8077 </r>
       <r>     4.3140     0.0000   468.0000 </r>
       <r>     4.4962     0.0000   468.0000 </r>
       <r>     4.6783     0.0000   468.0000 </r>
       <r>     4.8605     0.0000   468.0000 </r>
       <r>     5.0427     0.0000   468.0000 </r>
       <r>     5.2249     1.6278   468.0694 </r>
       <r>     5.4070     5.6030   468.7279 </r>
       <r>     5.5892     9.4973   470.1108 </r>
       <r>     5.7714    24.8453   471.9347 </r>
       <r>     5.9536    14.1009   476.1045 </r>
       <r>     6.1357    11.7919   478.4584 </r>
       <r>     6.3179    12.0299   480.5758 </r>
       <r>     6.5001    13.8250   482.9312 </r>
       <r>     6.6823    15.5077   485.6082 </r>
       <r>     6.8644    17.2199   488.5839 </r>
       <r>     7.0466    20.2941   491.9409 </r>
       <r>     7.2288    30.7689   496.4308 </r>
       <r>     7.4110    49.0254   503.2780 </r>
       <r>     7.5931    25.4266   509.7038 </r>
       <r>     7.7753    45.5707   515.4305 </r>
       <r>     7.9575    49.4205   524.0871 </r>
       <r>     8.1397    24.4858   530.6324 </r>
       <r>     8.3219    18.6008   534.4439 </r>
       <r>     8.5040    21.0481   537.9056 </r>
       <r>     8.6862    26.6922   542.3812 </r>
       <r>     8.8684    49.0008   548.4593 </r>
       <r>     9.0506    26.0689   555.6583 </r>
       <r>     9.2327     8.4443   558.5183 </r>
       <r>     9.4149     3.6643   559.6440 </r>
       <r>     9.5971     0.5528   559.9871 </r>
       <r>     9.7793     0.0000   560.0000 </r>
       <r>     9.9614     0.0000   560.0000 </r>
       <r>    10.1436     0.0000   560.0000 </r>
       <r>    10.3258     0.0000   560.0000 </r>
       <r>    10.5080     0.0000   560.0000 </r>
       <r>    10.6901     0.0000   560.0000 </r>
       <r>    10.8723     0.0000   560.0000 </r>
       <r>    11.0545     0.0000   560.0000 </r>
       <r>    11.2367     0.0000   560.0000 </r>
       <r>    11.4188     0.0000   560.0000 </r>
       <r>    11.6010     0.0000   560.0000 </r>
       <r>    11.7832     0.0000   560.0000 </r>
       <r>    11.9654     0.0000   560.0000 </r>
       <r>    12.1476     0.0000   560.0000 </r>
      </set>
     </set>
    </array>
   </total>
  </dos>
 </calculation>
 <structure name="finalpos" >
  <crystal>
   <varray name="basis" >
    <v>      11.17850000       0.00000000       0.00000000 </v>
    <v>       0.00000000       9.57460000       0.00000000 </v>
    <v>       0.00000000       0.00000000      11.18240000 </v>
   </varray>
   <i name="volume">   1196.84853820 </i>
   <varray name="rec_basis" >
    <v>       0.08945744       0.00000000       0.00000000 </v>
    <v>       0.00000000       0.10444301       0.00000000 </v>
    <v>       0.00000000       0.00000000       0.08942624 </v>
   </varray>
  </crystal>
  <varray name="positions" >
   <v>       0.37539000       0.00017000       0.43687000 </v>
   <v>       0.12461000       0.99984000       0.18687000 </v>
   <v>       0.37461000       0.00017000       0.18687000 </v>
   <v>       0.87461000       0.00017000       0.18687000 </v>
   <v>       0.12539000       0.99984000       0.93687000 </v>
   <v>       0.37539000       0.00017000       0.93687000 </v>
   <v>       0.12461000       0.99984000       0.68687000 </v>
   <v>       0.37461000       0.00017000       0.68687000 </v>
   <v>       0.87539000       0.00017000       0.93687000 </v>
   <v>       0.87461000       0.00017000       0.68687000 </v>
   <v>       0.62539000       0.99984000       0.43687000 </v>
   <v>       0.87539000       0.00017000       0.43687000 </v>
   <v>       0.62539000       0.99984000       0.93687000 </v>
   <v>       0.00013000       0.29519000       0.06281000 </v>
   <v>       0.25013000       0.70481000       0.06281000 </v>
   <v>       0.24987000       0.29519000       0.31282000 </v>
   <v>       0.49987000       0.70481000       0.31282000 </v>
   <v>       0.50013000       0.29519000       0.06281000 </v>
   <v>       0.75013000       0.70481000       0.06281000 </v>
   <v>       0.74987000       0.29519000       0.31282000 </v>
   <v>       0.99987000       0.70481000       0.31282000 </v>
   <v>       0.00013000       0.29519000       0.56281000 </v>
   <v>       0.25013000       0.70481000       0.56281000 </v>
   <v>       0.24987000       0.29519000       0.81282000 </v>
   <v>       0.49987000       0.70481000       0.81282000 </v>
   <v>       0.50013000       0.29519000       0.56281000 </v>
   <v>       0.75013000       0.70481000       0.56281000 </v>
   <v>       0.74987000       0.29519000       0.81282000 </v>
   <v>       0.99987000       0.70481000       0.81282000 </v>
   <v>       0.25005000       0.32677000       0.06286000 </v>
   <v>       0.00005000       0.67323000       0.06286000 </v>
   <v>       0.49995000       0.32677000       0.31286000 </v>
   <v>       0.24995000       0.67323000       0.31286000 </v>
   <v>       0.75005000       0.32677000       0.06286000 </v>
   <v>       0.50005000       0.67323000       0.06286000 </v>
   <v>       0.99995000       0.32677000       0.31286000 </v>
   <v>       0.74995000       0.67323000       0.31286000 </v>
   <v>       0.25005000       0.32677000       0.56286000 </v>
   <v>       0.00005000       0.67323000       0.56286000 </v>
   <v>       0.49995000       0.32677000       0.81286000 </v>
   <v>       0.24995000       0.67323000       0.81286000 </v>
   <v>       0.75005000       0.32677000       0.56286000 </v>
   <v>       0.50005000       0.67323000       0.56286000 </v>
   <v>       0.99995000       0.32677000       0.81286000 </v>
   <v>       0.74995000       0.67323000       0.81286000 </v>
   <v>       0.49987000       0.07798000       0.06246000 </v>
   <v>       0.24987000       0.92202000       0.06246000 </v>
   <v>       0.25013000       0.07798000       0.31246000 </v>
   <v>       0.00013000       0.92202000       0.31246000 </v>
   <v>       0.99987000       0.07798000       0.06246000 </v>
   <v>       0.74987000       0.92202000       0.06246000 </v>
   <v>       0.75013000       0.07798000       0.31246000 </v>
   <v>       0.50013000       0.92202000       0.31246000 </v>
   <v>       0.49987000       0.07798000       0.56246000 </v>
   <v>       0.24987000       0.92202000       0.56246000 </v>
   <v>       0.25013000       0.07798000       0.81246000 </v>
   <v>       0.00013000       0.92202000       0.81246000 </v>
   <v>       0.99987000       0.07798000       0.56246000 </v>
   <v>       0.74987000       0.92202000       0.56246000 </v>
   <v>       0.75013000       0.07798000       0.81246000 </v>
   <v>       0.50013000       0.92202000       0.81246000 </v>
  </varray>
 </structure>
</modeling>
