<?xml version="1.0" encoding="ISO-8859-1"?>
<modeling>
 <generator>
  <i name="program" type="string">vasp </i>
  <i name="version" type="string">5.4.4.18Apr17-6-g9f103f2a35  </i>
  <i name="subversion" type="string">(build Jul 31 2017 11:33:29) complex            parallel </i>
  <i name="platform" type="string">LinuxIFC </i>
  <i name="date" type="string">2021 09 29 </i>
  <i name="time" type="string">09:20:54 </i>
 </generator>
 <incar>
  <i type="string" name="SYSTEM"> La2O2S</i>
  <i type="string" name="PREC">normal</i>
  <i type="int" name="NELMIN">     4</i>
  <i type="int" name="IBRION">     2</i>
  <i type="int" name="NFREE">    10</i>
  <i name="EDIFF">      0.00000100</i>
  <i name="EDIFFG">     -0.01000000</i>
  <i type="int" name="NSW">     1</i>
  <i type="int" name="ISIF">     2</i>
  <i name="ENCUT">    600.00000000</i>
  <i name="ENAUG">    900.00000000</i>
  <i type="int" name="ISMEAR">    -5</i>
  <i type="logical" name="LWAVE"> F  </i>
  <i type="logical" name="LCHARG"> F  </i>
  <v type="int" name="KPOINT_BSE">    -1     0     0     0</v>
 </incar>
 <structure name="primitive_cell" >
  <crystal>
   <varray name="basis" >
    <v>      11.17850000       0.00000000       0.00000000 </v>
    <v>       0.00000000       9.57460000       0.00000000 </v>
    <v>       0.00000000       0.00000000      11.18240000 </v>
   </varray>
   <i name="volume">   1196.84853820 </i>
   <varray name="rec_basis" >
    <v>       0.08945744       0.00000000       0.00000000 </v>
    <v>       0.00000000       0.10444301       0.00000000 </v>
    <v>       0.00000000       0.00000000       0.08942624 </v>
   </varray>
  </crystal>
  <varray name="positions" >
   <v>      -0.37461000      -0.00016000       0.43687000 </v>
   <v>      -0.24987000       0.07798000       0.31246000 </v>
   <v>      -0.49987000      -0.07798000       0.31246000 </v>
   <v>      -0.25013000      -0.07798000      -0.43754000 </v>
   <v>       0.49987000       0.07798000      -0.43754000 </v>
   <v>      -0.12461000       0.00017000       0.43687000 </v>
   <v>      -0.37539000      -0.00016000      -0.31313000 </v>
   <v>      -0.25013000       0.29519000       0.31282000 </v>
   <v>       0.49987000      -0.29519000       0.31282000 </v>
   <v>      -0.24987000      -0.29519000      -0.43719000 </v>
   <v>      -0.49987000       0.29519000      -0.43719000 </v>
   <v>      -0.25005000      -0.32677000       0.31286000 </v>
   <v>       0.49995000       0.32677000       0.31286000 </v>
   <v>      -0.24995000       0.32677000      -0.43714000 </v>
   <v>      -0.49995000      -0.32677000      -0.43714000 </v>
   <v>       0.37461000       0.00017000       0.18687000 </v>
   <v>       0.37461000       0.00017000      -0.31313000 </v>
   <v>      -0.25013000      -0.07798000       0.06246000 </v>
   <v>       0.00013000      -0.07798000       0.31246000 </v>
   <v>      -0.00013000       0.07798000      -0.43754000 </v>
   <v>       0.49987000       0.07798000       0.06246000 </v>
   <v>       0.25013000       0.07798000       0.31246000 </v>
   <v>      -0.24987000       0.07798000      -0.18754000 </v>
   <v>       0.24987000      -0.07798000      -0.43754000 </v>
   <v>      -0.49987000      -0.07798000      -0.18754000 </v>
   <v>      -0.24987000      -0.29519000       0.06281000 </v>
   <v>      -0.00013000      -0.29519000       0.31282000 </v>
   <v>      -0.49987000       0.29519000       0.06281000 </v>
   <v>       0.00013000       0.29519000      -0.43719000 </v>
   <v>       0.24987000       0.29519000       0.31282000 </v>
   <v>       0.25013000      -0.29519000      -0.43719000 </v>
   <v>      -0.25013000       0.29519000      -0.18718000 </v>
   <v>       0.49987000      -0.29519000      -0.18718000 </v>
   <v>      -0.24995000       0.32677000       0.06286000 </v>
   <v>      -0.49995000      -0.32677000       0.06286000 </v>
   <v>      -0.00005000       0.32677000       0.31286000 </v>
   <v>       0.00005000      -0.32677000      -0.43714000 </v>
   <v>       0.24995000      -0.32677000       0.31286000 </v>
   <v>       0.25005000       0.32677000      -0.43714000 </v>
   <v>      -0.25005000      -0.32677000      -0.18714000 </v>
   <v>       0.49995000       0.32677000      -0.18714000 </v>
   <v>      -0.37461000      -0.00016000      -0.06313000 </v>
   <v>      -0.00013000       0.07798000       0.06246000 </v>
   <v>       0.24987000      -0.07798000       0.06246000 </v>
   <v>       0.00013000      -0.07798000      -0.18754000 </v>
   <v>       0.25013000       0.07798000      -0.18754000 </v>
   <v>       0.12461000      -0.00016000       0.18687000 </v>
   <v>       0.12461000      -0.00016000      -0.31313000 </v>
   <v>      -0.12461000       0.00017000      -0.06313000 </v>
   <v>       0.00013000       0.29519000       0.06281000 </v>
   <v>       0.25013000      -0.29519000       0.06281000 </v>
   <v>      -0.00013000      -0.29519000      -0.18718000 </v>
   <v>       0.24987000       0.29519000      -0.18718000 </v>
   <v>       0.00005000      -0.32677000       0.06286000 </v>
   <v>       0.25005000       0.32677000       0.06286000 </v>
   <v>      -0.00005000       0.32677000      -0.18714000 </v>
   <v>       0.24995000      -0.32677000      -0.18714000 </v>
  </varray>
 </structure>
 <varray name="primitive_index" >
  <v type="int" >        1 </v>
  <v type="int" >       48 </v>
  <v type="int" >       49 </v>
  <v type="int" >       55 </v>
  <v type="int" >       50 </v>
  <v type="int" >        5 </v>
  <v type="int" >        2 </v>
  <v type="int" >       16 </v>
  <v type="int" >       13 </v>
  <v type="int" >       23 </v>
  <v type="int" >       22 </v>
  <v type="int" >       33 </v>
  <v type="int" >       28 </v>
  <v type="int" >       38 </v>
  <v type="int" >       39 </v>
  <v type="int" >        4 </v>
  <v type="int" >        7 </v>
  <v type="int" >       47 </v>
  <v type="int" >       45 </v>
  <v type="int" >       54 </v>
  <v type="int" >       42 </v>
  <v type="int" >       44 </v>
  <v type="int" >       56 </v>
  <v type="int" >       51 </v>
  <v type="int" >       57 </v>
  <v type="int" >       15 </v>
  <v type="int" >       17 </v>
  <v type="int" >       14 </v>
  <v type="int" >       18 </v>
  <v type="int" >       12 </v>
  <v type="int" >       19 </v>
  <v type="int" >       24 </v>
  <v type="int" >       21 </v>
  <v type="int" >       30 </v>
  <v type="int" >       31 </v>
  <v type="int" >       32 </v>
  <v type="int" >       35 </v>
  <v type="int" >       29 </v>
  <v type="int" >       34 </v>
  <v type="int" >       41 </v>
  <v type="int" >       36 </v>
  <v type="int" >        8 </v>
  <v type="int" >       46 </v>
  <v type="int" >       43 </v>
  <v type="int" >       53 </v>
  <v type="int" >       52 </v>
  <v type="int" >        3 </v>
  <v type="int" >        6 </v>
  <v type="int" >        9 </v>
  <v type="int" >       10 </v>
  <v type="int" >       11 </v>
  <v type="int" >       25 </v>
  <v type="int" >       20 </v>
  <v type="int" >       27 </v>
  <v type="int" >       26 </v>
  <v type="int" >       40 </v>
  <v type="int" >       37 </v>
 </varray>
 <kpoints>
  <generation param="Gamma">
   <v type="int" name="divisions">       2        2        2 </v>
   <v name="usershift">      0.00000000       0.00000000       0.00000000 </v>
   <v name="genvec1">      0.50000000       0.00000000       0.00000000 </v>
   <v name="genvec2">      0.00000000       0.50000000       0.00000000 </v>
   <v name="genvec3">      0.00000000       0.00000000       0.50000000 </v>
   <v name="shift">      0.00000000       0.00000000       0.00000000 </v>
  </generation>
  <varray name="kpointlist" >
   <v>       0.00000000       0.00000000       0.00000000 </v>
   <v>       0.50000000       0.00000000       0.00000000 </v>
   <v>       0.00000000       0.50000000       0.00000000 </v>
   <v>       0.50000000       0.50000000       0.00000000 </v>
   <v>       0.00000000       0.00000000       0.50000000 </v>
   <v>       0.50000000       0.00000000       0.50000000 </v>
   <v>       0.00000000       0.50000000       0.50000000 </v>
   <v>       0.50000000       0.50000000       0.50000000 </v>
  </varray>
  <varray name="weights" >
   <v>       0.12500000 </v>
   <v>       0.12500000 </v>
   <v>       0.12500000 </v>
   <v>       0.12500000 </v>
   <v>       0.12500000 </v>
   <v>       0.12500000 </v>
   <v>       0.12500000 </v>
   <v>       0.12500000 </v>
  </varray>
  <varray name="tetrahedronlist"  type="int" >
   <v type="int" >        2        1        2        4        5 </v>
   <v type="int" >        2        1        3        4        5 </v>
   <v type="int" >        2        3        4        5        7 </v>
   <v type="int" >        2        2        4        5        6 </v>
   <v type="int" >        2        4        5        6        8 </v>
   <v type="int" >        2        4        5        7        8 </v>
   <v type="int" >        2        1        2        3        6 </v>
   <v type="int" >        2        2        3        4        6 </v>
   <v type="int" >        2        3        4        6        8 </v>
   <v type="int" >        2        1        3        5        6 </v>
   <v type="int" >        2        3        5        6        7 </v>
   <v type="int" >        2        3        6        7        8 </v>
   <v type="int" >        2        2        3        4        7 </v>
   <v type="int" >        2        1        2        3        7 </v>
   <v type="int" >        2        1        2        5        7 </v>
   <v type="int" >        2        2        4        7        8 </v>
   <v type="int" >        2        2        6        7        8 </v>
   <v type="int" >        2        2        5        6        7 </v>
   <v type="int" >        2        1        3        4        8 </v>
   <v type="int" >        2        1        2        4        8 </v>
   <v type="int" >        2        1        2        6        8 </v>
   <v type="int" >        2        1        3        7        8 </v>
   <v type="int" >        2        1        5        7        8 </v>
   <v type="int" >        2        1        5        6        8 </v>
  </varray>
  <i name="volumeweight">      0.02083333 </i>
 </kpoints>
 <parameters>
  <separator name="general" >
   <i type="string" name="SYSTEM">La2O2S</i>
   <i type="logical" name="LCOMPAT"> F  </i>
  </separator>
  <separator name="electronic" >
   <i type="string" name="PREC">normal</i>
   <i name="ENMAX">    600.00000000</i>
   <i name="ENAUG">    900.00000000</i>
   <i name="EDIFF">      0.00000100</i>
   <i type="int" name="IALGO">    38</i>
   <i type="int" name="IWAVPR">    11</i>
   <i type="int" name="NBANDS">   280</i>
   <i name="NELECT">    452.00000000</i>
   <i type="int" name="TURBO">     0</i>
   <i type="int" name="IRESTART">     0</i>
   <i type="int" name="NREBOOT">     0</i>
   <i type="int" name="NMIN">     0</i>
   <i name="EREF">      0.00000000</i>
   <separator name="electronic smearing" >
    <i type="int" name="ISMEAR">    -5</i>
    <i name="SIGMA">      0.20000000</i>
    <i name="KSPACING">      0.50000000</i>
    <i type="logical" name="KGAMMA"> T  </i>
   </separator>
   <separator name="electronic projectors" >
    <i type="logical" name="LREAL"> F  </i>
    <v name="ROPT">      0.00000000      0.00000000      0.00000000      0.00000000      0.00000000</v>
    <i type="int" name="LMAXPAW">  -100</i>
    <i type="int" name="LMAXMIX">     2</i>
    <i type="logical" name="NLSPLINE"> F  </i>
   </separator>
   <separator name="electronic startup" >
    <i type="int" name="ISTART">     0</i>
    <i type="int" name="ICHARG">     2</i>
    <i type="int" name="INIWAV">     1</i>
   </separator>
   <separator name="electronic spin" >
    <i type="int" name="ISPIN">     1</i>
    <i type="logical" name="LNONCOLLINEAR"> F  </i>
    <v name="MAGMOM">      1.00000000      1.00000000      1.00000000      1.00000000      1.00000000      1.00000000      1.00000000      1.00000000      1.00000000      1.00000000      1.00000000      1.00000000      1.00000000      1.00000000      1.00000000      1.00000000      1.00000000      1.00000000      1.00000000      1.00000000
      1.00000000      1.00000000      1.00000000      1.00000000      1.00000000      1.00000000      1.00000000      1.00000000      1.00000000      1.00000000      1.00000000      1.00000000      1.00000000      1.00000000      1.00000000      1.00000000      1.00000000      1.00000000      1.00000000      1.00000000
      1.00000000      1.00000000      1.00000000      1.00000000      1.00000000      1.00000000      1.00000000      1.00000000      1.00000000      1.00000000      1.00000000      1.00000000      1.00000000      1.00000000      1.00000000      1.00000000      1.00000000</v>
    <i name="NUPDOWN">     -1.00000000</i>
    <i type="logical" name="LSORBIT"> F  </i>
    <v name="SAXIS">      0.00000000      0.00000000      1.00000000</v>
    <i type="logical" name="LSPIRAL"> F  </i>
    <v name="QSPIRAL">      0.00000000      0.00000000      0.00000000</v>
    <i type="logical" name="LZEROZ"> F  </i>
   </separator>
   <separator name="electronic exchange-correlation" >
    <i type="logical" name="LASPH"> F  </i>
    <i type="logical" name="LMETAGGA"> F  </i>
   </separator>
   <separator name="electronic convergence" >
    <i type="int" name="NELM">    60</i>
    <i type="int" name="NELMDL">    -5</i>
    <i type="int" name="NELMIN">     4</i>
    <i name="ENINI">    600.00000000</i>
    <separator name="electronic convergence detail" >
     <i type="logical" name="LDIAG"> T  </i>
     <i type="logical" name="LSUBROT"> F  </i>
     <i name="WEIMIN">      0.00100000</i>
     <i name="EBREAK">      0.00000000</i>
     <i name="DEPER">      0.30000000</i>
     <i type="int" name="NRMM">     4</i>
     <i name="TIME">      0.40000000</i>
    </separator>
   </separator>
   <separator name="electronic mixer" >
    <i name="AMIX">      0.40000000</i>
    <i name="BMIX">      1.00000000</i>
    <i name="AMIN">      0.10000000</i>
    <i name="AMIX_MAG">      1.60000000</i>
    <i name="BMIX_MAG">      1.00000000</i>
    <separator name="electronic mixer details" >
     <i type="int" name="IMIX">     4</i>
     <i type="logical" name="MIXFIRST"> F  </i>
     <i type="int" name="MAXMIX">   -45</i>
     <i name="WC">    100.00000000</i>
     <i type="int" name="INIMIX">     1</i>
     <i type="int" name="MIXPRE">     1</i>
     <i type="int" name="MREMOVE">     5</i>
    </separator>
   </separator>
   <separator name="electronic dipolcorrection" >
    <i type="logical" name="LDIPOL"> F  </i>
    <i type="logical" name="LMONO"> F  </i>
    <i type="int" name="IDIPOL">     0</i>
    <i name="EPSILON">      1.00000000</i>
    <v name="DIPOL">   -100.00000000   -100.00000000   -100.00000000</v>
    <i name="EFIELD">      0.00000000</i>
   </separator>
  </separator>
  <separator name="grids" >
   <i type="int" name="NGX">    70</i>
   <i type="int" name="NGY">    60</i>
   <i type="int" name="NGZ">    70</i>
   <i type="int" name="NGXF">   140</i>
   <i type="int" name="NGYF">   120</i>
   <i type="int" name="NGZF">   140</i>
   <i type="logical" name="ADDGRID"> F  </i>
  </separator>
  <separator name="ionic" >
   <i type="int" name="NSW">     1</i>
   <i type="int" name="IBRION">     2</i>
   <i type="int" name="MDALGO">     0</i>
   <i type="int" name="ISIF">     2</i>
   <i name="PSTRESS">      0.00000000</i>
   <i name="EDIFFG">     -0.01000000</i>
   <i type="int" name="NFREE">    10</i>
   <i name="POTIM">      0.50000000</i>
   <i name="SMASS">     -3.00000000</i>
   <i name="SCALEE">      1.00000000</i>
  </separator>
  <separator name="ionic md" >
   <i name="TEBEG">      0.00010000</i>
   <i name="TEEND">      0.00010000</i>
   <i type="int" name="NBLOCK">     1</i>
   <i type="int" name="KBLOCK">     1</i>
   <i type="int" name="NPACO">   256</i>
   <i name="APACO">     16.00000000</i>
  </separator>
  <separator name="symmetry" >
   <i type="int" name="ISYM">     2</i>
   <i name="SYMPREC">      0.00001000</i>
  </separator>
  <separator name="dos" >
   <i type="int" name="LORBIT">     0</i>
   <v name="RWIGS">     -1.00000000     -1.00000000     -1.00000000     -1.00000000     -1.00000000</v>
   <i type="int" name="NEDOS">   301</i>
   <i name="EMIN">     10.00000000</i>
   <i name="EMAX">    -10.00000000</i>
   <i name="EFERMI">      0.00000000</i>
  </separator>
  <separator name="writing" >
   <i type="int" name="NWRITE">     2</i>
   <i type="logical" name="LWAVE"> F  </i>
   <i type="logical" name="LDOWNSAMPLE"> F  </i>
   <i type="logical" name="LCHARG"> F  </i>
   <i type="logical" name="LPARD"> F  </i>
   <i type="logical" name="LVTOT"> F  </i>
   <i type="logical" name="LVHAR"> F  </i>
   <i type="logical" name="LELF"> F  </i>
   <i type="logical" name="LOPTICS"> F  </i>
   <v name="STM">      0.00000000      0.00000000      0.00000000      0.00000000      0.00000000      0.00000000      0.00000000</v>
  </separator>
  <separator name="performance" >
   <i type="int" name="NPAR">    28</i>
   <i type="int" name="NSIM">     4</i>
   <i type="int" name="NBLK">    -1</i>
   <i type="logical" name="LPLANE"> T  </i>
   <i type="logical" name="LSCALAPACK"> T  </i>
   <i type="logical" name="LSCAAWARE"> F  </i>
   <i type="logical" name="LSCALU"> F  </i>
   <i type="logical" name="LASYNC"> F  </i>
   <i type="logical" name="LORBITALREAL"> F  </i>
  </separator>
  <separator name="miscellaneous" >
   <i type="int" name="IDIOT">     3</i>
   <i type="int" name="ISPECIAL">     0</i>
   <i type="logical" name="LMUSIC"> F  </i>
   <v name="POMASS">      7.01000000     24.30500000    208.98000000     32.06600000     16.00000000</v>
   <v name="DARWINR">      0.00000000      0.00000000      0.00000000      0.00000000      0.00000000</v>
   <v name="DARWINV">      1.00000000      1.00000000      1.00000000      1.00000000      1.00000000</v>
   <i type="logical" name="LCORR"> T  </i>
  </separator>
  <i type="logical" name="GGA_COMPAT"> T  </i>
  <i type="logical" name="LBERRY"> F  </i>
  <i type="int" name="ICORELEVEL">     0</i>
  <i type="logical" name="LDAU"> F  </i>
  <i type="int" name="I_CONSTRAINED_M">     0</i>
  <separator name="electronic exchange-correlation" >
   <i type="string" name="GGA">--</i>
   <i type="int" name="VOSKOWN">     0</i>
   <i type="logical" name="LHFCALC"> F  </i>
   <i type="string" name="PRECFOCK"></i>
   <i type="logical" name="LSYMGRAD"> F  </i>
   <i type="logical" name="LHFONE"> F  </i>
   <i type="logical" name="LRHFCALC"> F  </i>
   <i type="logical" name="LTHOMAS"> F  </i>
   <i type="logical" name="LMODELHF"> F  </i>
   <i name="ENCUT4O">     -1.00000000</i>
   <i type="int" name="EXXOEP">     0</i>
   <i type="int" name="FOURORBIT">     0</i>
   <i name="AEXX">      0.00000000</i>
   <i name="HFALPHA">      0.00000000</i>
   <i name="MCALPHA">      0.00000000</i>
   <i name="ALDAX">      1.00000000</i>
   <i name="AGGAX">      1.00000000</i>
   <i name="ALDAC">      1.00000000</i>
   <i name="AGGAC">      1.00000000</i>
   <i type="int" name="NKREDX">     1</i>
   <i type="int" name="NKREDY">     1</i>
   <i type="int" name="NKREDZ">     1</i>
   <i type="logical" name="SHIFTRED"> F  </i>
   <i type="logical" name="ODDONLY"> F  </i>
   <i type="logical" name="EVENONLY"> F  </i>
   <i type="int" name="LMAXFOCK">     0</i>
   <i type="int" name="NMAXFOCKAE">     0</i>
   <i type="logical" name="LFOCKAEDFT"> F  </i>
   <i name="HFSCREEN">      0.00000000</i>
   <i name="HFSCREENC">      0.00000000</i>
   <i type="int" name="NBANDSGWLOW">     0</i>
  </separator>
  <separator name="vdW DFT" >
   <i type="logical" name="LUSE_VDW"> F  </i>
   <i name="Zab_VDW">     -0.84910000</i>
   <i name="PARAM1">      0.12340000</i>
   <i name="PARAM2">      1.00000000</i>
   <i name="PARAM3">      0.00000000</i>
  </separator>
  <separator name="model GW" >
   <i type="int" name="MODEL_GW">     0</i>
   <i name="MODEL_EPS0">     12.59840567</i>
   <i name="MODEL_ALPHA">      1.00000000</i>
  </separator>
  <separator name="linear response parameters" >
   <i type="logical" name="LEPSILON"> F  </i>
   <i type="logical" name="LRPA"> F  </i>
   <i type="logical" name="LNABLA"> F  </i>
   <i type="logical" name="LVEL"> F  </i>
   <i type="int" name="KINTER">     0</i>
   <i name="CSHIFT">      0.10000000</i>
   <i name="OMEGAMAX">     -1.00000000</i>
   <i name="DEG_THRESHOLD">      0.00200000</i>
   <i name="RTIME">     -0.10000000</i>
   <i name="WPLASMAI">      0.00000000</i>
   <v name="DFIELD">      0.00000000      0.00000000      0.00000000</v>
   <v name="WPLASMA">      0.00000000      0.00000000      0.00000000      0.00000000      0.00000000      0.00000000      0.00000000      0.00000000      0.00000000</v>
  </separator>
  <separator name="orbital magnetization" >
   <i type="logical" name="NUCIND"> F  </i>
   <v name="MAGPOS">      0.00000000      0.00000000      0.00000000</v>
   <i type="logical" name="LNICSALL"> T  </i>
   <i type="logical" name="ORBITALMAG"> F  </i>
   <i type="logical" name="LMAGBLOCH"> F  </i>
   <i type="logical" name="LCHIMAG"> F  </i>
   <i type="logical" name="LGAUGE"> T  </i>
   <i type="int" name="MAGATOM">     0</i>
   <v name="MAGDIPOL">      0.00000000      0.00000000      0.00000000</v>
   <v name="AVECCONST">      0.00000000      0.00000000      0.00000000</v>
  </separator>
  <separator name="response functions" >
   <i type="logical" name="LADDER"> F  </i>
   <i type="logical" name="LRPAFORCE"> F  </i>
   <i type="logical" name="LFXC"> F  </i>
   <i type="logical" name="LHARTREE"> T  </i>
   <i type="int" name="IBSE">     0</i>
   <v type="int" name="KPOINT">    -1     0     0     0</v>
   <i type="logical" name="LTCTE"> F  </i>
   <i type="logical" name="LTETE"> F  </i>
   <i type="logical" name="LTRIPLET"> F  </i>
   <i type="logical" name="LFXCEPS"> F  </i>
   <i type="logical" name="LFXHEG"> F  </i>
   <i type="int" name="NATURALO">     2</i>
   <i type="logical" name="L2ORDER"> F  </i>
   <i type="logical" name="LMP2LT"> F  </i>
   <i type="logical" name="LUSEW"> F  </i>
   <i name="ENCUTGW">     -2.00000000</i>
   <i name="ENCUTGWSOFT">     -2.00000000</i>
   <i name="ENCUTLF">     -1.00000000</i>
   <i type="int" name="LMAXMP2">    -1</i>
   <i name="SCISSOR">      0.00000000</i>
   <i type="int" name="NOMEGA">     0</i>
   <i type="int" name="NOMEGAR">     0</i>
   <i type="int" name="NBANDSGW">    -1</i>
   <i type="int" name="NBANDSO">    -1</i>
   <i type="int" name="NBANDSV">    -1</i>
   <i type="int" name="NELM">     1</i>
   <i type="int" name="NELMHF">     1</i>
   <i type="int" name="DIM">     3</i>
   <i type="int" name="ANTIRES">     0</i>
   <i name="OMEGAMAX">    -30.00000000</i>
   <i name="OMEGAMIN">    -30.00000000</i>
   <i name="OMEGATL">   -200.00000000</i>
   <i type="int" name="OMEGAGRID">   140</i>
   <i name="CSHIFT">     -0.10000000</i>
   <i type="logical" name="SELFENERGY"> F  </i>
   <i type="logical" name="LSPECTRAL"> F  </i>
   <i type="logical" name="LSPECTRALGW"> F  </i>
   <i type="logical" name="LSINGLES"> F  </i>
   <i type="logical" name="LFERMIGW"> F  </i>
   <i type="logical" name="ODDONLYGW"> F  </i>
   <i type="logical" name="EVENONLYGW"> F  </i>
   <i type="int" name="NKREDLFX">     1</i>
   <i type="int" name="NKREDLFY">     1</i>
   <i type="int" name="NKREDLFZ">     1</i>
   <i type="int" name="MAXMEM">  2800</i>
   <i type="int" name="TELESCOPE">     0</i>
   <i type="int" name="TAUPAR">     1</i>
   <i type="int" name="OMEGAPAR">    -1</i>
   <i name="LAMBDA">      1.00000000</i>
  </separator>
  <separator name="External order field" >
   <i name="OFIELD_KAPPA">      0.00000000</i>
   <v name="OFIELD_K">      0.00000000      0.00000000      0.00000000</v>
   <i name="OFIELD_Q6_NEAR">      0.00000000</i>
   <i name="OFIELD_Q6_FAR">      0.00000000</i>
   <i name="OFIELD_A">      0.00000000</i>
  </separator>
 </parameters>
 <atominfo>
  <atoms>      57 </atoms>
  <types>       5 </types>
  <array name="atoms" >
   <dimension dim="1">ion</dimension>
   <field type="string">element</field>
   <field type="int">atomtype</field>
   <set>
    <rc><c>Li</c><c>   1</c></rc>
    <rc><c>Li</c><c>   1</c></rc>
    <rc><c>Mg</c><c>   2</c></rc>
    <rc><c>Mg</c><c>   2</c></rc>
    <rc><c>Mg</c><c>   2</c></rc>
    <rc><c>Mg</c><c>   2</c></rc>
    <rc><c>Mg</c><c>   2</c></rc>
    <rc><c>Mg</c><c>   2</c></rc>
    <rc><c>Mg</c><c>   2</c></rc>
    <rc><c>Bi</c><c>   3</c></rc>
    <rc><c>Bi</c><c>   3</c></rc>
    <rc><c>Bi</c><c>   3</c></rc>
    <rc><c>Bi</c><c>   3</c></rc>
    <rc><c>Bi</c><c>   3</c></rc>
    <rc><c>Bi</c><c>   3</c></rc>
    <rc><c>Bi</c><c>   3</c></rc>
    <rc><c>Bi</c><c>   3</c></rc>
    <rc><c>Bi</c><c>   3</c></rc>
    <rc><c>Bi</c><c>   3</c></rc>
    <rc><c>Bi</c><c>   3</c></rc>
    <rc><c>Bi</c><c>   3</c></rc>
    <rc><c>Bi</c><c>   3</c></rc>
    <rc><c>Bi</c><c>   3</c></rc>
    <rc><c>Bi</c><c>   3</c></rc>
    <rc><c>Bi</c><c>   3</c></rc>
    <rc><c>S </c><c>   4</c></rc>
    <rc><c>S </c><c>   4</c></rc>
    <rc><c>S </c><c>   4</c></rc>
    <rc><c>S </c><c>   4</c></rc>
    <rc><c>S </c><c>   4</c></rc>
    <rc><c>S </c><c>   4</c></rc>
    <rc><c>S </c><c>   4</c></rc>
    <rc><c>S </c><c>   4</c></rc>
    <rc><c>S </c><c>   4</c></rc>
    <rc><c>S </c><c>   4</c></rc>
    <rc><c>S </c><c>   4</c></rc>
    <rc><c>S </c><c>   4</c></rc>
    <rc><c>S </c><c>   4</c></rc>
    <rc><c>S </c><c>   4</c></rc>
    <rc><c>S </c><c>   4</c></rc>
    <rc><c>S </c><c>   4</c></rc>
    <rc><c>O </c><c>   5</c></rc>
    <rc><c>O </c><c>   5</c></rc>
    <rc><c>O </c><c>   5</c></rc>
    <rc><c>O </c><c>   5</c></rc>
    <rc><c>O </c><c>   5</c></rc>
    <rc><c>O </c><c>   5</c></rc>
    <rc><c>O </c><c>   5</c></rc>
    <rc><c>O </c><c>   5</c></rc>
    <rc><c>O </c><c>   5</c></rc>
    <rc><c>O </c><c>   5</c></rc>
    <rc><c>O </c><c>   5</c></rc>
    <rc><c>O </c><c>   5</c></rc>
    <rc><c>O </c><c>   5</c></rc>
    <rc><c>O </c><c>   5</c></rc>
    <rc><c>O </c><c>   5</c></rc>
    <rc><c>O </c><c>   5</c></rc>
   </set>
  </array>
  <array name="atomtypes" >
   <dimension dim="1">type</dimension>
   <field type="int">atomspertype</field>
   <field type="string">element</field>
   <field>mass</field>
   <field>valence</field>
   <field type="string">pseudopotential</field>
   <set>
    <rc><c>   2</c><c>Li</c><c>      7.01000000</c><c>      3.00000000</c><c>  PAW_PBE Li_sv 10Sep2004               </c></rc>
    <rc><c>   7</c><c>Mg</c><c>     24.30500000</c><c>      2.00000000</c><c>  PAW_PBE Mg 13Apr2007                  </c></rc>
    <rc><c>  16</c><c>Bi</c><c>    208.98000000</c><c>     15.00000000</c><c>  PAW_PBE Bi_d 06Sep2000                </c></rc>
    <rc><c>  16</c><c>S </c><c>     32.06600000</c><c>      6.00000000</c><c>  PAW_PBE S 06Sep2000                   </c></rc>
    <rc><c>  16</c><c>O </c><c>     16.00000000</c><c>      6.00000000</c><c>  PAW_PBE O 08Apr2002                   </c></rc>
   </set>
  </array>
 </atominfo>
 <structure name="initialpos" >
  <crystal>
   <varray name="basis" >
    <v>      11.17850000       0.00000000       0.00000000 </v>
    <v>       0.00000000       9.57460000       0.00000000 </v>
    <v>       0.00000000       0.00000000      11.18240000 </v>
   </varray>
   <i name="volume">   1196.84853820 </i>
   <varray name="rec_basis" >
    <v>       0.08945744       0.00000000       0.00000000 </v>
    <v>       0.00000000       0.10444301       0.00000000 </v>
    <v>       0.00000000       0.00000000       0.08942624 </v>
   </varray>
  </crystal>
  <varray name="positions" >
   <v>       0.62539000       0.99984000       0.43687000 </v>
   <v>       0.62461000       0.99984000       0.68687000 </v>
   <v>       0.12461000       0.99984000       0.18687000 </v>
   <v>       0.37461000       0.00017000       0.18687000 </v>
   <v>       0.87539000       0.00017000       0.43687000 </v>
   <v>       0.12461000       0.99984000       0.68687000 </v>
   <v>       0.37461000       0.00017000       0.68687000 </v>
   <v>       0.62539000       0.99984000       0.93687000 </v>
   <v>       0.87539000       0.00017000       0.93687000 </v>
   <v>       0.00013000       0.29519000       0.06281000 </v>
   <v>       0.25013000       0.70481000       0.06281000 </v>
   <v>       0.24987000       0.29519000       0.31282000 </v>
   <v>       0.49987000       0.70481000       0.31282000 </v>
   <v>       0.50013000       0.29519000       0.06281000 </v>
   <v>       0.75013000       0.70481000       0.06281000 </v>
   <v>       0.74987000       0.29519000       0.31282000 </v>
   <v>       0.99987000       0.70481000       0.31282000 </v>
   <v>       0.00013000       0.29519000       0.56281000 </v>
   <v>       0.25013000       0.70481000       0.56281000 </v>
   <v>       0.24987000       0.29519000       0.81282000 </v>
   <v>       0.49987000       0.70481000       0.81282000 </v>
   <v>       0.50013000       0.29519000       0.56281000 </v>
   <v>       0.75013000       0.70481000       0.56281000 </v>
   <v>       0.74987000       0.29519000       0.81282000 </v>
   <v>       0.99987000       0.70481000       0.81282000 </v>
   <v>       0.25005000       0.32677000       0.06286000 </v>
   <v>       0.00005000       0.67323000       0.06286000 </v>
   <v>       0.49995000       0.32677000       0.31286000 </v>
   <v>       0.24995000       0.67323000       0.31286000 </v>
   <v>       0.75005000       0.32677000       0.06286000 </v>
   <v>       0.50005000       0.67323000       0.06286000 </v>
   <v>       0.99995000       0.32677000       0.31286000 </v>
   <v>       0.74995000       0.67323000       0.31286000 </v>
   <v>       0.25005000       0.32677000       0.56286000 </v>
   <v>       0.00005000       0.67323000       0.56286000 </v>
   <v>       0.49995000       0.32677000       0.81286000 </v>
   <v>       0.24995000       0.67323000       0.81286000 </v>
   <v>       0.75005000       0.32677000       0.56286000 </v>
   <v>       0.50005000       0.67323000       0.56286000 </v>
   <v>       0.99995000       0.32677000       0.81286000 </v>
   <v>       0.74995000       0.67323000       0.81286000 </v>
   <v>       0.49987000       0.07798000       0.06246000 </v>
   <v>       0.24987000       0.92202000       0.06246000 </v>
   <v>       0.25013000       0.07798000       0.31246000 </v>
   <v>       0.00013000       0.92202000       0.31246000 </v>
   <v>       0.99987000       0.07798000       0.06246000 </v>
   <v>       0.74987000       0.92202000       0.06246000 </v>
   <v>       0.75013000       0.07798000       0.31246000 </v>
   <v>       0.50013000       0.92202000       0.31246000 </v>
   <v>       0.49987000       0.07798000       0.56246000 </v>
   <v>       0.24987000       0.92202000       0.56246000 </v>
   <v>       0.25013000       0.07798000       0.81246000 </v>
   <v>       0.00013000       0.92202000       0.81246000 </v>
   <v>       0.99987000       0.07798000       0.56246000 </v>
   <v>       0.74987000       0.92202000       0.56246000 </v>
   <v>       0.75013000       0.07798000       0.81246000 </v>
   <v>       0.50013000       0.92202000       0.81246000 </v>
  </varray>
 </structure>
 <calculation>
  <scstep>
   <time name="dav">   61.47   61.52</time>
   <time name="total">   61.56   61.62</time>
   <energy>
    <i name="alphaZ">   1047.62774490 </i>
    <i name="ewald"> -29936.29862461 </i>
    <i name="hartreedc"> -12712.27148698 </i>
    <i name="XCdc">   1099.48579411 </i>
    <i name="pawpsdc">  36446.83583027 </i>
    <i name="pawaedc"> -35618.96860492 </i>
    <i name="eentropy">      0.00000000 </i>
    <i name="bandstr">   1948.51327657 </i>
    <i name="atom">  43261.00331033 </i>
    <i name="e_fr_energy">   5535.92723967 </i>
    <i name="e_wo_entrp">   5535.92723967 </i>
    <i name="e_0_energy">   5535.92723967 </i>
   </energy>
  </scstep>
  <scstep>
   <time name="dav">   61.73   61.74</time>
   <time name="total">   61.74   61.75</time>
   <energy>
    <i name="e_fr_energy">    727.37088880 </i>
    <i name="e_wo_entrp">    727.37088880 </i>
    <i name="e_0_energy">    727.37088880 </i>
   </energy>
  </scstep>
  <scstep>
   <time name="dav">   71.30   71.34</time>
   <time name="total">   71.31   71.34</time>
   <energy>
    <i name="e_fr_energy">   -244.17039004 </i>
    <i name="e_wo_entrp">   -244.17039004 </i>
    <i name="e_0_energy">   -244.17039004 </i>
   </energy>
  </scstep>
  <scstep>
   <time name="dav">   74.02   74.05</time>
   <time name="total">   74.02   74.05</time>
   <energy>
    <i name="e_fr_energy">   -326.83633943 </i>
    <i name="e_wo_entrp">   -326.83633943 </i>
    <i name="e_0_energy">   -326.83633943 </i>
   </energy>
  </scstep>
  <scstep>
   <time name="dav">   88.43   88.54</time>
   <time name="total">   89.15   89.27</time>
   <energy>
    <i name="e_fr_energy">   -332.00657216 </i>
    <i name="e_wo_entrp">   -332.00657216 </i>
    <i name="e_0_energy">   -332.00657216 </i>
   </energy>
  </scstep>
  <scstep>
   <time name="dav">   91.52   91.75</time>
   <time name="total">   92.30   92.53</time>
   <energy>
    <i name="e_fr_energy">   -280.07078618 </i>
    <i name="e_wo_entrp">   -280.07078618 </i>
    <i name="e_0_energy">   -280.07078618 </i>
   </energy>
  </scstep>
  <scstep>
   <time name="dav">   65.61   65.99</time>
   <time name="total">   66.39   66.78</time>
   <energy>
    <i name="e_fr_energy">   -281.89276509 </i>
    <i name="e_wo_entrp">   -281.89276509 </i>
    <i name="e_0_energy">   -281.89276509 </i>
   </energy>
  </scstep>
  <scstep>
   <time name="dav">   76.02   76.13</time>
   <time name="total">   76.80   76.91</time>
   <energy>
    <i name="e_fr_energy">   -281.21855820 </i>
    <i name="e_wo_entrp">   -281.21855820 </i>
    <i name="e_0_energy">   -281.21855820 </i>
   </energy>
  </scstep>
  <scstep>
   <time name="dav">   86.62   86.78</time>
   <time name="total">   87.48   87.65</time>
   <energy>
    <i name="e_fr_energy">   -280.85185888 </i>
    <i name="e_wo_entrp">   -280.85185888 </i>
    <i name="e_0_energy">   -280.85185888 </i>
   </energy>
  </scstep>
  <scstep>
   <time name="dav">   70.89   71.04</time>
   <time name="total">   71.66   71.82</time>
   <energy>
    <i name="e_fr_energy">   -280.87548097 </i>
    <i name="e_wo_entrp">   -280.87548097 </i>
    <i name="e_0_energy">   -280.87548097 </i>
   </energy>
  </scstep>
  <scstep>
   <time name="dav">   81.86   81.91</time>
   <time name="total">   82.64   82.69</time>
   <energy>
    <i name="e_fr_energy">   -280.88157427 </i>
    <i name="e_wo_entrp">   -280.88157427 </i>
    <i name="e_0_energy">   -280.88157427 </i>
   </energy>
  </scstep>
  <scstep>
   <time name="dav">   84.45   84.43</time>
   <time name="total">   85.23   85.22</time>
   <energy>
    <i name="e_fr_energy">   -280.88464745 </i>
    <i name="e_wo_entrp">   -280.88464745 </i>
    <i name="e_0_energy">   -280.88464745 </i>
   </energy>
  </scstep>
  <scstep>
   <time name="dav">   69.97   70.02</time>
   <time name="total">   70.75   70.80</time>
   <energy>
    <i name="e_fr_energy">   -280.88548678 </i>
    <i name="e_wo_entrp">   -280.88548678 </i>
    <i name="e_0_energy">   -280.88548678 </i>
   </energy>
  </scstep>
  <scstep>
   <time name="dav">   74.20   74.36</time>
   <time name="total">   74.98   75.15</time>
   <energy>
    <i name="e_fr_energy">   -280.88567983 </i>
    <i name="e_wo_entrp">   -280.88567983 </i>
    <i name="e_0_energy">   -280.88567983 </i>
   </energy>
  </scstep>
  <scstep>
   <time name="dav">   74.53   75.40</time>
   <time name="total">   75.30   76.19</time>
   <energy>
    <i name="e_fr_energy">   -280.88570503 </i>
    <i name="e_wo_entrp">   -280.88570503 </i>
    <i name="e_0_energy">   -280.88570503 </i>
   </energy>
  </scstep>
  <scstep>
   <time name="dav">   72.08   72.32</time>
   <time name="total">   72.86   73.11</time>
   <energy>
    <i name="e_fr_energy">   -280.88572033 </i>
    <i name="e_wo_entrp">   -280.88572033 </i>
    <i name="e_0_energy">   -280.88572033 </i>
   </energy>
  </scstep>
  <scstep>
   <time name="dav">   76.51   76.68</time>
   <time name="total">   76.58   76.75</time>
   <energy>
    <i name="alphaZ">   1047.62774490 </i>
    <i name="ewald"> -29936.29862461 </i>
    <i name="hartreedc"> -12949.78259395 </i>
    <i name="XCdc">   1125.30149829 </i>
    <i name="pawpsdc">  43453.49176601 </i>
    <i name="pawaedc"> -42597.04591699 </i>
    <i name="eentropy">      0.00000000 </i>
    <i name="bandstr">  -3685.18290498 </i>
    <i name="atom">  43261.00331033 </i>
    <i name="e_fr_energy">   -280.88572100 </i>
    <i name="e_wo_entrp">   -280.88572100 </i>
    <i name="e_0_energy">   -280.88572100 </i>
   </energy>
  </scstep>
  <structure>
   <crystal>
    <varray name="basis" >
     <v>      11.17850000       0.00000000       0.00000000 </v>
     <v>       0.00000000       9.57460000       0.00000000 </v>
     <v>       0.00000000       0.00000000      11.18240000 </v>
    </varray>
    <i name="volume">   1196.84853820 </i>
    <varray name="rec_basis" >
     <v>       0.08945744       0.00000000       0.00000000 </v>
     <v>       0.00000000       0.10444301       0.00000000 </v>
     <v>       0.00000000       0.00000000       0.08942624 </v>
    </varray>
   </crystal>
   <varray name="positions" >
    <v>       0.62539000       0.99984000       0.43687000 </v>
    <v>       0.62461000       0.99984000       0.68687000 </v>
    <v>       0.12461000       0.99984000       0.18687000 </v>
    <v>       0.37461000       0.00017000       0.18687000 </v>
    <v>       0.87539000       0.00017000       0.43687000 </v>
    <v>       0.12461000       0.99984000       0.68687000 </v>
    <v>       0.37461000       0.00017000       0.68687000 </v>
    <v>       0.62539000       0.99984000       0.93687000 </v>
    <v>       0.87539000       0.00017000       0.93687000 </v>
    <v>       0.00013000       0.29519000       0.06281000 </v>
    <v>       0.25013000       0.70481000       0.06281000 </v>
    <v>       0.24987000       0.29519000       0.31282000 </v>
    <v>       0.49987000       0.70481000       0.31282000 </v>
    <v>       0.50013000       0.29519000       0.06281000 </v>
    <v>       0.75013000       0.70481000       0.06281000 </v>
    <v>       0.74987000       0.29519000       0.31282000 </v>
    <v>       0.99987000       0.70481000       0.31282000 </v>
    <v>       0.00013000       0.29519000       0.56281000 </v>
    <v>       0.25013000       0.70481000       0.56281000 </v>
    <v>       0.24987000       0.29519000       0.81282000 </v>
    <v>       0.49987000       0.70481000       0.81282000 </v>
    <v>       0.50013000       0.29519000       0.56281000 </v>
    <v>       0.75013000       0.70481000       0.56281000 </v>
    <v>       0.74987000       0.29519000       0.81282000 </v>
    <v>       0.99987000       0.70481000       0.81282000 </v>
    <v>       0.25005000       0.32677000       0.06286000 </v>
    <v>       0.00005000       0.67323000       0.06286000 </v>
    <v>       0.49995000       0.32677000       0.31286000 </v>
    <v>       0.24995000       0.67323000       0.31286000 </v>
    <v>       0.75005000       0.32677000       0.06286000 </v>
    <v>       0.50005000       0.67323000       0.06286000 </v>
    <v>       0.99995000       0.32677000       0.31286000 </v>
    <v>       0.74995000       0.67323000       0.31286000 </v>
    <v>       0.25005000       0.32677000       0.56286000 </v>
    <v>       0.00005000       0.67323000       0.56286000 </v>
    <v>       0.49995000       0.32677000       0.81286000 </v>
    <v>       0.24995000       0.67323000       0.81286000 </v>
    <v>       0.75005000       0.32677000       0.56286000 </v>
    <v>       0.50005000       0.67323000       0.56286000 </v>
    <v>       0.99995000       0.32677000       0.81286000 </v>
    <v>       0.74995000       0.67323000       0.81286000 </v>
    <v>       0.49987000       0.07798000       0.06246000 </v>
    <v>       0.24987000       0.92202000       0.06246000 </v>
    <v>       0.25013000       0.07798000       0.31246000 </v>
    <v>       0.00013000       0.92202000       0.31246000 </v>
    <v>       0.99987000       0.07798000       0.06246000 </v>
    <v>       0.74987000       0.92202000       0.06246000 </v>
    <v>       0.75013000       0.07798000       0.31246000 </v>
    <v>       0.50013000       0.92202000       0.31246000 </v>
    <v>       0.49987000       0.07798000       0.56246000 </v>
    <v>       0.24987000       0.92202000       0.56246000 </v>
    <v>       0.25013000       0.07798000       0.81246000 </v>
    <v>       0.00013000       0.92202000       0.81246000 </v>
    <v>       0.99987000       0.07798000       0.56246000 </v>
    <v>       0.74987000       0.92202000       0.56246000 </v>
    <v>       0.75013000       0.07798000       0.81246000 </v>
    <v>       0.50013000       0.92202000       0.81246000 </v>
   </varray>
  </structure>
  <varray name="forces" >
   <v>      -0.48502256      -0.00390942      -0.52025699 </v>
   <v>       0.49190617      -0.00543283      -0.51990469 </v>
   <v>      -1.13398847       0.00336983       0.10501460 </v>
   <v>       1.35133276      -0.11567728       0.26791902 </v>
   <v>       0.39894087       0.10384968      -0.24032035 </v>
   <v>      -1.14116776       0.01068352      -0.03495842 </v>
   <v>       0.36434435       0.11584785      -0.21155560 </v>
   <v>      -1.20862633       0.00705801       1.09861493 </v>
   <v>       1.38473733      -0.12120525       0.31195811 </v>
   <v>      -0.00203899      -0.06150484       0.14552335 </v>
   <v>       0.00235904      -0.04001813      -0.24363089 </v>
   <v>       0.07068996       0.00729410       0.37981714 </v>
   <v>       0.12553805       1.05200634       0.07168972 </v>
   <v>      -0.00359994      -0.09911043       0.24703696 </v>
   <v>      -0.02189512      -0.06119263       0.64196594 </v>
   <v>      -0.12381734      -0.96749319      -0.27005723 </v>
   <v>      -0.04696442       0.08265011      -0.00364103 </v>
   <v>      -0.03972100      -0.08840592      -0.14815776 </v>
   <v>       0.01863594      -0.06260263      -0.54028272 </v>
   <v>      -0.03195276       0.03745365       0.38188222 </v>
   <v>      -0.16931574      -0.99642183       0.10150357 </v>
   <v>      -0.02326838       0.03750116      -0.44126976 </v>
   <v>       0.02120630       0.00831738      -0.05665417 </v>
   <v>       0.16846021       1.08620563      -0.33420534 </v>
   <v>       0.05569315       0.05068456      -0.01490353 </v>
   <v>      -0.00219293       0.12232170       0.03839575 </v>
   <v>      -0.00955560      -0.10537533      -0.07914452 </v>
   <v>      -0.13564987       0.16676206      -0.03274089 </v>
   <v>      -0.09465754      -0.15646959      -0.12057042 </v>
   <v>       0.00123723       0.07027016      -0.37711863 </v>
   <v>       0.01038432      -0.10551410      -0.26333742 </v>
   <v>       0.09308933       0.14291037      -0.00446130 </v>
   <v>       0.13999427      -0.16800259       0.08086601 </v>
   <v>       0.01785777       0.10995627       0.19266913 </v>
   <v>       0.00813527      -0.09970247       0.07819458 </v>
   <v>       0.10501371       0.07536787      -0.02618517 </v>
   <v>       0.08789486      -0.08325850      -0.11711854 </v>
   <v>       0.00576247       0.18325506       0.20270180 </v>
   <v>      -0.03641258      -0.13706011       0.32044475 </v>
   <v>      -0.08725179       0.06628566       0.00520769 </v>
   <v>      -0.10349428      -0.07964265       0.09717210 </v>
   <v>       0.07442611       0.29276090      -0.23774259 </v>
   <v>      -0.02270560       0.02471440       1.97454686 </v>
   <v>      -0.08771514       0.00258428      -2.08487047 </v>
   <v>       0.05863965      -0.34117409      -0.01710540 </v>
   <v>      -0.03357639       0.28579140      -0.09318428 </v>
   <v>       0.01151711       0.15764532      -2.28084794 </v>
   <v>       0.49636178       0.78844376       1.63679812 </v>
   <v>      -0.53631034      -0.99456316      -0.49084048 </v>
   <v>       0.13311702      -0.00145285       1.31544645 </v>
   <v>       0.01234768       0.06678841       2.11932885 </v>
   <v>       0.04741382      -0.09788203      -2.06304711 </v>
   <v>      -0.08514488      -0.23093778       0.00938096 </v>
   <v>       0.02268332       0.29390632       0.08011579 </v>
   <v>      -0.14466925      -0.09390142      -0.87740739 </v>
   <v>      -0.67671203      -0.82951429       1.47003227 </v>
   <v>       0.70770715       0.69473955      -0.62870563 </v>
  </varray>
  <varray name="stress" >
   <v>       2.54137801       0.11699868       0.09820569 </v>
   <v>       0.11699875     -13.20175794       0.25606951 </v>
   <v>       0.09820568       0.25606940     -17.50240511 </v>
  </varray>
  <energy>
   <i name="e_fr_energy">   -291.68041087 </i>
   <i name="e_wo_entrp">   -291.68041087 </i>
   <i name="e_0_energy">      0.00000000 </i>
  </energy>
  <time name="totalsc"> 1402.32 1405.29</time>
  <eigenvalues>
   <array>
    <dimension dim="1">band</dimension>
    <dimension dim="2">kpoint</dimension>
    <dimension dim="3">spin</dimension>
    <field>eigene</field>
    <field>occ</field>
    <set>
     <set comment="spin 1">
      <set comment="kpoint 1">
       <r>  -40.3032    1.0000 </r>
       <r>  -39.4935    1.0000 </r>
       <r>  -19.0302    1.0000 </r>
       <r>  -18.9966    1.0000 </r>
       <r>  -18.9521    1.0000 </r>
       <r>  -18.9450    1.0000 </r>
       <r>  -18.9281    1.0000 </r>
       <r>  -18.9211    1.0000 </r>
       <r>  -18.8525    1.0000 </r>
       <r>  -18.8382    1.0000 </r>
       <r>  -18.8269    1.0000 </r>
       <r>  -18.8130    1.0000 </r>
       <r>  -18.8060    1.0000 </r>
       <r>  -18.8010    1.0000 </r>
       <r>  -18.7994    1.0000 </r>
       <r>  -18.7866    1.0000 </r>
       <r>  -18.7799    1.0000 </r>
       <r>  -18.7666    1.0000 </r>
       <r>  -18.7539    1.0000 </r>
       <r>  -18.7527    1.0000 </r>
       <r>  -18.7463    1.0000 </r>
       <r>  -18.7458    1.0000 </r>
       <r>  -18.7421    1.0000 </r>
       <r>  -18.7410    1.0000 </r>
       <r>  -18.7364    1.0000 </r>
       <r>  -18.7350    1.0000 </r>
       <r>  -18.7300    1.0000 </r>
       <r>  -18.7277    1.0000 </r>
       <r>  -18.7219    1.0000 </r>
       <r>  -18.7176    1.0000 </r>
       <r>  -18.7161    1.0000 </r>
       <r>  -18.7150    1.0000 </r>
       <r>  -18.7133    1.0000 </r>
       <r>  -18.7103    1.0000 </r>
       <r>  -18.7079    1.0000 </r>
       <r>  -18.7067    1.0000 </r>
       <r>  -18.7036    1.0000 </r>
       <r>  -18.7019    1.0000 </r>
       <r>  -18.7015    1.0000 </r>
       <r>  -18.6931    1.0000 </r>
       <r>  -18.6912    1.0000 </r>
       <r>  -18.6860    1.0000 </r>
       <r>  -18.6651    1.0000 </r>
       <r>  -18.6557    1.0000 </r>
       <r>  -18.6508    1.0000 </r>
       <r>  -18.6492    1.0000 </r>
       <r>  -18.6443    1.0000 </r>
       <r>  -18.6358    1.0000 </r>
       <r>  -18.6325    1.0000 </r>
       <r>  -18.6237    1.0000 </r>
       <r>  -18.6091    1.0000 </r>
       <r>  -18.6038    1.0000 </r>
       <r>  -18.5996    1.0000 </r>
       <r>  -18.5979    1.0000 </r>
       <r>  -18.5918    1.0000 </r>
       <r>  -18.5899    1.0000 </r>
       <r>  -18.5851    1.0000 </r>
       <r>  -18.5824    1.0000 </r>
       <r>  -18.5715    1.0000 </r>
       <r>  -18.5641    1.0000 </r>
       <r>  -18.5630    1.0000 </r>
       <r>  -18.5593    1.0000 </r>
       <r>  -18.5590    1.0000 </r>
       <r>  -18.5559    1.0000 </r>
       <r>  -18.5496    1.0000 </r>
       <r>  -18.5349    1.0000 </r>
       <r>  -18.5325    1.0000 </r>
       <r>  -18.5285    1.0000 </r>
       <r>  -18.5086    1.0000 </r>
       <r>  -18.4992    1.0000 </r>
       <r>  -18.4981    1.0000 </r>
       <r>  -18.4850    1.0000 </r>
       <r>  -18.4825    1.0000 </r>
       <r>  -18.4660    1.0000 </r>
       <r>  -18.4533    1.0000 </r>
       <r>  -18.4529    1.0000 </r>
       <r>  -18.4151    1.0000 </r>
       <r>  -18.3749    1.0000 </r>
       <r>  -18.2946    1.0000 </r>
       <r>  -18.2837    1.0000 </r>
       <r>  -18.2655    1.0000 </r>
       <r>  -18.2395    1.0000 </r>
       <r>  -13.7110    1.0000 </r>
       <r>  -13.5566    1.0000 </r>
       <r>  -13.0920    1.0000 </r>
       <r>  -12.9934    1.0000 </r>
       <r>  -12.9445    1.0000 </r>
       <r>  -12.9111    1.0000 </r>
       <r>  -12.8618    1.0000 </r>
       <r>  -12.8253    1.0000 </r>
       <r>  -12.7846    1.0000 </r>
       <r>  -12.7721    1.0000 </r>
       <r>  -12.7501    1.0000 </r>
       <r>  -12.7172    1.0000 </r>
       <r>  -12.7045    1.0000 </r>
       <r>  -12.6309    1.0000 </r>
       <r>  -12.1272    1.0000 </r>
       <r>  -12.0169    1.0000 </r>
       <r>   -9.4167    1.0000 </r>
       <r>   -9.1197    1.0000 </r>
       <r>   -8.6174    1.0000 </r>
       <r>   -8.5861    1.0000 </r>
       <r>   -8.5688    1.0000 </r>
       <r>   -8.5271    1.0000 </r>
       <r>   -8.3938    1.0000 </r>
       <r>   -8.3644    1.0000 </r>
       <r>   -8.3414    1.0000 </r>
       <r>   -8.3018    1.0000 </r>
       <r>   -8.1115    1.0000 </r>
       <r>   -8.1085    1.0000 </r>
       <r>   -8.0763    1.0000 </r>
       <r>   -8.0731    1.0000 </r>
       <r>   -7.4389    1.0000 </r>
       <r>   -7.4378    1.0000 </r>
       <r>   -6.4719    1.0000 </r>
       <r>   -6.4487    1.0000 </r>
       <r>   -6.4369    1.0000 </r>
       <r>   -6.4137    1.0000 </r>
       <r>   -5.6119    1.0000 </r>
       <r>   -5.5736    1.0000 </r>
       <r>   -5.4518    1.0000 </r>
       <r>   -5.4264    1.0000 </r>
       <r>   -5.4188    1.0000 </r>
       <r>   -5.3431    1.0000 </r>
       <r>   -5.2925    1.0000 </r>
       <r>   -5.2562    1.0000 </r>
       <r>   -5.2166    1.0000 </r>
       <r>   -5.1440    1.0000 </r>
       <r>   -3.8970    1.0000 </r>
       <r>   -3.7544    1.0000 </r>
       <r>   -1.5116    1.0000 </r>
       <r>   -1.4777    1.0000 </r>
       <r>   -1.1546    1.0000 </r>
       <r>   -1.1207    1.0000 </r>
       <r>   -0.6208    1.0000 </r>
       <r>   -0.6175    1.0000 </r>
       <r>   -0.5931    1.0000 </r>
       <r>   -0.5669    1.0000 </r>
       <r>   -0.2668    1.0000 </r>
       <r>   -0.2469    1.0000 </r>
       <r>   -0.2403    1.0000 </r>
       <r>   -0.2254    1.0000 </r>
       <r>   -0.1386    1.0000 </r>
       <r>    0.0534    1.0000 </r>
       <r>    0.1338    1.0000 </r>
       <r>    0.2430    1.0000 </r>
       <r>    0.3260    1.0000 </r>
       <r>    0.4364    1.0000 </r>
       <r>    0.4769    1.0000 </r>
       <r>    0.5352    1.0000 </r>
       <r>    0.5646    1.0000 </r>
       <r>    0.6033    1.0000 </r>
       <r>    0.6145    1.0000 </r>
       <r>    0.6784    1.0000 </r>
       <r>    0.7183    1.0000 </r>
       <r>    0.7488    1.0000 </r>
       <r>    0.8051    1.0000 </r>
       <r>    0.8347    1.0000 </r>
       <r>    0.8744    1.0000 </r>
       <r>    0.8888    1.0000 </r>
       <r>    0.9339    1.0000 </r>
       <r>    0.9404    1.0000 </r>
       <r>    0.9732    1.0000 </r>
       <r>    1.0307    1.0000 </r>
       <r>    1.0387    1.0000 </r>
       <r>    1.1112    1.0000 </r>
       <r>    1.1278    1.0000 </r>
       <r>    1.2396    1.0000 </r>
       <r>    1.3032    1.0000 </r>
       <r>    1.3387    1.0000 </r>
       <r>    1.3754    1.0000 </r>
       <r>    1.4299    1.0000 </r>
       <r>    1.4467    1.0000 </r>
       <r>    1.5311    1.0000 </r>
       <r>    1.6183    1.0000 </r>
       <r>    1.6407    1.0000 </r>
       <r>    1.6715    1.0000 </r>
       <r>    1.7289    1.0000 </r>
       <r>    1.7588    1.0000 </r>
       <r>    1.8318    1.0000 </r>
       <r>    1.8847    1.0000 </r>
       <r>    1.9239    1.0000 </r>
       <r>    1.9793    1.0000 </r>
       <r>    2.0586    1.0000 </r>
       <r>    2.1372    1.0000 </r>
       <r>    2.2186    1.0000 </r>
       <r>    2.2472    1.0000 </r>
       <r>    2.3367    1.0000 </r>
       <r>    2.4182    1.0000 </r>
       <r>    2.4900    1.0000 </r>
       <r>    2.4937    1.0000 </r>
       <r>    2.5047    1.0000 </r>
       <r>    2.5096    1.0000 </r>
       <r>    2.5266    1.0000 </r>
       <r>    2.5703    1.0000 </r>
       <r>    2.6039    1.0000 </r>
       <r>    2.6113    1.0000 </r>
       <r>    2.6335    1.0000 </r>
       <r>    2.6548    1.0000 </r>
       <r>    2.6928    1.0000 </r>
       <r>    2.7170    1.0000 </r>
       <r>    2.7649    1.0000 </r>
       <r>    2.7977    1.0000 </r>
       <r>    2.8253    1.0000 </r>
       <r>    2.8795    1.0000 </r>
       <r>    2.9045    1.0000 </r>
       <r>    2.9438    1.0000 </r>
       <r>    2.9819    1.0000 </r>
       <r>    3.0120    1.0000 </r>
       <r>    3.0365    1.0000 </r>
       <r>    3.0549    1.0000 </r>
       <r>    3.0769    1.0000 </r>
       <r>    3.0897    1.0000 </r>
       <r>    3.1005    1.0000 </r>
       <r>    3.1117    1.0000 </r>
       <r>    3.1389    1.0000 </r>
       <r>    3.1777    1.0000 </r>
       <r>    3.2930    1.0000 </r>
       <r>    3.3459    1.0000 </r>
       <r>    3.3766    1.0000 </r>
       <r>    3.4190    1.0000 </r>
       <r>    3.6179    1.0000 </r>
       <r>    4.1069    1.0000 </r>
       <r>    4.1167    1.0000 </r>
       <r>    4.1329    1.0000 </r>
       <r>    4.1441    1.0000 </r>
       <r>    4.9916    0.0000 </r>
       <r>    5.0007    0.0000 </r>
       <r>    5.0321    0.0000 </r>
       <r>    5.0362    0.0000 </r>
       <r>    5.6893    0.0000 </r>
       <r>    5.6905    0.0000 </r>
       <r>    5.7260    0.0000 </r>
       <r>    5.7289    0.0000 </r>
       <r>    6.0335    0.0000 </r>
       <r>    6.0486    0.0000 </r>
       <r>    6.0601    0.0000 </r>
       <r>    6.0808    0.0000 </r>
       <r>    6.1529    0.0000 </r>
       <r>    6.1596    0.0000 </r>
       <r>    6.1738    0.0000 </r>
       <r>    6.1964    0.0000 </r>
       <r>    7.0328    0.0000 </r>
       <r>    7.0775    0.0000 </r>
       <r>    7.1040    0.0000 </r>
       <r>    7.1598    0.0000 </r>
       <r>    7.7169    0.0000 </r>
       <r>    7.7785    0.0000 </r>
       <r>    7.8295    0.0000 </r>
       <r>    7.8435    0.0000 </r>
       <r>    7.8713    0.0000 </r>
       <r>    7.8904    0.0000 </r>
       <r>    7.9448    0.0000 </r>
       <r>    7.9935    0.0000 </r>
       <r>    8.1961    0.0000 </r>
       <r>    8.4152    0.0000 </r>
       <r>    8.5626    0.0000 </r>
       <r>    8.7082    0.0000 </r>
       <r>    8.7164    0.0000 </r>
       <r>    8.7303    0.0000 </r>
       <r>    8.8486    0.0000 </r>
       <r>    8.8593    0.0000 </r>
       <r>    8.8976    0.0000 </r>
       <r>    8.9560    0.0000 </r>
       <r>    8.9857    0.0000 </r>
       <r>    9.0205    0.0000 </r>
       <r>    9.0481    0.0000 </r>
       <r>    9.0886    0.0000 </r>
       <r>    9.1253    0.0000 </r>
       <r>    9.2193    0.0000 </r>
       <r>    9.3114    0.0000 </r>
       <r>    9.4283    0.0000 </r>
       <r>    9.4518    0.0000 </r>
       <r>    9.4765    0.0000 </r>
       <r>    9.5884    0.0000 </r>
       <r>    9.6056    0.0000 </r>
       <r>    9.6501    0.0000 </r>
       <r>    9.7271    0.0000 </r>
       <r>    9.7468    0.0000 </r>
       <r>    9.9233    0.0000 </r>
      </set>
      <set comment="kpoint 2">
       <r>  -40.3032    1.0000 </r>
       <r>  -39.4935    1.0000 </r>
       <r>  -19.0302    1.0000 </r>
       <r>  -18.9965    1.0000 </r>
       <r>  -18.9521    1.0000 </r>
       <r>  -18.9450    1.0000 </r>
       <r>  -18.9280    1.0000 </r>
       <r>  -18.9211    1.0000 </r>
       <r>  -18.8525    1.0000 </r>
       <r>  -18.8382    1.0000 </r>
       <r>  -18.8269    1.0000 </r>
       <r>  -18.8131    1.0000 </r>
       <r>  -18.8060    1.0000 </r>
       <r>  -18.8009    1.0000 </r>
       <r>  -18.7994    1.0000 </r>
       <r>  -18.7867    1.0000 </r>
       <r>  -18.7798    1.0000 </r>
       <r>  -18.7664    1.0000 </r>
       <r>  -18.7539    1.0000 </r>
       <r>  -18.7528    1.0000 </r>
       <r>  -18.7467    1.0000 </r>
       <r>  -18.7460    1.0000 </r>
       <r>  -18.7418    1.0000 </r>
       <r>  -18.7408    1.0000 </r>
       <r>  -18.7365    1.0000 </r>
       <r>  -18.7348    1.0000 </r>
       <r>  -18.7301    1.0000 </r>
       <r>  -18.7273    1.0000 </r>
       <r>  -18.7221    1.0000 </r>
       <r>  -18.7178    1.0000 </r>
       <r>  -18.7156    1.0000 </r>
       <r>  -18.7152    1.0000 </r>
       <r>  -18.7132    1.0000 </r>
       <r>  -18.7100    1.0000 </r>
       <r>  -18.7086    1.0000 </r>
       <r>  -18.7070    1.0000 </r>
       <r>  -18.7038    1.0000 </r>
       <r>  -18.7020    1.0000 </r>
       <r>  -18.7014    1.0000 </r>
       <r>  -18.6930    1.0000 </r>
       <r>  -18.6908    1.0000 </r>
       <r>  -18.6859    1.0000 </r>
       <r>  -18.6650    1.0000 </r>
       <r>  -18.6557    1.0000 </r>
       <r>  -18.6508    1.0000 </r>
       <r>  -18.6493    1.0000 </r>
       <r>  -18.6443    1.0000 </r>
       <r>  -18.6357    1.0000 </r>
       <r>  -18.6325    1.0000 </r>
       <r>  -18.6237    1.0000 </r>
       <r>  -18.6091    1.0000 </r>
       <r>  -18.6038    1.0000 </r>
       <r>  -18.5996    1.0000 </r>
       <r>  -18.5979    1.0000 </r>
       <r>  -18.5918    1.0000 </r>
       <r>  -18.5899    1.0000 </r>
       <r>  -18.5851    1.0000 </r>
       <r>  -18.5824    1.0000 </r>
       <r>  -18.5715    1.0000 </r>
       <r>  -18.5641    1.0000 </r>
       <r>  -18.5630    1.0000 </r>
       <r>  -18.5591    1.0000 </r>
       <r>  -18.5591    1.0000 </r>
       <r>  -18.5559    1.0000 </r>
       <r>  -18.5496    1.0000 </r>
       <r>  -18.5349    1.0000 </r>
       <r>  -18.5325    1.0000 </r>
       <r>  -18.5285    1.0000 </r>
       <r>  -18.5086    1.0000 </r>
       <r>  -18.4992    1.0000 </r>
       <r>  -18.4981    1.0000 </r>
       <r>  -18.4850    1.0000 </r>
       <r>  -18.4825    1.0000 </r>
       <r>  -18.4660    1.0000 </r>
       <r>  -18.4533    1.0000 </r>
       <r>  -18.4529    1.0000 </r>
       <r>  -18.4151    1.0000 </r>
       <r>  -18.3749    1.0000 </r>
       <r>  -18.2946    1.0000 </r>
       <r>  -18.2837    1.0000 </r>
       <r>  -18.2655    1.0000 </r>
       <r>  -18.2395    1.0000 </r>
       <r>  -13.7099    1.0000 </r>
       <r>  -13.5577    1.0000 </r>
       <r>  -13.0899    1.0000 </r>
       <r>  -12.9782    1.0000 </r>
       <r>  -12.9666    1.0000 </r>
       <r>  -12.9079    1.0000 </r>
       <r>  -12.8710    1.0000 </r>
       <r>  -12.8159    1.0000 </r>
       <r>  -12.7947    1.0000 </r>
       <r>  -12.7579    1.0000 </r>
       <r>  -12.7434    1.0000 </r>
       <r>  -12.7228    1.0000 </r>
       <r>  -12.7073    1.0000 </r>
       <r>  -12.6317    1.0000 </r>
       <r>  -12.1273    1.0000 </r>
       <r>  -12.0168    1.0000 </r>
       <r>   -9.2083    1.0000 </r>
       <r>   -9.1952    1.0000 </r>
       <r>   -8.9327    1.0000 </r>
       <r>   -8.9165    1.0000 </r>
       <r>   -8.4135    1.0000 </r>
       <r>   -8.4074    1.0000 </r>
       <r>   -8.3932    1.0000 </r>
       <r>   -8.3884    1.0000 </r>
       <r>   -8.2243    1.0000 </r>
       <r>   -8.2192    1.0000 </r>
       <r>   -8.2069    1.0000 </r>
       <r>   -8.2022    1.0000 </r>
       <r>   -7.7728    1.0000 </r>
       <r>   -7.7701    1.0000 </r>
       <r>   -7.6617    1.0000 </r>
       <r>   -7.6599    1.0000 </r>
       <r>   -6.0669    1.0000 </r>
       <r>   -6.0248    1.0000 </r>
       <r>   -5.9803    1.0000 </r>
       <r>   -5.9737    1.0000 </r>
       <r>   -5.9353    1.0000 </r>
       <r>   -5.8577    1.0000 </r>
       <r>   -5.8279    1.0000 </r>
       <r>   -5.8235    1.0000 </r>
       <r>   -5.7217    1.0000 </r>
       <r>   -5.6729    1.0000 </r>
       <r>   -5.5903    1.0000 </r>
       <r>   -5.5743    1.0000 </r>
       <r>   -4.5188    1.0000 </r>
       <r>   -4.5023    1.0000 </r>
       <r>   -4.3607    1.0000 </r>
       <r>   -4.3400    1.0000 </r>
       <r>   -1.2600    1.0000 </r>
       <r>   -1.2510    1.0000 </r>
       <r>   -0.8976    1.0000 </r>
       <r>   -0.8859    1.0000 </r>
       <r>   -0.5760    1.0000 </r>
       <r>   -0.4784    1.0000 </r>
       <r>   -0.1558    1.0000 </r>
       <r>   -0.0708    1.0000 </r>
       <r>   -0.0398    1.0000 </r>
       <r>   -0.0239    1.0000 </r>
       <r>    0.0242    1.0000 </r>
       <r>    0.0490    1.0000 </r>
       <r>    0.1407    1.0000 </r>
       <r>    0.1604    1.0000 </r>
       <r>    0.1912    1.0000 </r>
       <r>    0.2426    1.0000 </r>
       <r>    0.3720    1.0000 </r>
       <r>    0.4003    1.0000 </r>
       <r>    0.4625    1.0000 </r>
       <r>    0.4818    1.0000 </r>
       <r>    0.5104    1.0000 </r>
       <r>    0.5373    1.0000 </r>
       <r>    0.5466    1.0000 </r>
       <r>    0.5603    1.0000 </r>
       <r>    0.6408    1.0000 </r>
       <r>    0.6696    1.0000 </r>
       <r>    0.7838    1.0000 </r>
       <r>    0.8088    1.0000 </r>
       <r>    0.8824    1.0000 </r>
       <r>    0.8989    1.0000 </r>
       <r>    0.9318    1.0000 </r>
       <r>    0.9815    1.0000 </r>
       <r>    1.0552    1.0000 </r>
       <r>    1.0703    1.0000 </r>
       <r>    1.1531    1.0000 </r>
       <r>    1.1848    1.0000 </r>
       <r>    1.2117    1.0000 </r>
       <r>    1.2187    1.0000 </r>
       <r>    1.2546    1.0000 </r>
       <r>    1.2990    1.0000 </r>
       <r>    1.3140    1.0000 </r>
       <r>    1.3633    1.0000 </r>
       <r>    1.3833    1.0000 </r>
       <r>    1.4369    1.0000 </r>
       <r>    1.5023    1.0000 </r>
       <r>    1.5217    1.0000 </r>
       <r>    1.5743    1.0000 </r>
       <r>    1.6463    1.0000 </r>
       <r>    1.6915    1.0000 </r>
       <r>    1.7720    1.0000 </r>
       <r>    1.7899    1.0000 </r>
       <r>    1.8589    1.0000 </r>
       <r>    1.8860    1.0000 </r>
       <r>    1.9299    1.0000 </r>
       <r>    1.9950    1.0000 </r>
       <r>    2.0388    1.0000 </r>
       <r>    2.0613    1.0000 </r>
       <r>    2.0798    1.0000 </r>
       <r>    2.1502    1.0000 </r>
       <r>    2.1944    1.0000 </r>
       <r>    2.2102    1.0000 </r>
       <r>    2.2425    1.0000 </r>
       <r>    2.3177    1.0000 </r>
       <r>    2.3727    1.0000 </r>
       <r>    2.4796    1.0000 </r>
       <r>    2.5003    1.0000 </r>
       <r>    2.5140    1.0000 </r>
       <r>    2.5372    1.0000 </r>
       <r>    2.5921    1.0000 </r>
       <r>    2.6144    1.0000 </r>
       <r>    2.6316    1.0000 </r>
       <r>    2.6502    1.0000 </r>
       <r>    2.6879    1.0000 </r>
       <r>    2.7116    1.0000 </r>
       <r>    2.7691    1.0000 </r>
       <r>    2.7885    1.0000 </r>
       <r>    2.8168    1.0000 </r>
       <r>    2.8502    1.0000 </r>
       <r>    2.8954    1.0000 </r>
       <r>    2.9261    1.0000 </r>
       <r>    2.9694    1.0000 </r>
       <r>    2.9865    1.0000 </r>
       <r>    3.0325    1.0000 </r>
       <r>    3.1071    1.0000 </r>
       <r>    3.1375    1.0000 </r>
       <r>    3.1699    1.0000 </r>
       <r>    3.2514    1.0000 </r>
       <r>    3.3045    1.0000 </r>
       <r>    3.3910    1.0000 </r>
       <r>    3.3958    1.0000 </r>
       <r>    3.4452    1.0000 </r>
       <r>    3.4668    1.0000 </r>
       <r>    3.5176    1.0000 </r>
       <r>    3.5295    1.0000 </r>
       <r>    3.6140    1.0000 </r>
       <r>    3.7674    1.0000 </r>
       <r>    5.6021    0.0000 </r>
       <r>    5.6092    0.0000 </r>
       <r>    5.6239    0.0000 </r>
       <r>    5.6265    0.0000 </r>
       <r>    5.6466    0.0000 </r>
       <r>    5.6520    0.0000 </r>
       <r>    5.7253    0.0000 </r>
       <r>    5.7294    0.0000 </r>
       <r>    7.1228    0.0000 </r>
       <r>    7.1399    0.0000 </r>
       <r>    7.1965    0.0000 </r>
       <r>    7.2502    0.0000 </r>
       <r>    7.2623    0.0000 </r>
       <r>    7.2787    0.0000 </r>
       <r>    7.3421    0.0000 </r>
       <r>    7.3653    0.0000 </r>
       <r>    7.4025    0.0000 </r>
       <r>    7.4169    0.0000 </r>
       <r>    7.4461    0.0000 </r>
       <r>    7.4603    0.0000 </r>
       <r>    7.7366    0.0000 </r>
       <r>    7.7587    0.0000 </r>
       <r>    7.7699    0.0000 </r>
       <r>    7.7724    0.0000 </r>
       <r>    7.7956    0.0000 </r>
       <r>    7.8068    0.0000 </r>
       <r>    7.8557    0.0000 </r>
       <r>    7.8924    0.0000 </r>
       <r>    7.9336    0.0000 </r>
       <r>    7.9414    0.0000 </r>
       <r>    7.9614    0.0000 </r>
       <r>    7.9781    0.0000 </r>
       <r>    8.0117    0.0000 </r>
       <r>    8.1854    0.0000 </r>
       <r>    8.2796    0.0000 </r>
       <r>    8.2811    0.0000 </r>
       <r>    8.5762    0.0000 </r>
       <r>    8.5956    0.0000 </r>
       <r>    8.6980    0.0000 </r>
       <r>    8.7067    0.0000 </r>
       <r>    8.7414    0.0000 </r>
       <r>    8.7632    0.0000 </r>
       <r>    8.8484    0.0000 </r>
       <r>    8.8535    0.0000 </r>
       <r>    9.0700    0.0000 </r>
       <r>    9.0774    0.0000 </r>
       <r>    9.3145    0.0000 </r>
       <r>    9.3500    0.0000 </r>
       <r>    9.3614    0.0000 </r>
       <r>    9.4089    0.0000 </r>
       <r>    9.8385    0.0000 </r>
       <r>   10.0604    0.0000 </r>
       <r>   10.1834    0.0000 </r>
       <r>   10.2929    0.0000 </r>
      </set>
      <set comment="kpoint 3">
       <r>  -40.3032    1.0000 </r>
       <r>  -39.4935    1.0000 </r>
       <r>  -19.0302    1.0000 </r>
       <r>  -18.9965    1.0000 </r>
       <r>  -18.9521    1.0000 </r>
       <r>  -18.9450    1.0000 </r>
       <r>  -18.9281    1.0000 </r>
       <r>  -18.9211    1.0000 </r>
       <r>  -18.8525    1.0000 </r>
       <r>  -18.8382    1.0000 </r>
       <r>  -18.8269    1.0000 </r>
       <r>  -18.8130    1.0000 </r>
       <r>  -18.8061    1.0000 </r>
       <r>  -18.8010    1.0000 </r>
       <r>  -18.7994    1.0000 </r>
       <r>  -18.7866    1.0000 </r>
       <r>  -18.7799    1.0000 </r>
       <r>  -18.7666    1.0000 </r>
       <r>  -18.7539    1.0000 </r>
       <r>  -18.7527    1.0000 </r>
       <r>  -18.7463    1.0000 </r>
       <r>  -18.7458    1.0000 </r>
       <r>  -18.7421    1.0000 </r>
       <r>  -18.7410    1.0000 </r>
       <r>  -18.7364    1.0000 </r>
       <r>  -18.7350    1.0000 </r>
       <r>  -18.7300    1.0000 </r>
       <r>  -18.7277    1.0000 </r>
       <r>  -18.7219    1.0000 </r>
       <r>  -18.7176    1.0000 </r>
       <r>  -18.7161    1.0000 </r>
       <r>  -18.7150    1.0000 </r>
       <r>  -18.7133    1.0000 </r>
       <r>  -18.7103    1.0000 </r>
       <r>  -18.7079    1.0000 </r>
       <r>  -18.7067    1.0000 </r>
       <r>  -18.7036    1.0000 </r>
       <r>  -18.7019    1.0000 </r>
       <r>  -18.7015    1.0000 </r>
       <r>  -18.6930    1.0000 </r>
       <r>  -18.6912    1.0000 </r>
       <r>  -18.6860    1.0000 </r>
       <r>  -18.6651    1.0000 </r>
       <r>  -18.6557    1.0000 </r>
       <r>  -18.6508    1.0000 </r>
       <r>  -18.6492    1.0000 </r>
       <r>  -18.6443    1.0000 </r>
       <r>  -18.6358    1.0000 </r>
       <r>  -18.6325    1.0000 </r>
       <r>  -18.6237    1.0000 </r>
       <r>  -18.6091    1.0000 </r>
       <r>  -18.6038    1.0000 </r>
       <r>  -18.5996    1.0000 </r>
       <r>  -18.5979    1.0000 </r>
       <r>  -18.5918    1.0000 </r>
       <r>  -18.5899    1.0000 </r>
       <r>  -18.5850    1.0000 </r>
       <r>  -18.5824    1.0000 </r>
       <r>  -18.5715    1.0000 </r>
       <r>  -18.5640    1.0000 </r>
       <r>  -18.5630    1.0000 </r>
       <r>  -18.5593    1.0000 </r>
       <r>  -18.5590    1.0000 </r>
       <r>  -18.5559    1.0000 </r>
       <r>  -18.5496    1.0000 </r>
       <r>  -18.5349    1.0000 </r>
       <r>  -18.5325    1.0000 </r>
       <r>  -18.5285    1.0000 </r>
       <r>  -18.5086    1.0000 </r>
       <r>  -18.4992    1.0000 </r>
       <r>  -18.4981    1.0000 </r>
       <r>  -18.4850    1.0000 </r>
       <r>  -18.4825    1.0000 </r>
       <r>  -18.4660    1.0000 </r>
       <r>  -18.4533    1.0000 </r>
       <r>  -18.4529    1.0000 </r>
       <r>  -18.4151    1.0000 </r>
       <r>  -18.3749    1.0000 </r>
       <r>  -18.2946    1.0000 </r>
       <r>  -18.2837    1.0000 </r>
       <r>  -18.2655    1.0000 </r>
       <r>  -18.2395    1.0000 </r>
       <r>  -13.7108    1.0000 </r>
       <r>  -13.5566    1.0000 </r>
       <r>  -13.0908    1.0000 </r>
       <r>  -12.9931    1.0000 </r>
       <r>  -12.9445    1.0000 </r>
       <r>  -12.9112    1.0000 </r>
       <r>  -12.8616    1.0000 </r>
       <r>  -12.8254    1.0000 </r>
       <r>  -12.7849    1.0000 </r>
       <r>  -12.7726    1.0000 </r>
       <r>  -12.7502    1.0000 </r>
       <r>  -12.7177    1.0000 </r>
       <r>  -12.7053    1.0000 </r>
       <r>  -12.6316    1.0000 </r>
       <r>  -12.1271    1.0000 </r>
       <r>  -12.0178    1.0000 </r>
       <r>   -9.4047    1.0000 </r>
       <r>   -9.1288    1.0000 </r>
       <r>   -8.6347    1.0000 </r>
       <r>   -8.6033    1.0000 </r>
       <r>   -8.5858    1.0000 </r>
       <r>   -8.5434    1.0000 </r>
       <r>   -8.3743    1.0000 </r>
       <r>   -8.3454    1.0000 </r>
       <r>   -8.3218    1.0000 </r>
       <r>   -8.2835    1.0000 </r>
       <r>   -8.1155    1.0000 </r>
       <r>   -8.1126    1.0000 </r>
       <r>   -8.0793    1.0000 </r>
       <r>   -8.0763    1.0000 </r>
       <r>   -7.4415    1.0000 </r>
       <r>   -7.4406    1.0000 </r>
       <r>   -6.4621    1.0000 </r>
       <r>   -6.4386    1.0000 </r>
       <r>   -6.4273    1.0000 </r>
       <r>   -6.4038    1.0000 </r>
       <r>   -5.6282    1.0000 </r>
       <r>   -5.5609    1.0000 </r>
       <r>   -5.4941    1.0000 </r>
       <r>   -5.4728    1.0000 </r>
       <r>   -5.4636    1.0000 </r>
       <r>   -5.3594    1.0000 </r>
       <r>   -5.2377    1.0000 </r>
       <r>   -5.1981    1.0000 </r>
       <r>   -5.1687    1.0000 </r>
       <r>   -5.0948    1.0000 </r>
       <r>   -3.9780    1.0000 </r>
       <r>   -3.6604    1.0000 </r>
       <r>   -1.4144    1.0000 </r>
       <r>   -1.3847    1.0000 </r>
       <r>   -1.2847    1.0000 </r>
       <r>   -1.2513    1.0000 </r>
       <r>   -0.5112    1.0000 </r>
       <r>   -0.4982    1.0000 </r>
       <r>   -0.4889    1.0000 </r>
       <r>   -0.4793    1.0000 </r>
       <r>   -0.4412    1.0000 </r>
       <r>   -0.4209    1.0000 </r>
       <r>   -0.3907    1.0000 </r>
       <r>   -0.3665    1.0000 </r>
       <r>   -0.2514    1.0000 </r>
       <r>   -0.1378    1.0000 </r>
       <r>   -0.0176    1.0000 </r>
       <r>    0.0540    1.0000 </r>
       <r>    0.1510    1.0000 </r>
       <r>    0.2142    1.0000 </r>
       <r>    0.2650    1.0000 </r>
       <r>    0.3164    1.0000 </r>
       <r>    0.3995    1.0000 </r>
       <r>    0.5118    1.0000 </r>
       <r>    0.5905    1.0000 </r>
       <r>    0.6423    1.0000 </r>
       <r>    0.6659    1.0000 </r>
       <r>    0.6992    1.0000 </r>
       <r>    0.7178    1.0000 </r>
       <r>    0.7516    1.0000 </r>
       <r>    0.7910    1.0000 </r>
       <r>    0.8449    1.0000 </r>
       <r>    0.9705    1.0000 </r>
       <r>    1.0507    1.0000 </r>
       <r>    1.1397    1.0000 </r>
       <r>    1.1822    1.0000 </r>
       <r>    1.2015    1.0000 </r>
       <r>    1.2797    1.0000 </r>
       <r>    1.3036    1.0000 </r>
       <r>    1.4050    1.0000 </r>
       <r>    1.4527    1.0000 </r>
       <r>    1.4631    1.0000 </r>
       <r>    1.5142    1.0000 </r>
       <r>    1.5790    1.0000 </r>
       <r>    1.6187    1.0000 </r>
       <r>    1.6866    1.0000 </r>
       <r>    1.7092    1.0000 </r>
       <r>    1.7125    1.0000 </r>
       <r>    1.7798    1.0000 </r>
       <r>    1.8125    1.0000 </r>
       <r>    1.8978    1.0000 </r>
       <r>    1.9346    1.0000 </r>
       <r>    1.9581    1.0000 </r>
       <r>    2.0392    1.0000 </r>
       <r>    2.0422    1.0000 </r>
       <r>    2.1857    1.0000 </r>
       <r>    2.2260    1.0000 </r>
       <r>    2.2732    1.0000 </r>
       <r>    2.3913    1.0000 </r>
       <r>    2.4088    1.0000 </r>
       <r>    2.4301    1.0000 </r>
       <r>    2.4589    1.0000 </r>
       <r>    2.4831    1.0000 </r>
       <r>    2.4932    1.0000 </r>
       <r>    2.4986    1.0000 </r>
       <r>    2.5033    1.0000 </r>
       <r>    2.5068    1.0000 </r>
       <r>    2.5546    1.0000 </r>
       <r>    2.5665    1.0000 </r>
       <r>    2.5967    1.0000 </r>
       <r>    2.6496    1.0000 </r>
       <r>    2.7097    1.0000 </r>
       <r>    2.7211    1.0000 </r>
       <r>    2.7750    1.0000 </r>
       <r>    2.8004    1.0000 </r>
       <r>    2.8285    1.0000 </r>
       <r>    2.8446    1.0000 </r>
       <r>    2.8670    1.0000 </r>
       <r>    2.9014    1.0000 </r>
       <r>    2.9291    1.0000 </r>
       <r>    2.9442    1.0000 </r>
       <r>    2.9921    1.0000 </r>
       <r>    3.0361    1.0000 </r>
       <r>    3.0748    1.0000 </r>
       <r>    3.0970    1.0000 </r>
       <r>    3.2437    1.0000 </r>
       <r>    3.2511    1.0000 </r>
       <r>    3.2880    1.0000 </r>
       <r>    3.3207    1.0000 </r>
       <r>    3.3270    1.0000 </r>
       <r>    3.3699    1.0000 </r>
       <r>    3.3962    1.0000 </r>
       <r>    3.4716    1.0000 </r>
       <r>    3.5702    1.0000 </r>
       <r>    4.1531    1.0000 </r>
       <r>    4.1643    1.0000 </r>
       <r>    4.1820    1.0000 </r>
       <r>    4.1947    1.0000 </r>
       <r>    5.0680    0.0000 </r>
       <r>    5.0717    0.0000 </r>
       <r>    5.1019    0.0000 </r>
       <r>    5.1064    0.0000 </r>
       <r>    5.6974    0.0000 </r>
       <r>    5.6994    0.0000 </r>
       <r>    5.7337    0.0000 </r>
       <r>    5.7357    0.0000 </r>
       <r>    6.0761    0.0000 </r>
       <r>    6.0899    0.0000 </r>
       <r>    6.1000    0.0000 </r>
       <r>    6.1158    0.0000 </r>
       <r>    6.1761    0.0000 </r>
       <r>    6.1824    0.0000 </r>
       <r>    6.1967    0.0000 </r>
       <r>    6.2217    0.0000 </r>
       <r>    6.6590    0.0000 </r>
       <r>    6.7527    0.0000 </r>
       <r>    6.8000    0.0000 </r>
       <r>    6.9067    0.0000 </r>
       <r>    7.1596    0.0000 </r>
       <r>    7.2085    0.0000 </r>
       <r>    7.2409    0.0000 </r>
       <r>    7.3306    0.0000 </r>
       <r>    7.5640    0.0000 </r>
       <r>    7.7506    0.0000 </r>
       <r>    7.8536    0.0000 </r>
       <r>    7.8944    0.0000 </r>
       <r>    7.9193    0.0000 </r>
       <r>    8.2535    0.0000 </r>
       <r>    8.2772    0.0000 </r>
       <r>    8.3956    0.0000 </r>
       <r>    8.6147    0.0000 </r>
       <r>    8.6152    0.0000 </r>
       <r>    8.7378    0.0000 </r>
       <r>    8.8314    0.0000 </r>
       <r>    8.8880    0.0000 </r>
       <r>    8.9570    0.0000 </r>
       <r>    8.9739    0.0000 </r>
       <r>    8.9954    0.0000 </r>
       <r>    9.0124    0.0000 </r>
       <r>    9.0519    0.0000 </r>
       <r>    9.0796    0.0000 </r>
       <r>    9.1982    0.0000 </r>
       <r>    9.3953    0.0000 </r>
       <r>    9.4243    0.0000 </r>
       <r>    9.6254    0.0000 </r>
       <r>    9.6354    0.0000 </r>
       <r>    9.6493    0.0000 </r>
       <r>    9.6988    0.0000 </r>
       <r>    9.7283    0.0000 </r>
       <r>    9.9994    0.0000 </r>
       <r>   10.0304    0.0000 </r>
       <r>   10.0611    0.0000 </r>
      </set>
      <set comment="kpoint 4">
       <r>  -40.3032    1.0000 </r>
       <r>  -39.4935    1.0000 </r>
       <r>  -19.0302    1.0000 </r>
       <r>  -18.9965    1.0000 </r>
       <r>  -18.9521    1.0000 </r>
       <r>  -18.9450    1.0000 </r>
       <r>  -18.9280    1.0000 </r>
       <r>  -18.9211    1.0000 </r>
       <r>  -18.8525    1.0000 </r>
       <r>  -18.8382    1.0000 </r>
       <r>  -18.8269    1.0000 </r>
       <r>  -18.8130    1.0000 </r>
       <r>  -18.8061    1.0000 </r>
       <r>  -18.8009    1.0000 </r>
       <r>  -18.7994    1.0000 </r>
       <r>  -18.7867    1.0000 </r>
       <r>  -18.7798    1.0000 </r>
       <r>  -18.7664    1.0000 </r>
       <r>  -18.7539    1.0000 </r>
       <r>  -18.7528    1.0000 </r>
       <r>  -18.7467    1.0000 </r>
       <r>  -18.7460    1.0000 </r>
       <r>  -18.7418    1.0000 </r>
       <r>  -18.7408    1.0000 </r>
       <r>  -18.7365    1.0000 </r>
       <r>  -18.7348    1.0000 </r>
       <r>  -18.7301    1.0000 </r>
       <r>  -18.7273    1.0000 </r>
       <r>  -18.7221    1.0000 </r>
       <r>  -18.7178    1.0000 </r>
       <r>  -18.7156    1.0000 </r>
       <r>  -18.7152    1.0000 </r>
       <r>  -18.7132    1.0000 </r>
       <r>  -18.7100    1.0000 </r>
       <r>  -18.7086    1.0000 </r>
       <r>  -18.7071    1.0000 </r>
       <r>  -18.7038    1.0000 </r>
       <r>  -18.7021    1.0000 </r>
       <r>  -18.7014    1.0000 </r>
       <r>  -18.6930    1.0000 </r>
       <r>  -18.6908    1.0000 </r>
       <r>  -18.6859    1.0000 </r>
       <r>  -18.6650    1.0000 </r>
       <r>  -18.6557    1.0000 </r>
       <r>  -18.6508    1.0000 </r>
       <r>  -18.6493    1.0000 </r>
       <r>  -18.6443    1.0000 </r>
       <r>  -18.6357    1.0000 </r>
       <r>  -18.6324    1.0000 </r>
       <r>  -18.6237    1.0000 </r>
       <r>  -18.6091    1.0000 </r>
       <r>  -18.6038    1.0000 </r>
       <r>  -18.5996    1.0000 </r>
       <r>  -18.5979    1.0000 </r>
       <r>  -18.5917    1.0000 </r>
       <r>  -18.5899    1.0000 </r>
       <r>  -18.5850    1.0000 </r>
       <r>  -18.5824    1.0000 </r>
       <r>  -18.5715    1.0000 </r>
       <r>  -18.5640    1.0000 </r>
       <r>  -18.5630    1.0000 </r>
       <r>  -18.5591    1.0000 </r>
       <r>  -18.5591    1.0000 </r>
       <r>  -18.5559    1.0000 </r>
       <r>  -18.5496    1.0000 </r>
       <r>  -18.5349    1.0000 </r>
       <r>  -18.5325    1.0000 </r>
       <r>  -18.5285    1.0000 </r>
       <r>  -18.5086    1.0000 </r>
       <r>  -18.4992    1.0000 </r>
       <r>  -18.4981    1.0000 </r>
       <r>  -18.4850    1.0000 </r>
       <r>  -18.4825    1.0000 </r>
       <r>  -18.4660    1.0000 </r>
       <r>  -18.4533    1.0000 </r>
       <r>  -18.4529    1.0000 </r>
       <r>  -18.4151    1.0000 </r>
       <r>  -18.3749    1.0000 </r>
       <r>  -18.2946    1.0000 </r>
       <r>  -18.2837    1.0000 </r>
       <r>  -18.2655    1.0000 </r>
       <r>  -18.2395    1.0000 </r>
       <r>  -13.7098    1.0000 </r>
       <r>  -13.5578    1.0000 </r>
       <r>  -13.0889    1.0000 </r>
       <r>  -12.9779    1.0000 </r>
       <r>  -12.9663    1.0000 </r>
       <r>  -12.9081    1.0000 </r>
       <r>  -12.8705    1.0000 </r>
       <r>  -12.8158    1.0000 </r>
       <r>  -12.7957    1.0000 </r>
       <r>  -12.7584    1.0000 </r>
       <r>  -12.7437    1.0000 </r>
       <r>  -12.7231    1.0000 </r>
       <r>  -12.7079    1.0000 </r>
       <r>  -12.6324    1.0000 </r>
       <r>  -12.1272    1.0000 </r>
       <r>  -12.0177    1.0000 </r>
       <r>   -9.2087    1.0000 </r>
       <r>   -9.1944    1.0000 </r>
       <r>   -8.9291    1.0000 </r>
       <r>   -8.9142    1.0000 </r>
       <r>   -8.4328    1.0000 </r>
       <r>   -8.4276    1.0000 </r>
       <r>   -8.4142    1.0000 </r>
       <r>   -8.4090    1.0000 </r>
       <r>   -8.2038    1.0000 </r>
       <r>   -8.1980    1.0000 </r>
       <r>   -8.1857    1.0000 </r>
       <r>   -8.1814    1.0000 </r>
       <r>   -7.7865    1.0000 </r>
       <r>   -7.7839    1.0000 </r>
       <r>   -7.6506    1.0000 </r>
       <r>   -7.6485    1.0000 </r>
       <r>   -6.0966    1.0000 </r>
[...]
       <r>    8.7942    0.0000 </r>
       <r>    8.8065    0.0000 </r>
       <r>    8.8131    0.0000 </r>
       <r>    8.8249    0.0000 </r>
       <r>    8.8442    0.0000 </r>
       <r>    8.8576    0.0000 </r>
       <r>    9.4800    0.0000 </r>
       <r>    9.7253    0.0000 </r>
       <r>    9.7946    0.0000 </r>
       <r>    9.9463    0.0000 </r>
       <r>   10.2220    0.0000 </r>
       <r>   10.2854    0.0000 </r>
      </set>
     </set>
    </set>
   </array>
  </eigenvalues>
  <separator name="orbital magnetization" >
   <v name="MAGDIPOLOUT">      0.00000000      0.00000000      0.00000000</v>
  </separator>
  <dos>
   <i name="efermi">      4.21906494 </i>
   <total>
    <array>
     <dimension dim="1">gridpoints</dimension>
     <dimension dim="2">spin</dimension>
     <field>energy</field>
     <field>total</field>
     <field>integrated</field>
     <set>
      <set comment="spin 1">
       <r>   -42.8370     0.0000     0.0000 </r>
       <r>   -42.6512     0.0000     0.0000 </r>
       <r>   -42.4654     0.0000     0.0000 </r>
       <r>   -42.2796     0.0000     0.0000 </r>
       <r>   -42.0938     0.0000     0.0000 </r>
       <r>   -41.9080     0.0000     0.0000 </r>
       <r>   -41.7222     0.0000     0.0000 </r>
       <r>   -41.5363     0.0000     0.0000 </r>
       <r>   -41.3505     0.0000     0.0000 </r>
       <r>   -41.1647     0.0000     0.0000 </r>
       <r>   -40.9789     0.0000     0.0000 </r>
       <r>   -40.7931     0.0000     0.0000 </r>
       <r>   -40.6073     0.0000     0.0000 </r>
       <r>   -40.4215     0.0000     0.0000 </r>
       <r>   -40.2357     0.0000     2.0000 </r>
       <r>   -40.0499     0.0000     2.0000 </r>
       <r>   -39.8641     0.0000     2.0000 </r>
       <r>   -39.6783     0.0000     2.0000 </r>
       <r>   -39.4924     0.0000     4.0000 </r>
       <r>   -39.3066     0.0000     4.0000 </r>
       <r>   -39.1208     0.0000     4.0000 </r>
       <r>   -38.9350     0.0000     4.0000 </r>
       <r>   -38.7492     0.0000     4.0000 </r>
       <r>   -38.5634     0.0000     4.0000 </r>
       <r>   -38.3776     0.0000     4.0000 </r>
       <r>   -38.1918     0.0000     4.0000 </r>
       <r>   -38.0060     0.0000     4.0000 </r>
       <r>   -37.8202     0.0000     4.0000 </r>
       <r>   -37.6344     0.0000     4.0000 </r>
       <r>   -37.4486     0.0000     4.0000 </r>
       <r>   -37.2627     0.0000     4.0000 </r>
       <r>   -37.0769     0.0000     4.0000 </r>
       <r>   -36.8911     0.0000     4.0000 </r>
       <r>   -36.7053     0.0000     4.0000 </r>
       <r>   -36.5195     0.0000     4.0000 </r>
       <r>   -36.3337     0.0000     4.0000 </r>
       <r>   -36.1479     0.0000     4.0000 </r>
       <r>   -35.9621     0.0000     4.0000 </r>
       <r>   -35.7763     0.0000     4.0000 </r>
       <r>   -35.5905     0.0000     4.0000 </r>
       <r>   -35.4047     0.0000     4.0000 </r>
       <r>   -35.2188     0.0000     4.0000 </r>
       <r>   -35.0330     0.0000     4.0000 </r>
       <r>   -34.8472     0.0000     4.0000 </r>
       <r>   -34.6614     0.0000     4.0000 </r>
       <r>   -34.4756     0.0000     4.0000 </r>
       <r>   -34.2898     0.0000     4.0000 </r>
       <r>   -34.1040     0.0000     4.0000 </r>
       <r>   -33.9182     0.0000     4.0000 </r>
       <r>   -33.7324     0.0000     4.0000 </r>
       <r>   -33.5466     0.0000     4.0000 </r>
       <r>   -33.3608     0.0000     4.0000 </r>
       <r>   -33.1749     0.0000     4.0000 </r>
       <r>   -32.9891     0.0000     4.0000 </r>
       <r>   -32.8033     0.0000     4.0000 </r>
       <r>   -32.6175     0.0000     4.0000 </r>
       <r>   -32.4317     0.0000     4.0000 </r>
       <r>   -32.2459     0.0000     4.0000 </r>
       <r>   -32.0601     0.0000     4.0000 </r>
       <r>   -31.8743     0.0000     4.0000 </r>
       <r>   -31.6885     0.0000     4.0000 </r>
       <r>   -31.5027     0.0000     4.0000 </r>
       <r>   -31.3169     0.0000     4.0000 </r>
       <r>   -31.1311     0.0000     4.0000 </r>
       <r>   -30.9452     0.0000     4.0000 </r>
       <r>   -30.7594     0.0000     4.0000 </r>
       <r>   -30.5736     0.0000     4.0000 </r>
       <r>   -30.3878     0.0000     4.0000 </r>
       <r>   -30.2020     0.0000     4.0000 </r>
       <r>   -30.0162     0.0000     4.0000 </r>
       <r>   -29.8304     0.0000     4.0000 </r>
       <r>   -29.6446     0.0000     4.0000 </r>
       <r>   -29.4588     0.0000     4.0000 </r>
       <r>   -29.2730     0.0000     4.0000 </r>
       <r>   -29.0872     0.0000     4.0000 </r>
       <r>   -28.9013     0.0000     4.0000 </r>
       <r>   -28.7155     0.0000     4.0000 </r>
       <r>   -28.5297     0.0000     4.0000 </r>
       <r>   -28.3439     0.0000     4.0000 </r>
       <r>   -28.1581     0.0000     4.0000 </r>
       <r>   -27.9723     0.0000     4.0000 </r>
       <r>   -27.7865     0.0000     4.0000 </r>
       <r>   -27.6007     0.0000     4.0000 </r>
       <r>   -27.4149     0.0000     4.0000 </r>
       <r>   -27.2291     0.0000     4.0000 </r>
       <r>   -27.0433     0.0000     4.0000 </r>
       <r>   -26.8575     0.0000     4.0000 </r>
       <r>   -26.6716     0.0000     4.0000 </r>
       <r>   -26.4858     0.0000     4.0000 </r>
       <r>   -26.3000     0.0000     4.0000 </r>
       <r>   -26.1142     0.0000     4.0000 </r>
       <r>   -25.9284     0.0000     4.0000 </r>
       <r>   -25.7426     0.0000     4.0000 </r>
       <r>   -25.5568     0.0000     4.0000 </r>
       <r>   -25.3710     0.0000     4.0000 </r>
       <r>   -25.1852     0.0000     4.0000 </r>
       <r>   -24.9994     0.0000     4.0000 </r>
       <r>   -24.8136     0.0000     4.0000 </r>
       <r>   -24.6277     0.0000     4.0000 </r>
       <r>   -24.4419     0.0000     4.0000 </r>
       <r>   -24.2561     0.0000     4.0000 </r>
       <r>   -24.0703     0.0000     4.0000 </r>
       <r>   -23.8845     0.0000     4.0000 </r>
       <r>   -23.6987     0.0000     4.0000 </r>
       <r>   -23.5129     0.0000     4.0000 </r>
       <r>   -23.3271     0.0000     4.0000 </r>
       <r>   -23.1413     0.0000     4.0000 </r>
       <r>   -22.9555     0.0000     4.0000 </r>
       <r>   -22.7697     0.0000     4.0000 </r>
       <r>   -22.5838     0.0000     4.0000 </r>
       <r>   -22.3980     0.0000     4.0000 </r>
       <r>   -22.2122     0.0000     4.0000 </r>
       <r>   -22.0264     0.0000     4.0000 </r>
       <r>   -21.8406     0.0000     4.0000 </r>
       <r>   -21.6548     0.0000     4.0000 </r>
       <r>   -21.4690     0.0000     4.0000 </r>
       <r>   -21.2832     0.0000     4.0000 </r>
       <r>   -21.0974     0.0000     4.0000 </r>
       <r>   -20.9116     0.0000     4.0000 </r>
       <r>   -20.7258     0.0000     4.0000 </r>
       <r>   -20.5400     0.0000     4.0000 </r>
       <r>   -20.3541     0.0000     4.0000 </r>
       <r>   -20.1683     0.0000     4.0000 </r>
       <r>   -19.9825     0.0000     4.0000 </r>
       <r>   -19.7967     0.0000     4.0000 </r>
       <r>   -19.6109     0.0000     4.0000 </r>
       <r>   -19.4251     0.0000     4.0000 </r>
       <r>   -19.2393     0.0000     4.0000 </r>
       <r>   -19.0535     0.0000     4.0000 </r>
       <r>   -18.8677     0.0000    16.0000 </r>
       <r>   -18.6819     0.0000    84.0000 </r>
       <r>   -18.4961     0.0000   142.0000 </r>
       <r>   -18.3102     0.0000   156.0000 </r>
       <r>   -18.1244     0.0000   164.0000 </r>
       <r>   -17.9386     0.0000   164.0000 </r>
       <r>   -17.7528     0.0000   164.0000 </r>
       <r>   -17.5670     0.0000   164.0000 </r>
       <r>   -17.3812     0.0000   164.0000 </r>
       <r>   -17.1954     0.0000   164.0000 </r>
       <r>   -17.0096     0.0000   164.0000 </r>
       <r>   -16.8238     0.0000   164.0000 </r>
       <r>   -16.6380     0.0000   164.0000 </r>
       <r>   -16.4522     0.0000   164.0000 </r>
       <r>   -16.2664     0.0000   164.0000 </r>
       <r>   -16.0805     0.0000   164.0000 </r>
       <r>   -15.8947     0.0000   164.0000 </r>
       <r>   -15.7089     0.0000   164.0000 </r>
       <r>   -15.5231     0.0000   164.0000 </r>
       <r>   -15.3373     0.0000   164.0000 </r>
       <r>   -15.1515     0.0000   164.0000 </r>
       <r>   -14.9657     0.0000   164.0000 </r>
       <r>   -14.7799     0.0000   164.0000 </r>
       <r>   -14.5941     0.0000   164.0000 </r>
       <r>   -14.4083     0.0000   164.0000 </r>
       <r>   -14.2225     0.0000   164.0000 </r>
       <r>   -14.0366     0.0000   164.0000 </r>
       <r>   -13.8508     0.0000   164.0000 </r>
       <r>   -13.6650     0.0000   166.0000 </r>
       <r>   -13.4792     0.0000   168.0000 </r>
       <r>   -13.2934     0.0000   168.0000 </r>
       <r>   -13.1076     0.0000   168.0000 </r>
       <r>   -12.9218     0.0000   174.0000 </r>
       <r>   -12.7360     0.0000   186.0000 </r>
       <r>   -12.5502     0.0000   192.0000 </r>
       <r>   -12.3644     0.0000   192.0000 </r>
       <r>   -12.1786     0.0000   192.0000 </r>
       <r>   -11.9928     0.0000   196.0000 </r>
       <r>   -11.8069     0.0000   196.0000 </r>
       <r>   -11.6211     0.0000   196.0000 </r>
       <r>   -11.4353     0.0000   196.0000 </r>
       <r>   -11.2495     0.0000   196.0000 </r>
       <r>   -11.0637     0.0000   196.0000 </r>
       <r>   -10.8779     0.0000   196.0000 </r>
       <r>   -10.6921     0.0000   196.0000 </r>
       <r>   -10.5063     0.0000   196.0000 </r>
       <r>   -10.3205     0.0000   196.0000 </r>
       <r>   -10.1347     0.0000   196.0000 </r>
       <r>    -9.9489     0.0000   196.0000 </r>
       <r>    -9.7630     0.0000   196.0000 </r>
       <r>    -9.5772     0.0000   196.0000 </r>
       <r>    -9.3914     1.4004   196.0139 </r>
       <r>    -9.2056    10.4265   197.3940 </r>
       <r>    -9.0198     0.0000   200.0000 </r>
       <r>    -8.8340    15.0943   202.2980 </r>
       <r>    -8.6482    13.1140   204.6767 </r>
       <r>    -8.4624    29.3512   209.0563 </r>
       <r>    -8.2766    19.3530   212.3702 </r>
       <r>    -8.0908    25.4730   217.0321 </r>
       <r>    -7.9050    16.7493   220.8713 </r>
       <r>    -7.7191    12.6553   224.0517 </r>
       <r>    -7.5333    10.5939   227.5033 </r>
       <r>    -7.3475     0.0000   228.0000 </r>
       <r>    -7.1617     0.0000   228.0000 </r>
       <r>    -6.9759     0.0000   228.0000 </r>
       <r>    -6.7901     0.0000   228.0000 </r>
       <r>    -6.6043     0.0000   228.0000 </r>
       <r>    -6.4185     2.4815   228.0473 </r>
       <r>    -6.2327    20.4400   230.1598 </r>
       <r>    -6.0469    16.7604   234.5734 </r>
       <r>    -5.8611    28.0950   238.2749 </r>
       <r>    -5.6753    23.5908   243.0673 </r>
       <r>    -5.4894    21.5671   247.0592 </r>
       <r>    -5.3036    14.1501   250.4800 </r>
       <r>    -5.1178     3.7297   252.0016 </r>
       <r>    -4.9320     7.6329   253.0396 </r>
       <r>    -4.7462     9.0184   254.5318 </r>
       <r>    -4.5604     8.4744   256.3434 </r>
       <r>    -4.3746     6.8425   257.5917 </r>
       <r>    -4.1888     5.9535   258.8853 </r>
       <r>    -4.0030     2.6574   259.6840 </r>
       <r>    -3.8172     0.7216   259.9580 </r>
       <r>    -3.6314     0.0000   260.0000 </r>
       <r>    -3.4455     0.0000   260.0000 </r>
       <r>    -3.2597     0.0000   260.0000 </r>
       <r>    -3.0739     0.0000   260.0000 </r>
       <r>    -2.8881     0.0000   260.0000 </r>
       <r>    -2.7023     0.0000   260.0000 </r>
       <r>    -2.5165     0.0000   260.0000 </r>
       <r>    -2.3307     0.0000   260.0000 </r>
       <r>    -2.1449     0.0000   260.0000 </r>
       <r>    -1.9591     0.0000   260.0000 </r>
       <r>    -1.7733     0.0000   260.0000 </r>
       <r>    -1.5875     0.0000   260.0000 </r>
       <r>    -1.4017     2.9190   260.0997 </r>
       <r>    -1.2158     9.8911   261.4600 </r>
       <r>    -1.0300    14.3345   263.6881 </r>
       <r>    -0.8442     9.9203   266.0220 </r>
       <r>    -0.6584     4.7140   267.3672 </r>
       <r>    -0.4726    20.0501   269.8074 </r>
       <r>    -0.2868    24.0476   273.8068 </r>
       <r>    -0.1010    39.7740   280.7546 </r>
       <r>     0.0848    28.7981   287.0516 </r>
       <r>     0.2706    30.0290   293.5465 </r>
       <r>     0.4564    41.2926   300.7111 </r>
       <r>     0.6422    36.5010   307.7150 </r>
       <r>     0.8281    42.1398   314.9203 </r>
       <r>     1.0139    45.5296   322.9525 </r>
       <r>     1.1997    36.1200   332.0806 </r>
       <r>     1.3855    51.7411   341.1994 </r>
       <r>     1.5713    48.5475   350.6187 </r>
       <r>     1.7571    38.0044   358.0533 </r>
       <r>     1.9429    45.3882   365.4731 </r>
       <r>     2.1287    48.2074   372.9565 </r>
       <r>     2.3145    48.7279   381.1384 </r>
       <r>     2.5003    56.7187   391.9508 </r>
       <r>     2.6861    66.9603   403.7287 </r>
       <r>     2.8720    69.5066   415.1710 </r>
       <r>     3.0578    55.4688   427.3044 </r>
       <r>     3.2436    34.5681   435.1800 </r>
       <r>     3.4294    39.7291   442.0403 </r>
       <r>     3.6152    12.6346   446.8752 </r>
       <r>     3.8010    12.8998   449.7158 </r>
       <r>     3.9868     6.1099   451.4821 </r>
       <r>     4.1726     0.0760   451.9995 </r>
       <r>     4.3584     0.0000   452.0000 </r>
       <r>     4.5442     0.0000   452.0000 </r>
       <r>     4.7300     0.0000   452.0000 </r>
       <r>     4.9158     0.0000   452.0000 </r>
       <r>     5.1017     1.1009   452.0368 </r>
       <r>     5.2875     5.0128   452.6046 </r>
       <r>     5.4733     8.9377   453.9004 </r>
       <r>     5.6591    13.5348   455.6406 </r>
       <r>     5.8449    15.1482   459.8903 </r>
       <r>     6.0307    12.0907   462.3733 </r>
       <r>     6.2165    11.9564   464.5425 </r>
       <r>     6.4023    13.9546   466.9504 </r>
       <r>     6.5881    15.9019   469.7251 </r>
       <r>     6.7739    17.8423   472.8571 </r>
       <r>     6.9597    21.8155   476.4639 </r>
       <r>     7.1456    32.3283   481.4047 </r>
       <r>     7.3314    42.0561   488.3389 </r>
       <r>     7.5172    21.4676   494.4457 </r>
       <r>     7.7030    45.9988   500.7286 </r>
       <r>     7.8888    51.5189   510.0642 </r>
       <r>     8.0746    21.6672   515.8496 </r>
       <r>     8.2604    19.2189   519.4654 </r>
       <r>     8.4462    23.1879   523.3482 </r>
       <r>     8.6320    23.8797   527.9310 </r>
       <r>     8.8178    48.6006   534.8013 </r>
       <r>     9.0036    23.7449   541.0890 </r>
       <r>     9.1894    13.8765   544.3722 </r>
       <r>     9.3753    15.0699   546.8676 </r>
       <r>     9.5611    15.5590   549.9465 </r>
       <r>     9.7469    10.8990   552.0909 </r>
       <r>     9.9327    12.8415   554.3770 </r>
       <r>    10.1185    13.5518   556.8031 </r>
       <r>    10.3043    13.1963   559.6220 </r>
       <r>    10.4901     0.0000   560.0000 </r>
       <r>    10.6759     0.0000   560.0000 </r>
       <r>    10.8617     0.0000   560.0000 </r>
       <r>    11.0475     0.0000   560.0000 </r>
       <r>    11.2333     0.0000   560.0000 </r>
       <r>    11.4192     0.0000   560.0000 </r>
       <r>    11.6050     0.0000   560.0000 </r>
       <r>    11.7908     0.0000   560.0000 </r>
       <r>    11.9766     0.0000   560.0000 </r>
       <r>    12.1624     0.0000   560.0000 </r>
       <r>    12.3482     0.0000   560.0000 </r>
       <r>    12.5340     0.0000   560.0000 </r>
       <r>    12.7198     0.0000   560.0000 </r>
       <r>    12.9056     0.0000   560.0000 </r>
      </set>
     </set>
    </array>
   </total>
  </dos>
 </calculation>
 <structure name="finalpos" >
  <crystal>
   <varray name="basis" >
    <v>      11.17850000       0.00000000       0.00000000 </v>
    <v>       0.00000000       9.57460000       0.00000000 </v>
    <v>       0.00000000       0.00000000      11.18240000 </v>
   </varray>
   <i name="volume">   1196.84853820 </i>
   <varray name="rec_basis" >
    <v>       0.08945744       0.00000000       0.00000000 </v>
    <v>       0.00000000       0.10444301       0.00000000 </v>
    <v>       0.00000000       0.00000000       0.08942624 </v>
   </varray>
  </crystal>
  <varray name="positions" >
   <v>       0.62539000       0.99984000       0.43687000 </v>
   <v>       0.62461000       0.99984000       0.68687000 </v>
   <v>       0.12461000       0.99984000       0.18687000 </v>
   <v>       0.37461000       0.00017000       0.18687000 </v>
   <v>       0.87539000       0.00017000       0.43687000 </v>
   <v>       0.12461000       0.99984000       0.68687000 </v>
   <v>       0.37461000       0.00017000       0.68687000 </v>
   <v>       0.62539000       0.99984000       0.93687000 </v>
   <v>       0.87539000       0.00017000       0.93687000 </v>
   <v>       0.00013000       0.29519000       0.06281000 </v>
   <v>       0.25013000       0.70481000       0.06281000 </v>
   <v>       0.24987000       0.29519000       0.31282000 </v>
   <v>       0.49987000       0.70481000       0.31282000 </v>
   <v>       0.50013000       0.29519000       0.06281000 </v>
   <v>       0.75013000       0.70481000       0.06281000 </v>
   <v>       0.74987000       0.29519000       0.31282000 </v>
   <v>       0.99987000       0.70481000       0.31282000 </v>
   <v>       0.00013000       0.29519000       0.56281000 </v>
   <v>       0.25013000       0.70481000       0.56281000 </v>
   <v>       0.24987000       0.29519000       0.81282000 </v>
   <v>       0.49987000       0.70481000       0.81282000 </v>
   <v>       0.50013000       0.29519000       0.56281000 </v>
   <v>       0.75013000       0.70481000       0.56281000 </v>
   <v>       0.74987000       0.29519000       0.81282000 </v>
   <v>       0.99987000       0.70481000       0.81282000 </v>
   <v>       0.25005000       0.32677000       0.06286000 </v>
   <v>       0.00005000       0.67323000       0.06286000 </v>
   <v>       0.49995000       0.32677000       0.31286000 </v>
   <v>       0.24995000       0.67323000       0.31286000 </v>
   <v>       0.75005000       0.32677000       0.06286000 </v>
   <v>       0.50005000       0.67323000       0.06286000 </v>
   <v>       0.99995000       0.32677000       0.31286000 </v>
   <v>       0.74995000       0.67323000       0.31286000 </v>
   <v>       0.25005000       0.32677000       0.56286000 </v>
   <v>       0.00005000       0.67323000       0.56286000 </v>
   <v>       0.49995000       0.32677000       0.81286000 </v>
   <v>       0.24995000       0.67323000       0.81286000 </v>
   <v>       0.75005000       0.32677000       0.56286000 </v>
   <v>       0.50005000       0.67323000       0.56286000 </v>
   <v>       0.99995000       0.32677000       0.81286000 </v>
   <v>       0.74995000       0.67323000       0.81286000 </v>
   <v>       0.49987000       0.07798000       0.06246000 </v>
   <v>       0.24987000       0.92202000       0.06246000 </v>
   <v>       0.25013000       0.07798000       0.31246000 </v>
   <v>       0.00013000       0.92202000       0.31246000 </v>
   <v>       0.99987000       0.07798000       0.06246000 </v>
   <v>       0.74987000       0.92202000       0.06246000 </v>
   <v>       0.75013000       0.07798000       0.31246000 </v>
   <v>       0.50013000       0.92202000       0.31246000 </v>
   <v>       0.49987000       0.07798000       0.56246000 </v>
   <v>       0.24987000       0.92202000       0.56246000 </v>
   <v>       0.25013000       0.07798000       0.81246000 </v>
   <v>       0.00013000       0.92202000       0.81246000 </v>
   <v>       0.99987000       0.07798000       0.56246000 </v>
   <v>       0.74987000       0.92202000       0.56246000 </v>
   <v>       0.75013000       0.07798000       0.81246000 </v>
   <v>       0.50013000       0.92202000       0.81246000 </v>
  </varray>
 </structure>
</modeling>
