<?xml version="1.0" encoding="ISO-8859-1"?>
<modeling>
 <generator>
  <i name="program" type="string">vasp </i>
  <i name="version" type="string">5.4.4.18Apr17-6-g9f103f2a35  </i>
  <i name="subversion" type="string">(build Jul 31 2017 11:33:29) complex            parallel </i>
  <i name="platform" type="string">LinuxIFC </i>
  <i name="date" type="string">2021 09 29 </i>
  <i name="time" type="string">03:36:46 </i>
 </generator>
 <incar>
  <i type="string" name="SYSTEM"> La2O2S</i>
  <i type="string" name="PREC">normal</i>
  <i type="int" name="NELMIN">     4</i>
  <i type="int" name="IBRION">     2</i>
  <i type="int" name="NFREE">    10</i>
  <i name="EDIFF">      0.00000100</i>
  <i name="EDIFFG">     -0.01000000</i>
  <i type="int" name="NSW">     1</i>
  <i type="int" name="ISIF">     2</i>
  <i name="ENCUT">    600.00000000</i>
  <i name="ENAUG">    900.00000000</i>
  <i type="int" name="ISMEAR">    -5</i>
  <i type="logical" name="LWAVE"> F  </i>
  <i type="logical" name="LCHARG"> F  </i>
  <v type="int" name="KPOINT_BSE">    -1     0     0     0</v>
 </incar>
 <structure name="primitive_cell" >
  <crystal>
   <varray name="basis" >
    <v>      11.17850000       0.00000000       0.00000000 </v>
    <v>       0.00000000       9.57460000       0.00000000 </v>
    <v>       0.00000000       0.00000000      11.18240000 </v>
   </varray>
   <i name="volume">   1196.84853820 </i>
   <varray name="rec_basis" >
    <v>       0.08945744       0.00000000       0.00000000 </v>
    <v>       0.00000000       0.10444301       0.00000000 </v>
    <v>       0.00000000       0.00000000       0.08942624 </v>
   </varray>
  </crystal>
  <varray name="positions" >
   <v>       0.37539000       0.00017000       0.43687000 </v>
   <v>      -0.49987000      -0.07798000       0.31246000 </v>
   <v>       0.25013000       0.07798000       0.31246000 </v>
   <v>       0.49987000       0.07798000      -0.43754000 </v>
   <v>       0.24987000      -0.07798000      -0.43754000 </v>
   <v>      -0.37461000      -0.00016000       0.43687000 </v>
   <v>       0.37461000       0.00017000       0.18687000 </v>
   <v>       0.37461000       0.00017000      -0.31313000 </v>
   <v>       0.49987000      -0.29519000       0.31282000 </v>
   <v>       0.24987000       0.29519000       0.31282000 </v>
   <v>      -0.49987000       0.29519000      -0.43719000 </v>
   <v>       0.25013000      -0.29519000      -0.43719000 </v>
   <v>       0.49995000       0.32677000       0.31286000 </v>
   <v>       0.24995000      -0.32677000       0.31286000 </v>
   <v>      -0.49995000      -0.32677000      -0.43714000 </v>
   <v>       0.25005000       0.32677000      -0.43714000 </v>
   <v>      -0.37539000      -0.00016000      -0.31313000 </v>
   <v>       0.12461000      -0.00016000       0.18687000 </v>
   <v>       0.12461000      -0.00016000      -0.31313000 </v>
   <v>       0.49987000       0.07798000       0.06246000 </v>
   <v>      -0.24987000       0.07798000       0.31246000 </v>
   <v>      -0.25013000      -0.07798000      -0.43754000 </v>
   <v>       0.24987000      -0.07798000       0.06246000 </v>
   <v>       0.00013000      -0.07798000       0.31246000 </v>
   <v>      -0.49987000      -0.07798000      -0.18754000 </v>
   <v>      -0.00013000       0.07798000      -0.43754000 </v>
   <v>       0.25013000       0.07798000      -0.18754000 </v>
   <v>      -0.49987000       0.29519000       0.06281000 </v>
   <v>      -0.25013000       0.29519000       0.31282000 </v>
   <v>       0.25013000      -0.29519000       0.06281000 </v>
   <v>      -0.24987000      -0.29519000      -0.43719000 </v>
   <v>      -0.00013000      -0.29519000       0.31282000 </v>
   <v>       0.00013000       0.29519000      -0.43719000 </v>
   <v>       0.49987000      -0.29519000      -0.18718000 </v>
   <v>       0.24987000       0.29519000      -0.18718000 </v>
   <v>      -0.49995000      -0.32677000       0.06286000 </v>
   <v>       0.25005000       0.32677000       0.06286000 </v>
   <v>      -0.25005000      -0.32677000       0.31286000 </v>
   <v>      -0.24995000       0.32677000      -0.43714000 </v>
   <v>      -0.00005000       0.32677000       0.31286000 </v>
   <v>       0.00005000      -0.32677000      -0.43714000 </v>
   <v>       0.49995000       0.32677000      -0.18714000 </v>
   <v>       0.24995000      -0.32677000      -0.18714000 </v>
   <v>      -0.12461000       0.00017000       0.43687000 </v>
   <v>       0.37539000       0.00017000      -0.06313000 </v>
   <v>      -0.25013000      -0.07798000       0.06246000 </v>
   <v>      -0.00013000       0.07798000       0.06246000 </v>
   <v>      -0.24987000       0.07798000      -0.18754000 </v>
   <v>       0.00013000      -0.07798000      -0.18754000 </v>
   <v>      -0.12539000       0.00017000       0.18687000 </v>
   <v>      -0.12539000       0.00017000      -0.31313000 </v>
   <v>      -0.37461000      -0.00016000      -0.06313000 </v>
   <v>      -0.24987000      -0.29519000       0.06281000 </v>
   <v>       0.00013000       0.29519000       0.06281000 </v>
   <v>      -0.25013000       0.29519000      -0.18718000 </v>
   <v>      -0.00013000      -0.29519000      -0.18718000 </v>
   <v>      -0.24995000       0.32677000       0.06286000 </v>
   <v>       0.00005000      -0.32677000       0.06286000 </v>
   <v>      -0.25005000      -0.32677000      -0.18714000 </v>
   <v>      -0.00005000       0.32677000      -0.18714000 </v>
   <v>      -0.12461000       0.00017000      -0.06313000 </v>
  </varray>
 </structure>
 <varray name="primitive_index" >
  <v type="int" >        1 </v>
  <v type="int" >       53 </v>
  <v type="int" >       48 </v>
  <v type="int" >       54 </v>
  <v type="int" >       55 </v>
  <v type="int" >        3 </v>
  <v type="int" >        2 </v>
  <v type="int" >        7 </v>
  <v type="int" >       17 </v>
  <v type="int" >       16 </v>
  <v type="int" >       26 </v>
  <v type="int" >       23 </v>
  <v type="int" >       32 </v>
  <v type="int" >       33 </v>
  <v type="int" >       43 </v>
  <v type="int" >       38 </v>
  <v type="int" >        9 </v>
  <v type="int" >       11 </v>
  <v type="int" >       12 </v>
  <v type="int" >       46 </v>
  <v type="int" >       52 </v>
  <v type="int" >       59 </v>
  <v type="int" >       47 </v>
  <v type="int" >       49 </v>
  <v type="int" >       61 </v>
  <v type="int" >       58 </v>
  <v type="int" >       56 </v>
  <v type="int" >       18 </v>
  <v type="int" >       20 </v>
  <v type="int" >       15 </v>
  <v type="int" >       27 </v>
  <v type="int" >       21 </v>
  <v type="int" >       22 </v>
  <v type="int" >       25 </v>
  <v type="int" >       24 </v>
  <v type="int" >       35 </v>
  <v type="int" >       30 </v>
  <v type="int" >       37 </v>
  <v type="int" >       42 </v>
  <v type="int" >       36 </v>
  <v type="int" >       39 </v>
  <v type="int" >       40 </v>
  <v type="int" >       41 </v>
  <v type="int" >        4 </v>
  <v type="int" >        6 </v>
  <v type="int" >       51 </v>
  <v type="int" >       50 </v>
  <v type="int" >       60 </v>
  <v type="int" >       57 </v>
  <v type="int" >        5 </v>
  <v type="int" >       10 </v>
  <v type="int" >       13 </v>
  <v type="int" >       19 </v>
  <v type="int" >       14 </v>
  <v type="int" >       28 </v>
  <v type="int" >       29 </v>
  <v type="int" >       34 </v>
  <v type="int" >       31 </v>
  <v type="int" >       45 </v>
  <v type="int" >       44 </v>
  <v type="int" >        8 </v>
 </varray>
 <kpoints>
  <generation param="Gamma">
   <v type="int" name="divisions">       2        2        2 </v>
   <v name="usershift">      0.00000000       0.00000000       0.00000000 </v>
   <v name="genvec1">      0.50000000       0.00000000       0.00000000 </v>
   <v name="genvec2">      0.00000000       0.50000000       0.00000000 </v>
   <v name="genvec3">      0.00000000       0.00000000       0.50000000 </v>
   <v name="shift">      0.00000000       0.00000000       0.00000000 </v>
  </generation>
  <varray name="kpointlist" >
   <v>       0.00000000       0.00000000       0.00000000 </v>
   <v>       0.50000000       0.00000000       0.00000000 </v>
   <v>       0.00000000       0.50000000       0.00000000 </v>
   <v>       0.50000000       0.50000000       0.00000000 </v>
   <v>       0.00000000       0.00000000       0.50000000 </v>
   <v>       0.50000000       0.00000000       0.50000000 </v>
   <v>       0.00000000       0.50000000       0.50000000 </v>
   <v>       0.50000000       0.50000000       0.50000000 </v>
  </varray>
  <varray name="weights" >
   <v>       0.12500000 </v>
   <v>       0.12500000 </v>
   <v>       0.12500000 </v>
   <v>       0.12500000 </v>
   <v>       0.12500000 </v>
   <v>       0.12500000 </v>
   <v>       0.12500000 </v>
   <v>       0.12500000 </v>
  </varray>
  <varray name="tetrahedronlist"  type="int" >
   <v type="int" >        2        1        2        4        5 </v>
   <v type="int" >        2        1        3        4        5 </v>
   <v type="int" >        2        3        4        5        7 </v>
   <v type="int" >        2        2        4        5        6 </v>
   <v type="int" >        2        4        5        6        8 </v>
   <v type="int" >        2        4        5        7        8 </v>
   <v type="int" >        2        1        2        3        6 </v>
   <v type="int" >        2        2        3        4        6 </v>
   <v type="int" >        2        3        4        6        8 </v>
   <v type="int" >        2        1        3        5        6 </v>
   <v type="int" >        2        3        5        6        7 </v>
   <v type="int" >        2        3        6        7        8 </v>
   <v type="int" >        2        2        3        4        7 </v>
   <v type="int" >        2        1        2        3        7 </v>
   <v type="int" >        2        1        2        5        7 </v>
   <v type="int" >        2        2        4        7        8 </v>
   <v type="int" >        2        2        6        7        8 </v>
   <v type="int" >        2        2        5        6        7 </v>
   <v type="int" >        2        1        3        4        8 </v>
   <v type="int" >        2        1        2        4        8 </v>
   <v type="int" >        2        1        2        6        8 </v>
   <v type="int" >        2        1        3        7        8 </v>
   <v type="int" >        2        1        5        7        8 </v>
   <v type="int" >        2        1        5        6        8 </v>
  </varray>
  <i name="volumeweight">      0.02083333 </i>
 </kpoints>
 <parameters>
  <separator name="general" >
   <i type="string" name="SYSTEM">La2O2S</i>
   <i type="logical" name="LCOMPAT"> F  </i>
  </separator>
  <separator name="electronic" >
   <i type="string" name="PREC">normal</i>
   <i name="ENMAX">    600.00000000</i>
   <i name="ENAUG">    900.00000000</i>
   <i name="EDIFF">      0.00000100</i>
   <i type="int" name="IALGO">    38</i>
   <i type="int" name="IWAVPR">    11</i>
   <i type="int" name="NBANDS">   280</i>
   <i name="NELECT">    468.00000000</i>
   <i type="int" name="TURBO">     0</i>
   <i type="int" name="IRESTART">     0</i>
   <i type="int" name="NREBOOT">     0</i>
   <i type="int" name="NMIN">     0</i>
   <i name="EREF">      0.00000000</i>
   <separator name="electronic smearing" >
    <i type="int" name="ISMEAR">    -5</i>
    <i name="SIGMA">      0.20000000</i>
    <i name="KSPACING">      0.50000000</i>
    <i type="logical" name="KGAMMA"> T  </i>
   </separator>
   <separator name="electronic projectors" >
    <i type="logical" name="LREAL"> F  </i>
    <v name="ROPT">      0.00000000      0.00000000      0.00000000      0.00000000      0.00000000</v>
    <i type="int" name="LMAXPAW">  -100</i>
    <i type="int" name="LMAXMIX">     2</i>
    <i type="logical" name="NLSPLINE"> F  </i>
   </separator>
   <separator name="electronic startup" >
    <i type="int" name="ISTART">     0</i>
    <i type="int" name="ICHARG">     2</i>
    <i type="int" name="INIWAV">     1</i>
   </separator>
   <separator name="electronic spin" >
    <i type="int" name="ISPIN">     1</i>
    <i type="logical" name="LNONCOLLINEAR"> F  </i>
    <v name="MAGMOM">      1.00000000      1.00000000      1.00000000      1.00000000      1.00000000      1.00000000      1.00000000      1.00000000      1.00000000      1.00000000      1.00000000      1.00000000      1.00000000      1.00000000      1.00000000      1.00000000      1.00000000      1.00000000      1.00000000      1.00000000
      1.00000000      1.00000000      1.00000000      1.00000000      1.00000000      1.00000000      1.00000000      1.00000000      1.00000000      1.00000000      1.00000000      1.00000000      1.00000000      1.00000000      1.00000000      1.00000000      1.00000000      1.00000000      1.00000000      1.00000000
      1.00000000      1.00000000      1.00000000      1.00000000      1.00000000      1.00000000      1.00000000      1.00000000      1.00000000      1.00000000      1.00000000      1.00000000      1.00000000      1.00000000      1.00000000      1.00000000      1.00000000      1.00000000      1.00000000      1.00000000
      1.00000000</v>
    <i name="NUPDOWN">     -1.00000000</i>
    <i type="logical" name="LSORBIT"> F  </i>
    <v name="SAXIS">      0.00000000      0.00000000      1.00000000</v>
    <i type="logical" name="LSPIRAL"> F  </i>
    <v name="QSPIRAL">      0.00000000      0.00000000      0.00000000</v>
    <i type="logical" name="LZEROZ"> F  </i>
   </separator>
   <separator name="electronic exchange-correlation" >
    <i type="logical" name="LASPH"> F  </i>
    <i type="logical" name="LMETAGGA"> F  </i>
   </separator>
   <separator name="electronic convergence" >
    <i type="int" name="NELM">    60</i>
    <i type="int" name="NELMDL">    -5</i>
    <i type="int" name="NELMIN">     4</i>
    <i name="ENINI">    600.00000000</i>
    <separator name="electronic convergence detail" >
     <i type="logical" name="LDIAG"> T  </i>
     <i type="logical" name="LSUBROT"> F  </i>
     <i name="WEIMIN">      0.00100000</i>
     <i name="EBREAK">      0.00000000</i>
     <i name="DEPER">      0.30000000</i>
     <i type="int" name="NRMM">     4</i>
     <i name="TIME">      0.40000000</i>
    </separator>
   </separator>
   <separator name="electronic mixer" >
    <i name="AMIX">      0.40000000</i>
    <i name="BMIX">      1.00000000</i>
    <i name="AMIN">      0.10000000</i>
    <i name="AMIX_MAG">      1.60000000</i>
    <i name="BMIX_MAG">      1.00000000</i>
    <separator name="electronic mixer details" >
     <i type="int" name="IMIX">     4</i>
     <i type="logical" name="MIXFIRST"> F  </i>
     <i type="int" name="MAXMIX">   -45</i>
     <i name="WC">    100.00000000</i>
     <i type="int" name="INIMIX">     1</i>
     <i type="int" name="MIXPRE">     1</i>
     <i type="int" name="MREMOVE">     5</i>
    </separator>
   </separator>
   <separator name="electronic dipolcorrection" >
    <i type="logical" name="LDIPOL"> F  </i>
    <i type="logical" name="LMONO"> F  </i>
    <i type="int" name="IDIPOL">     0</i>
    <i name="EPSILON">      1.00000000</i>
    <v name="DIPOL">   -100.00000000   -100.00000000   -100.00000000</v>
    <i name="EFIELD">      0.00000000</i>
   </separator>
  </separator>
  <separator name="grids" >
   <i type="int" name="NGX">    70</i>
   <i type="int" name="NGY">    60</i>
   <i type="int" name="NGZ">    70</i>
   <i type="int" name="NGXF">   140</i>
   <i type="int" name="NGYF">   120</i>
   <i type="int" name="NGZF">   140</i>
   <i type="logical" name="ADDGRID"> F  </i>
  </separator>
  <separator name="ionic" >
   <i type="int" name="NSW">     1</i>
   <i type="int" name="IBRION">     2</i>
   <i type="int" name="MDALGO">     0</i>
   <i type="int" name="ISIF">     2</i>
   <i name="PSTRESS">      0.00000000</i>
   <i name="EDIFFG">     -0.01000000</i>
   <i type="int" name="NFREE">    10</i>
   <i name="POTIM">      0.50000000</i>
   <i name="SMASS">     -3.00000000</i>
   <i name="SCALEE">      1.00000000</i>
  </separator>
  <separator name="ionic md" >
   <i name="TEBEG">      0.00010000</i>
   <i name="TEEND">      0.00010000</i>
   <i type="int" name="NBLOCK">     1</i>
   <i type="int" name="KBLOCK">     1</i>
   <i type="int" name="NPACO">   256</i>
   <i name="APACO">     16.00000000</i>
  </separator>
  <separator name="symmetry" >
   <i type="int" name="ISYM">     2</i>
   <i name="SYMPREC">      0.00001000</i>
  </separator>
  <separator name="dos" >
   <i type="int" name="LORBIT">     0</i>
   <v name="RWIGS">     -1.00000000     -1.00000000     -1.00000000     -1.00000000     -1.00000000</v>
   <i type="int" name="NEDOS">   301</i>
   <i name="EMIN">     10.00000000</i>
   <i name="EMAX">    -10.00000000</i>
   <i name="EFERMI">      0.00000000</i>
  </separator>
  <separator name="writing" >
   <i type="int" name="NWRITE">     2</i>
   <i type="logical" name="LWAVE"> F  </i>
   <i type="logical" name="LDOWNSAMPLE"> F  </i>
   <i type="logical" name="LCHARG"> F  </i>
   <i type="logical" name="LPARD"> F  </i>
   <i type="logical" name="LVTOT"> F  </i>
   <i type="logical" name="LVHAR"> F  </i>
   <i type="logical" name="LELF"> F  </i>
   <i type="logical" name="LOPTICS"> F  </i>
   <v name="STM">      0.00000000      0.00000000      0.00000000      0.00000000      0.00000000      0.00000000      0.00000000</v>
  </separator>
  <separator name="performance" >
   <i type="int" name="NPAR">    28</i>
   <i type="int" name="NSIM">     4</i>
   <i type="int" name="NBLK">    -1</i>
   <i type="logical" name="LPLANE"> T  </i>
   <i type="logical" name="LSCALAPACK"> T  </i>
   <i type="logical" name="LSCAAWARE"> F  </i>
   <i type="logical" name="LSCALU"> F  </i>
   <i type="logical" name="LASYNC"> F  </i>
   <i type="logical" name="LORBITALREAL"> F  </i>
  </separator>
  <separator name="miscellaneous" >
   <i type="int" name="IDIOT">     3</i>
   <i type="int" name="ISPECIAL">     0</i>
   <i type="logical" name="LMUSIC"> F  </i>
   <v name="POMASS">      7.01000000     24.30500000    208.98000000     32.06600000     16.00000000</v>
   <v name="DARWINR">      0.00000000      0.00000000      0.00000000      0.00000000      0.00000000</v>
   <v name="DARWINV">      1.00000000      1.00000000      1.00000000      1.00000000      1.00000000</v>
   <i type="logical" name="LCORR"> T  </i>
  </separator>
  <i type="logical" name="GGA_COMPAT"> T  </i>
  <i type="logical" name="LBERRY"> F  </i>
  <i type="int" name="ICORELEVEL">     0</i>
  <i type="logical" name="LDAU"> F  </i>
  <i type="int" name="I_CONSTRAINED_M">     0</i>
  <separator name="electronic exchange-correlation" >
   <i type="string" name="GGA">--</i>
   <i type="int" name="VOSKOWN">     0</i>
   <i type="logical" name="LHFCALC"> F  </i>
   <i type="string" name="PRECFOCK"></i>
   <i type="logical" name="LSYMGRAD"> F  </i>
   <i type="logical" name="LHFONE"> F  </i>
   <i type="logical" name="LRHFCALC"> F  </i>
   <i type="logical" name="LTHOMAS"> F  </i>
   <i type="logical" name="LMODELHF"> F  </i>
   <i name="ENCUT4O">     -1.00000000</i>
   <i type="int" name="EXXOEP">     0</i>
   <i type="int" name="FOURORBIT">     0</i>
   <i name="AEXX">      0.00000000</i>
   <i name="HFALPHA">      0.00000000</i>
   <i name="MCALPHA">      0.00000000</i>
   <i name="ALDAX">      1.00000000</i>
   <i name="AGGAX">      1.00000000</i>
   <i name="ALDAC">      1.00000000</i>
   <i name="AGGAC">      1.00000000</i>
   <i type="int" name="NKREDX">     1</i>
   <i type="int" name="NKREDY">     1</i>
   <i type="int" name="NKREDZ">     1</i>
   <i type="logical" name="SHIFTRED"> F  </i>
   <i type="logical" name="ODDONLY"> F  </i>
   <i type="logical" name="EVENONLY"> F  </i>
   <i type="int" name="LMAXFOCK">     0</i>
   <i type="int" name="NMAXFOCKAE">     0</i>
   <i type="logical" name="LFOCKAEDFT"> F  </i>
   <i name="HFSCREEN">      0.00000000</i>
   <i name="HFSCREENC">      0.00000000</i>
   <i type="int" name="NBANDSGWLOW">     0</i>
  </separator>
  <separator name="vdW DFT" >
   <i type="logical" name="LUSE_VDW"> F  </i>
   <i name="Zab_VDW">     -0.84910000</i>
   <i name="PARAM1">      0.12340000</i>
   <i name="PARAM2">      1.00000000</i>
   <i name="PARAM3">      0.00000000</i>
  </separator>
  <separator name="model GW" >
   <i type="int" name="MODEL_GW">     0</i>
   <i name="MODEL_EPS0">     11.77228070</i>
   <i name="MODEL_ALPHA">      1.00000000</i>
  </separator>
  <separator name="linear response parameters" >
   <i type="logical" name="LEPSILON"> F  </i>
   <i type="logical" name="LRPA"> F  </i>
   <i type="logical" name="LNABLA"> F  </i>
   <i type="logical" name="LVEL"> F  </i>
   <i type="int" name="KINTER">     0</i>
   <i name="CSHIFT">      0.10000000</i>
   <i name="OMEGAMAX">     -1.00000000</i>
   <i name="DEG_THRESHOLD">      0.00200000</i>
   <i name="RTIME">     -0.10000000</i>
   <i name="WPLASMAI">      0.00000000</i>
   <v name="DFIELD">      0.00000000      0.00000000      0.00000000</v>
   <v name="WPLASMA">      0.00000000      0.00000000      0.00000000      0.00000000      0.00000000      0.00000000      0.00000000      0.00000000      0.00000000</v>
  </separator>
  <separator name="orbital magnetization" >
   <i type="logical" name="NUCIND"> F  </i>
   <v name="MAGPOS">      0.00000000      0.00000000      0.00000000</v>
   <i type="logical" name="LNICSALL"> T  </i>
   <i type="logical" name="ORBITALMAG"> F  </i>
   <i type="logical" name="LMAGBLOCH"> F  </i>
   <i type="logical" name="LCHIMAG"> F  </i>
   <i type="logical" name="LGAUGE"> T  </i>
   <i type="int" name="MAGATOM">     0</i>
   <v name="MAGDIPOL">      0.00000000      0.00000000      0.00000000</v>
   <v name="AVECCONST">      0.00000000      0.00000000      0.00000000</v>
  </separator>
  <separator name="response functions" >
   <i type="logical" name="LADDER"> F  </i>
   <i type="logical" name="LRPAFORCE"> F  </i>
   <i type="logical" name="LFXC"> F  </i>
   <i type="logical" name="LHARTREE"> T  </i>
   <i type="int" name="IBSE">     0</i>
   <v type="int" name="KPOINT">    -1     0     0     0</v>
   <i type="logical" name="LTCTE"> F  </i>
   <i type="logical" name="LTETE"> F  </i>
   <i type="logical" name="LTRIPLET"> F  </i>
   <i type="logical" name="LFXCEPS"> F  </i>
   <i type="logical" name="LFXHEG"> F  </i>
   <i type="int" name="NATURALO">     2</i>
   <i type="logical" name="L2ORDER"> F  </i>
   <i type="logical" name="LMP2LT"> F  </i>
   <i type="logical" name="LUSEW"> F  </i>
   <i name="ENCUTGW">     -2.00000000</i>
   <i name="ENCUTGWSOFT">     -2.00000000</i>
   <i name="ENCUTLF">     -1.00000000</i>
   <i type="int" name="LMAXMP2">    -1</i>
   <i name="SCISSOR">      0.00000000</i>
   <i type="int" name="NOMEGA">     0</i>
   <i type="int" name="NOMEGAR">     0</i>
   <i type="int" name="NBANDSGW">    -1</i>
   <i type="int" name="NBANDSO">    -1</i>
   <i type="int" name="NBANDSV">    -1</i>
   <i type="int" name="NELM">     1</i>
   <i type="int" name="NELMHF">     1</i>
   <i type="int" name="DIM">     3</i>
   <i type="int" name="ANTIRES">     0</i>
   <i name="OMEGAMAX">    -30.00000000</i>
   <i name="OMEGAMIN">    -30.00000000</i>
   <i name="OMEGATL">   -200.00000000</i>
   <i type="int" name="OMEGAGRID">   140</i>
   <i name="CSHIFT">     -0.10000000</i>
   <i type="logical" name="SELFENERGY"> F  </i>
   <i type="logical" name="LSPECTRAL"> F  </i>
   <i type="logical" name="LSPECTRALGW"> F  </i>
   <i type="logical" name="LSINGLES"> F  </i>
   <i type="logical" name="LFERMIGW"> F  </i>
   <i type="logical" name="ODDONLYGW"> F  </i>
   <i type="logical" name="EVENONLYGW"> F  </i>
   <i type="int" name="NKREDLFX">     1</i>
   <i type="int" name="NKREDLFY">     1</i>
   <i type="int" name="NKREDLFZ">     1</i>
   <i type="int" name="MAXMEM">  2800</i>
   <i type="int" name="TELESCOPE">     0</i>
   <i type="int" name="TAUPAR">     1</i>
   <i type="int" name="OMEGAPAR">    -1</i>
   <i name="LAMBDA">      1.00000000</i>
  </separator>
  <separator name="External order field" >
   <i name="OFIELD_KAPPA">      0.00000000</i>
   <v name="OFIELD_K">      0.00000000      0.00000000      0.00000000</v>
   <i name="OFIELD_Q6_NEAR">      0.00000000</i>
   <i name="OFIELD_Q6_FAR">      0.00000000</i>
   <i name="OFIELD_A">      0.00000000</i>
  </separator>
 </parameters>
 <atominfo>
  <atoms>      61 </atoms>
  <types>       5 </types>
  <array name="atoms" >
   <dimension dim="1">ion</dimension>
   <field type="string">element</field>
   <field type="int">atomtype</field>
   <set>
    <rc><c>Li</c><c>   1</c></rc>
    <rc><c>Li</c><c>   1</c></rc>
    <rc><c>Li</c><c>   1</c></rc>
    <rc><c>Li</c><c>   1</c></rc>
    <rc><c>Li</c><c>   1</c></rc>
    <rc><c>Li</c><c>   1</c></rc>
    <rc><c>Li</c><c>   1</c></rc>
    <rc><c>Li</c><c>   1</c></rc>
    <rc><c>Li</c><c>   1</c></rc>
    <rc><c>Li</c><c>   1</c></rc>
    <rc><c>Mg</c><c>   2</c></rc>
    <rc><c>Mg</c><c>   2</c></rc>
    <rc><c>Mg</c><c>   2</c></rc>
    <rc><c>Bi</c><c>   3</c></rc>
    <rc><c>Bi</c><c>   3</c></rc>
    <rc><c>Bi</c><c>   3</c></rc>
    <rc><c>Bi</c><c>   3</c></rc>
    <rc><c>Bi</c><c>   3</c></rc>
    <rc><c>Bi</c><c>   3</c></rc>
    <rc><c>Bi</c><c>   3</c></rc>
    <rc><c>Bi</c><c>   3</c></rc>
    <rc><c>Bi</c><c>   3</c></rc>
    <rc><c>Bi</c><c>   3</c></rc>
    <rc><c>Bi</c><c>   3</c></rc>
    <rc><c>Bi</c><c>   3</c></rc>
    <rc><c>Bi</c><c>   3</c></rc>
    <rc><c>Bi</c><c>   3</c></rc>
    <rc><c>Bi</c><c>   3</c></rc>
    <rc><c>Bi</c><c>   3</c></rc>
    <rc><c>S </c><c>   4</c></rc>
    <rc><c>S </c><c>   4</c></rc>
    <rc><c>S </c><c>   4</c></rc>
    <rc><c>S </c><c>   4</c></rc>
    <rc><c>S </c><c>   4</c></rc>
    <rc><c>S </c><c>   4</c></rc>
    <rc><c>S </c><c>   4</c></rc>
    <rc><c>S </c><c>   4</c></rc>
    <rc><c>S </c><c>   4</c></rc>
    <rc><c>S </c><c>   4</c></rc>
    <rc><c>S </c><c>   4</c></rc>
    <rc><c>S </c><c>   4</c></rc>
    <rc><c>S </c><c>   4</c></rc>
    <rc><c>S </c><c>   4</c></rc>
    <rc><c>S </c><c>   4</c></rc>
    <rc><c>S </c><c>   4</c></rc>
    <rc><c>O </c><c>   5</c></rc>
    <rc><c>O </c><c>   5</c></rc>
    <rc><c>O </c><c>   5</c></rc>
    <rc><c>O </c><c>   5</c></rc>
    <rc><c>O </c><c>   5</c></rc>
    <rc><c>O </c><c>   5</c></rc>
    <rc><c>O </c><c>   5</c></rc>
    <rc><c>O </c><c>   5</c></rc>
    <rc><c>O </c><c>   5</c></rc>
    <rc><c>O </c><c>   5</c></rc>
    <rc><c>O </c><c>   5</c></rc>
    <rc><c>O </c><c>   5</c></rc>
    <rc><c>O </c><c>   5</c></rc>
    <rc><c>O </c><c>   5</c></rc>
    <rc><c>O </c><c>   5</c></rc>
    <rc><c>O </c><c>   5</c></rc>
   </set>
  </array>
  <array name="atomtypes" >
   <dimension dim="1">type</dimension>
   <field type="int">atomspertype</field>
   <field type="string">element</field>
   <field>mass</field>
   <field>valence</field>
   <field type="string">pseudopotential</field>
   <set>
    <rc><c>  10</c><c>Li</c><c>      7.01000000</c><c>      3.00000000</c><c>  PAW_PBE Li_sv 10Sep2004               </c></rc>
    <rc><c>   3</c><c>Mg</c><c>     24.30500000</c><c>      2.00000000</c><c>  PAW_PBE Mg 13Apr2007                  </c></rc>
    <rc><c>  16</c><c>Bi</c><c>    208.98000000</c><c>     15.00000000</c><c>  PAW_PBE Bi_d 06Sep2000                </c></rc>
    <rc><c>  16</c><c>S </c><c>     32.06600000</c><c>      6.00000000</c><c>  PAW_PBE S 06Sep2000                   </c></rc>
    <rc><c>  16</c><c>O </c><c>     16.00000000</c><c>      6.00000000</c><c>  PAW_PBE O 08Apr2002                   </c></rc>
   </set>
  </array>
 </atominfo>
 <structure name="initialpos" >
  <crystal>
   <varray name="basis" >
    <v>      11.17850000       0.00000000       0.00000000 </v>
    <v>       0.00000000       9.57460000       0.00000000 </v>
    <v>       0.00000000       0.00000000      11.18240000 </v>
   </varray>
   <i name="volume">   1196.84853820 </i>
   <varray name="rec_basis" >
    <v>       0.08945744       0.00000000       0.00000000 </v>
    <v>       0.00000000       0.10444301       0.00000000 </v>
    <v>       0.00000000       0.00000000       0.08942624 </v>
   </varray>
  </crystal>
  <varray name="positions" >
   <v>       0.37539000       0.00017000       0.43687000 </v>
   <v>       0.37461000       0.00017000       0.18687000 </v>
   <v>       0.62539000       0.99984000       0.43687000 </v>
   <v>       0.87539000       0.00017000       0.43687000 </v>
   <v>       0.87461000       0.00017000       0.18687000 </v>
   <v>       0.37539000       0.00017000       0.93687000 </v>
   <v>       0.37461000       0.00017000       0.68687000 </v>
   <v>       0.87539000       0.00017000       0.93687000 </v>
   <v>       0.62461000       0.99984000       0.68687000 </v>
   <v>       0.87461000       0.00017000       0.68687000 </v>
   <v>       0.12461000       0.99984000       0.18687000 </v>
   <v>       0.12461000       0.99984000       0.68687000 </v>
   <v>       0.62539000       0.99984000       0.93687000 </v>
   <v>       0.00013000       0.29519000       0.06281000 </v>
   <v>       0.25013000       0.70481000       0.06281000 </v>
   <v>       0.24987000       0.29519000       0.31282000 </v>
   <v>       0.49987000       0.70481000       0.31282000 </v>
   <v>       0.50013000       0.29519000       0.06281000 </v>
   <v>       0.75013000       0.70481000       0.06281000 </v>
   <v>       0.74987000       0.29519000       0.31282000 </v>
   <v>       0.99987000       0.70481000       0.31282000 </v>
   <v>       0.00013000       0.29519000       0.56281000 </v>
   <v>       0.25013000       0.70481000       0.56281000 </v>
   <v>       0.24987000       0.29519000       0.81282000 </v>
   <v>       0.49987000       0.70481000       0.81282000 </v>
   <v>       0.50013000       0.29519000       0.56281000 </v>
   <v>       0.75013000       0.70481000       0.56281000 </v>
   <v>       0.74987000       0.29519000       0.81282000 </v>
   <v>       0.99987000       0.70481000       0.81282000 </v>
   <v>       0.25005000       0.32677000       0.06286000 </v>
   <v>       0.00005000       0.67323000       0.06286000 </v>
   <v>       0.49995000       0.32677000       0.31286000 </v>
   <v>       0.24995000       0.67323000       0.31286000 </v>
   <v>       0.75005000       0.32677000       0.06286000 </v>
   <v>       0.50005000       0.67323000       0.06286000 </v>
   <v>       0.99995000       0.32677000       0.31286000 </v>
   <v>       0.74995000       0.67323000       0.31286000 </v>
   <v>       0.25005000       0.32677000       0.56286000 </v>
   <v>       0.00005000       0.67323000       0.56286000 </v>
   <v>       0.49995000       0.32677000       0.81286000 </v>
   <v>       0.24995000       0.67323000       0.81286000 </v>
   <v>       0.75005000       0.32677000       0.56286000 </v>
   <v>       0.50005000       0.67323000       0.56286000 </v>
   <v>       0.99995000       0.32677000       0.81286000 </v>
   <v>       0.74995000       0.67323000       0.81286000 </v>
   <v>       0.49987000       0.07798000       0.06246000 </v>
   <v>       0.24987000       0.92202000       0.06246000 </v>
   <v>       0.25013000       0.07798000       0.31246000 </v>
   <v>       0.00013000       0.92202000       0.31246000 </v>
   <v>       0.99987000       0.07798000       0.06246000 </v>
   <v>       0.74987000       0.92202000       0.06246000 </v>
   <v>       0.75013000       0.07798000       0.31246000 </v>
   <v>       0.50013000       0.92202000       0.31246000 </v>
   <v>       0.49987000       0.07798000       0.56246000 </v>
   <v>       0.24987000       0.92202000       0.56246000 </v>
   <v>       0.25013000       0.07798000       0.81246000 </v>
   <v>       0.00013000       0.92202000       0.81246000 </v>
   <v>       0.99987000       0.07798000       0.56246000 </v>
   <v>       0.74987000       0.92202000       0.56246000 </v>
   <v>       0.75013000       0.07798000       0.81246000 </v>
   <v>       0.50013000       0.92202000       0.81246000 </v>
  </varray>
 </structure>
 <calculation>
  <scstep>
   <time name="dav">   59.72   60.00</time>
   <time name="total">   59.80   60.09</time>
   <energy>
    <i name="alphaZ">   1073.51873187 </i>
    <i name="ewald"> -30886.53349353 </i>
    <i name="hartreedc"> -12702.92222736 </i>
    <i name="XCdc">   1394.96233069 </i>
    <i name="pawpsdc">  36823.70205594 </i>
    <i name="pawaedc"> -36326.52930246 </i>
    <i name="eentropy">      0.00000000 </i>
    <i name="bandstr">   1807.46456534 </i>
    <i name="atom">  44791.06186932 </i>
    <i name="e_fr_energy">   5974.72452981 </i>
    <i name="e_wo_entrp">   5974.72452981 </i>
    <i name="e_0_energy">   5974.72452981 </i>
   </energy>
  </scstep>
  <scstep>
   <time name="dav">   60.07   60.42</time>
   <time name="total">   60.08   60.43</time>
   <energy>
    <i name="e_fr_energy">    804.88739316 </i>
    <i name="e_wo_entrp">    804.88739316 </i>
    <i name="e_0_energy">    804.88739316 </i>
   </energy>
  </scstep>
  <scstep>
   <time name="dav">   69.78   70.45</time>
   <time name="total">   69.79   70.45</time>
   <energy>
    <i name="e_fr_energy">   -243.57762666 </i>
    <i name="e_wo_entrp">   -243.57762666 </i>
    <i name="e_0_energy">   -243.57762666 </i>
   </energy>
  </scstep>
  <scstep>
   <time name="dav">   73.35   73.82</time>
   <time name="total">   73.35   73.83</time>
   <energy>
    <i name="e_fr_energy">   -346.19573655 </i>
    <i name="e_wo_entrp">   -346.19573655 </i>
    <i name="e_0_energy">   -346.19573655 </i>
   </energy>
  </scstep>
  <scstep>
   <time name="dav">   98.42   98.61</time>
   <time name="total">   99.14   99.34</time>
   <energy>
    <i name="e_fr_energy">   -355.14802844 </i>
    <i name="e_wo_entrp">   -355.14802844 </i>
    <i name="e_0_energy">   -355.14802844 </i>
   </energy>
  </scstep>
  <scstep>
   <time name="dav">   85.18   85.32</time>
   <time name="total">   85.98   86.14</time>
   <energy>
    <i name="e_fr_energy">   -296.58286058 </i>
    <i name="e_wo_entrp">   -296.58286058 </i>
    <i name="e_0_energy">   -296.58286058 </i>
   </energy>
  </scstep>
  <scstep>
   <time name="dav">   64.81   64.99</time>
   <time name="total">   65.61   65.80</time>
   <energy>
    <i name="e_fr_energy">   -299.37869934 </i>
    <i name="e_wo_entrp">   -299.37869934 </i>
    <i name="e_0_energy">   -299.37869934 </i>
   </energy>
  </scstep>
  <scstep>
   <time name="dav">   81.55   81.82</time>
   <time name="total">   82.35   82.62</time>
   <energy>
    <i name="e_fr_energy">   -298.14235511 </i>
    <i name="e_wo_entrp">   -298.14235511 </i>
    <i name="e_0_energy">   -298.14235511 </i>
   </energy>
  </scstep>
  <scstep>
   <time name="dav">   82.86   83.36</time>
   <time name="total">   83.66   84.16</time>
   <energy>
    <i name="e_fr_energy">   -297.51840647 </i>
    <i name="e_wo_entrp">   -297.51840647 </i>
    <i name="e_0_energy">   -297.51840647 </i>
   </energy>
  </scstep>
  <scstep>
   <time name="dav">   73.97   74.46</time>
   <time name="total">   74.76   75.26</time>
   <energy>
    <i name="e_fr_energy">   -297.52312729 </i>
    <i name="e_wo_entrp">   -297.52312729 </i>
    <i name="e_0_energy">   -297.52312729 </i>
   </energy>
  </scstep>
  <scstep>
   <time name="dav">   73.88   74.06</time>
   <time name="total">   74.67   74.86</time>
   <energy>
    <i name="e_fr_energy">   -297.53315190 </i>
    <i name="e_wo_entrp">   -297.53315190 </i>
    <i name="e_0_energy">   -297.53315190 </i>
   </energy>
  </scstep>
  <scstep>
   <time name="dav">   87.81   88.05</time>
   <time name="total">   88.60   88.86</time>
   <energy>
    <i name="e_fr_energy">   -297.53672774 </i>
    <i name="e_wo_entrp">   -297.53672774 </i>
    <i name="e_0_energy">   -297.53672774 </i>
   </energy>
  </scstep>
  <scstep>
   <time name="dav">   71.82   72.05</time>
   <time name="total">   72.62   72.85</time>
   <energy>
    <i name="e_fr_energy">   -297.53796250 </i>
    <i name="e_wo_entrp">   -297.53796250 </i>
    <i name="e_0_energy">   -297.53796250 </i>
   </energy>
  </scstep>
  <scstep>
   <time name="dav">   71.44   71.62</time>
   <time name="total">   72.22   72.42</time>
   <energy>
    <i name="e_fr_energy">   -297.53821928 </i>
    <i name="e_wo_entrp">   -297.53821928 </i>
    <i name="e_0_energy">   -297.53821928 </i>
   </energy>
  </scstep>
  <scstep>
   <time name="dav">   83.73   83.95</time>
   <time name="total">   84.53   84.76</time>
   <energy>
    <i name="e_fr_energy">   -297.53824990 </i>
    <i name="e_wo_entrp">   -297.53824990 </i>
    <i name="e_0_energy">   -297.53824990 </i>
   </energy>
  </scstep>
  <scstep>
   <time name="dav">   60.80   60.88</time>
   <time name="total">   61.60   61.68</time>
   <energy>
    <i name="e_fr_energy">   -297.53826986 </i>
    <i name="e_wo_entrp">   -297.53826986 </i>
    <i name="e_0_energy">   -297.53826986 </i>
   </energy>
  </scstep>
  <scstep>
   <time name="dav">   67.74   67.91</time>
   <time name="total">   68.52   68.71</time>
   <energy>
    <i name="e_fr_energy">   -297.53827094 </i>
    <i name="e_wo_entrp">   -297.53827094 </i>
    <i name="e_0_energy">   -297.53827094 </i>
   </energy>
  </scstep>
  <scstep>
   <time name="dav">   60.53   60.64</time>
   <time name="total">   60.60   60.72</time>
   <energy>
    <i name="alphaZ">   1073.51873187 </i>
    <i name="ewald"> -30886.53349353 </i>
    <i name="hartreedc"> -12939.76909699 </i>
    <i name="XCdc">   1418.55884520 </i>
    <i name="pawpsdc">  43848.12386669 </i>
    <i name="pawaedc"> -43325.57230210 </i>
    <i name="eentropy">      0.00000000 </i>
    <i name="bandstr">  -4276.92669190 </i>
    <i name="atom">  44791.06186932 </i>
    <i name="e_fr_energy">   -297.53827143 </i>
    <i name="e_wo_entrp">   -297.53827143 </i>
    <i name="e_0_energy">   -297.53827143 </i>
   </energy>
  </scstep>
  <structure>
   <crystal>
    <varray name="basis" >
     <v>      11.17850000       0.00000000       0.00000000 </v>
     <v>       0.00000000       9.57460000       0.00000000 </v>
     <v>       0.00000000       0.00000000      11.18240000 </v>
    </varray>
    <i name="volume">   1196.84853820 </i>
    <varray name="rec_basis" >
     <v>       0.08945744       0.00000000       0.00000000 </v>
     <v>       0.00000000       0.10444301       0.00000000 </v>
     <v>       0.00000000       0.00000000       0.08942624 </v>
    </varray>
   </crystal>
   <varray name="positions" >
    <v>       0.37539000       0.00017000       0.43687000 </v>
    <v>       0.37461000       0.00017000       0.18687000 </v>
    <v>       0.62539000       0.99984000       0.43687000 </v>
    <v>       0.87539000       0.00017000       0.43687000 </v>
    <v>       0.87461000       0.00017000       0.18687000 </v>
    <v>       0.37539000       0.00017000       0.93687000 </v>
    <v>       0.37461000       0.00017000       0.68687000 </v>
    <v>       0.87539000       0.00017000       0.93687000 </v>
    <v>       0.62461000       0.99984000       0.68687000 </v>
    <v>       0.87461000       0.00017000       0.68687000 </v>
    <v>       0.12461000       0.99984000       0.18687000 </v>
    <v>       0.12461000       0.99984000       0.68687000 </v>
    <v>       0.62539000       0.99984000       0.93687000 </v>
    <v>       0.00013000       0.29519000       0.06281000 </v>
    <v>       0.25013000       0.70481000       0.06281000 </v>
    <v>       0.24987000       0.29519000       0.31282000 </v>
    <v>       0.49987000       0.70481000       0.31282000 </v>
    <v>       0.50013000       0.29519000       0.06281000 </v>
    <v>       0.75013000       0.70481000       0.06281000 </v>
    <v>       0.74987000       0.29519000       0.31282000 </v>
    <v>       0.99987000       0.70481000       0.31282000 </v>
    <v>       0.00013000       0.29519000       0.56281000 </v>
    <v>       0.25013000       0.70481000       0.56281000 </v>
    <v>       0.24987000       0.29519000       0.81282000 </v>
    <v>       0.49987000       0.70481000       0.81282000 </v>
    <v>       0.50013000       0.29519000       0.56281000 </v>
    <v>       0.75013000       0.70481000       0.56281000 </v>
    <v>       0.74987000       0.29519000       0.81282000 </v>
    <v>       0.99987000       0.70481000       0.81282000 </v>
    <v>       0.25005000       0.32677000       0.06286000 </v>
    <v>       0.00005000       0.67323000       0.06286000 </v>
    <v>       0.49995000       0.32677000       0.31286000 </v>
    <v>       0.24995000       0.67323000       0.31286000 </v>
    <v>       0.75005000       0.32677000       0.06286000 </v>
    <v>       0.50005000       0.67323000       0.06286000 </v>
    <v>       0.99995000       0.32677000       0.31286000 </v>
    <v>       0.74995000       0.67323000       0.31286000 </v>
    <v>       0.25005000       0.32677000       0.56286000 </v>
    <v>       0.00005000       0.67323000       0.56286000 </v>
    <v>       0.49995000       0.32677000       0.81286000 </v>
    <v>       0.24995000       0.67323000       0.81286000 </v>
    <v>       0.75005000       0.32677000       0.56286000 </v>
    <v>       0.50005000       0.67323000       0.56286000 </v>
    <v>       0.99995000       0.32677000       0.81286000 </v>
    <v>       0.74995000       0.67323000       0.81286000 </v>
    <v>       0.49987000       0.07798000       0.06246000 </v>
    <v>       0.24987000       0.92202000       0.06246000 </v>
    <v>       0.25013000       0.07798000       0.31246000 </v>
    <v>       0.00013000       0.92202000       0.31246000 </v>
    <v>       0.99987000       0.07798000       0.06246000 </v>
    <v>       0.74987000       0.92202000       0.06246000 </v>
    <v>       0.75013000       0.07798000       0.31246000 </v>
    <v>       0.50013000       0.92202000       0.31246000 </v>
    <v>       0.49987000       0.07798000       0.56246000 </v>
    <v>       0.24987000       0.92202000       0.56246000 </v>
    <v>       0.25013000       0.07798000       0.81246000 </v>
    <v>       0.00013000       0.92202000       0.81246000 </v>
    <v>       0.99987000       0.07798000       0.56246000 </v>
    <v>       0.74987000       0.92202000       0.56246000 </v>
    <v>       0.75013000       0.07798000       0.81246000 </v>
    <v>       0.50013000       0.92202000       0.81246000 </v>
   </varray>
  </structure>
  <varray name="forces" >
   <v>      -0.18751287      -0.06248864      -0.19514426 </v>
   <v>       0.56586828      -0.06554629       0.12520821 </v>
   <v>      -0.01054655       0.00007706      -0.52443375 </v>
   <v>       0.17679982       0.05998822      -0.19099564 </v>
   <v>      -0.55785110       0.06385205       0.12462404 </v>
   <v>      -0.66756751       0.06532764       0.20976823 </v>
   <v>       0.05932612       0.06794498      -0.11619281 </v>
   <v>       0.65707009      -0.06621078       0.20567265 </v>
   <v>       0.00625953       0.00015784      -0.52265477 </v>
   <v>      -0.05182761      -0.06888888      -0.11530105 </v>
   <v>       0.02877698       0.00365242       0.10515503 </v>
   <v>       0.02877542       0.00358877      -0.03564175 </v>
   <v>      -0.02570323       0.00387299       1.10641702 </v>
   <v>       0.04039178      -0.00495420      -0.04433723 </v>
   <v>      -0.04827679       0.01616789      -0.04334343 </v>
   <v>       0.02073989      -0.04398999       0.18461693 </v>
   <v>       0.17219014       1.01898808      -0.09814610 </v>
   <v>       0.04299599      -0.01476163       0.44429233 </v>
   <v>      -0.05905200       0.00359626       0.44510341 </v>
   <v>      -0.16195216      -1.01093333      -0.09747995 </v>
   <v>      -0.00492390       0.03350892       0.18530090 </v>
   <v>       0.01307376      -0.00715012      -0.34095320 </v>
   <v>      -0.02158052       0.01764481      -0.34080442 </v>
   <v>      -0.08199327      -0.01103994       0.18019665 </v>
   <v>      -0.12556415      -1.06145174      -0.11414024 </v>
   <v>       0.01099570       0.02529092      -0.25028079 </v>
   <v>      -0.02696157      -0.02629392      -0.25055904 </v>
   <v>       0.13153044       1.06568486      -0.11523431 </v>
   <v>       0.09810162       0.00060059       0.18008921 </v>
   <v>      -0.02875219       0.14726507      -0.02048931 </v>
   <v>       0.02423518      -0.14575683      -0.02013302 </v>
   <v>      -0.10299469       0.20044902       0.02578157 </v>
   <v>      -0.12784752      -0.18326235      -0.06291971 </v>
   <v>      -0.03774030       0.11875676      -0.32128276 </v>
   <v>       0.03972174      -0.11982899      -0.32246892 </v>
   <v>       0.12570597       0.18149313      -0.06274359 </v>
   <v>       0.10747581      -0.20002418       0.02443242 </v>
   <v>      -0.02771422       0.13802900       0.13586024 </v>
   <v>       0.02414603      -0.13668983       0.13659697 </v>
   <v>       0.14014664       0.10700235       0.03551914 </v>
   <v>       0.05849698      -0.10821623      -0.05679072 </v>
   <v>      -0.01181652       0.19073212       0.26243528 </v>
   <v>       0.01307923      -0.19168374       0.26343875 </v>
   <v>      -0.05957796       0.10671221      -0.05661953 </v>
   <v>      -0.13648719      -0.10555477       0.03710800 </v>
   <v>      -0.08392165      -0.00122649      -1.33108365 </v>
   <v>       0.15151241      -0.06345685       1.00600066 </v>
   <v>       0.05308365       0.10748566      -1.11864834 </v>
   <v>      -0.08148032      -0.10506259      -1.11013820 </v>
   <v>      -0.15252511       0.05876422       1.00290207 </v>
   <v>       0.11270960       0.00332100      -1.32217698 </v>
   <v>       0.65161152       0.83703512       0.60772771 </v>
   <v>      -0.65729783      -0.84119606       0.60839585 </v>
   <v>       0.01322090      -0.02633305       0.23955327 </v>
   <v>       0.14222572      -0.04584383       1.17596556 </v>
   <v>       0.20550592      -0.00352139      -1.09457205 </v>
   <v>      -0.23313908       0.00550938      -1.08528027 </v>
   <v>      -0.14216347       0.04195791       1.17321945 </v>
   <v>       0.00035484       0.02800089       0.23967524 </v>
   <v>      -0.56532136      -0.84858832       0.45390630 </v>
   <v>       0.56396495       0.84749682       0.45602672 </v>
  </varray>
  <varray name="stress" >
   <v>      -5.55070430       0.11452017      -0.01611266 </v>
   <v>       0.11452026     -14.23952117      -0.05094793 </v>
   <v>      -0.01611317      -0.05094767     -13.45577369 </v>
  </varray>
  <energy>
   <i name="e_fr_energy">   -312.08576245 </i>
   <i name="e_wo_entrp">   -312.08576245 </i>
   <i name="e_0_energy">      0.00000000 </i>
  </energy>
  <time name="totalsc"> 1445.14 1450.38</time>
  <eigenvalues>
   <array>
    <dimension dim="1">band</dimension>
    <dimension dim="2">kpoint</dimension>
    <dimension dim="3">spin</dimension>
    <field>eigene</field>
    <field>occ</field>
    <set>
     <set comment="spin 1">
      <set comment="kpoint 1">
       <r>  -40.2254    1.0000 </r>
       <r>  -40.0521    1.0000 </r>
       <r>  -40.0444    1.0000 </r>
       <r>  -40.0212    1.0000 </r>
       <r>  -40.0140    1.0000 </r>
       <r>  -39.6054    1.0000 </r>
       <r>  -39.5985    1.0000 </r>
       <r>  -39.5584    1.0000 </r>
       <r>  -39.5515    1.0000 </r>
       <r>  -39.4033    1.0000 </r>
       <r>  -18.9278    1.0000 </r>
       <r>  -18.9253    1.0000 </r>
       <r>  -18.8565    1.0000 </r>
       <r>  -18.8544    1.0000 </r>
       <r>  -18.8495    1.0000 </r>
       <r>  -18.8475    1.0000 </r>
       <r>  -18.7532    1.0000 </r>
       <r>  -18.7507    1.0000 </r>
       <r>  -18.7408    1.0000 </r>
       <r>  -18.7385    1.0000 </r>
       <r>  -18.7092    1.0000 </r>
       <r>  -18.7058    1.0000 </r>
       <r>  -18.6994    1.0000 </r>
       <r>  -18.6961    1.0000 </r>
       <r>  -18.6919    1.0000 </r>
       <r>  -18.6877    1.0000 </r>
       <r>  -18.6459    1.0000 </r>
       <r>  -18.6434    1.0000 </r>
       <r>  -18.6412    1.0000 </r>
       <r>  -18.6392    1.0000 </r>
       <r>  -18.6387    1.0000 </r>
       <r>  -18.6379    1.0000 </r>
       <r>  -18.6363    1.0000 </r>
       <r>  -18.6349    1.0000 </r>
       <r>  -18.6340    1.0000 </r>
       <r>  -18.6329    1.0000 </r>
       <r>  -18.6308    1.0000 </r>
       <r>  -18.6304    1.0000 </r>
       <r>  -18.6302    1.0000 </r>
       <r>  -18.6283    1.0000 </r>
       <r>  -18.6271    1.0000 </r>
       <r>  -18.6266    1.0000 </r>
       <r>  -18.6262    1.0000 </r>
       <r>  -18.6261    1.0000 </r>
       <r>  -18.6253    1.0000 </r>
       <r>  -18.6211    1.0000 </r>
       <r>  -18.6207    1.0000 </r>
       <r>  -18.6185    1.0000 </r>
       <r>  -18.6170    1.0000 </r>
       <r>  -18.6163    1.0000 </r>
       <r>  -18.5602    1.0000 </r>
       <r>  -18.5570    1.0000 </r>
       <r>  -18.5521    1.0000 </r>
       <r>  -18.5479    1.0000 </r>
       <r>  -18.5469    1.0000 </r>
       <r>  -18.5440    1.0000 </r>
       <r>  -18.5365    1.0000 </r>
       <r>  -18.5350    1.0000 </r>
       <r>  -18.5325    1.0000 </r>
       <r>  -18.5308    1.0000 </r>
       <r>  -18.4907    1.0000 </r>
       <r>  -18.4869    1.0000 </r>
       <r>  -18.4842    1.0000 </r>
       <r>  -18.4829    1.0000 </r>
       <r>  -18.4797    1.0000 </r>
       <r>  -18.4783    1.0000 </r>
       <r>  -18.4769    1.0000 </r>
       <r>  -18.4737    1.0000 </r>
       <r>  -18.4732    1.0000 </r>
       <r>  -18.4729    1.0000 </r>
       <r>  -18.4723    1.0000 </r>
       <r>  -18.4714    1.0000 </r>
       <r>  -18.4709    1.0000 </r>
       <r>  -18.4685    1.0000 </r>
       <r>  -18.4665    1.0000 </r>
       <r>  -18.4639    1.0000 </r>
       <r>  -18.4027    1.0000 </r>
       <r>  -18.3987    1.0000 </r>
       <r>  -18.3931    1.0000 </r>
       <r>  -18.3897    1.0000 </r>
       <r>  -18.3851    1.0000 </r>
       <r>  -18.3812    1.0000 </r>
       <r>  -18.3800    1.0000 </r>
       <r>  -18.3766    1.0000 </r>
       <r>  -18.3017    1.0000 </r>
       <r>  -18.2977    1.0000 </r>
       <r>  -18.1863    1.0000 </r>
       <r>  -18.1823    1.0000 </r>
       <r>  -18.1731    1.0000 </r>
       <r>  -18.1692    1.0000 </r>
       <r>  -13.5654    1.0000 </r>
       <r>  -13.4573    1.0000 </r>
       <r>  -12.9103    1.0000 </r>
       <r>  -12.7986    1.0000 </r>
       <r>  -12.7562    1.0000 </r>
       <r>  -12.7381    1.0000 </r>
       <r>  -12.7302    1.0000 </r>
       <r>  -12.6948    1.0000 </r>
       <r>  -12.6765    1.0000 </r>
       <r>  -12.6717    1.0000 </r>
       <r>  -12.6410    1.0000 </r>
       <r>  -12.6144    1.0000 </r>
       <r>  -12.5848    1.0000 </r>
       <r>  -12.5467    1.0000 </r>
       <r>  -11.9617    1.0000 </r>
       <r>  -11.9084    1.0000 </r>
       <r>   -9.3189    1.0000 </r>
       <r>   -9.0243    1.0000 </r>
       <r>   -8.5257    1.0000 </r>
       <r>   -8.4906    1.0000 </r>
       <r>   -8.4789    1.0000 </r>
       <r>   -8.4340    1.0000 </r>
       <r>   -8.3037    1.0000 </r>
       <r>   -8.2703    1.0000 </r>
       <r>   -8.2524    1.0000 </r>
       <r>   -8.2100    1.0000 </r>
       <r>   -8.0198    1.0000 </r>
       <r>   -8.0195    1.0000 </r>
       <r>   -7.9840    1.0000 </r>
       <r>   -7.9830    1.0000 </r>
       <r>   -7.3479    1.0000 </r>
       <r>   -7.3471    1.0000 </r>
       <r>   -6.3618    1.0000 </r>
       <r>   -6.3584    1.0000 </r>
       <r>   -6.3363    1.0000 </r>
       <r>   -6.3338    1.0000 </r>
       <r>   -5.5201    1.0000 </r>
       <r>   -5.4843    1.0000 </r>
       <r>   -5.3541    1.0000 </r>
       <r>   -5.3300    1.0000 </r>
       <r>   -5.3284    1.0000 </r>
       <r>   -5.2432    1.0000 </r>
       <r>   -5.2040    1.0000 </r>
       <r>   -5.1602    1.0000 </r>
       <r>   -5.1126    1.0000 </r>
       <r>   -5.0505    1.0000 </r>
       <r>   -3.7987    1.0000 </r>
       <r>   -3.6458    1.0000 </r>
       <r>   -1.3857    1.0000 </r>
       <r>   -1.3546    1.0000 </r>
       <r>   -1.0603    1.0000 </r>
       <r>   -1.0285    1.0000 </r>
       <r>   -0.5302    1.0000 </r>
       <r>   -0.4968    1.0000 </r>
       <r>   -0.4621    1.0000 </r>
       <r>   -0.4559    1.0000 </r>
       <r>   -0.1695    1.0000 </r>
       <r>   -0.1528    1.0000 </r>
       <r>   -0.1471    1.0000 </r>
       <r>   -0.1291    1.0000 </r>
       <r>    0.0265    1.0000 </r>
       <r>    0.2731    1.0000 </r>
       <r>    0.3322    1.0000 </r>
       <r>    0.4070    1.0000 </r>
       <r>    0.4974    1.0000 </r>
       <r>    0.5666    1.0000 </r>
       <r>    0.6338    1.0000 </r>
       <r>    0.7101    1.0000 </r>
       <r>    0.7189    1.0000 </r>
       <r>    0.7259    1.0000 </r>
       <r>    0.7447    1.0000 </r>
       <r>    0.7987    1.0000 </r>
       <r>    0.8524    1.0000 </r>
       <r>    0.8739    1.0000 </r>
       <r>    0.9430    1.0000 </r>
       <r>    0.9901    1.0000 </r>
       <r>    1.0043    1.0000 </r>
       <r>    1.0144    1.0000 </r>
       <r>    1.0540    1.0000 </r>
       <r>    1.0936    1.0000 </r>
       <r>    1.1273    1.0000 </r>
       <r>    1.1591    1.0000 </r>
       <r>    1.2273    1.0000 </r>
       <r>    1.2374    1.0000 </r>
       <r>    1.3465    1.0000 </r>
       <r>    1.3741    1.0000 </r>
       <r>    1.4337    1.0000 </r>
       <r>    1.4643    1.0000 </r>
       <r>    1.5016    1.0000 </r>
       <r>    1.5114    1.0000 </r>
       <r>    1.6241    1.0000 </r>
       <r>    1.7108    1.0000 </r>
       <r>    1.7425    1.0000 </r>
       <r>    1.7820    1.0000 </r>
       <r>    1.8116    1.0000 </r>
       <r>    1.8348    1.0000 </r>
       <r>    1.8629    1.0000 </r>
       <r>    1.8817    1.0000 </r>
       <r>    1.9552    1.0000 </r>
       <r>    1.9618    1.0000 </r>
       <r>    2.0167    1.0000 </r>
       <r>    2.1366    1.0000 </r>
       <r>    2.1967    1.0000 </r>
       <r>    2.2686    1.0000 </r>
       <r>    2.3700    1.0000 </r>
       <r>    2.3767    1.0000 </r>
       <r>    2.5603    1.0000 </r>
       <r>    2.5806    1.0000 </r>
       <r>    2.5831    1.0000 </r>
       <r>    2.5974    1.0000 </r>
       <r>    2.6029    1.0000 </r>
       <r>    2.6092    1.0000 </r>
       <r>    2.6430    1.0000 </r>
       <r>    2.6454    1.0000 </r>
       <r>    2.6920    1.0000 </r>
       <r>    2.6939    1.0000 </r>
       <r>    2.7291    1.0000 </r>
       <r>    2.7836    1.0000 </r>
       <r>    2.8524    1.0000 </r>
       <r>    2.8560    1.0000 </r>
       <r>    2.8589    1.0000 </r>
       <r>    2.8962    1.0000 </r>
       <r>    2.9440    1.0000 </r>
       <r>    2.9564    1.0000 </r>
       <r>    2.9761    1.0000 </r>
       <r>    2.9995    1.0000 </r>
       <r>    3.0651    1.0000 </r>
       <r>    3.1121    1.0000 </r>
       <r>    3.1299    1.0000 </r>
       <r>    3.1540    1.0000 </r>
       <r>    3.1602    1.0000 </r>
       <r>    3.1645    1.0000 </r>
       <r>    3.1929    1.0000 </r>
       <r>    3.2378    1.0000 </r>
       <r>    3.3021    1.0000 </r>
       <r>    3.3367    1.0000 </r>
       <r>    3.4085    1.0000 </r>
       <r>    3.4528    1.0000 </r>
       <r>    3.4680    1.0000 </r>
       <r>    3.5704    1.0000 </r>
       <r>    4.2033    1.0000 </r>
       <r>    4.2040    1.0000 </r>
       <r>    4.2268    1.0000 </r>
       <r>    4.2343    1.0000 </r>
       <r>    5.0955    0.0000 </r>
       <r>    5.1042    0.0000 </r>
       <r>    5.1305    0.0000 </r>
       <r>    5.1443    0.0000 </r>
       <r>    5.7685    0.0000 </r>
       <r>    5.7700    0.0000 </r>
       <r>    5.8053    0.0000 </r>
       <r>    5.8070    0.0000 </r>
       <r>    6.1052    0.0000 </r>
       <r>    6.1245    0.0000 </r>
       <r>    6.1491    0.0000 </r>
       <r>    6.1536    0.0000 </r>
       <r>    6.2422    0.0000 </r>
       <r>    6.2528    0.0000 </r>
       <r>    6.2737    0.0000 </r>
       <r>    6.2813    0.0000 </r>
       <r>    7.1411    0.0000 </r>
       <r>    7.2215    0.0000 </r>
       <r>    7.2254    0.0000 </r>
       <r>    7.3071    0.0000 </r>
       <r>    7.8197    0.0000 </r>
       <r>    7.9046    0.0000 </r>
       <r>    7.9346    0.0000 </r>
       <r>    7.9537    0.0000 </r>
       <r>    7.9919    0.0000 </r>
       <r>    8.0734    0.0000 </r>
       <r>    8.1055    0.0000 </r>
       <r>    8.1917    0.0000 </r>
       <r>    8.4889    0.0000 </r>
       <r>    8.5323    0.0000 </r>
       <r>    8.6810    0.0000 </r>
       <r>    8.7848    0.0000 </r>
       <r>    8.7941    0.0000 </r>
       <r>    8.9403    0.0000 </r>
       <r>    8.9527    0.0000 </r>
       <r>    8.9869    0.0000 </r>
       <r>    9.0333    0.0000 </r>
       <r>    9.0477    0.0000 </r>
       <r>    9.0622    0.0000 </r>
       <r>    9.1246    0.0000 </r>
       <r>    9.1345    0.0000 </r>
       <r>    9.1885    0.0000 </r>
       <r>    9.2188    0.0000 </r>
       <r>    9.2685    0.0000 </r>
       <r>    9.4537    0.0000 </r>
       <r>    9.6003    0.0000 </r>
      </set>
      <set comment="kpoint 2">
       <r>  -40.2254    1.0000 </r>
       <r>  -40.0521    1.0000 </r>
       <r>  -40.0444    1.0000 </r>
       <r>  -40.0212    1.0000 </r>
       <r>  -40.0140    1.0000 </r>
       <r>  -39.6054    1.0000 </r>
       <r>  -39.5985    1.0000 </r>
       <r>  -39.5584    1.0000 </r>
       <r>  -39.5515    1.0000 </r>
       <r>  -39.4033    1.0000 </r>
       <r>  -18.9278    1.0000 </r>
       <r>  -18.9253    1.0000 </r>
       <r>  -18.8564    1.0000 </r>
       <r>  -18.8543    1.0000 </r>
       <r>  -18.8495    1.0000 </r>
       <r>  -18.8474    1.0000 </r>
       <r>  -18.7532    1.0000 </r>
       <r>  -18.7507    1.0000 </r>
       <r>  -18.7408    1.0000 </r>
       <r>  -18.7385    1.0000 </r>
       <r>  -18.7093    1.0000 </r>
       <r>  -18.7059    1.0000 </r>
       <r>  -18.6993    1.0000 </r>
       <r>  -18.6961    1.0000 </r>
       <r>  -18.6918    1.0000 </r>
       <r>  -18.6876    1.0000 </r>
       <r>  -18.6456    1.0000 </r>
       <r>  -18.6429    1.0000 </r>
       <r>  -18.6410    1.0000 </r>
       <r>  -18.6382    1.0000 </r>
       <r>  -18.6376    1.0000 </r>
       <r>  -18.6375    1.0000 </r>
       <r>  -18.6369    1.0000 </r>
       <r>  -18.6364    1.0000 </r>
       <r>  -18.6343    1.0000 </r>
       <r>  -18.6338    1.0000 </r>
       <r>  -18.6311    1.0000 </r>
       <r>  -18.6310    1.0000 </r>
       <r>  -18.6309    1.0000 </r>
       <r>  -18.6288    1.0000 </r>
       <r>  -18.6273    1.0000 </r>
       <r>  -18.6265    1.0000 </r>
       <r>  -18.6259    1.0000 </r>
       <r>  -18.6257    1.0000 </r>
       <r>  -18.6249    1.0000 </r>
       <r>  -18.6210    1.0000 </r>
       <r>  -18.6206    1.0000 </r>
       <r>  -18.6186    1.0000 </r>
       <r>  -18.6167    1.0000 </r>
       <r>  -18.6159    1.0000 </r>
       <r>  -18.5602    1.0000 </r>
       <r>  -18.5569    1.0000 </r>
       <r>  -18.5521    1.0000 </r>
       <r>  -18.5479    1.0000 </r>
       <r>  -18.5470    1.0000 </r>
       <r>  -18.5440    1.0000 </r>
       <r>  -18.5365    1.0000 </r>
       <r>  -18.5350    1.0000 </r>
       <r>  -18.5325    1.0000 </r>
       <r>  -18.5308    1.0000 </r>
       <r>  -18.4907    1.0000 </r>
       <r>  -18.4869    1.0000 </r>
       <r>  -18.4842    1.0000 </r>
       <r>  -18.4829    1.0000 </r>
       <r>  -18.4797    1.0000 </r>
       <r>  -18.4783    1.0000 </r>
       <r>  -18.4769    1.0000 </r>
       <r>  -18.4737    1.0000 </r>
       <r>  -18.4732    1.0000 </r>
       <r>  -18.4729    1.0000 </r>
       <r>  -18.4722    1.0000 </r>
       <r>  -18.4713    1.0000 </r>
       <r>  -18.4709    1.0000 </r>
       <r>  -18.4685    1.0000 </r>
       <r>  -18.4665    1.0000 </r>
       <r>  -18.4639    1.0000 </r>
       <r>  -18.4027    1.0000 </r>
       <r>  -18.3987    1.0000 </r>
       <r>  -18.3931    1.0000 </r>
       <r>  -18.3897    1.0000 </r>
       <r>  -18.3851    1.0000 </r>
       <r>  -18.3812    1.0000 </r>
       <r>  -18.3800    1.0000 </r>
       <r>  -18.3767    1.0000 </r>
       <r>  -18.3017    1.0000 </r>
       <r>  -18.2977    1.0000 </r>
       <r>  -18.1863    1.0000 </r>
       <r>  -18.1823    1.0000 </r>
       <r>  -18.1731    1.0000 </r>
       <r>  -18.1691    1.0000 </r>
       <r>  -13.5647    1.0000 </r>
       <r>  -13.4581    1.0000 </r>
       <r>  -12.9078    1.0000 </r>
       <r>  -12.7829    1.0000 </r>
       <r>  -12.7753    1.0000 </r>
       <r>  -12.7479    1.0000 </r>
       <r>  -12.7273    1.0000 </r>
       <r>  -12.7061    1.0000 </r>
       <r>  -12.6698    1.0000 </r>
       <r>  -12.6531    1.0000 </r>
       <r>  -12.6410    1.0000 </r>
       <r>  -12.6195    1.0000 </r>
       <r>  -12.5842    1.0000 </r>
       <r>  -12.5483    1.0000 </r>
       <r>  -11.9622    1.0000 </r>
       <r>  -11.9080    1.0000 </r>
       <r>   -9.1141    1.0000 </r>
       <r>   -9.0977    1.0000 </r>
       <r>   -8.8406    1.0000 </r>
       <r>   -8.8209    1.0000 </r>
       <r>   -8.3178    1.0000 </r>
       <r>   -8.3142    1.0000 </r>
       <r>   -8.3028    1.0000 </r>
       <r>   -8.3000    1.0000 </r>
       <r>   -8.1297    1.0000 </r>
       <r>   -8.1267    1.0000 </r>
       <r>   -8.1165    1.0000 </r>
       <r>   -8.1147    1.0000 </r>
       <r>   -7.6812    1.0000 </r>
       <r>   -7.6795    1.0000 </r>
       <r>   -7.5714    1.0000 </r>
       <r>   -7.5694    1.0000 </r>
       <r>   -5.9741    1.0000 </r>
       <r>   -5.9349    1.0000 </r>
       <r>   -5.8825    1.0000 </r>
       <r>   -5.8798    1.0000 </r>
       <r>   -5.8390    1.0000 </r>
       <r>   -5.7631    1.0000 </r>
       <r>   -5.7321    1.0000 </r>
       <r>   -5.7296    1.0000 </r>
       <r>   -5.6286    1.0000 </r>
       <r>   -5.5798    1.0000 </r>
       <r>   -5.4952    1.0000 </r>
       <r>   -5.4808    1.0000 </r>
       <r>   -4.4213    1.0000 </r>
       <r>   -4.4072    1.0000 </r>
       <r>   -4.2554    1.0000 </r>
       <r>   -4.2375    1.0000 </r>
       <r>   -1.1314    1.0000 </r>
       <r>   -1.1216    1.0000 </r>
       <r>   -0.8032    1.0000 </r>
       <r>   -0.7910    1.0000 </r>
       <r>   -0.4343    1.0000 </r>
       <r>   -0.3189    1.0000 </r>
       <r>    0.0174    1.0000 </r>
       <r>    0.0646    1.0000 </r>
       <r>    0.0785    1.0000 </r>
       <r>    0.1195    1.0000 </r>
       <r>    0.1482    1.0000 </r>
       <r>    0.2314    1.0000 </r>
       <r>    0.2545    1.0000 </r>
       <r>    0.2832    1.0000 </r>
       <r>    0.3340    1.0000 </r>
       <r>    0.3386    1.0000 </r>
       <r>    0.5374    1.0000 </r>
       <r>    0.5641    1.0000 </r>
       <r>    0.5812    1.0000 </r>
       <r>    0.5979    1.0000 </r>
       <r>    0.6352    1.0000 </r>
       <r>    0.6362    1.0000 </r>
       <r>    0.6770    1.0000 </r>
       <r>    0.7169    1.0000 </r>
       <r>    0.7532    1.0000 </r>
       <r>    0.7986    1.0000 </r>
       <r>    0.9210    1.0000 </r>
       <r>    0.9295    1.0000 </r>
       <r>    1.0110    1.0000 </r>
       <r>    1.0124    1.0000 </r>
       <r>    1.0554    1.0000 </r>
       <r>    1.1667    1.0000 </r>
       <r>    1.1754    1.0000 </r>
       <r>    1.1860    1.0000 </r>
       <r>    1.2726    1.0000 </r>
       <r>    1.2997    1.0000 </r>
       <r>    1.3221    1.0000 </r>
       <r>    1.3522    1.0000 </r>
       <r>    1.3820    1.0000 </r>
       <r>    1.4004    1.0000 </r>
       <r>    1.4784    1.0000 </r>
       <r>    1.4843    1.0000 </r>
       <r>    1.4878    1.0000 </r>
       <r>    1.6211    1.0000 </r>
       <r>    1.6265    1.0000 </r>
       <r>    1.6934    1.0000 </r>
       <r>    1.7851    1.0000 </r>
       <r>    1.7883    1.0000 </r>
       <r>    1.8203    1.0000 </r>
       <r>    1.9108    1.0000 </r>
       <r>    1.9445    1.0000 </r>
       <r>    1.9887    1.0000 </r>
       <r>    1.9983    1.0000 </r>
       <r>    2.0192    1.0000 </r>
       <r>    2.0334    1.0000 </r>
       <r>    2.0495    1.0000 </r>
       <r>    2.1199    1.0000 </r>
       <r>    2.2009    1.0000 </r>
       <r>    2.2071    1.0000 </r>
       <r>    2.2760    1.0000 </r>
       <r>    2.2904    1.0000 </r>
       <r>    2.3030    1.0000 </r>
       <r>    2.4080    1.0000 </r>
       <r>    2.4530    1.0000 </r>
       <r>    2.5127    1.0000 </r>
       <r>    2.5587    1.0000 </r>
       <r>    2.6243    1.0000 </r>
       <r>    2.6469    1.0000 </r>
       <r>    2.6582    1.0000 </r>
       <r>    2.6864    1.0000 </r>
       <r>    2.7085    1.0000 </r>
       <r>    2.7409    1.0000 </r>
       <r>    2.7598    1.0000 </r>
       <r>    2.7791    1.0000 </r>
       <r>    2.8589    1.0000 </r>
       <r>    2.8809    1.0000 </r>
       <r>    2.8961    1.0000 </r>
       <r>    2.9216    1.0000 </r>
       <r>    2.9564    1.0000 </r>
       <r>    2.9677    1.0000 </r>
       <r>    3.0833    1.0000 </r>
       <r>    3.0907    1.0000 </r>
       <r>    3.1212    1.0000 </r>
       <r>    3.1418    1.0000 </r>
       <r>    3.1571    1.0000 </r>
       <r>    3.1879    1.0000 </r>
       <r>    3.2823    1.0000 </r>
       <r>    3.2918    1.0000 </r>
       <r>    3.5009    1.0000 </r>
       <r>    3.5139    1.0000 </r>
       <r>    3.5381    1.0000 </r>
       <r>    3.5678    1.0000 </r>
       <r>    3.5790    1.0000 </r>
       <r>    3.5943    1.0000 </r>
       <r>    3.6386    1.0000 </r>
       <r>    3.7778    1.0000 </r>
       <r>    5.6846    0.0000 </r>
       <r>    5.6976    0.0000 </r>
       <r>    5.7010    0.0000 </r>
       <r>    5.7041    0.0000 </r>
       <r>    5.7615    0.0000 </r>
       <r>    5.7653    0.0000 </r>
       <r>    5.8074    0.0000 </r>
       <r>    5.8118    0.0000 </r>
       <r>    7.2346    0.0000 </r>
       <r>    7.2513    0.0000 </r>
       <r>    7.3020    0.0000 </r>
       <r>    7.3449    0.0000 </r>
       <r>    7.3978    0.0000 </r>
       <r>    7.4203    0.0000 </r>
       <r>    7.4422    0.0000 </r>
       <r>    7.4790    0.0000 </r>
       <r>    7.4823    0.0000 </r>
       <r>    7.4894    0.0000 </r>
       <r>    7.5392    0.0000 </r>
       <r>    7.5403    0.0000 </r>
       <r>    7.8465    0.0000 </r>
       <r>    7.8623    0.0000 </r>
       <r>    7.8750    0.0000 </r>
       <r>    7.8813    0.0000 </r>
       <r>    7.8835    0.0000 </r>
       <r>    7.9021    0.0000 </r>
       <r>    7.9570    0.0000 </r>
       <r>    7.9931    0.0000 </r>
       <r>    8.0193    0.0000 </r>
       <r>    8.0224    0.0000 </r>
       <r>    8.0604    0.0000 </r>
       <r>    8.1300    0.0000 </r>
       <r>    8.3205    0.0000 </r>
       <r>    8.3448    0.0000 </r>
       <r>    8.4312    0.0000 </r>
       <r>    8.5495    0.0000 </r>
       <r>    8.6905    0.0000 </r>
       <r>    8.6912    0.0000 </r>
       <r>    8.7725    0.0000 </r>
       <r>    8.7836    0.0000 </r>
       <r>    8.8328    0.0000 </r>
       <r>    8.8466    0.0000 </r>
       <r>    8.9394    0.0000 </r>
       <r>    8.9413    0.0000 </r>
       <r>    9.2027    0.0000 </r>
       <r>    9.2073    0.0000 </r>
      </set>
      <set comment="kpoint 3">
       <r>  -40.2254    1.0000 </r>
       <r>  -40.0521    1.0000 </r>
       <r>  -40.0444    1.0000 </r>
       <r>  -40.0212    1.0000 </r>
       <r>  -40.0140    1.0000 </r>
       <r>  -39.6053    1.0000 </r>
       <r>  -39.5985    1.0000 </r>
       <r>  -39.5584    1.0000 </r>
       <r>  -39.5515    1.0000 </r>
       <r>  -39.4032    1.0000 </r>
       <r>  -18.9280    1.0000 </r>
       <r>  -18.9251    1.0000 </r>
       <r>  -18.8565    1.0000 </r>
       <r>  -18.8544    1.0000 </r>
       <r>  -18.8495    1.0000 </r>
       <r>  -18.8475    1.0000 </r>
       <r>  -18.7532    1.0000 </r>
       <r>  -18.7507    1.0000 </r>
       <r>  -18.7408    1.0000 </r>
       <r>  -18.7385    1.0000 </r>
       <r>  -18.7092    1.0000 </r>
       <r>  -18.7058    1.0000 </r>
       <r>  -18.6993    1.0000 </r>
       <r>  -18.6961    1.0000 </r>
       <r>  -18.6918    1.0000 </r>
       <r>  -18.6877    1.0000 </r>
       <r>  -18.6459    1.0000 </r>
       <r>  -18.6434    1.0000 </r>
       <r>  -18.6412    1.0000 </r>
       <r>  -18.6391    1.0000 </r>
       <r>  -18.6387    1.0000 </r>
       <r>  -18.6379    1.0000 </r>
       <r>  -18.6363    1.0000 </r>
       <r>  -18.6349    1.0000 </r>
       <r>  -18.6340    1.0000 </r>
       <r>  -18.6329    1.0000 </r>
       <r>  -18.6308    1.0000 </r>
       <r>  -18.6303    1.0000 </r>
       <r>  -18.6303    1.0000 </r>
       <r>  -18.6283    1.0000 </r>
       <r>  -18.6271    1.0000 </r>
       <r>  -18.6267    1.0000 </r>
       <r>  -18.6263    1.0000 </r>
       <r>  -18.6260    1.0000 </r>
       <r>  -18.6253    1.0000 </r>
       <r>  -18.6211    1.0000 </r>
       <r>  -18.6207    1.0000 </r>
       <r>  -18.6185    1.0000 </r>
       <r>  -18.6170    1.0000 </r>
       <r>  -18.6163    1.0000 </r>
       <r>  -18.5602    1.0000 </r>
       <r>  -18.5570    1.0000 </r>
       <r>  -18.5521    1.0000 </r>
       <r>  -18.5480    1.0000 </r>
       <r>  -18.5469    1.0000 </r>
       <r>  -18.5440    1.0000 </r>
       <r>  -18.5366    1.0000 </r>
       <r>  -18.5350    1.0000 </r>
       <r>  -18.5324    1.0000 </r>
       <r>  -18.5308    1.0000 </r>
       <r>  -18.4906    1.0000 </r>
       <r>  -18.4869    1.0000 </r>
       <r>  -18.4842    1.0000 </r>
       <r>  -18.4829    1.0000 </r>
       <r>  -18.4797    1.0000 </r>
       <r>  -18.4783    1.0000 </r>
       <r>  -18.4769    1.0000 </r>
       <r>  -18.4737    1.0000 </r>
       <r>  -18.4732    1.0000 </r>
       <r>  -18.4729    1.0000 </r>
       <r>  -18.4723    1.0000 </r>
       <r>  -18.4714    1.0000 </r>
       <r>  -18.4709    1.0000 </r>
       <r>  -18.4685    1.0000 </r>
       <r>  -18.4665    1.0000 </r>
       <r>  -18.4639    1.0000 </r>
       <r>  -18.4027    1.0000 </r>
       <r>  -18.3987    1.0000 </r>
       <r>  -18.3931    1.0000 </r>
       <r>  -18.3897    1.0000 </r>
       <r>  -18.3851    1.0000 </r>
       <r>  -18.3812    1.0000 </r>
       <r>  -18.3800    1.0000 </r>
       <r>  -18.3766    1.0000 </r>
       <r>  -18.3017    1.0000 </r>
       <r>  -18.2976    1.0000 </r>
       <r>  -18.1863    1.0000 </r>
       <r>  -18.1823    1.0000 </r>
       <r>  -18.1731    1.0000 </r>
       <r>  -18.1692    1.0000 </r>
       <r>  -13.5652    1.0000 </r>
       <r>  -13.4575    1.0000 </r>
       <r>  -12.9087    1.0000 </r>
       <r>  -12.7979    1.0000 </r>
       <r>  -12.7564    1.0000 </r>
       <r>  -12.7375    1.0000 </r>
       <r>  -12.7300    1.0000 </r>
       <r>  -12.6948    1.0000 </r>
       <r>  -12.6769    1.0000 </r>
       <r>  -12.6717    1.0000 </r>
       <r>  -12.6423    1.0000 </r>
       <r>  -12.6154    1.0000 </r>
       <r>  -12.5849    1.0000 </r>
       <r>  -12.5475    1.0000 </r>
       <r>  -11.9608    1.0000 </r>
       <r>  -11.9099    1.0000 </r>
       <r>   -9.3091    1.0000 </r>
       <r>   -9.0311    1.0000 </r>
       <r>   -8.5441    1.0000 </r>
       <r>   -8.5084    1.0000 </r>
       <r>   -8.4969    1.0000 </r>
       <r>   -8.4513    1.0000 </r>
       <r>   -8.2831    1.0000 </r>
       <r>   -8.2510    1.0000 </r>
       <r>   -8.2318    1.0000 </r>
       <r>   -8.1907    1.0000 </r>
       <r>   -8.0239    1.0000 </r>
       <r>   -8.0233    1.0000 </r>
       <r>   -7.9869    1.0000 </r>
       <r>   -7.9861    1.0000 </r>
       <r>   -7.3506    1.0000 </r>
       <r>   -7.3500    1.0000 </r>
       <r>   -6.3521    1.0000 </r>
       <r>   -6.3490    1.0000 </r>
       <r>   -6.3261    1.0000 </r>
       <r>   -6.3244    1.0000 </r>
       <r>   -5.5359    1.0000 </r>
       <r>   -5.4700    1.0000 </r>
       <r>   -5.3927    1.0000 </r>
       <r>   -5.3765    1.0000 </r>
       <r>   -5.3685    1.0000 </r>
       <r>   -5.2636    1.0000 </r>
       <r>   -5.1466    1.0000 </r>
       <r>   -5.1039    1.0000 </r>
       <r>   -5.0720    1.0000 </r>
       <r>   -5.0023    1.0000 </r>
       <r>   -3.8718    1.0000 </r>
       <r>   -3.5610    1.0000 </r>
       <r>   -1.3210    1.0000 </r>
       <r>   -1.2925    1.0000 </r>
       <r>   -1.1471    1.0000 </r>
       <r>   -1.1151    1.0000 </r>
       <r>   -0.4129    1.0000 </r>
       <r>   -0.4007    1.0000 </r>
       <r>   -0.3916    1.0000 </r>
       <r>   -0.3779    1.0000 </r>
       <r>   -0.3475    1.0000 </r>
       <r>   -0.2955    1.0000 </r>
       <r>   -0.2460    1.0000 </r>
       <r>   -0.2451    1.0000 </r>
       <r>   -0.1014    1.0000 </r>
       <r>   -0.0538    1.0000 </r>
       <r>    0.1888    1.0000 </r>
       <r>    0.2409    1.0000 </r>
       <r>    0.2689    1.0000 </r>
       <r>    0.3725    1.0000 </r>
       <r>    0.4069    1.0000 </r>
       <r>    0.4530    1.0000 </r>
       <r>    0.5333    1.0000 </r>
       <r>    0.6634    1.0000 </r>
       <r>    0.7493    1.0000 </r>
       <r>    0.7642    1.0000 </r>
       <r>    0.7905    1.0000 </r>
       <r>    0.8084    1.0000 </r>
       <r>    0.8196    1.0000 </r>
       <r>    0.8765    1.0000 </r>
       <r>    1.0105    1.0000 </r>
       <r>    1.0551    1.0000 </r>
       <r>    1.1611    1.0000 </r>
       <r>    1.2127    1.0000 </r>
       <r>    1.2815    1.0000 </r>
       <r>    1.2995    1.0000 </r>
       <r>    1.3949    1.0000 </r>
       <r>    1.4017    1.0000 </r>
       <r>    1.4777    1.0000 </r>
       <r>    1.5424    1.0000 </r>
       <r>    1.5600    1.0000 </r>
       <r>    1.6559    1.0000 </r>
       <r>    1.6670    1.0000 </r>
       <r>    1.6933    1.0000 </r>
       <r>    1.7895    1.0000 </r>
       <r>    1.8102    1.0000 </r>
       <r>    1.8588    1.0000 </r>
       <r>    1.8665    1.0000 </r>
       <r>    1.9052    1.0000 </r>
       <r>    1.9341    1.0000 </r>
       <r>    1.9524    1.0000 </r>
       <r>    1.9722    1.0000 </r>
       <r>    2.0105    1.0000 </r>
       <r>    2.0929    1.0000 </r>
       <r>    2.1584    1.0000 </r>
       <r>    2.2219    1.0000 </r>
       <r>    2.2512    1.0000 </r>
       <r>    2.3527    1.0000 </r>
       <r>    2.4173    1.0000 </r>
       <r>    2.4725    1.0000 </r>
       <r>    2.5060    1.0000 </r>
       <r>    2.5312    1.0000 </r>
       <r>    2.5836    1.0000 </r>
       <r>    2.5840    1.0000 </r>
       <r>    2.5904    1.0000 </r>
       <r>    2.5929    1.0000 </r>
       <r>    2.6117    1.0000 </r>
       <r>    2.6155    1.0000 </r>
       <r>    2.6827    1.0000 </r>
       <r>    2.7323    1.0000 </r>
       <r>    2.7387    1.0000 </r>
       <r>    2.7674    1.0000 </r>
       <r>    2.8040    1.0000 </r>
       <r>    2.8507    1.0000 </r>
       <r>    2.8647    1.0000 </r>
       <r>    2.8889    1.0000 </r>
       <r>    2.8989    1.0000 </r>
       <r>    2.9302    1.0000 </r>
       <r>    2.9552    1.0000 </r>
       <r>    2.9785    1.0000 </r>
       <r>    3.0220    1.0000 </r>
       <r>    3.0380    1.0000 </r>
       <r>    3.0571    1.0000 </r>
       <r>    3.0665    1.0000 </r>
       <r>    3.1529    1.0000 </r>
       <r>    3.3046    1.0000 </r>
       <r>    3.3414    1.0000 </r>
       <r>    3.3941    1.0000 </r>
       <r>    3.4179    1.0000 </r>
       <r>    3.4536    1.0000 </r>
       <r>    3.4560    1.0000 </r>
       <r>    3.4666    1.0000 </r>
       <r>    3.5096    1.0000 </r>
       <r>    3.5871    1.0000 </r>
       <r>    4.2506    1.0000 </r>
       <r>    4.2529    1.0000 </r>
       <r>    4.2810    1.0000 </r>
       <r>    4.2824    1.0000 </r>
       <r>    5.1648    0.0000 </r>
       <r>    5.1738    0.0000 </r>
       <r>    5.2004    0.0000 </r>
       <r>    5.2065    0.0000 </r>
       <r>    5.7778    0.0000 </r>
       <r>    5.7783    0.0000 </r>
       <r>    5.8121    0.0000 </r>
       <r>    5.8151    0.0000 </r>
       <r>    6.1646    0.0000 </r>
       <r>    6.1800    0.0000 </r>
       <r>    6.1966    0.0000 </r>
       <r>    6.2002    0.0000 </r>
       <r>    6.2532    0.0000 </r>
       <r>    6.2635    0.0000 </r>
       <r>    6.2873    0.0000 </r>
       <r>    6.2965    0.0000 </r>
       <r>    6.7818    0.0000 </r>
       <r>    6.9271    0.0000 </r>
       <r>    6.9747    0.0000 </r>
       <r>    7.0606    0.0000 </r>
       <r>    7.2796    0.0000 </r>
       <r>    7.3659    0.0000 </r>
       <r>    7.4291    0.0000 </r>
       <r>    7.5147    0.0000 </r>
       <r>    7.7705    0.0000 </r>
       <r>    7.8390    0.0000 </r>
       <r>    7.9450    0.0000 </r>
       <r>    7.9913    0.0000 </r>
       <r>    8.0137    0.0000 </r>
       <r>    8.3147    0.0000 </r>
       <r>    8.3422    0.0000 </r>
       <r>    8.4844    0.0000 </r>
       <r>    8.6965    0.0000 </r>
       <r>    8.8384    0.0000 </r>
       <r>    8.8858    0.0000 </r>
       <r>    8.9573    0.0000 </r>
       <r>    9.0199    0.0000 </r>
       <r>    9.0593    0.0000 </r>
       <r>    9.0677    0.0000 </r>
       <r>    9.0983    0.0000 </r>
       <r>    9.1382    0.0000 </r>
       <r>    9.1529    0.0000 </r>
       <r>    9.1812    0.0000 </r>
       <r>    9.2138    0.0000 </r>
       <r>    9.5141    0.0000 </r>
       <r>    9.7396    0.0000 </r>
      </set>
      <set comment="kpoint 4">
       <r>  -40.2254    1.0000 </r>
       <r>  -40.0521    1.0000 </r>
       <r>  -40.0444    1.0000 </r>
       <r>  -40.0212    1.0000 </r>
       <r>  -40.0140    1.0000 </r>
       <r>  -39.6053    1.0000 </r>
       <r>  -39.5984    1.0000 </r>
       <r>  -39.5583    1.0000 </r>
       <r>  -39.5515    1.0000 </r>
       <r>  -39.4032    1.0000 </r>
       <r>  -18.9280    1.0000 </r>
       <r>  -18.9250    1.0000 </r>
       <r>  -18.8564    1.0000 </r>
       <r>  -18.8543    1.0000 </r>
       <r>  -18.8495    1.0000 </r>
       <r>  -18.8474    1.0000 </r>
       <r>  -18.7532    1.0000 </r>
       <r>  -18.7507    1.0000 </r>
       <r>  -18.7408    1.0000 </r>
       <r>  -18.7385    1.0000 </r>
       <r>  -18.7093    1.0000 </r>
       <r>  -18.7059    1.0000 </r>
       <r>  -18.6993    1.0000 </r>
       <r>  -18.6961    1.0000 </r>
       <r>  -18.6918    1.0000 </r>
       <r>  -18.6876    1.0000 </r>
       <r>  -18.6456    1.0000 </r>
       <r>  -18.6429    1.0000 </r>
       <r>  -18.6410    1.0000 </r>
       <r>  -18.6382    1.0000 </r>
       <r>  -18.6376    1.0000 </r>
       <r>  -18.6375    1.0000 </r>
       <r>  -18.6370    1.0000 </r>
       <r>  -18.6364    1.0000 </r>
       <r>  -18.6343    1.0000 </r>
       <r>  -18.6338    1.0000 </r>
       <r>  -18.6313    1.0000 </r>
       <r>  -18.6309    1.0000 </r>
       <r>  -18.6308    1.0000 </r>
       <r>  -18.6288    1.0000 </r>
       <r>  -18.6273    1.0000 </r>
       <r>  -18.6265    1.0000 </r>
       <r>  -18.6260    1.0000 </r>
       <r>  -18.6256    1.0000 </r>
       <r>  -18.6250    1.0000 </r>
       <r>  -18.6210    1.0000 </r>
       <r>  -18.6206    1.0000 </r>
       <r>  -18.6186    1.0000 </r>
       <r>  -18.6166    1.0000 </r>
       <r>  -18.6158    1.0000 </r>
       <r>  -18.5602    1.0000 </r>
       <r>  -18.5570    1.0000 </r>
       <r>  -18.5521    1.0000 </r>
       <r>  -18.5480    1.0000 </r>
       <r>  -18.5470    1.0000 </r>
       <r>  -18.5440    1.0000 </r>
       <r>  -18.5366    1.0000 </r>
       <r>  -18.5350    1.0000 </r>
       <r>  -18.5324    1.0000 </r>
       <r>  -18.5308    1.0000 </r>
       <r>  -18.4906    1.0000 </r>
       <r>  -18.4869    1.0000 </r>
       <r>  -18.4842    1.0000 </r>
       <r>  -18.4829    1.0000 </r>
       <r>  -18.4797    1.0000 </r>
       <r>  -18.4783    1.0000 </r>
       <r>  -18.4769    1.0000 </r>
       <r>  -18.4737    1.0000 </r>
       <r>  -18.4732    1.0000 </r>
       <r>  -18.4729    1.0000 </r>
[...]
       <r>    8.8666    0.0000 </r>
       <r>    8.8954    0.0000 </r>
       <r>    8.9038    0.0000 </r>
       <r>    8.9154    0.0000 </r>
       <r>    8.9290    0.0000 </r>
      </set>
     </set>
    </set>
   </array>
  </eigenvalues>
  <separator name="orbital magnetization" >
   <v name="MAGDIPOLOUT">      0.00000000      0.00000000      0.00000000</v>
  </separator>
  <dos>
   <i name="efermi">      4.40586528 </i>
   <total>
    <array>
     <dimension dim="1">gridpoints</dimension>
     <dimension dim="2">spin</dimension>
     <field>energy</field>
     <field>total</field>
     <field>integrated</field>
     <set>
      <set comment="spin 1">
       <r>   -42.7237     0.0000     0.0000 </r>
       <r>   -42.5405     0.0000     0.0000 </r>
       <r>   -42.3573     0.0000     0.0000 </r>
       <r>   -42.1741     0.0000     0.0000 </r>
       <r>   -41.9909     0.0000     0.0000 </r>
       <r>   -41.8077     0.0000     0.0000 </r>
       <r>   -41.6245     0.0000     0.0000 </r>
       <r>   -41.4413     0.0000     0.0000 </r>
       <r>   -41.2580     0.0000     0.0000 </r>
       <r>   -41.0748     0.0000     0.0000 </r>
       <r>   -40.8916     0.0000     0.0000 </r>
       <r>   -40.7084     0.0000     0.0000 </r>
       <r>   -40.5252     0.0000     0.0000 </r>
       <r>   -40.3420     0.0000     0.0000 </r>
       <r>   -40.1588     0.0000     2.0000 </r>
       <r>   -39.9756     0.0000    10.0000 </r>
       <r>   -39.7924     0.0000    10.0000 </r>
       <r>   -39.6092     0.0000    10.0000 </r>
       <r>   -39.4260     0.0000    18.0000 </r>
       <r>   -39.2428     0.0000    20.0000 </r>
       <r>   -39.0596     0.0000    20.0000 </r>
       <r>   -38.8764     0.0000    20.0000 </r>
       <r>   -38.6932     0.0000    20.0000 </r>
       <r>   -38.5100     0.0000    20.0000 </r>
       <r>   -38.3268     0.0000    20.0000 </r>
       <r>   -38.1436     0.0000    20.0000 </r>
       <r>   -37.9604     0.0000    20.0000 </r>
       <r>   -37.7771     0.0000    20.0000 </r>
       <r>   -37.5939     0.0000    20.0000 </r>
       <r>   -37.4107     0.0000    20.0000 </r>
       <r>   -37.2275     0.0000    20.0000 </r>
       <r>   -37.0443     0.0000    20.0000 </r>
       <r>   -36.8611     0.0000    20.0000 </r>
       <r>   -36.6779     0.0000    20.0000 </r>
       <r>   -36.4947     0.0000    20.0000 </r>
       <r>   -36.3115     0.0000    20.0000 </r>
       <r>   -36.1283     0.0000    20.0000 </r>
       <r>   -35.9451     0.0000    20.0000 </r>
       <r>   -35.7619     0.0000    20.0000 </r>
       <r>   -35.5787     0.0000    20.0000 </r>
       <r>   -35.3955     0.0000    20.0000 </r>
       <r>   -35.2123     0.0000    20.0000 </r>
       <r>   -35.0291     0.0000    20.0000 </r>
       <r>   -34.8459     0.0000    20.0000 </r>
       <r>   -34.6627     0.0000    20.0000 </r>
       <r>   -34.4795     0.0000    20.0000 </r>
       <r>   -34.2962     0.0000    20.0000 </r>
       <r>   -34.1130     0.0000    20.0000 </r>
       <r>   -33.9298     0.0000    20.0000 </r>
       <r>   -33.7466     0.0000    20.0000 </r>
       <r>   -33.5634     0.0000    20.0000 </r>
       <r>   -33.3802     0.0000    20.0000 </r>
       <r>   -33.1970     0.0000    20.0000 </r>
       <r>   -33.0138     0.0000    20.0000 </r>
       <r>   -32.8306     0.0000    20.0000 </r>
       <r>   -32.6474     0.0000    20.0000 </r>
       <r>   -32.4642     0.0000    20.0000 </r>
       <r>   -32.2810     0.0000    20.0000 </r>
       <r>   -32.0978     0.0000    20.0000 </r>
       <r>   -31.9146     0.0000    20.0000 </r>
       <r>   -31.7314     0.0000    20.0000 </r>
       <r>   -31.5482     0.0000    20.0000 </r>
       <r>   -31.3650     0.0000    20.0000 </r>
       <r>   -31.1818     0.0000    20.0000 </r>
       <r>   -30.9986     0.0000    20.0000 </r>
       <r>   -30.8153     0.0000    20.0000 </r>
       <r>   -30.6321     0.0000    20.0000 </r>
       <r>   -30.4489     0.0000    20.0000 </r>
       <r>   -30.2657     0.0000    20.0000 </r>
       <r>   -30.0825     0.0000    20.0000 </r>
       <r>   -29.8993     0.0000    20.0000 </r>
       <r>   -29.7161     0.0000    20.0000 </r>
       <r>   -29.5329     0.0000    20.0000 </r>
       <r>   -29.3497     0.0000    20.0000 </r>
       <r>   -29.1665     0.0000    20.0000 </r>
       <r>   -28.9833     0.0000    20.0000 </r>
       <r>   -28.8001     0.0000    20.0000 </r>
       <r>   -28.6169     0.0000    20.0000 </r>
       <r>   -28.4337     0.0000    20.0000 </r>
       <r>   -28.2505     0.0000    20.0000 </r>
       <r>   -28.0673     0.0000    20.0000 </r>
       <r>   -27.8841     0.0000    20.0000 </r>
       <r>   -27.7009     0.0000    20.0000 </r>
       <r>   -27.5177     0.0000    20.0000 </r>
       <r>   -27.3344     0.0000    20.0000 </r>
       <r>   -27.1512     0.0000    20.0000 </r>
       <r>   -26.9680     0.0000    20.0000 </r>
       <r>   -26.7848     0.0000    20.0000 </r>
       <r>   -26.6016     0.0000    20.0000 </r>
       <r>   -26.4184     0.0000    20.0000 </r>
       <r>   -26.2352     0.0000    20.0000 </r>
       <r>   -26.0520     0.0000    20.0000 </r>
       <r>   -25.8688     0.0000    20.0000 </r>
       <r>   -25.6856     0.0000    20.0000 </r>
       <r>   -25.5024     0.0000    20.0000 </r>
       <r>   -25.3192     0.0000    20.0000 </r>
       <r>   -25.1360     0.0000    20.0000 </r>
       <r>   -24.9528     0.0000    20.0000 </r>
       <r>   -24.7696     0.0000    20.0000 </r>
       <r>   -24.5864     0.0000    20.0000 </r>
       <r>   -24.4032     0.0000    20.0000 </r>
       <r>   -24.2200     0.0000    20.0000 </r>
       <r>   -24.0368     0.0000    20.0000 </r>
       <r>   -23.8535     0.0000    20.0000 </r>
       <r>   -23.6703     0.0000    20.0000 </r>
       <r>   -23.4871     0.0000    20.0000 </r>
       <r>   -23.3039     0.0000    20.0000 </r>
       <r>   -23.1207     0.0000    20.0000 </r>
       <r>   -22.9375     0.0000    20.0000 </r>
       <r>   -22.7543     0.0000    20.0000 </r>
       <r>   -22.5711     0.0000    20.0000 </r>
       <r>   -22.3879     0.0000    20.0000 </r>
       <r>   -22.2047     0.0000    20.0000 </r>
       <r>   -22.0215     0.0000    20.0000 </r>
       <r>   -21.8383     0.0000    20.0000 </r>
       <r>   -21.6551     0.0000    20.0000 </r>
       <r>   -21.4719     0.0000    20.0000 </r>
       <r>   -21.2887     0.0000    20.0000 </r>
       <r>   -21.1055     0.0000    20.0000 </r>
       <r>   -20.9223     0.0000    20.0000 </r>
       <r>   -20.7391     0.0000    20.0000 </r>
       <r>   -20.5559     0.0000    20.0000 </r>
       <r>   -20.3726     0.0000    20.0000 </r>
       <r>   -20.1894     0.0000    20.0000 </r>
       <r>   -20.0062     0.0000    20.0000 </r>
       <r>   -19.8230     0.0000    20.0000 </r>
       <r>   -19.6398     0.0000    20.0000 </r>
       <r>   -19.4566     0.0000    20.0000 </r>
       <r>   -19.2734     0.0000    20.0000 </r>
       <r>   -19.0902     0.0000    20.0000 </r>
       <r>   -18.9070     0.0000    24.0000 </r>
       <r>   -18.7238     0.0000    40.0000 </r>
       <r>   -18.5406     0.0000   112.0000 </r>
       <r>   -18.3574     0.0000   168.0000 </r>
       <r>   -18.1742     0.0000   176.0000 </r>
       <r>   -17.9910     0.0000   180.0000 </r>
       <r>   -17.8078     0.0000   180.0000 </r>
       <r>   -17.6246     0.0000   180.0000 </r>
       <r>   -17.4414     0.0000   180.0000 </r>
       <r>   -17.2582     0.0000   180.0000 </r>
       <r>   -17.0750     0.0000   180.0000 </r>
       <r>   -16.8917     0.0000   180.0000 </r>
       <r>   -16.7085     0.0000   180.0000 </r>
       <r>   -16.5253     0.0000   180.0000 </r>
       <r>   -16.3421     0.0000   180.0000 </r>
       <r>   -16.1589     0.0000   180.0000 </r>
       <r>   -15.9757     0.0000   180.0000 </r>
       <r>   -15.7925     0.0000   180.0000 </r>
       <r>   -15.6093     0.0000   180.0000 </r>
       <r>   -15.4261     0.0000   180.0000 </r>
       <r>   -15.2429     0.0000   180.0000 </r>
       <r>   -15.0597     0.0000   180.0000 </r>
       <r>   -14.8765     0.0000   180.0000 </r>
       <r>   -14.6933     0.0000   180.0000 </r>
       <r>   -14.5101     0.0000   180.0000 </r>
       <r>   -14.3269     0.0000   180.0000 </r>
       <r>   -14.1437     0.0000   180.0000 </r>
       <r>   -13.9605     0.0000   180.0000 </r>
       <r>   -13.7773     0.0000   180.0000 </r>
       <r>   -13.5941     0.0000   180.0000 </r>
       <r>   -13.4108     0.0000   184.0000 </r>
       <r>   -13.2276     0.0000   184.0000 </r>
       <r>   -13.0444     0.0000   184.0000 </r>
       <r>   -12.8612     0.0000   186.0000 </r>
       <r>   -12.6780     0.0000   196.0000 </r>
       <r>   -12.4948     0.0000   208.0000 </r>
       <r>   -12.3116     0.0000   208.0000 </r>
       <r>   -12.1284     0.0000   208.0000 </r>
       <r>   -11.9452     0.0000   210.0000 </r>
       <r>   -11.7620     0.0000   212.0000 </r>
       <r>   -11.5788     0.0000   212.0000 </r>
       <r>   -11.3956     0.0000   212.0000 </r>
       <r>   -11.2124     0.0000   212.0000 </r>
       <r>   -11.0292     0.0000   212.0000 </r>
       <r>   -10.8460     0.0000   212.0000 </r>
       <r>   -10.6628     0.0000   212.0000 </r>
       <r>   -10.4796     0.0000   212.0000 </r>
       <r>   -10.2964     0.0000   212.0000 </r>
       <r>   -10.1132     0.0000   212.0000 </r>
       <r>    -9.9299     0.0000   212.0000 </r>
       <r>    -9.7467     0.0000   212.0000 </r>
       <r>    -9.5635     0.0000   212.0000 </r>
       <r>    -9.3803     0.0000   212.0000 </r>
       <r>    -9.1971     8.8261   212.5157 </r>
       <r>    -9.0139    24.3951   215.1762 </r>
       <r>    -8.8307     8.5684   216.7340 </r>
       <r>    -8.6475    12.4572   219.5197 </r>
       <r>    -8.4643    23.0713   222.2251 </r>
       <r>    -8.2811    33.7556   227.4019 </r>
       <r>    -8.0979    16.7147   230.0302 </r>
       <r>    -7.9147    20.9234   234.9772 </r>
       <r>    -7.7315    18.9261   238.2187 </r>
       <r>    -7.5483    21.6698   241.7684 </r>
       <r>    -7.3651     1.8381   243.9850 </r>
       <r>    -7.1819     0.0000   244.0000 </r>
       <r>    -6.9987     0.0000   244.0000 </r>
       <r>    -6.8155     0.0000   244.0000 </r>
       <r>    -6.6323     0.0000   244.0000 </r>
       <r>    -6.4490     0.0000   244.0000 </r>
       <r>    -6.2658     8.0775   244.3332 </r>
       <r>    -6.0826    25.8753   247.4843 </r>
       <r>    -5.8994    22.2735   251.5420 </r>
       <r>    -5.7162    30.1970   255.8114 </r>
       <r>    -5.5330    19.8234   260.1400 </r>
       <r>    -5.3498    19.9072   264.0004 </r>
       <r>    -5.1666    11.2923   267.0117 </r>
       <r>    -4.9834     3.8687   268.1362 </r>
       <r>    -4.8002     7.5943   269.3024 </r>
       <r>    -4.6170     9.4573   270.8135 </r>
       <r>    -4.4338     7.7773   272.5624 </r>
       <r>    -4.2506     7.0746   273.7615 </r>
       <r>    -4.0674     5.5476   275.0044 </r>
       <r>    -3.8842     2.3500   275.7269 </r>
       <r>    -3.7010     0.6332   275.9672 </r>
       <r>    -3.5178     0.0000   276.0000 </r>
       <r>    -3.3346     0.0000   276.0000 </r>
       <r>    -3.1514     0.0000   276.0000 </r>
       <r>    -2.9681     0.0000   276.0000 </r>
       <r>    -2.7849     0.0000   276.0000 </r>
       <r>    -2.6017     0.0000   276.0000 </r>
       <r>    -2.4185     0.0000   276.0000 </r>
       <r>    -2.2353     0.0000   276.0000 </r>
       <r>    -2.0521     0.0000   276.0000 </r>
       <r>    -1.8689     0.0000   276.0000 </r>
       <r>    -1.6857     0.0000   276.0000 </r>
       <r>    -1.5025     0.0000   276.0000 </r>
       <r>    -1.3193     1.3936   276.0286 </r>
       <r>    -1.1361     8.6700   277.1113 </r>
       <r>    -0.9529    13.3069   279.0126 </r>
       <r>    -0.7697    10.8166   281.3606 </r>
       <r>    -0.5865     6.3998   282.9234 </r>
       <r>    -0.4033    19.7601   284.4512 </r>
       <r>    -0.2201    23.6097   288.2807 </r>
       <r>    -0.0369    43.0801   293.9981 </r>
       <r>     0.1463    28.4255   300.9745 </r>
       <r>     0.3295    49.2758   306.8286 </r>
       <r>     0.5128    38.5988   314.2680 </r>
       <r>     0.6960    36.2542   321.4387 </r>
       <r>     0.8792    35.0853   327.4154 </r>
       <r>     1.0624    52.8973   335.3985 </r>
       <r>     1.2456    46.3598   343.8128 </r>
       <r>     1.4288    52.2227   352.7539 </r>
       <r>     1.6120    50.3736   361.4979 </r>
       <r>     1.7952    50.9436   370.1339 </r>
       <r>     1.9784    43.2958   378.9745 </r>
       <r>     2.1616    46.6236   386.9797 </r>
       <r>     2.3448    47.6397   394.7376 </r>
       <r>     2.5280    62.9096   404.7325 </r>
       <r>     2.7112    66.8544   415.7965 </r>
       <r>     2.8944    62.4718   427.7151 </r>
       <r>     3.0776    74.0295   440.8693 </r>
       <r>     3.2608    31.7541   449.3905 </r>
       <r>     3.4440    35.5727   455.7820 </r>
       <r>     3.6272    15.0069   462.2253 </r>
       <r>     3.8104    12.8957   465.1939 </r>
       <r>     3.9937     7.4595   467.0587 </r>
       <r>     4.1769     2.0086   467.9262 </r>
       <r>     4.3601     0.0000   468.0000 </r>
       <r>     4.5433     0.0000   468.0000 </r>
       <r>     4.7265     0.0000   468.0000 </r>
       <r>     4.9097     0.0000   468.0000 </r>
       <r>     5.0929     0.0000   468.0000 </r>
       <r>     5.2761     2.7068   468.1772 </r>
       <r>     5.4593     6.6759   469.0366 </r>
       <r>     5.6425     9.4537   470.5948 </r>
       <r>     5.8257    26.7184   473.4791 </r>
       <r>     6.0089    13.4335   476.8322 </r>
       <r>     6.1921    11.5321   479.0899 </r>
       <r>     6.3753    12.5026   481.2522 </r>
       <r>     6.5585    14.2159   483.7000 </r>
       <r>     6.7417    15.9081   486.4597 </r>
       <r>     6.9249    17.7817   489.5334 </r>
       <r>     7.1081    22.7061   493.1372 </r>
       <r>     7.2913    35.4640   498.5089 </r>
       <r>     7.4746    41.7085   506.1580 </r>
       <r>     7.6578    26.2487   511.2317 </r>
       <r>     7.8410    49.2731   518.3149 </r>
       <r>     8.0242    39.0853   527.1737 </r>
       <r>     8.2074    20.9102   532.1094 </r>
       <r>     8.3906    18.8073   535.6247 </r>
       <r>     8.5738    24.0471   539.4531 </r>
       <r>     8.7570    25.9341   544.2576 </r>
       <r>     8.9402    38.9669   551.9194 </r>
       <r>     9.1234    17.0630   557.1520 </r>
       <r>     9.3066     6.7096   559.0329 </r>
       <r>     9.4898     1.9979   559.8198 </r>
       <r>     9.6730     0.1665   559.9963 </r>
       <r>     9.8562     0.0000   560.0000 </r>
       <r>    10.0394     0.0000   560.0000 </r>
       <r>    10.2226     0.0000   560.0000 </r>
       <r>    10.4058     0.0000   560.0000 </r>
       <r>    10.5890     0.0000   560.0000 </r>
       <r>    10.7722     0.0000   560.0000 </r>
       <r>    10.9555     0.0000   560.0000 </r>
       <r>    11.1387     0.0000   560.0000 </r>
       <r>    11.3219     0.0000   560.0000 </r>
       <r>    11.5051     0.0000   560.0000 </r>
       <r>    11.6883     0.0000   560.0000 </r>
       <r>    11.8715     0.0000   560.0000 </r>
       <r>    12.0547     0.0000   560.0000 </r>
       <r>    12.2379     0.0000   560.0000 </r>
      </set>
     </set>
    </array>
   </total>
  </dos>
 </calculation>
 <structure name="finalpos" >
  <crystal>
   <varray name="basis" >
    <v>      11.17850000       0.00000000       0.00000000 </v>
    <v>       0.00000000       9.57460000       0.00000000 </v>
    <v>       0.00000000       0.00000000      11.18240000 </v>
   </varray>
   <i name="volume">   1196.84853820 </i>
   <varray name="rec_basis" >
    <v>       0.08945744       0.00000000       0.00000000 </v>
    <v>       0.00000000       0.10444301       0.00000000 </v>
    <v>       0.00000000       0.00000000       0.08942624 </v>
   </varray>
  </crystal>
  <varray name="positions" >
   <v>       0.37539000       0.00017000       0.43687000 </v>
   <v>       0.37461000       0.00017000       0.18687000 </v>
   <v>       0.62539000       0.99984000       0.43687000 </v>
   <v>       0.87539000       0.00017000       0.43687000 </v>
   <v>       0.87461000       0.00017000       0.18687000 </v>
   <v>       0.37539000       0.00017000       0.93687000 </v>
   <v>       0.37461000       0.00017000       0.68687000 </v>
   <v>       0.87539000       0.00017000       0.93687000 </v>
   <v>       0.62461000       0.99984000       0.68687000 </v>
   <v>       0.87461000       0.00017000       0.68687000 </v>
   <v>       0.12461000       0.99984000       0.18687000 </v>
   <v>       0.12461000       0.99984000       0.68687000 </v>
   <v>       0.62539000       0.99984000       0.93687000 </v>
   <v>       0.00013000       0.29519000       0.06281000 </v>
   <v>       0.25013000       0.70481000       0.06281000 </v>
   <v>       0.24987000       0.29519000       0.31282000 </v>
   <v>       0.49987000       0.70481000       0.31282000 </v>
   <v>       0.50013000       0.29519000       0.06281000 </v>
   <v>       0.75013000       0.70481000       0.06281000 </v>
   <v>       0.74987000       0.29519000       0.31282000 </v>
   <v>       0.99987000       0.70481000       0.31282000 </v>
   <v>       0.00013000       0.29519000       0.56281000 </v>
   <v>       0.25013000       0.70481000       0.56281000 </v>
   <v>       0.24987000       0.29519000       0.81282000 </v>
   <v>       0.49987000       0.70481000       0.81282000 </v>
   <v>       0.50013000       0.29519000       0.56281000 </v>
   <v>       0.75013000       0.70481000       0.56281000 </v>
   <v>       0.74987000       0.29519000       0.81282000 </v>
   <v>       0.99987000       0.70481000       0.81282000 </v>
   <v>       0.25005000       0.32677000       0.06286000 </v>
   <v>       0.00005000       0.67323000       0.06286000 </v>
   <v>       0.49995000       0.32677000       0.31286000 </v>
   <v>       0.24995000       0.67323000       0.31286000 </v>
   <v>       0.75005000       0.32677000       0.06286000 </v>
   <v>       0.50005000       0.67323000       0.06286000 </v>
   <v>       0.99995000       0.32677000       0.31286000 </v>
   <v>       0.74995000       0.67323000       0.31286000 </v>
   <v>       0.25005000       0.32677000       0.56286000 </v>
   <v>       0.00005000       0.67323000       0.56286000 </v>
   <v>       0.49995000       0.32677000       0.81286000 </v>
   <v>       0.24995000       0.67323000       0.81286000 </v>
   <v>       0.75005000       0.32677000       0.56286000 </v>
   <v>       0.50005000       0.67323000       0.56286000 </v>
   <v>       0.99995000       0.32677000       0.81286000 </v>
   <v>       0.74995000       0.67323000       0.81286000 </v>
   <v>       0.49987000       0.07798000       0.06246000 </v>
   <v>       0.24987000       0.92202000       0.06246000 </v>
   <v>       0.25013000       0.07798000       0.31246000 </v>
   <v>       0.00013000       0.92202000       0.31246000 </v>
   <v>       0.99987000       0.07798000       0.06246000 </v>
   <v>       0.74987000       0.92202000       0.06246000 </v>
   <v>       0.75013000       0.07798000       0.31246000 </v>
   <v>       0.50013000       0.92202000       0.31246000 </v>
   <v>       0.49987000       0.07798000       0.56246000 </v>
   <v>       0.24987000       0.92202000       0.56246000 </v>
   <v>       0.25013000       0.07798000       0.81246000 </v>
   <v>       0.00013000       0.92202000       0.81246000 </v>
   <v>       0.99987000       0.07798000       0.56246000 </v>
   <v>       0.74987000       0.92202000       0.56246000 </v>
   <v>       0.75013000       0.07798000       0.81246000 </v>
   <v>       0.50013000       0.92202000       0.81246000 </v>
  </varray>
 </structure>
</modeling>
