<?xml version="1.0" encoding="ISO-8859-1"?>
<modeling>
 <generator>
  <i name="program" type="string">vasp </i>
  <i name="version" type="string">5.3.3  </i>
  <i name="subversion" type="string">18Dez12 (build Nov 19 2020 19:34:37) complex                          parallel </i>
  <i name="platform" type="string">LinuxIFC </i>
  <i name="date" type="string">2021 10 01 </i>
  <i name="time" type="string">15:05:30 </i>
 </generator>
 <incar>
  <i type="string" name="SYSTEM"> La2O2S</i>
  <i type="string" name="PREC">normal</i>
  <i type="int" name="NELMIN">     4</i>
  <i type="int" name="IBRION">     2</i>
  <i type="int" name="NFREE">    10</i>
  <i name="EDIFF">      0.00000100</i>
  <i name="EDIFFG">     -0.01000000</i>
  <i type="int" name="NSW">    10</i>
  <i type="int" name="ISIF">     2</i>
  <i name="ENCUT">    600.00000000</i>
  <i name="ENAUG">    900.00000000</i>
  <i type="int" name="ISMEAR">    -5</i>
  <i type="logical" name="LWAVE"> F  </i>
  <i type="logical" name="LCHARG"> F  </i>
 </incar>
 <kpoints>
  <generation param="Gamma">
   <v type="int" name="divisions">       2        2        2 </v>
   <v name="usershift">      0.00000000       0.00000000       0.00000000 </v>
   <v name="genvec1">      0.50000000       0.00000000       0.00000000 </v>
   <v name="genvec2">      0.00000000       0.50000000       0.00000000 </v>
   <v name="genvec3">      0.00000000       0.00000000       0.50000000 </v>
   <v name="shift">      0.00000000       0.00000000       0.00000000 </v>
  </generation>
  <varray name="kpointlist" >
   <v>       0.00000000       0.00000000       0.00000000 </v>
   <v>       0.50000000       0.00000000       0.00000000 </v>
   <v>       0.00000000       0.50000000       0.00000000 </v>
   <v>       0.50000000       0.50000000       0.00000000 </v>
   <v>       0.00000000       0.00000000       0.50000000 </v>
   <v>       0.50000000       0.00000000       0.50000000 </v>
   <v>       0.00000000       0.50000000       0.50000000 </v>
   <v>       0.50000000       0.50000000       0.50000000 </v>
  </varray>
  <varray name="weights" >
   <v>       0.12500000 </v>
   <v>       0.12500000 </v>
   <v>       0.12500000 </v>
   <v>       0.12500000 </v>
   <v>       0.12500000 </v>
   <v>       0.12500000 </v>
   <v>       0.12500000 </v>
   <v>       0.12500000 </v>
  </varray>
  <varray name="tetrahedronlist"  type="int" >
   <v type="int" >        2        1        2        4        5 </v>
   <v type="int" >        2        1        3        4        5 </v>
   <v type="int" >        2        3        4        5        7 </v>
   <v type="int" >        2        2        4        5        6 </v>
   <v type="int" >        2        4        5        6        8 </v>
   <v type="int" >        2        4        5        7        8 </v>
   <v type="int" >        2        1        2        3        6 </v>
   <v type="int" >        2        2        3        4        6 </v>
   <v type="int" >        2        3        4        6        8 </v>
   <v type="int" >        2        1        3        5        6 </v>
   <v type="int" >        2        3        5        6        7 </v>
   <v type="int" >        2        3        6        7        8 </v>
   <v type="int" >        2        2        3        4        7 </v>
   <v type="int" >        2        1        2        3        7 </v>
   <v type="int" >        2        1        2        5        7 </v>
   <v type="int" >        2        2        4        7        8 </v>
   <v type="int" >        2        2        6        7        8 </v>
   <v type="int" >        2        2        5        6        7 </v>
   <v type="int" >        2        1        3        4        8 </v>
   <v type="int" >        2        1        2        4        8 </v>
   <v type="int" >        2        1        2        6        8 </v>
   <v type="int" >        2        1        3        7        8 </v>
   <v type="int" >        2        1        5        7        8 </v>
   <v type="int" >        2        1        5        6        8 </v>
  </varray>
  <i name="volumeweight">      0.02083333 </i>
 </kpoints>
 <parameters>
  <separator name="general" >
   <i type="string" name="SYSTEM">La2O2S</i>
   <i type="logical" name="LCOMPAT"> F  </i>
  </separator>
  <separator name="electronic" >
   <i type="string" name="PREC">normal</i>
   <i name="ENMAX">    600.00000000</i>
   <i name="ENAUG">    900.00000000</i>
   <i name="EDIFF">      0.00000100</i>
   <i type="int" name="IALGO">    38</i>
   <i type="int" name="IWAVPR">    11</i>
   <i type="int" name="NBANDS">   280</i>
   <i name="NELECT">    460.00000000</i>
   <i type="int" name="TURBO">     0</i>
   <i type="int" name="IRESTART">     0</i>
   <i type="int" name="NREBOOT">     0</i>
   <i type="int" name="NMIN">     0</i>
   <i name="EREF">      0.00000000</i>
   <separator name="electronic smearing" >
    <i type="int" name="ISMEAR">    -5</i>
    <i name="SIGMA">      0.20000000</i>
    <i name="KSPACING">      0.50000000</i>
    <i type="logical" name="KGAMMA"> T  </i>
   </separator>
   <separator name="electronic projectors" >
    <i type="logical" name="LREAL"> F  </i>
    <v name="ROPT">      0.00000000      0.00000000      0.00000000      0.00000000      0.00000000</v>
    <i type="int" name="LMAXPAW">  -100</i>
    <i type="int" name="LMAXMIX">     2</i>
    <i type="logical" name="NLSPLINE"> F  </i>
   </separator>
   <separator name="electronic startup" >
    <i type="int" name="ISTART">     0</i>
    <i type="int" name="ICHARG">     2</i>
    <i type="int" name="INIWAV">     1</i>
   </separator>
   <separator name="electronic spin" >
    <i type="int" name="ISPIN">     1</i>
    <i type="logical" name="LNONCOLLINEAR"> F  </i>
    <v name="MAGMOM">      1.00000000      1.00000000      1.00000000      1.00000000      1.00000000      1.00000000      1.00000000      1.00000000      1.00000000      1.00000000      1.00000000      1.00000000      1.00000000      1.00000000      1.00000000      1.00000000      1.00000000      1.00000000      1.00000000      1.00000000
      1.00000000      1.00000000      1.00000000      1.00000000      1.00000000      1.00000000      1.00000000      1.00000000      1.00000000      1.00000000      1.00000000      1.00000000      1.00000000      1.00000000      1.00000000      1.00000000      1.00000000      1.00000000      1.00000000      1.00000000
      1.00000000      1.00000000      1.00000000      1.00000000      1.00000000      1.00000000      1.00000000      1.00000000      1.00000000      1.00000000      1.00000000      1.00000000      1.00000000      1.00000000      1.00000000      1.00000000      1.00000000      1.00000000      1.00000000</v>
    <i name="NUPDOWN">     -1.00000000</i>
    <i type="logical" name="LSORBIT"> F  </i>
    <v name="SAXIS">      0.00000000      0.00000000      1.00000000</v>
    <i type="logical" name="LSPIRAL"> F  </i>
    <v name="QSPIRAL">      0.00000000      0.00000000      0.00000000</v>
    <i type="logical" name="LZEROZ"> F  </i>
   </separator>
   <separator name="electronic exchange-correlation" >
    <i type="logical" name="LASPH"> F  </i>
    <i type="logical" name="LMETAGGA"> F  </i>
   </separator>
   <separator name="electronic convergence" >
    <i type="int" name="NELM">    60</i>
    <i type="int" name="NELMDL">    -5</i>
    <i type="int" name="NELMIN">     4</i>
    <i name="ENINI">    600.00000000</i>
    <separator name="electronic convergence detail" >
     <i type="logical" name="LDIAG"> T  </i>
     <i type="logical" name="LSUBROT"> T  </i>
     <i name="WEIMIN">      0.00100000</i>
     <i name="EBREAK">      0.00000000</i>
     <i name="DEPER">      0.30000000</i>
     <i type="int" name="NRMM">     4</i>
     <i name="TIME">      0.40000000</i>
    </separator>
   </separator>
   <separator name="electronic mixer" >
    <i name="AMIX">      0.40000000</i>
    <i name="BMIX">      1.00000000</i>
    <i name="AMIN">      0.10000000</i>
    <i name="AMIX_MAG">      1.60000000</i>
    <i name="BMIX_MAG">      1.00000000</i>
    <separator name="electronic mixer details" >
     <i type="int" name="IMIX">     4</i>
     <i type="int" name="MAXMIX">   -45</i>
     <i name="WC">    100.00000000</i>
     <i type="int" name="INIMIX">     1</i>
     <i type="int" name="MIXPRE">     1</i>
     <i type="int" name="MREMOVE">     5</i>
    </separator>
   </separator>
   <separator name="electronic dipolcorrection" >
    <i type="logical" name="LDIPOL"> F  </i>
    <i type="logical" name="LMONO"> F  </i>
    <i type="int" name="IDIPOL">     0</i>
    <i name="EPSILON">      1.00000000</i>
    <v name="DIPOL">   -100.00000000   -100.00000000   -100.00000000</v>
    <i name="EFIELD">      0.00000000</i>
   </separator>
  </separator>
  <separator name="grids" >
   <i type="int" name="NGX">    70</i>
   <i type="int" name="NGY">    60</i>
   <i type="int" name="NGZ">    70</i>
   <i type="int" name="NGXF">   140</i>
   <i type="int" name="NGYF">   120</i>
   <i type="int" name="NGZF">   140</i>
   <i type="logical" name="ADDGRID"> F  </i>
  </separator>
  <separator name="ionic" >
   <i type="int" name="NSW">    10</i>
   <i type="int" name="IBRION">     2</i>
   <i type="int" name="ISIF">     2</i>
   <i name="PSTRESS">      0.00000000</i>
   <i name="EDIFFG">     -0.01000000</i>
   <i type="int" name="NFREE">    10</i>
   <i name="POTIM">      0.50000000</i>
   <i name="SMASS">     -3.00000000</i>
   <i name="SCALEE">      1.00000000</i>
  </separator>
  <separator name="ionic md" >
   <i name="TEBEG">      0.00010000</i>
   <i name="TEEND">      0.00010000</i>
   <i type="int" name="NBLOCK">     1</i>
   <i type="int" name="KBLOCK">    10</i>
   <i type="int" name="NPACO">   256</i>
   <i name="APACO">     16.00000000</i>
  </separator>
  <separator name="symmetry" >
   <i type="int" name="ISYM">     2</i>
   <i name="SYMPREC">      0.00001000</i>
  </separator>
  <separator name="dos" >
   <i type="logical" name="LORBIT"> F  </i>
   <v name="RWIGS">     -1.00000000     -1.00000000     -1.00000000     -1.00000000     -1.00000000</v>
   <i type="int" name="NEDOS">   301</i>
   <i name="EMIN">     10.00000000</i>
   <i name="EMAX">    -10.00000000</i>
   <i name="EFERMI">      0.00000000</i>
  </separator>
  <separator name="writing" >
   <i type="int" name="NWRITE">     2</i>
   <i type="logical" name="LWAVE"> F  </i>
   <i type="logical" name="LCHARG"> F  </i>
   <i type="logical" name="LPARD"> F  </i>
   <i type="logical" name="LVTOT"> F  </i>
   <i type="logical" name="LVHAR"> F  </i>
   <i type="logical" name="LELF"> F  </i>
   <i type="logical" name="LOPTICS"> F  </i>
   <v name="STM">      0.00000000      0.00000000      0.00000000      0.00000000      0.00000000      0.00000000      0.00000000</v>
  </separator>
  <separator name="performance" >
   <i type="int" name="NPAR">    40</i>
   <i type="int" name="NSIM">     4</i>
   <i type="int" name="NBLK">    -1</i>
   <i type="logical" name="LPLANE"> T  </i>
   <i type="logical" name="LSCALAPACK"> F  </i>
   <i type="logical" name="LSCAAWARE"> F  </i>
   <i type="logical" name="LSCALU"> F  </i>
   <i type="logical" name="LASYNC"> F  </i>
   <i type="logical" name="LORBITALREAL"> F  </i>
  </separator>
  <separator name="miscellaneous" >
   <i type="int" name="IDIOT">     3</i>
   <i type="logical" name="LMUSIC"> F  </i>
   <v name="POMASS">      7.01000000     24.30500000    208.98000000     32.06600000     16.00000000</v>
   <v name="DARWINR">      0.00000000      0.00000000      0.00000000      0.00000000      0.00000000</v>
   <v name="DARWINV">      1.00000000      1.00000000      1.00000000      1.00000000      1.00000000</v>
   <i type="logical" name="LCORR"> T  </i>
  </separator>
  <i type="logical" name="GGA_COMPAT"> T  </i>
  <i type="logical" name="LBERRY"> F  </i>
  <i type="int" name="ICORELEVEL">     0</i>
  <i type="logical" name="LDAU"> F  </i>
  <i type="int" name="I_CONSTRAINED_M">     0</i>
  <separator name="electronic exchange-correlation" >
   <i type="string" name="GGA">--</i>
   <i type="int" name="VOSKOWN">     0</i>
   <i type="logical" name="LHFCALC"> F  </i>
   <i type="string" name="PRECFOCK"></i>
   <i type="logical" name="LSYMGRAD"> F  </i>
   <i type="logical" name="LHFONE"> F  </i>
   <i type="logical" name="LRHFCALC"> F  </i>
   <i type="logical" name="LTHOMAS"> F  </i>
   <i type="logical" name="LMODELHF"> F  </i>
   <i name="ENCUT4O">     -1.00000000</i>
   <i type="int" name="EXXOEP">     0</i>
   <i type="int" name="FOURORBIT">     0</i>
   <i name="AEXX">      0.00000000</i>
   <i name="HFALPHA">      0.00000000</i>
   <i name="MCALPHA">      0.00000000</i>
   <i name="ALDAX">      1.00000000</i>
   <i name="AGGAX">      1.00000000</i>
   <i name="ALDAC">      1.00000000</i>
   <i name="AGGAC">      1.00000000</i>
   <i type="int" name="NKREDX">     1</i>
   <i type="int" name="NKREDY">     1</i>
   <i type="int" name="NKREDZ">     1</i>
   <i type="logical" name="SHIFTRED"> F  </i>
   <i type="logical" name="ODDONLY"> F  </i>
   <i type="logical" name="EVENONLY"> F  </i>
   <i type="int" name="LMAXFOCK">     0</i>
   <i type="int" name="NMAXFOCKAE">     0</i>
   <i type="logical" name="LFOCKAEDFT"> F  </i>
   <i name="HFSCREEN">      0.00000000</i>
   <i name="HFSCREENC">      0.00000000</i>
   <i type="int" name="NBANDSGWLOW">     0</i>
  </separator>
  <separator name="vdW DFT" >
   <i type="logical" name="LUSE_VDW"> F  </i>
   <i name="Zab_VDW">     -0.84910000</i>
   <i name="PARAM1">      0.12340000</i>
   <i name="PARAM2">      1.00000000</i>
   <i name="PARAM3">      0.00000000</i>
  </separator>
  <separator name="model GW" >
   <i type="int" name="MODEL_GW">     0</i>
   <i name="MODEL_EPS0">     12.17134107</i>
   <i name="MODEL_ALPHA">      1.00000000</i>
  </separator>
  <separator name="linear response parameters" >
   <i type="logical" name="LEPSILON"> F  </i>
   <i type="logical" name="LRPA"> F  </i>
   <i type="logical" name="LNABLA"> F  </i>
   <i type="logical" name="LVEL"> F  </i>
   <i type="int" name="KINTER">     0</i>
   <i name="CSHIFT">      0.10000000</i>
   <i name="OMEGAMAX">     -1.00000000</i>
   <i name="DEG_THRESHOLD">      0.00200000</i>
  </separator>
  <separator name="orbital magnetization" >
   <i type="logical" name="NUCIND"> F  </i>
   <v name="MAGPOS">      0.00000000      0.00000000      0.00000000</v>
   <i type="logical" name="LNICSALL"> T  </i>
   <i type="logical" name="ORBITALMAG"> F  </i>
   <i type="logical" name="LMAGBLOCH"> F  </i>
   <i type="logical" name="LCHIMAG"> F  </i>
   <i type="logical" name="LGAUGE"> T  </i>
   <i type="int" name="MAGATOM">     0</i>
   <v name="MAGDIPOL">      0.00000000      0.00000000      0.00000000</v>
   <v name="AVECCONST">      0.00000000      0.00000000      0.00000000</v>
  </separator>
  <separator name="response functions" >
   <i type="logical" name="LADDER"> F  </i>
   <i type="logical" name="LFXC"> F  </i>
   <i type="logical" name="LHARTREE"> T  </i>
   <i type="int" name="IBSE">     0</i>
   <i type="logical" name="LTCTE"> F  </i>
   <i type="logical" name="LTETE"> F  </i>
   <i type="logical" name="LTRIPLET"> F  </i>
   <i type="logical" name="LFXCEPS"> F  </i>
   <i type="logical" name="L2ORDER"> F  </i>
   <i type="logical" name="LUSEW"> F  </i>
   <i name="ENCUTGW">     -2.00000000</i>
   <i name="ENCUTGWSOFT">     -2.00000000</i>
   <i name="ENCUTLF">     -1.00000000</i>
   <i type="int" name="LMAXMP2">    -1</i>
   <i name="SCISSOR">      0.00000000</i>
   <i type="int" name="NOMEGA">     0</i>
   <i type="int" name="NOMEGAR">     0</i>
   <i type="int" name="NBANDSGW">    -1</i>
   <i type="int" name="NBANDSO">    -1</i>
   <i type="int" name="NBANDSV">    -1</i>
   <i type="int" name="NELM">     1</i>
   <i type="int" name="DIM">     3</i>
   <i type="int" name="ANTIRES">     0</i>
   <i name="OMEGAMAX">    -30.00000000</i>
   <i name="OMEGATL">   -200.00000000</i>
   <i type="int" name="OMEGAGRID">     0</i>
   <i name="CSHIFT">     -0.10000000</i>
   <i type="logical" name="SELFENERGY"> F  </i>
   <i type="logical" name="LSPECTRAL"> F  </i>
   <i type="logical" name="ODDONLYGW"> F  </i>
   <i type="logical" name="EVENONLYGW"> F  </i>
   <i type="int" name="NKREDLFX">     1</i>
   <i type="int" name="NKREDLFY">     1</i>
   <i type="int" name="NKREDLFZ">     1</i>
   <i type="int" name="MAXMEM">  1800</i>
   <i type="int" name="TELESCOPE">     0</i>
  </separator>
 </parameters>
 <atominfo>
  <atoms>      59 </atoms>
  <types>       5 </types>
  <array name="atoms" >
   <dimension dim="1">ion</dimension>
   <field type="string">element</field>
   <field type="int">atomtype</field>
   <set>
    <rc><c>Li</c><c>   1</c></rc>
    <rc><c>Li</c><c>   1</c></rc>
    <rc><c>Li</c><c>   1</c></rc>
    <rc><c>Li</c><c>   1</c></rc>
    <rc><c>Li</c><c>   1</c></rc>
    <rc><c>Li</c><c>   1</c></rc>
    <rc><c>Mg</c><c>   2</c></rc>
    <rc><c>Mg</c><c>   2</c></rc>
    <rc><c>Mg</c><c>   2</c></rc>
    <rc><c>Mg</c><c>   2</c></rc>
    <rc><c>Mg</c><c>   2</c></rc>
    <rc><c>Bi</c><c>   3</c></rc>
    <rc><c>Bi</c><c>   3</c></rc>
    <rc><c>Bi</c><c>   3</c></rc>
    <rc><c>Bi</c><c>   3</c></rc>
    <rc><c>Bi</c><c>   3</c></rc>
    <rc><c>Bi</c><c>   3</c></rc>
    <rc><c>Bi</c><c>   3</c></rc>
    <rc><c>Bi</c><c>   3</c></rc>
    <rc><c>Bi</c><c>   3</c></rc>
    <rc><c>Bi</c><c>   3</c></rc>
    <rc><c>Bi</c><c>   3</c></rc>
    <rc><c>Bi</c><c>   3</c></rc>
    <rc><c>Bi</c><c>   3</c></rc>
    <rc><c>Bi</c><c>   3</c></rc>
    <rc><c>Bi</c><c>   3</c></rc>
    <rc><c>Bi</c><c>   3</c></rc>
    <rc><c>S </c><c>   4</c></rc>
    <rc><c>S </c><c>   4</c></rc>
    <rc><c>S </c><c>   4</c></rc>
    <rc><c>S </c><c>   4</c></rc>
    <rc><c>S </c><c>   4</c></rc>
    <rc><c>S </c><c>   4</c></rc>
    <rc><c>S </c><c>   4</c></rc>
    <rc><c>S </c><c>   4</c></rc>
    <rc><c>S </c><c>   4</c></rc>
    <rc><c>S </c><c>   4</c></rc>
    <rc><c>S </c><c>   4</c></rc>
    <rc><c>S </c><c>   4</c></rc>
    <rc><c>S </c><c>   4</c></rc>
    <rc><c>S </c><c>   4</c></rc>
    <rc><c>S </c><c>   4</c></rc>
    <rc><c>S </c><c>   4</c></rc>
    <rc><c>O </c><c>   5</c></rc>
    <rc><c>O </c><c>   5</c></rc>
    <rc><c>O </c><c>   5</c></rc>
    <rc><c>O </c><c>   5</c></rc>
    <rc><c>O </c><c>   5</c></rc>
    <rc><c>O </c><c>   5</c></rc>
    <rc><c>O </c><c>   5</c></rc>
    <rc><c>O </c><c>   5</c></rc>
    <rc><c>O </c><c>   5</c></rc>
    <rc><c>O </c><c>   5</c></rc>
    <rc><c>O </c><c>   5</c></rc>
    <rc><c>O </c><c>   5</c></rc>
    <rc><c>O </c><c>   5</c></rc>
    <rc><c>O </c><c>   5</c></rc>
    <rc><c>O </c><c>   5</c></rc>
    <rc><c>O </c><c>   5</c></rc>
   </set>
  </array>
  <array name="atomtypes" >
   <dimension dim="1">type</dimension>
   <field type="int">atomspertype</field>
   <field type="string">element</field>
   <field>mass</field>
   <field>valence</field>
   <field type="string">pseudopotential</field>
   <set>
    <rc><c>   6</c><c>Li</c><c>      7.01000000</c><c>      3.00000000</c><c>  PAW_PBE Li_sv 10Sep2004               </c></rc>
    <rc><c>   5</c><c>Mg</c><c>     24.30500000</c><c>      2.00000000</c><c>  PAW_PBE Mg 13Apr2007                  </c></rc>
    <rc><c>  16</c><c>Bi</c><c>    208.98000000</c><c>     15.00000000</c><c>  PAW_PBE Bi_d 06Sep2000                </c></rc>
    <rc><c>  16</c><c>S </c><c>     32.06600000</c><c>      6.00000000</c><c>  PAW_PBE S 06Sep2000                   </c></rc>
    <rc><c>  16</c><c>O </c><c>     16.00000000</c><c>      6.00000000</c><c>  PAW_PBE O 08Apr2002                   </c></rc>
   </set>
  </array>
 </atominfo>
 <structure name="initialpos" >
  <crystal>
   <varray name="basis" >
    <v>      11.17850000       0.00000000       0.00000000 </v>
    <v>       0.00000000       9.57460000       0.00000000 </v>
    <v>       0.00000000       0.00000000      11.18240000 </v>
   </varray>
   <i name="volume">   1196.84853820 </i>
   <varray name="rec_basis" >
    <v>       0.08945744       0.00000000       0.00000000 </v>
    <v>       0.00000000       0.10444301       0.00000000 </v>
    <v>       0.00000000       0.00000000       0.08942624 </v>
   </varray>
  </crystal>
  <varray name="positions" >
   <v>       0.37539000       0.00017000       0.43687000 </v>
   <v>       0.37461000       0.00017000       0.18687000 </v>
   <v>       0.62539000       0.99984000       0.43687000 </v>
   <v>       0.87539000       0.00017000       0.43687000 </v>
   <v>       0.62461000       0.99984000       0.18687000 </v>
   <v>       0.87461000       0.00017000       0.18687000 </v>
   <v>       0.12461000       0.99984000       0.18687000 </v>
   <v>       0.12539000       0.99984000       0.93687000 </v>
   <v>       0.37461000       0.00017000       0.68687000 </v>
   <v>       0.62539000       0.99984000       0.93687000 </v>
   <v>       0.87461000       0.00017000       0.68687000 </v>
   <v>       0.00013000       0.29519000       0.06281000 </v>
   <v>       0.25013000       0.70481000       0.06281000 </v>
   <v>       0.24987000       0.29519000       0.31282000 </v>
   <v>       0.49987000       0.70481000       0.31282000 </v>
   <v>       0.50013000       0.29519000       0.06281000 </v>
   <v>       0.75013000       0.70481000       0.06281000 </v>
   <v>       0.74987000       0.29519000       0.31282000 </v>
   <v>       0.99987000       0.70481000       0.31282000 </v>
   <v>       0.00013000       0.29519000       0.56281000 </v>
   <v>       0.25013000       0.70481000       0.56281000 </v>
   <v>       0.24987000       0.29519000       0.81282000 </v>
   <v>       0.49987000       0.70481000       0.81282000 </v>
   <v>       0.50013000       0.29519000       0.56281000 </v>
   <v>       0.75013000       0.70481000       0.56281000 </v>
   <v>       0.74987000       0.29519000       0.81282000 </v>
   <v>       0.99987000       0.70481000       0.81282000 </v>
   <v>       0.25005000       0.32677000       0.06286000 </v>
   <v>       0.00005000       0.67323000       0.06286000 </v>
   <v>       0.49995000       0.32677000       0.31286000 </v>
   <v>       0.24995000       0.67323000       0.31286000 </v>
   <v>       0.75005000       0.32677000       0.06286000 </v>
   <v>       0.50005000       0.67323000       0.06286000 </v>
   <v>       0.99995000       0.32677000       0.31286000 </v>
   <v>       0.74995000       0.67323000       0.31286000 </v>
   <v>       0.25005000       0.32677000       0.56286000 </v>
   <v>       0.00005000       0.67323000       0.56286000 </v>
   <v>       0.49995000       0.32677000       0.81286000 </v>
   <v>       0.24995000       0.67323000       0.81286000 </v>
   <v>       0.75005000       0.32677000       0.56286000 </v>
   <v>       0.50005000       0.67323000       0.56286000 </v>
   <v>       0.99995000       0.32677000       0.81286000 </v>
   <v>       0.74995000       0.67323000       0.81286000 </v>
   <v>       0.49987000       0.07798000       0.06246000 </v>
   <v>       0.24987000       0.92202000       0.06246000 </v>
   <v>       0.25013000       0.07798000       0.31246000 </v>
   <v>       0.00013000       0.92202000       0.31246000 </v>
   <v>       0.99987000       0.07798000       0.06246000 </v>
   <v>       0.74987000       0.92202000       0.06246000 </v>
   <v>       0.75013000       0.07798000       0.31246000 </v>
   <v>       0.50013000       0.92202000       0.31246000 </v>
   <v>       0.49987000       0.07798000       0.56246000 </v>
   <v>       0.24987000       0.92202000       0.56246000 </v>
   <v>       0.25013000       0.07798000       0.81246000 </v>
   <v>       0.00013000       0.92202000       0.81246000 </v>
   <v>       0.99987000       0.07798000       0.56246000 </v>
   <v>       0.74987000       0.92202000       0.56246000 </v>
   <v>       0.75013000       0.07798000       0.81246000 </v>
   <v>       0.50013000       0.92202000       0.81246000 </v>
  </varray>
 </structure>
 <calculation>
  <scstep>
   <time name="dav">   42.48   42.55</time>
   <time name="total">   42.56   42.68</time>
   <energy>
    <i name="alphaZ">   1060.66890660 </i>
    <i name="ewald"> -30391.57281386 </i>
    <i name="hartreedc"> -12726.21035029 </i>
    <i name="XCdc">   1247.19532833 </i>
    <i name="pawpsdc">  36635.26894311 </i>
    <i name="pawaedc"> -35972.74895369 </i>
    <i name="eentropy">      0.00000000 </i>
    <i name="bandstr">   1698.06489502 </i>
    <i name="atom">  44026.03258983 </i>
    <i name="e_fr_energy">   5576.69854504 </i>
    <i name="e_wo_entrp">   5576.69854504 </i>
    <i name="e_0_energy">   5576.69854504 </i>
   </energy>
  </scstep>
  <scstep>
   <time name="dav">   42.22   42.52</time>
   <time name="total">   42.23   42.60</time>
   <energy>
    <i name="e_fr_energy">    670.10793400 </i>
    <i name="e_wo_entrp">    670.10793400 </i>
    <i name="e_0_energy">    670.10793400 </i>
   </energy>
  </scstep>
  <scstep>
   <time name="dav">   49.60   49.89</time>
   <time name="total">   49.61   49.91</time>
   <energy>
    <i name="e_fr_energy">   -262.06210271 </i>
    <i name="e_wo_entrp">   -262.06210271 </i>
    <i name="e_0_energy">   -262.06210271 </i>
   </energy>
  </scstep>
  <scstep>
   <time name="dav">   53.71   54.23</time>
   <time name="total">   53.71   54.31</time>
   <energy>
    <i name="e_fr_energy">   -338.63221212 </i>
    <i name="e_wo_entrp">   -338.63221212 </i>
    <i name="e_0_energy">   -338.63221212 </i>
   </energy>
  </scstep>
  <scstep>
   <time name="dav">   67.78   68.20</time>
   <time name="total">   68.25   68.69</time>
   <energy>
    <i name="e_fr_energy">   -344.07083343 </i>
    <i name="e_wo_entrp">   -344.07083343 </i>
    <i name="e_0_energy">   -344.07083343 </i>
   </energy>
  </scstep>
  <scstep>
   <time name="dav">   63.01   63.50</time>
   <time name="total">   63.54   64.12</time>
   <energy>
    <i name="e_fr_energy">   -289.03728843 </i>
    <i name="e_wo_entrp">   -289.03728843 </i>
    <i name="e_0_energy">   -289.03728843 </i>
   </energy>
  </scstep>
  <scstep>
   <time name="dav">   47.40   47.49</time>
   <time name="total">   47.93   48.08</time>
   <energy>
    <i name="e_fr_energy">   -290.86040455 </i>
    <i name="e_wo_entrp">   -290.86040455 </i>
    <i name="e_0_energy">   -290.86040455 </i>
   </energy>
  </scstep>
  <scstep>
   <time name="dav">   51.77   52.13</time>
   <time name="total">   52.29   52.67</time>
   <energy>
    <i name="e_fr_energy">   -289.86572572 </i>
    <i name="e_wo_entrp">   -289.86572572 </i>
    <i name="e_0_energy">   -289.86572572 </i>
   </energy>
  </scstep>
  <scstep>
   <time name="dav">   58.32   58.56</time>
   <time name="total">   58.85   59.11</time>
   <energy>
    <i name="e_fr_energy">   -289.38468327 </i>
    <i name="e_wo_entrp">   -289.38468327 </i>
    <i name="e_0_energy">   -289.38468327 </i>
   </energy>
  </scstep>
  <scstep>
   <time name="dav">   51.98   52.34</time>
   <time name="total">   52.51   52.89</time>
   <energy>
    <i name="e_fr_energy">   -289.41102808 </i>
    <i name="e_wo_entrp">   -289.41102808 </i>
    <i name="e_0_energy">   -289.41102808 </i>
   </energy>
  </scstep>
  <scstep>
   <time name="dav">   59.32   59.91</time>
   <time name="total">   59.86   60.48</time>
   <energy>
    <i name="e_fr_energy">   -289.41730646 </i>
    <i name="e_wo_entrp">   -289.41730646 </i>
    <i name="e_0_energy">   -289.41730646 </i>
   </energy>
  </scstep>
  <scstep>
   <time name="dav">   54.07   54.50</time>
   <time name="total">   54.61   55.06</time>
   <energy>
    <i name="e_fr_energy">   -289.42054149 </i>
    <i name="e_wo_entrp">   -289.42054149 </i>
    <i name="e_0_energy">   -289.42054149 </i>
   </energy>
  </scstep>
  <scstep>
   <time name="dav">   48.00   48.73</time>
   <time name="total">   48.53   49.33</time>
   <energy>
    <i name="e_fr_energy">   -289.42108190 </i>
    <i name="e_wo_entrp">   -289.42108190 </i>
    <i name="e_0_energy">   -289.42108190 </i>
   </energy>
  </scstep>
  <scstep>
   <time name="dav">   53.61   54.10</time>
   <time name="total">   54.14   54.64</time>
   <energy>
    <i name="e_fr_energy">   -289.42118364 </i>
    <i name="e_wo_entrp">   -289.42118364 </i>
    <i name="e_0_energy">   -289.42118364 </i>
   </energy>
  </scstep>
  <scstep>
   <time name="dav">   50.01   50.44</time>
   <time name="total">   50.53   50.98</time>
   <energy>
    <i name="e_fr_energy">   -289.42121196 </i>
    <i name="e_wo_entrp">   -289.42121196 </i>
    <i name="e_0_energy">   -289.42121196 </i>
   </energy>
  </scstep>
  <scstep>
   <time name="dav">   45.90   46.25</time>
   <time name="total">   46.43   46.80</time>
   <energy>
    <i name="e_fr_energy">   -289.42122945 </i>
    <i name="e_wo_entrp">   -289.42122945 </i>
    <i name="e_0_energy">   -289.42122945 </i>
   </energy>
  </scstep>
  <scstep>
   <time name="dav">   45.63   46.10</time>
   <time name="total">   46.16   46.64</time>
   <energy>
    <i name="e_fr_energy">   -289.42123142 </i>
    <i name="e_wo_entrp">   -289.42123142 </i>
    <i name="e_0_energy">   -289.42123142 </i>
   </energy>
  </scstep>
  <scstep>
   <time name="dav">   34.41   34.59</time>
   <time name="total">   34.47   34.66</time>
   <energy>
    <i name="alphaZ">   1060.66890660 </i>
    <i name="ewald"> -30391.57281386 </i>
    <i name="hartreedc"> -12966.31875332 </i>
    <i name="XCdc">   1271.97137581 </i>
    <i name="pawpsdc">  43656.68560465 </i>
    <i name="pawaedc"> -42967.28303172 </i>
    <i name="eentropy">      0.00000000 </i>
    <i name="bandstr">  -3979.60510956 </i>
    <i name="atom">  44026.03258983 </i>
    <i name="e_fr_energy">   -289.42123157 </i>
    <i name="e_wo_entrp">   -289.42123157 </i>
    <i name="e_0_energy">   -289.42123157 </i>
   </energy>
  </scstep>
  <structure>
   <crystal>
    <varray name="basis" >
     <v>      11.17850000       0.00000000       0.00000000 </v>
     <v>       0.00000000       9.57460000       0.00000000 </v>
     <v>       0.00000000       0.00000000      11.18240000 </v>
    </varray>
    <i name="volume">   1196.84853820 </i>
    <varray name="rec_basis" >
     <v>       0.08945744       0.00000000       0.00000000 </v>
     <v>       0.00000000       0.10444301       0.00000000 </v>
     <v>       0.00000000       0.00000000       0.08942624 </v>
    </varray>
   </crystal>
   <varray name="positions" >
    <v>       0.37539000       0.00017000       0.43687000 </v>
    <v>       0.37461000       0.00017000       0.18687000 </v>
    <v>       0.62539000       0.99984000       0.43687000 </v>
    <v>       0.87539000       0.00017000       0.43687000 </v>
    <v>       0.62461000       0.99984000       0.18687000 </v>
    <v>       0.87461000       0.00017000       0.18687000 </v>
    <v>       0.12461000       0.99984000       0.18687000 </v>
    <v>       0.12539000       0.99984000       0.93687000 </v>
    <v>       0.37461000       0.00017000       0.68687000 </v>
    <v>       0.62539000       0.99984000       0.93687000 </v>
    <v>       0.87461000       0.00017000       0.68687000 </v>
    <v>       0.00013000       0.29519000       0.06281000 </v>
    <v>       0.25013000       0.70481000       0.06281000 </v>
    <v>       0.24987000       0.29519000       0.31282000 </v>
    <v>       0.49987000       0.70481000       0.31282000 </v>
    <v>       0.50013000       0.29519000       0.06281000 </v>
    <v>       0.75013000       0.70481000       0.06281000 </v>
    <v>       0.74987000       0.29519000       0.31282000 </v>
    <v>       0.99987000       0.70481000       0.31282000 </v>
    <v>       0.00013000       0.29519000       0.56281000 </v>
    <v>       0.25013000       0.70481000       0.56281000 </v>
    <v>       0.24987000       0.29519000       0.81282000 </v>
    <v>       0.49987000       0.70481000       0.81282000 </v>
    <v>       0.50013000       0.29519000       0.56281000 </v>
    <v>       0.75013000       0.70481000       0.56281000 </v>
    <v>       0.74987000       0.29519000       0.81282000 </v>
    <v>       0.99987000       0.70481000       0.81282000 </v>
    <v>       0.25005000       0.32677000       0.06286000 </v>
    <v>       0.00005000       0.67323000       0.06286000 </v>
    <v>       0.49995000       0.32677000       0.31286000 </v>
    <v>       0.24995000       0.67323000       0.31286000 </v>
    <v>       0.75005000       0.32677000       0.06286000 </v>
    <v>       0.50005000       0.67323000       0.06286000 </v>
    <v>       0.99995000       0.32677000       0.31286000 </v>
    <v>       0.74995000       0.67323000       0.31286000 </v>
    <v>       0.25005000       0.32677000       0.56286000 </v>
    <v>       0.00005000       0.67323000       0.56286000 </v>
    <v>       0.49995000       0.32677000       0.81286000 </v>
    <v>       0.24995000       0.67323000       0.81286000 </v>
    <v>       0.75005000       0.32677000       0.56286000 </v>
    <v>       0.50005000       0.67323000       0.56286000 </v>
    <v>       0.99995000       0.32677000       0.81286000 </v>
    <v>       0.74995000       0.67323000       0.81286000 </v>
    <v>       0.49987000       0.07798000       0.06246000 </v>
    <v>       0.24987000       0.92202000       0.06246000 </v>
    <v>       0.25013000       0.07798000       0.31246000 </v>
    <v>       0.00013000       0.92202000       0.31246000 </v>
    <v>       0.99987000       0.07798000       0.06246000 </v>
    <v>       0.74987000       0.92202000       0.06246000 </v>
    <v>       0.75013000       0.07798000       0.31246000 </v>
    <v>       0.50013000       0.92202000       0.31246000 </v>
    <v>       0.49987000       0.07798000       0.56246000 </v>
    <v>       0.24987000       0.92202000       0.56246000 </v>
    <v>       0.25013000       0.07798000       0.81246000 </v>
    <v>       0.00013000       0.92202000       0.81246000 </v>
    <v>       0.99987000       0.07798000       0.56246000 </v>
    <v>       0.74987000       0.92202000       0.56246000 </v>
    <v>       0.75013000       0.07798000       0.81246000 </v>
    <v>       0.50013000       0.92202000       0.81246000 </v>
   </varray>
  </structure>
  <varray name="forces" >
   <v>      -0.41211045      -0.06357975      -0.02592708 </v>
   <v>       0.33708656       0.06708418      -0.12383382 </v>
   <v>      -0.00864991       0.00013501       0.38461199 </v>
   <v>       0.40569927       0.06117780      -0.02687037 </v>
   <v>       0.00291100       0.00099774       0.18246408 </v>
   <v>      -0.32285299      -0.06601032      -0.12802746 </v>
   <v>       0.01875862       0.00540151       1.64538652 </v>
   <v>      -0.02197161       0.00519487      -1.67770771 </v>
   <v>      -0.17042131      -0.12076417       0.37384306 </v>
   <v>      -0.02567383       0.00510849      -0.67419530 </v>
   <v>       0.21596231       0.10646991       0.37706485 </v>
   <v>      -0.36340858       1.06950690      -0.10880499 </v>
   <v>       0.35627180      -1.07907308      -0.10634825 </v>
   <v>      -0.01981097      -0.00674926       0.43473865 </v>
   <v>       0.03029010      -0.03185892       0.14009256 </v>
   <v>      -0.12308542       0.01216229      -0.00580230 </v>
   <v>       0.11031044      -0.02479413      -0.00491860 </v>
   <v>      -0.01992494       0.03234919       0.13834695 </v>
   <v>       0.03308277      -0.00374571       0.43693557 </v>
   <v>       0.31836466      -0.98642000      -0.08725676 </v>
   <v>      -0.33126768       0.98857575      -0.08941691 </v>
   <v>       0.01369689      -0.06088263      -0.25981411 </v>
   <v>       0.00492160       0.11216941      -0.15968266 </v>
   <v>       0.15663527      -0.01957336       0.00490694 </v>
   <v>      -0.17075485       0.01393499       0.00365231 </v>
   <v>       0.00653778      -0.09370557      -0.15840506 </v>
   <v>      -0.00007374       0.07897425      -0.26068001 </v>
   <v>      -0.19437372       0.05878834       0.02667195 </v>
   <v>       0.19300135      -0.05805558       0.03067125 </v>
   <v>       0.00513208       0.19713612      -0.07671687 </v>
   <v>      -0.03101898      -0.12741446      -0.31901075 </v>
   <v>       0.01955849       0.12139330      -0.00229676 </v>
   <v>      -0.01970625      -0.12187795       0.00005068 </v>
   <v>       0.03104297       0.12755163      -0.31684688 </v>
   <v>      -0.00231456      -0.19620122      -0.07816633 </v>
   <v>       0.16340945       0.15276827       0.03115663 </v>
   <v>      -0.16601544      -0.15417103       0.02643999 </v>
   <v>       0.00190043       0.09418599       0.07871172 </v>
   <v>      -0.01667892      -0.09975000       0.26166577 </v>
   <v>      -0.04781975       0.19862067       0.00117833 </v>
   <v>       0.04799692      -0.20091185      -0.00232206 </v>
   <v>       0.01701087       0.10053825       0.25878422 </v>
   <v>      -0.00035541      -0.09293544       0.08097254 </v>
   <v>       1.05657302       0.00585127       0.14432464 </v>
   <v>      -1.60076652       0.86136621       0.57041998 </v>
   <v>       0.09792206       0.00024264      -1.33000393 </v>
   <v>      -0.12460856       0.00003029      -1.32073956 </v>
   <v>       1.61309530      -0.86145100       0.56027867 </v>
   <v>      -1.03649152      -0.00532140       0.15256685 </v>
   <v>      -0.00538432      -0.02142166      -0.09082000 </v>
   <v>      -0.00392481       0.02041673      -0.09068156 </v>
   <v>      -0.99951659       0.12935119      -0.15664219 </v>
   <v>       1.65951354      -0.77851750       0.44331117 </v>
   <v>      -0.05736990       0.27805357       0.22643100 </v>
   <v>       0.04110791      -0.28030949       0.22008781 </v>
   <v>      -1.65513074       0.77806891       0.44513345 </v>
   <v>       1.00912199      -0.12503739      -0.15870391 </v>
   <v>      -0.02880829       0.29255653       0.08271529 </v>
   <v>       0.01337512      -0.29562932       0.07702673 </v>
  </varray>
  <varray name="stress" >
   <v>     -12.16620951      -0.29321275      -0.08391996 </v>
   <v>      -0.29321279     -13.54815985      -0.01707292 </v>
   <v>      -0.08392013      -0.01707287      -5.18321339 </v>
  </varray>
  <energy>
   <i name="e_fr_energy">   -301.98238881 </i>
   <i name="e_wo_entrp">   -301.98238881 </i>
   <i name="e_0_energy">      0.00000000 </i>
  </energy>
  <time name="totalsc"> 1013.15 1021.00</time>
 </calculation>
 <calculation>
  <scstep>
   <time name="dav">   42.04   42.19</time>
   <time name="total">   42.57   42.75</time>
   <energy>
    <i name="alphaZ">   1060.66890660 </i>
    <i name="ewald"> -30365.23928257 </i>
    <i name="hartreedc"> -12983.13319844 </i>
    <i name="XCdc">   1272.23000408 </i>
    <i name="pawpsdc">  43656.52270929 </i>
    <i name="pawaedc"> -42967.12325659 </i>
    <i name="eentropy">      0.00000000 </i>
    <i name="bandstr">  -3989.49089798 </i>
    <i name="atom">  44026.03258983 </i>
    <i name="e_fr_energy">   -289.53242578 </i>
    <i name="e_wo_entrp">   -289.53242578 </i>
    <i name="e_0_energy">   -289.53242578 </i>
   </energy>
  </scstep>
  <scstep>
   <time name="dav">   51.05   51.44</time>
   <time name="total">   51.57   51.98</time>
   <energy>
    <i name="e_fr_energy">   -290.66631025 </i>
    <i name="e_wo_entrp">   -290.66631025 </i>
    <i name="e_0_energy">   -290.66631025 </i>
   </energy>
  </scstep>
  <scstep>
   <time name="dav">   57.01   57.40</time>
   <time name="total">   57.54   57.95</time>
   <energy>
    <i name="e_fr_energy">   -290.63697320 </i>
    <i name="e_wo_entrp">   -290.63697320 </i>
    <i name="e_0_energy">   -290.63697320 </i>
   </energy>
  </scstep>
  <scstep>
   <time name="dav">   50.49   50.94</time>
   <time name="total">   51.01   51.47</time>
   <energy>
    <i name="e_fr_energy">   -290.60683909 </i>
    <i name="e_wo_entrp">   -290.60683909 </i>
    <i name="e_0_energy">   -290.60683909 </i>
   </energy>
  </scstep>
  <scstep>
   <time name="dav">   50.95   51.25</time>
   <time name="total">   51.49   51.81</time>
   <energy>
    <i name="e_fr_energy">   -290.59515184 </i>
    <i name="e_wo_entrp">   -290.59515184 </i>
    <i name="e_0_energy">   -290.59515184 </i>
   </energy>
  </scstep>
  <scstep>
   <time name="dav">   48.45   49.02</time>
   <time name="total">   48.98   49.60</time>
   <energy>
    <i name="e_fr_energy">   -290.59606242 </i>
    <i name="e_wo_entrp">   -290.59606242 </i>
    <i name="e_0_energy">   -290.59606242 </i>
   </energy>
  </scstep>
  <scstep>
   <time name="dav">   54.58   54.99</time>
   <time name="total">   55.12   55.54</time>
   <energy>
    <i name="e_fr_energy">   -290.59593710 </i>
    <i name="e_wo_entrp">   -290.59593710 </i>
    <i name="e_0_energy">   -290.59593710 </i>
   </energy>
  </scstep>
  <scstep>
   <time name="dav">   49.94   50.29</time>
   <time name="total">   50.46   50.83</time>
   <energy>
    <i name="e_fr_energy">   -290.59579306 </i>
    <i name="e_wo_entrp">   -290.59579306 </i>
    <i name="e_0_energy">   -290.59579306 </i>
   </energy>
  </scstep>
  <scstep>
   <time name="dav">   56.52   56.91</time>
   <time name="total">   57.05   57.48</time>
   <energy>
    <i name="e_fr_energy">   -290.59580435 </i>
    <i name="e_wo_entrp">   -290.59580435 </i>
    <i name="e_0_energy">   -290.59580435 </i>
   </energy>
  </scstep>
  <scstep>
   <time name="dav">   49.77   50.01</time>
   <time name="total">   50.31   50.61</time>
   <energy>
    <i name="e_fr_energy">   -290.59580968 </i>
    <i name="e_wo_entrp">   -290.59580968 </i>
    <i name="e_0_energy">   -290.59580968 </i>
   </energy>
  </scstep>
  <scstep>
   <time name="dav">   55.15   55.38</time>
   <time name="total">   55.72   56.04</time>
   <energy>
    <i name="e_fr_energy">   -290.59581175 </i>
    <i name="e_wo_entrp">   -290.59581175 </i>
    <i name="e_0_energy">   -290.59581175 </i>
   </energy>
  </scstep>
  <scstep>
   <time name="dav">   42.22   42.53</time>
   <time name="total">   42.75   43.11</time>
   <energy>
    <i name="e_fr_energy">   -290.59581280 </i>
    <i name="e_wo_entrp">   -290.59581280 </i>
    <i name="e_0_energy">   -290.59581280 </i>
   </energy>
  </scstep>
  <scstep>
   <time name="dav">   32.90   33.14</time>
   <time name="total">   32.95   33.21</time>
   <energy>
    <i name="alphaZ">   1060.66890660 </i>
    <i name="ewald"> -30365.23928257 </i>
    <i name="hartreedc"> -12990.87482231 </i>
    <i name="XCdc">   1272.69406083 </i>
    <i name="pawpsdc">  43709.77180978 </i>
    <i name="pawaedc"> -43020.69365556 </i>
    <i name="eentropy">      0.00000000 </i>
    <i name="bandstr">  -3982.95541956 </i>
    <i name="atom">  44026.03258983 </i>
    <i name="e_fr_energy">   -290.59581296 </i>
    <i name="e_wo_entrp">   -290.59581296 </i>
    <i name="e_0_energy">   -290.59581296 </i>
   </energy>
  </scstep>
  <structure>
   <crystal>
    <varray name="basis" >
     <v>      11.17850000       0.00000000       0.00000000 </v>
     <v>       0.00000000       9.57460000       0.00000000 </v>
     <v>       0.00000000       0.00000000      11.18240000 </v>
    </varray>
    <i name="volume">   1196.84853820 </i>
    <varray name="rec_basis" >
     <v>       0.08945744       0.00000000       0.00000000 </v>
     <v>       0.00000000       0.10444301       0.00000000 </v>
     <v>       0.00000000       0.00000000       0.08942624 </v>
    </varray>
   </crystal>
   <varray name="positions" >
    <v>       0.37361147      -0.00015035       0.43675815 </v>
    <v>       0.37606475       0.00050801       0.18633576 </v>
    <v>       0.62535267       0.99984068       0.43852928 </v>
    <v>       0.87714086       0.00047825       0.43675408 </v>
    <v>       0.62462256       0.99984503       0.18765718 </v>
    <v>       0.87321667      -0.00016260       0.18631767 </v>
    <v>       0.12469096       0.99986722       0.19396846 </v>
    <v>       0.12529518       0.99986617       0.92963210 </v>
    <v>       0.37387452      -0.00043848       0.68848282 </v>
    <v>       0.62527920       0.99986574       0.93396141 </v>
    <v>       0.87554202       0.00070646       0.68849672 </v>
    <v>      -0.00143835       0.30057883       0.06234060 </v>
    <v>       0.25166755       0.69937297       0.06235120 </v>
    <v>       0.24978450       0.29515599       0.31469553 </v>
    <v>       0.50000072       0.70464948       0.31342438 </v>
    <v>       0.49959880       0.29525128       0.06278497 </v>
    <v>       0.75060606       0.70468507       0.06278878 </v>
    <v>       0.74978401       0.29535299       0.31341685 </v>
    <v>       0.00001277       0.70479113       0.31470501 </v>
    <v>       0.00150396       0.29021982       0.56243356 </v>
    <v>       0.24870036       0.70979105       0.56242424 </v>
    <v>       0.24992911       0.29488324       0.81169912 </v>
    <v>       0.49989124       0.70537518       0.81213110 </v>
    <v>       0.50080599       0.29509138       0.56283117 </v>
    <v>       0.74939308       0.70488021       0.56282576 </v>
    <v>       0.74989821       0.29471785       0.81213662 </v>
    <v>       0.99986968       0.70520792       0.81169538 </v>
    <v>       0.24921115       0.32706621       0.06297507 </v>
    <v>       0.00088293       0.67293748       0.06299232 </v>
    <v>       0.49997215       0.32776329       0.31252903 </v>
    <v>       0.24981613       0.67258801       0.31148374 </v>
    <v>       0.75013441       0.32738165       0.06285009 </v>
    <v>       0.49996495       0.67261590       0.06286022 </v>
    <v>       0.00008397       0.32741268       0.31149307 </v>
    <v>       0.74994001       0.67224142       0.31252278 </v>
    <v>       0.25075522       0.32753974       0.56299441 </v>
    <v>      -0.00066647       0.67245319       0.56297407 </v>
    <v>       0.49995820       0.32724457       0.81319957 </v>
    <v>       0.24987802       0.67272740       0.81398887 </v>
    <v>       0.74984363       0.32777077       0.56286508 </v>
    <v>       0.50025714       0.67221768       0.56284998 </v>
    <v>       0.00002341       0.32727657       0.81397644 </v>
    <v>       0.74994847       0.67276173       0.81320933 </v>
    <v>       0.50442981       0.07800948       0.06308264 </v>
    <v>       0.24296163       0.92636009       0.06492088 </v>
    <v>       0.25055260       0.07798122       0.30672215 </v>
    <v>      -0.00040777       0.92202015       0.30676212 </v>
    <v>       0.00683158       0.07363949       0.06487713 </v>
    <v>       0.74539685       0.92199319       0.06311820 </v>
    <v>       0.75010676       0.07787206       0.31206819 </v>
    <v>       0.50011306       0.92212287       0.31206879 </v>
    <v>       0.49555642       0.07863175       0.56178422 </v>
    <v>       0.25703190       0.91809736       0.56437251 </v>
    <v>       0.24988241       0.07938100       0.81343686 </v>
    <v>       0.00030741       0.92060763       0.81340949 </v>
    <v>       0.99272701       0.08190038       0.56438038 </v>
    <v>       0.75422503       0.92138999       0.56177533 </v>
    <v>       0.75000567       0.07945408       0.81281685 </v>
    <v>       0.50018772       0.92053044       0.81279231 </v>
   </varray>
  </structure>
  <varray name="forces" >
   <v>      -0.31264101      -0.03289314      -0.06594495 </v>
   <v>       0.18290255       0.02938620      -0.25124634 </v>
   <v>      -0.00613894       0.00046860       0.32828641 </v>
   <v>       0.30344257       0.02763385      -0.06878474 </v>
   <v>       0.00604937       0.00071415       0.10397291 </v>
   <v>      -0.16879478      -0.03269600      -0.25300451 </v>
   <v>       0.02441724       0.00945310       0.48999080 </v>
   <v>      -0.01761542       0.00149268      -0.41383911 </v>
   <v>       0.02794240      -0.00250139       0.42852493 </v>
   <v>      -0.01695457       0.00411294      -0.37106070 </v>
   <v>       0.00383170      -0.00592101       0.42866500 </v>
   <v>      -0.08223433      -0.37594361      -0.02894701 </v>
   <v>       0.07253765       0.37381504      -0.02699337 </v>
   <v>      -0.00429071       0.00942474       0.11445887 </v>
   <v>       0.03037673       0.02081189       0.04503077 </v>
   <v>      -0.10846759      -0.04590024       0.00720864 </v>
   <v>       0.10087527       0.04753142       0.00894188 </v>
   <v>      -0.02113490      -0.02274599       0.04414416 </v>
   <v>       0.01269491      -0.00890798       0.11518648 </v>
   <v>       0.21030307       0.56491045      -0.07916782 </v>
   <v>      -0.21918956      -0.56986514      -0.08128297 </v>
   <v>       0.01819516       0.29486326      -0.03316726 </v>
   <v>       0.01778959      -0.26312452      -0.06919150 </v>
   <v>       0.11260681       0.09014943      -0.00362940 </v>
   <v>      -0.12316604      -0.08775428      -0.00484874 </v>
   <v>      -0.00894459       0.25983868      -0.06794844 </v>
   <v>      -0.00895806      -0.29661317      -0.03338721 </v>
   <v>      -0.09279838       0.20823591       0.01134048 </v>
   <v>       0.09141605      -0.20732997       0.01256300 </v>
   <v>      -0.00672306       0.19028460      -0.02716462 </v>
   <v>      -0.03165206      -0.13076920      -0.14081532 </v>
   <v>      -0.01872670       0.14728886      -0.00820331 </v>
   <v>       0.01795050      -0.14728756      -0.00745893 </v>
   <v>       0.03293885       0.13056087      -0.13966364 </v>
   <v>       0.00790374      -0.19068263      -0.02749765 </v>
   <v>       0.11068046       0.09652238       0.03225416 </v>
   <v>      -0.11183237      -0.09807754       0.03007800 </v>
   <v>       0.00095753       0.06514584       0.03177415 </v>
   <v>      -0.01785108      -0.07007772       0.09513623 </v>
   <v>      -0.00136088       0.18671565       0.00267100 </v>
   <v>       0.00055687      -0.18770284       0.00072004 </v>
   <v>       0.01866349       0.07113300       0.09337978 </v>
   <v>      -0.00001668      -0.06408747       0.03286855 </v>
   <v>       0.82834713       0.09948836       0.08242084 </v>
   <v>      -0.96515012      -0.63969814       0.33938169 </v>
   <v>       0.29441071       0.14043292      -0.65287468 </v>
   <v>      -0.32363954      -0.15091915      -0.63836382 </v>
   <v>       0.97532661       0.63701022       0.33378689 </v>
   <v>      -0.81657129      -0.10862464       0.08731892 </v>
   <v>      -0.00170241       0.03351972       0.00181562 </v>
   <v>      -0.00837566      -0.03072363       0.00223998 </v>
   <v>      -0.80775785      -0.00200693      -0.11110966 </v>
   <v>       1.27158827       0.66755221       0.32113583 </v>
   <v>       0.08078419      -0.01195896      -0.09211904 </v>
   <v>      -0.08974639       0.02477187      -0.09349970 </v>
   <v>      -1.26731348      -0.66062502       0.32389420 </v>
   <v>       0.81554960      -0.00085514      -0.11286406 </v>
   <v>       0.02709669      -0.04961890      -0.02095209 </v>
   <v>      -0.03838724       0.06264303      -0.02415966 </v>
  </varray>
  <varray name="stress" >
   <v>      -7.73595220       1.17030601      -0.07225148 </v>
   <v>       1.17030606      -8.30954611      -0.01588966 </v>
   <v>      -0.07225142      -0.01588972      -5.21672642 </v>
  </varray>
  <energy>
   <i name="e_fr_energy">   -303.14097158 </i>
   <i name="e_wo_entrp">   -303.14097158 </i>
   <i name="e_0_energy">      0.00000000 </i>
  </energy>
  <time name="totalsc">  727.31  732.54</time>
 </calculation>
 <calculation>
  <scstep>
   <time name="dav">   41.94   42.21</time>
   <time name="total">   42.46   42.74</time>
   <energy>
    <i name="alphaZ">   1060.66890660 </i>
    <i name="ewald"> -30344.41987365 </i>
    <i name="hartreedc"> -13005.32574647 </i>
    <i name="XCdc">   1272.89140414 </i>
    <i name="pawpsdc">  43709.68515949 </i>
    <i name="pawaedc"> -43020.60695378 </i>
    <i name="eentropy">      0.00000000 </i>
    <i name="bandstr">  -3989.30406449 </i>
    <i name="atom">  44026.03258983 </i>
    <i name="e_fr_energy">   -290.37857833 </i>
    <i name="e_wo_entrp">   -290.37857833 </i>
    <i name="e_0_energy">   -290.37857833 </i>
   </energy>
  </scstep>
  <scstep>
   <time name="dav">   53.09   53.35</time>
   <time name="total">   53.62   53.90</time>
   <energy>
    <i name="e_fr_energy">   -290.77936473 </i>
    <i name="e_wo_entrp">   -290.77936473 </i>
    <i name="e_0_energy">   -290.77936473 </i>
   </energy>
  </scstep>
  <scstep>
   <time name="dav">   56.81   57.25</time>
   <time name="total">   57.33   57.84</time>
   <energy>
    <i name="e_fr_energy">   -290.76731280 </i>
    <i name="e_wo_entrp">   -290.76731280 </i>
    <i name="e_0_energy">   -290.76731280 </i>
   </energy>
  </scstep>
  <scstep>
   <time name="dav">   49.38   49.71</time>
   <time name="total">   49.91   50.26</time>
   <energy>
    <i name="e_fr_energy">   -290.75392077 </i>
    <i name="e_wo_entrp">   -290.75392077 </i>
    <i name="e_0_energy">   -290.75392077 </i>
   </energy>
  </scstep>
  <scstep>
   <time name="dav">   51.57   51.93</time>
   <time name="total">   52.10   52.48</time>
   <energy>
    <i name="e_fr_energy">   -290.75111115 </i>
    <i name="e_wo_entrp">   -290.75111115 </i>
    <i name="e_0_energy">   -290.75111115 </i>
   </energy>
  </scstep>
  <scstep>
   <time name="dav">   52.09   52.77</time>
   <time name="total">   52.61   53.33</time>
   <energy>
    <i name="e_fr_energy">   -290.75129166 </i>
    <i name="e_wo_entrp">   -290.75129166 </i>
    <i name="e_0_energy">   -290.75129166 </i>
   </energy>
  </scstep>
  <scstep>
   <time name="dav">   53.66   54.05</time>
   <time name="total">   54.18   54.58</time>
   <energy>
    <i name="e_fr_energy">   -290.75123102 </i>
    <i name="e_wo_entrp">   -290.75123102 </i>
    <i name="e_0_energy">   -290.75123102 </i>
   </energy>
  </scstep>
  <scstep>
   <time name="dav">   49.23   49.45</time>
   <time name="total">   49.75   50.01</time>
   <energy>
    <i name="e_fr_energy">   -290.75120131 </i>
    <i name="e_wo_entrp">   -290.75120131 </i>
    <i name="e_0_energy">   -290.75120131 </i>
   </energy>
  </scstep>
  <scstep>
   <time name="dav">   63.38   63.55</time>
   <time name="total">   63.95   64.15</time>
   <energy>
    <i name="e_fr_energy">   -290.75120428 </i>
    <i name="e_wo_entrp">   -290.75120428 </i>
    <i name="e_0_energy">   -290.75120428 </i>
   </energy>
  </scstep>
  <scstep>
   <time name="dav">   47.13   47.43</time>
   <time name="total">   47.66   48.02</time>
   <energy>
    <i name="e_fr_energy">   -290.75120662 </i>
    <i name="e_wo_entrp">   -290.75120662 </i>
    <i name="e_0_energy">   -290.75120662 </i>
   </energy>
  </scstep>
  <scstep>
   <time name="dav">   43.12   43.49</time>
   <time name="total">   43.17   43.58</time>
   <energy>
    <i name="alphaZ">   1060.66890660 </i>
    <i name="ewald"> -30344.41987365 </i>
    <i name="hartreedc"> -13009.84816014 </i>
    <i name="XCdc">   1273.13997612 </i>
    <i name="pawpsdc">  43754.85570861 </i>
    <i name="pawaedc"> -43066.23685795 </i>
    <i name="eentropy">      0.00000000 </i>
    <i name="bandstr">  -3984.94349614 </i>
    <i name="atom">  44026.03258983 </i>
    <i name="e_fr_energy">   -290.75120671 </i>
    <i name="e_wo_entrp">   -290.75120671 </i>
    <i name="e_0_energy">   -290.75120671 </i>
   </energy>
  </scstep>
  <structure>
   <crystal>
    <varray name="basis" >
     <v>      11.17850000       0.00000000       0.00000000 </v>
     <v>       0.00000000       9.57460000       0.00000000 </v>
     <v>       0.00000000       0.00000000      11.18240000 </v>
    </varray>
    <i name="volume">   1196.84853820 </i>
    <varray name="rec_basis" >
     <v>       0.08945744       0.00000000       0.00000000 </v>
     <v>       0.00000000       0.10444301       0.00000000 </v>
     <v>       0.00000000       0.00000000       0.08942624 </v>
    </varray>
   </crystal>
   <varray name="positions" >
    <v>       0.37251363      -0.00034810       0.43668910 </v>
    <v>       0.37696274       0.00071666       0.18600599 </v>
    <v>       0.62532963       0.99984110       0.43955351 </v>
    <v>       0.87822163       0.00066853       0.43668252 </v>
    <v>       0.62463032       0.99984813       0.18814309 </v>
    <v>       0.87235661      -0.00036791       0.18597673 </v>
    <v>       0.12474093       0.99988402       0.19835016 </v>
    <v>       0.12523665       0.99988233       0.92516433 </v>
    <v>       0.37342052      -0.00081408       0.68947837 </v>
    <v>       0.62521081       0.99988163       0.93216602 </v>
    <v>       0.87611733       0.00103760       0.68950085 </v>
    <v>      -0.00240645       0.30390521       0.06205085 </v>
    <v>       0.25261664       0.69601683       0.06206799 </v>
    <v>       0.24973173       0.29513500       0.31585325 </v>
    <v>       0.50008141       0.70455039       0.31379745 </v>
    <v>       0.49927091       0.29528911       0.06276952 </v>
    <v>       0.75089992       0.70460796       0.06277568 </v>
    <v>       0.74973093       0.29545361       0.31378527 </v>
    <v>       0.00010091       0.70477948       0.31586858 </v>
    <v>       0.00235206       0.28715185       0.56220119 </v>
    <v>       0.24781788       0.71286572       0.56218612 </v>
    <v>       0.24996560       0.29469388       0.81100723 </v>
    <v>       0.49990435       0.70572405       0.81170586 </v>
    <v>       0.50122325       0.29503050       0.56284424 </v>
    <v>       0.74893820       0.70492355       0.56283548 </v>
    <v>       0.74991563       0.29442641       0.81171478 </v>
    <v>       0.99986949       0.70545355       0.81100119 </v>
    <v>       0.24869335       0.32724906       0.06304610 </v>
    <v>       0.00139708       0.67275692       0.06307400 </v>
    <v>       0.49998582       0.32837643       0.31232473 </v>
    <v>       0.24973350       0.67219172       0.31063420 </v>
    <v>       0.75018651       0.32775921       0.06284398 </v>
    <v>       0.49991246       0.67223684       0.06286035 </v>
    <v>       0.00016667       0.32780939       0.31064930 </v>
    <v>       0.74993385       0.67163119       0.31231462 </v>
    <v>       0.25119054       0.32801488       0.56307739 </v>
    <v>      -0.00110872       0.67197369       0.56304448 </v>
    <v>       0.49996326       0.32753750       0.81340919 </v>
    <v>       0.24983359       0.67241716       0.81468569 </v>
    <v>       0.74971624       0.32838852       0.56286822 </v>
    <v>       0.50038500       0.67159281       0.56284380 </v>
    <v>       0.00006873       0.32758927       0.81466558 </v>
    <v>       0.74994752       0.67247269       0.81342496 </v>
    <v>       0.50724447       0.07802768       0.06346698 </v>
    <v>       0.23869726       0.92903911       0.06643992 </v>
    <v>       0.25081346       0.07798198       0.30318032 </v>
    <v>      -0.00073972       0.92202025       0.30324496 </v>
    <v>       0.01112879       0.07096019       0.06636917 </v>
    <v>       0.74263569       0.92197664       0.06352449 </v>
    <v>       0.75009242       0.07780544       0.31182633 </v>
    <v>       0.50010261       0.92218637       0.31182730 </v>
    <v>       0.49289376       0.07903406       0.56136708 </v>
    <v>       0.26145277       0.91567600       0.56555306 </v>
    <v>       0.24972958       0.08024581       0.81403985 </v>
    <v>       0.00041692       0.91973581       0.81399559 </v>
    <v>       0.98831782       0.08432034       0.56556578 </v>
    <v>       0.75691328       0.92100109       0.56135269 </v>
    <v>       0.74992893       0.08036399       0.81303712 </v>
    <v>       0.50022335       0.91961097       0.81299743 </v>
   </varray>
  </structure>
  <varray name="forces" >
   <v>      -0.24305754      -0.01042003      -0.09694472 </v>
   <v>       0.09235280       0.00769980      -0.32572575 </v>
   <v>      -0.00453362       0.00067047       0.29173529 </v>
   <v>       0.23291703       0.00330931      -0.10102462 </v>
   <v>       0.00791913       0.00046761       0.06473861 </v>
   <v>      -0.07908136      -0.01367549      -0.32597813 </v>
   <v>       0.02496850       0.01080568      -0.23474392 </v>
   <v>      -0.01451373       0.00012580       0.33085300 </v>
   <v>       0.16531135       0.08575143       0.48119346 </v>
   <v>      -0.01119155       0.00368417      -0.18253399 </v>
   <v>      -0.14308752      -0.09077862       0.48018688 </v>
   <v>       0.09805011      -0.99699008       0.02877209 </v>
   <v>      -0.10832798       0.99638721       0.03059724 </v>
   <v>       0.00618837       0.00709584      -0.08353929 </v>
   <v>       0.02856843       0.05163488      -0.01443436 </v>
   <v>      -0.09928880      -0.08672653       0.01598617 </v>
   <v>       0.09446491       0.09652983       0.01834270 </v>
   <v>      -0.02016298      -0.05503785      -0.01463936 </v>
   <v>      -0.00097878      -0.00006714      -0.08416841 </v>
   <v>       0.22346386       1.82279304      -0.09657643 </v>
   <v>      -0.23004563      -1.83490945      -0.09883408 </v>
   <v>       0.02115830       0.53090394       0.10413041 </v>
   <v>       0.02432452      -0.51321486      -0.01393107 </v>
   <v>       0.08354622       0.15366026      -0.00898442 </v>
   <v>      -0.09154562      -0.14597910      -0.01026123 </v>
   <v>      -0.01700287       0.49448154      -0.01274092 </v>
   <v>      -0.01456506      -0.54682131       0.10419251 </v>
   <v>      -0.02710744       0.28878082       0.00005684 </v>
   <v>       0.02584601      -0.28782575      -0.00037508 </v>
   <v>      -0.01490532       0.18603401       0.00336482 </v>
   <v>      -0.03271194      -0.12860487      -0.02790891 </v>
   <v>      -0.04428533       0.16445910      -0.01174833 </v>
   <v>       0.04313122      -0.16415212      -0.01197869 </v>
   <v>       0.03478938       0.12818990      -0.02749583 </v>
   <v>       0.01505731      -0.18728108       0.00377481 </v>
   <v>       0.08422554       0.06004895       0.03601324 </v>
   <v>      -0.08460420      -0.06154718       0.03556517 </v>
   <v>      -0.00000559       0.04641130       0.00282980 </v>
   <v>      -0.01881425      -0.04897019      -0.01346697 </v>
   <v>       0.02948508       0.18022507       0.00338381 </v>
   <v>      -0.03093816      -0.18038792       0.00245306 </v>
   <v>       0.01991983       0.05018666      -0.01449622 </v>
   <v>       0.00058598      -0.04550237       0.00316460 </v>
   <v>       0.68287662       0.16924203       0.04061674 </v>
   <v>      -0.53958748      -1.32871570       0.16642664 </v>
   <v>       0.49098313       0.28756998      -0.17403920 </v>
   <v>      -0.51992019      -0.30304679      -0.15837730 </v>
   <v>       0.54819998       1.32679901       0.16422649 </v>
   <v>      -0.67629612      -0.18354900       0.04330178 </v>
   <v>       0.00160523       0.06638177       0.05952938 </v>
   <v>      -0.01209775      -0.06124738       0.06014769 </v>
   <v>      -0.69219440      -0.07394058      -0.08164136 </v>
   <v>       1.10362111       1.83031602       0.25675827 </v>
   <v>       0.18925337      -0.19265724      -0.30560634 </v>
   <v>      -0.19372417       0.21624147      -0.30394588 </v>
   <v>      -1.09840093      -1.81561099       0.25928930 </v>
   <v>       0.69912799       0.06612408      -0.08312631 </v>
   <v>       0.06412647      -0.27517554      -0.08525948 </v>
   <v>      -0.07309147       0.29982420      -0.08710423 </v>
  </varray>
  <varray name="stress" >
   <v>      -4.56600364       2.93420292      -0.06686892 </v>
   <v>       2.93420305      -2.47194580      -0.01267318 </v>
   <v>      -0.06686879      -0.01267293      -4.79469768 </v>
  </varray>
  <energy>
   <i name="e_fr_energy">   -303.28816012 </i>
   <i name="e_wo_entrp">   -303.28816012 </i>
   <i name="e_0_energy">      0.00000000 </i>
  </energy>
  <time name="totalsc">  646.48  651.19</time>
 </calculation>
 <calculation>
  <scstep>
   <time name="dav">   42.08   42.23</time>
   <time name="total">   42.62   42.78</time>
   <energy>
    <i name="alphaZ">   1060.66890660 </i>
    <i name="ewald"> -30369.71943680 </i>
    <i name="hartreedc"> -12983.59674327 </i>
    <i name="XCdc">   1272.94785158 </i>
    <i name="pawpsdc">  43754.46608592 </i>
    <i name="pawaedc"> -43065.84442128 </i>
    <i name="eentropy">      0.00000000 </i>
    <i name="bandstr">  -3985.25921115 </i>
    <i name="atom">  44026.03258983 </i>
    <i name="e_fr_energy">   -290.30437856 </i>
    <i name="e_wo_entrp">   -290.30437856 </i>
    <i name="e_0_energy">   -290.30437856 </i>
   </energy>
  </scstep>
  <scstep>
   <time name="dav">   48.67   49.21</time>
   <time name="total">   49.21   49.81</time>
   <energy>
    <i name="e_fr_energy">   -291.39986141 </i>
    <i name="e_wo_entrp">   -291.39986141 </i>
    <i name="e_0_energy">   -291.39986141 </i>
   </energy>
  </scstep>
  <scstep>
   <time name="dav">   67.45   67.69</time>
   <time name="total">   67.98   68.27</time>
   <energy>
    <i name="e_fr_energy">   -291.38050710 </i>
    <i name="e_wo_entrp">   -291.38050710 </i>
    <i name="e_0_energy">   -291.38050710 </i>
   </energy>
  </scstep>
  <scstep>
   <time name="dav">   50.38   50.49</time>
   <time name="total">   50.91   51.05</time>
   <energy>
    <i name="e_fr_energy">   -291.35773505 </i>
    <i name="e_wo_entrp">   -291.35773505 </i>
    <i name="e_0_energy">   -291.35773505 </i>
   </energy>
  </scstep>
  <scstep>
   <time name="dav">   50.51   50.86</time>
   <time name="total">   51.04   51.40</time>
   <energy>
    <i name="e_fr_energy">   -291.34807691 </i>
    <i name="e_wo_entrp">   -291.34807691 </i>
    <i name="e_0_energy">   -291.34807691 </i>
   </energy>
  </scstep>
  <scstep>
   <time name="dav">   49.71   50.08</time>
   <time name="total">   50.23   50.63</time>
   <energy>
    <i name="e_fr_energy">   -291.34890025 </i>
    <i name="e_wo_entrp">   -291.34890025 </i>
    <i name="e_0_energy">   -291.34890025 </i>
   </energy>
  </scstep>
  <scstep>
   <time name="dav">   60.49   60.85</time>
   <time name="total">   61.02   61.42</time>
   <energy>
    <i name="e_fr_energy">   -291.34888410 </i>
    <i name="e_wo_entrp">   -291.34888410 </i>
    <i name="e_0_energy">   -291.34888410 </i>
   </energy>
  </scstep>
  <scstep>
   <time name="dav">   53.17   53.57</time>
   <time name="total">   53.71   54.13</time>
   <energy>
    <i name="e_fr_energy">   -291.34882223 </i>
    <i name="e_wo_entrp">   -291.34882223 </i>
    <i name="e_0_energy">   -291.34882223 </i>
   </energy>
  </scstep>
  <scstep>
   <time name="dav">   46.86   47.10</time>
   <time name="total">   47.46   47.74</time>
   <energy>
    <i name="e_fr_energy">   -291.34882753 </i>
    <i name="e_wo_entrp">   -291.34882753 </i>
    <i name="e_0_energy">   -291.34882753 </i>
   </energy>
  </scstep>
  <scstep>
   <time name="dav">   51.69   51.81</time>
   <time name="total">   52.22   52.36</time>
   <energy>
    <i name="e_fr_energy">   -291.34882881 </i>
    <i name="e_wo_entrp">   -291.34882881 </i>
    <i name="e_0_energy">   -291.34882881 </i>
   </energy>
  </scstep>
  <scstep>
   <time name="dav">   42.39   42.72</time>
   <time name="total">   42.44   42.79</time>
   <energy>
    <i name="alphaZ">   1060.66890660 </i>
    <i name="ewald"> -30369.71943680 </i>
    <i name="hartreedc"> -12984.69134488 </i>
    <i name="XCdc">   1273.00728368 </i>
    <i name="pawpsdc">  43680.83117259 </i>
    <i name="pawaedc"> -42990.78034940 </i>
    <i name="eentropy">      0.00000000 </i>
    <i name="bandstr">  -3986.69765124 </i>
    <i name="atom">  44026.03258983 </i>
    <i name="e_fr_energy">   -291.34882962 </i>
    <i name="e_wo_entrp">   -291.34882962 </i>
    <i name="e_0_energy">   -291.34882962 </i>
   </energy>
  </scstep>
  <structure>
   <crystal>
    <varray name="basis" >
     <v>      11.17850000       0.00000000       0.00000000 </v>
     <v>       0.00000000       9.57460000       0.00000000 </v>
     <v>       0.00000000       0.00000000      11.18240000 </v>
    </varray>
    <i name="volume">   1196.84853820 </i>
    <varray name="rec_basis" >
     <v>       0.08945744       0.00000000       0.00000000 </v>
     <v>       0.00000000       0.10444301       0.00000000 </v>
     <v>       0.00000000       0.00000000       0.08942624 </v>
    </varray>
   </crystal>
   <varray name="positions" >
    <v>       0.37046183      -0.00060753       0.43627568 </v>
    <v>       0.37827011       0.00097698       0.18450960 </v>
    <v>       0.62528854       0.99984429       0.44169374 </v>
    <v>       0.88021934       0.00089083       0.43625213 </v>
    <v>       0.62466642       0.99985344       0.18890188 </v>
    <v>       0.87113709      -0.00064887       0.18446720 </v>
    <v>       0.12488277       0.99994641       0.20234189 </v>
    <v>       0.12512184       0.99990058       0.92141286 </v>
    <v>       0.37349817      -0.00087753       0.69224698 </v>
    <v>       0.62509675       0.99991405       0.92955968 </v>
    <v>       0.87625027       0.00103181       0.69227537 </v>
    <v>      -0.00312742       0.30350081       0.06183303 </v>
    <v>       0.25328093       0.69638613       0.06186371 </v>
    <v>       0.24969536       0.29514082       0.31683300 </v>
    <v>       0.50026951       0.70465166       0.31415666 </v>
    <v>       0.49856510       0.29497785       0.06280823 </v>
    <v>       0.75155158       0.70491597       0.06282519 </v>
    <v>       0.74960242       0.29534016       0.31413866 </v>
    <v>       0.00019423       0.70476642       0.31685256 </v>
    <v>       0.00406149       0.29119896       0.56160979 </v>
    <v>       0.24604780       0.70877668       0.56158055 </v>
    <v>       0.25007936       0.29664557       0.81061049 </v>
    <v>       0.50000349       0.70401939       0.81119061 </v>
    <v>       0.50197232       0.29558872       0.56282729 </v>
    <v>       0.74811998       0.70437733       0.56281042 </v>
    <v>       0.74987551       0.29611790       0.81120740 </v>
    <v>       0.99981852       0.70349887       0.81060213 </v>
    <v>       0.24803057       0.32862440       0.06312425 </v>
    <v>       0.00205144       0.67138796       0.06316234 </v>
    <v>       0.49994890       0.32980611       0.31211222 </v>
    <v>       0.24952883       0.67123365       0.30960457 </v>
    <v>       0.75008941       0.32884258       0.06279634 </v>
    <v>       0.50000511       0.67115307       0.06281878 </v>
    <v>       0.00037864       0.32876625       0.30962743 </v>
    <v>       0.74997954       0.67019962       0.31209929 </v>
    <v>       0.25196177       0.32878065       0.56329388 </v>
    <v>      -0.00188890       0.67119704       0.56324562 </v>
    <v>       0.49996880       0.32804781       0.81364911 </v>
    <v>       0.24971927       0.67187744       0.81540361 </v>
    <v>       0.74967914       0.32979965       0.56288345 </v>
    <v>       0.50041755       0.67017320       0.56284555 </v>
    <v>       0.00018787       0.32813662       0.81537150 </v>
    <v>       0.74994852       0.67197034       0.81367266 </v>
    <v>       0.51271296       0.07873607       0.06403029 </v>
    <v>       0.23213682       0.92657483       0.06868683 </v>
    <v>       0.25281037       0.07915254       0.29868671 </v>
    <v>      -0.00291547       0.92078766       0.29883298 </v>
    <v>       0.01775528       0.07341639       0.06857877 </v>
    <v>       0.73724885       0.92121186       0.06412124 </v>
    <v>       0.75008227       0.07800233       0.31176820 </v>
    <v>       0.50004898       0.92200694       0.31177173 </v>
    <v>       0.48755964       0.07917486       0.56062489 </v>
    <v>       0.27015008       0.92046344       0.56774305 </v>
    <v>       0.25022120       0.08041134       0.81363732 </v>
    <v>      -0.00013782       0.91965851       0.81358030 </v>
    <v>       0.97965151       0.07959119       0.56776991 </v>
    <v>       0.76229965       0.92084322       0.56059931 </v>
    <v>       0.75006811       0.08024338       0.81298195 </v>
    <v>       0.50000781       0.91982135       0.81291920 </v>
   </varray>
  </structure>
  <varray name="forces" >
   <v>      -0.17621422      -0.01381531      -0.01651129 </v>
   <v>       0.07265706       0.00222346      -0.31643071 </v>
   <v>      -0.00258090       0.00132872       0.25994717 </v>
   <v>       0.16247578       0.00352064      -0.02337965 </v>
   <v>       0.00915466       0.00031909       0.04649948 </v>
   <v>      -0.06107354      -0.01079090      -0.31463205 </v>
   <v>      -0.00207214      -0.00061765      -0.63032494 </v>
   <v>      -0.00571843       0.00197623       0.68916412 </v>
   <v>       0.34040525       0.15602859       0.48868454 </v>
   <v>      -0.00349635       0.00281981      -0.03414755 </v>
   <v>      -0.33077965      -0.15937864       0.48804566 </v>
   <v>       0.25507164      -0.94884849       0.07338854 </v>
   <v>      -0.26324212       0.95287497       0.07484599 </v>
   <v>       0.06899146       0.11701546      -0.29098087 </v>
   <v>       0.03818663       0.06085464      -0.06435319 </v>
   <v>      -0.02198037      -0.00755325       0.03250201 </v>
   <v>       0.02084583       0.01460844       0.03503151 </v>
   <v>      -0.03237943      -0.06104678      -0.06294704 </v>
   <v>      -0.06910899      -0.11235079      -0.29227135 </v>
   <v>      -0.19512432      -0.28967513       0.02470582 </v>
   <v>       0.18883062       0.29872585       0.02396989 </v>
   <v>       0.02689224       0.25863815       0.23401533 </v>
   <v>       0.01831303      -0.22194314       0.02884756 </v>
   <v>       0.04226205      -0.06077294      -0.03129169 </v>
   <v>      -0.04529520       0.06485877      -0.03201883 </v>
   <v>      -0.01335547       0.21482718       0.02921317 </v>
   <v>      -0.02376356      -0.26689860       0.23397658 </v>
   <v>       0.03612470       0.31644105      -0.01512201 </v>
   <v>      -0.03646207      -0.31554133      -0.01863373 </v>
   <v>      -0.02403472       0.18588216       0.03511372 </v>
   <v>      -0.03894097      -0.11913411       0.14081695 </v>
   <v>      -0.06525325       0.17354362      -0.02000825 </v>
   <v>       0.06335931      -0.17335745      -0.02201330 </v>
   <v>       0.04221390       0.11798776       0.13955055 </v>
   <v>       0.02238110      -0.18800238       0.03671864 </v>
   <v>      -0.01676137       0.12380321       0.03656964 </v>
   <v>       0.01708893      -0.12452200       0.03990736 </v>
   <v>       0.00042728       0.05430983      -0.02862228 </v>
   <v>      -0.02563905      -0.06287320      -0.16114422 </v>
   <v>       0.07123640       0.22590915       0.00828898 </v>
   <v>      -0.07401670      -0.22552186       0.00954099 </v>
   <v>       0.02711577       0.06446446      -0.16081539 </v>
   <v>      -0.00006850      -0.05287767      -0.02953714 </v>
   <v>       0.34853178       0.14158054       0.01519241 </v>
   <v>      -0.06934476      -1.33853270      -0.05887536 </v>
   <v>       0.57445543       0.27177704       0.15990993 </v>
   <v>      -0.57649424      -0.26848773       0.15561695 </v>
   <v>       0.07707729       1.33370669      -0.05377126 </v>
   <v>      -0.34924837      -0.14757288       0.01419510 </v>
   <v>      -0.00655034       0.06746809       0.05028945 </v>
   <v>      -0.00196224      -0.06520506       0.05149274 </v>
   <v>      -0.26347591       0.24886821      -0.07920430 </v>
   <v>       0.29741316      -0.54469473      -0.12340604 </v>
   <v>       0.16982753       0.11975351      -0.23071960 </v>
   <v>      -0.17409848      -0.11187145      -0.23086966 </v>
   <v>      -0.28724020       0.54055761      -0.11935853 </v>
   <v>       0.27055919      -0.25147816      -0.07978146 </v>
   <v>       0.03510511       0.01314287      -0.05689622 </v>
   <v>      -0.04122730      -0.00645149      -0.05797288 </v>
  </varray>
  <varray name="stress" >
   <v>       0.55304965       2.89845281      -0.02801358 </v>
   <v>       2.89845272     -14.19532827       0.01160276 </v>
   <v>      -0.02801341       0.01160284      -3.81817989 </v>
  </varray>
  <energy>
   <i name="e_fr_energy">   -303.87890078 </i>
   <i name="e_wo_entrp">   -303.87890078 </i>
   <i name="e_0_energy">      0.00000000 </i>
  </energy>
  <time name="totalsc">  648.45  652.92</time>
 </calculation>
 <calculation>
  <scstep>
   <time name="dav">   42.07   42.15</time>
   <time name="total">   42.64   42.73</time>
   <energy>
    <i name="alphaZ">   1060.66890660 </i>
    <i name="ewald"> -30374.40996256 </i>
    <i name="hartreedc"> -12979.89527962 </i>
    <i name="XCdc">   1272.97976956 </i>
    <i name="pawpsdc">  43680.93237982 </i>
    <i name="pawaedc"> -42990.88007478 </i>
    <i name="eentropy">      0.00000000 </i>
    <i name="bandstr">  -3986.74825885 </i>
    <i name="atom">  44026.03258983 </i>
    <i name="e_fr_energy">   -291.31993001 </i>
    <i name="e_wo_entrp">   -291.31993001 </i>
    <i name="e_0_energy">   -291.31993001 </i>
   </energy>
  </scstep>
  <scstep>
   <time name="dav">   46.53   47.09</time>
   <time name="total">   47.06   47.64</time>
   <energy>
    <i name="e_fr_energy">   -291.37043828 </i>
    <i name="e_wo_entrp">   -291.37043828 </i>
    <i name="e_0_energy">   -291.37043828 </i>
   </energy>
  </scstep>
  <scstep>
   <time name="dav">   65.10   65.25</time>
   <time name="total">   65.62   65.80</time>
   <energy>
    <i name="e_fr_energy">   -291.36991085 </i>
    <i name="e_wo_entrp">   -291.36991085 </i>
    <i name="e_0_energy">   -291.36991085 </i>
   </energy>
  </scstep>
  <scstep>
   <time name="dav">   49.00   49.41</time>
   <time name="total">   49.53   49.96</time>
   <energy>
    <i name="e_fr_energy">   -291.36855244 </i>
    <i name="e_wo_entrp">   -291.36855244 </i>
    <i name="e_0_energy">   -291.36855244 </i>
   </energy>
  </scstep>
  <scstep>
   <time name="dav">   52.07   52.48</time>
   <time name="total">   52.60   53.05</time>
   <energy>
    <i name="e_fr_energy">   -291.36830294 </i>
    <i name="e_wo_entrp">   -291.36830294 </i>
    <i name="e_0_energy">   -291.36830294 </i>
   </energy>
  </scstep>
  <scstep>
   <time name="dav">   47.64   48.35</time>
   <time name="total">   48.17   48.91</time>
   <energy>
    <i name="e_fr_energy">   -291.36833211 </i>
    <i name="e_wo_entrp">   -291.36833211 </i>
    <i name="e_0_energy">   -291.36833211 </i>
   </energy>
  </scstep>
  <scstep>
   <time name="dav">   57.27   57.80</time>
   <time name="total">   57.81   58.37</time>
   <energy>
    <i name="e_fr_energy">   -291.36832801 </i>
    <i name="e_wo_entrp">   -291.36832801 </i>
    <i name="e_0_energy">   -291.36832801 </i>
   </energy>
  </scstep>
  <scstep>
   <time name="dav">   50.42   50.82</time>
   <time name="total">   50.95   51.36</time>
   <energy>
    <i name="e_fr_energy">   -291.36832596 </i>
    <i name="e_wo_entrp">   -291.36832596 </i>
    <i name="e_0_energy">   -291.36832596 </i>
   </energy>
  </scstep>
  <scstep>
   <time name="dav">   43.75   44.12</time>
   <time name="total">   43.81   44.24</time>
   <energy>
    <i name="alphaZ">   1060.66890660 </i>
    <i name="ewald"> -30374.40996256 </i>
    <i name="hartreedc"> -12979.96802456 </i>
    <i name="XCdc">   1272.97859555 </i>
    <i name="pawpsdc">  43666.14161616 </i>
    <i name="pawaedc"> -42975.81457295 </i>
    <i name="eentropy">      0.00000000 </i>
    <i name="bandstr">  -3986.99747458 </i>
    <i name="atom">  44026.03258983 </i>
    <i name="e_fr_energy">   -291.36832651 </i>
    <i name="e_wo_entrp">   -291.36832651 </i>
    <i name="e_0_energy">   -291.36832651 </i>
   </energy>
  </scstep>
  <structure>
   <crystal>
    <varray name="basis" >
     <v>      11.17850000       0.00000000       0.00000000 </v>
     <v>       0.00000000       9.57460000       0.00000000 </v>
     <v>       0.00000000       0.00000000      11.18240000 </v>
    </varray>
[...]
       <r>    8.8439    0.0000 </r>
       <r>    8.8573    0.0000 </r>
       <r>    8.8770    0.0000 </r>
       <r>    8.8962    0.0000 </r>
       <r>    8.9095    0.0000 </r>
       <r>    8.9906    0.0000 </r>
       <r>    9.0143    0.0000 </r>
       <r>    9.9889    0.0000 </r>
       <r>   10.1061    0.0000 </r>
      </set>
     </set>
    </set>
   </array>
  </eigenvalues>
  <separator name="orbital magnetization" >
   <v name="MAGDIPOLOUT">      0.00000000      0.00000000      0.00000000</v>
  </separator>
  <dos>
   <i name="efermi">      4.37710551 </i>
   <total>
    <array>
     <dimension dim="1">gridpoints</dimension>
     <dimension dim="2">spin</dimension>
     <field>energy</field>
     <field>total</field>
     <field>integrated</field>
     <set>
      <set comment="spin 1">
       <r>   -42.6228     0.0000     0.0000 </r>
       <r>   -42.4387     0.0000     0.0000 </r>
       <r>   -42.2545     0.0000     0.0000 </r>
       <r>   -42.0704     0.0000     0.0000 </r>
       <r>   -41.8863     0.0000     0.0000 </r>
       <r>   -41.7021     0.0000     0.0000 </r>
       <r>   -41.5180     0.0000     0.0000 </r>
       <r>   -41.3339     0.0000     0.0000 </r>
       <r>   -41.1497     0.0000     0.0000 </r>
       <r>   -40.9656     0.0000     0.0000 </r>
       <r>   -40.7815     0.0000     0.0000 </r>
       <r>   -40.5973     0.0000     0.0000 </r>
       <r>   -40.4132     0.0000     0.0000 </r>
       <r>   -40.2291     0.0000     0.0000 </r>
       <r>   -40.0449     0.0000     2.0000 </r>
       <r>   -39.8608     0.0000     6.0000 </r>
       <r>   -39.6767     0.0000     6.0000 </r>
       <r>   -39.4925     0.0000     6.0000 </r>
       <r>   -39.3084     0.0000    12.0000 </r>
       <r>   -39.1243     0.0000    12.0000 </r>
       <r>   -38.9401     0.0000    12.0000 </r>
       <r>   -38.7560     0.0000    12.0000 </r>
       <r>   -38.5719     0.0000    12.0000 </r>
       <r>   -38.3877     0.0000    12.0000 </r>
       <r>   -38.2036     0.0000    12.0000 </r>
       <r>   -38.0195     0.0000    12.0000 </r>
       <r>   -37.8353     0.0000    12.0000 </r>
       <r>   -37.6512     0.0000    12.0000 </r>
       <r>   -37.4671     0.0000    12.0000 </r>
       <r>   -37.2829     0.0000    12.0000 </r>
       <r>   -37.0988     0.0000    12.0000 </r>
       <r>   -36.9147     0.0000    12.0000 </r>
       <r>   -36.7305     0.0000    12.0000 </r>
       <r>   -36.5464     0.0000    12.0000 </r>
       <r>   -36.3623     0.0000    12.0000 </r>
       <r>   -36.1781     0.0000    12.0000 </r>
       <r>   -35.9940     0.0000    12.0000 </r>
       <r>   -35.8099     0.0000    12.0000 </r>
       <r>   -35.6257     0.0000    12.0000 </r>
       <r>   -35.4416     0.0000    12.0000 </r>
       <r>   -35.2575     0.0000    12.0000 </r>
       <r>   -35.0733     0.0000    12.0000 </r>
       <r>   -34.8892     0.0000    12.0000 </r>
       <r>   -34.7051     0.0000    12.0000 </r>
       <r>   -34.5209     0.0000    12.0000 </r>
       <r>   -34.3368     0.0000    12.0000 </r>
       <r>   -34.1527     0.0000    12.0000 </r>
       <r>   -33.9685     0.0000    12.0000 </r>
       <r>   -33.7844     0.0000    12.0000 </r>
       <r>   -33.6003     0.0000    12.0000 </r>
       <r>   -33.4161     0.0000    12.0000 </r>
       <r>   -33.2320     0.0000    12.0000 </r>
       <r>   -33.0479     0.0000    12.0000 </r>
       <r>   -32.8637     0.0000    12.0000 </r>
       <r>   -32.6796     0.0000    12.0000 </r>
       <r>   -32.4955     0.0000    12.0000 </r>
       <r>   -32.3114     0.0000    12.0000 </r>
       <r>   -32.1272     0.0000    12.0000 </r>
       <r>   -31.9431     0.0000    12.0000 </r>
       <r>   -31.7590     0.0000    12.0000 </r>
       <r>   -31.5748     0.0000    12.0000 </r>
       <r>   -31.3907     0.0000    12.0000 </r>
       <r>   -31.2066     0.0000    12.0000 </r>
       <r>   -31.0224     0.0000    12.0000 </r>
       <r>   -30.8383     0.0000    12.0000 </r>
       <r>   -30.6542     0.0000    12.0000 </r>
       <r>   -30.4700     0.0000    12.0000 </r>
       <r>   -30.2859     0.0000    12.0000 </r>
       <r>   -30.1018     0.0000    12.0000 </r>
       <r>   -29.9176     0.0000    12.0000 </r>
       <r>   -29.7335     0.0000    12.0000 </r>
       <r>   -29.5494     0.0000    12.0000 </r>
       <r>   -29.3652     0.0000    12.0000 </r>
       <r>   -29.1811     0.0000    12.0000 </r>
       <r>   -28.9970     0.0000    12.0000 </r>
       <r>   -28.8128     0.0000    12.0000 </r>
       <r>   -28.6287     0.0000    12.0000 </r>
       <r>   -28.4446     0.0000    12.0000 </r>
       <r>   -28.2604     0.0000    12.0000 </r>
       <r>   -28.0763     0.0000    12.0000 </r>
       <r>   -27.8922     0.0000    12.0000 </r>
       <r>   -27.7080     0.0000    12.0000 </r>
       <r>   -27.5239     0.0000    12.0000 </r>
       <r>   -27.3398     0.0000    12.0000 </r>
       <r>   -27.1556     0.0000    12.0000 </r>
       <r>   -26.9715     0.0000    12.0000 </r>
       <r>   -26.7874     0.0000    12.0000 </r>
       <r>   -26.6032     0.0000    12.0000 </r>
       <r>   -26.4191     0.0000    12.0000 </r>
       <r>   -26.2350     0.0000    12.0000 </r>
       <r>   -26.0508     0.0000    12.0000 </r>
       <r>   -25.8667     0.0000    12.0000 </r>
       <r>   -25.6826     0.0000    12.0000 </r>
       <r>   -25.4984     0.0000    12.0000 </r>
       <r>   -25.3143     0.0000    12.0000 </r>
       <r>   -25.1302     0.0000    12.0000 </r>
       <r>   -24.9460     0.0000    12.0000 </r>
       <r>   -24.7619     0.0000    12.0000 </r>
       <r>   -24.5778     0.0000    12.0000 </r>
       <r>   -24.3936     0.0000    12.0000 </r>
       <r>   -24.2095     0.0000    12.0000 </r>
       <r>   -24.0254     0.0000    12.0000 </r>
       <r>   -23.8412     0.0000    12.0000 </r>
       <r>   -23.6571     0.0000    12.0000 </r>
       <r>   -23.4730     0.0000    12.0000 </r>
       <r>   -23.2888     0.0000    12.0000 </r>
       <r>   -23.1047     0.0000    12.0000 </r>
       <r>   -22.9206     0.0000    12.0000 </r>
       <r>   -22.7364     0.0000    12.0000 </r>
       <r>   -22.5523     0.0000    12.0000 </r>
       <r>   -22.3682     0.0000    12.0000 </r>
       <r>   -22.1840     0.0000    12.0000 </r>
       <r>   -21.9999     0.0000    12.0000 </r>
       <r>   -21.8158     0.0000    12.0000 </r>
       <r>   -21.6316     0.0000    12.0000 </r>
       <r>   -21.4475     0.0000    12.0000 </r>
       <r>   -21.2634     0.0000    12.0000 </r>
       <r>   -21.0793     0.0000    12.0000 </r>
       <r>   -20.8951     0.0000    12.0000 </r>
       <r>   -20.7110     0.0000    12.0000 </r>
       <r>   -20.5269     0.0000    12.0000 </r>
       <r>   -20.3427     0.0000    12.0000 </r>
       <r>   -20.1586     0.0000    12.0000 </r>
       <r>   -19.9745     0.0000    12.0000 </r>
       <r>   -19.7903     0.0000    12.0000 </r>
       <r>   -19.6062     0.0000    12.0000 </r>
       <r>   -19.4221     0.0000    12.0000 </r>
       <r>   -19.2379     0.0000    12.0000 </r>
       <r>   -19.0538     0.0000    12.0000 </r>
       <r>   -18.8697     0.0000    12.0000 </r>
       <r>   -18.6855     0.0000    64.0000 </r>
       <r>   -18.5014     0.0000   148.0000 </r>
       <r>   -18.3173     0.0000   168.0000 </r>
       <r>   -18.1331     0.0000   172.0000 </r>
       <r>   -17.9490     0.0000   172.0000 </r>
       <r>   -17.7649     0.0000   172.0000 </r>
       <r>   -17.5807     0.0000   172.0000 </r>
       <r>   -17.3966     0.0000   172.0000 </r>
       <r>   -17.2125     0.0000   172.0000 </r>
       <r>   -17.0283     0.0000   172.0000 </r>
       <r>   -16.8442     0.0000   172.0000 </r>
       <r>   -16.6601     0.0000   172.0000 </r>
       <r>   -16.4759     0.0000   172.0000 </r>
       <r>   -16.2918     0.0000   172.0000 </r>
       <r>   -16.1077     0.0000   172.0000 </r>
       <r>   -15.9235     0.0000   172.0000 </r>
       <r>   -15.7394     0.0000   172.0000 </r>
       <r>   -15.5553     0.0000   172.0000 </r>
       <r>   -15.3711     0.0000   172.0000 </r>
       <r>   -15.1870     0.0000   172.0000 </r>
       <r>   -15.0029     0.0000   172.0000 </r>
       <r>   -14.8187     0.0000   172.0000 </r>
       <r>   -14.6346     0.0000   172.0000 </r>
       <r>   -14.4505     0.0000   172.0000 </r>
       <r>   -14.2663     0.0000   172.0000 </r>
       <r>   -14.0822     0.0000   172.0000 </r>
       <r>   -13.8981     0.0000   172.0000 </r>
       <r>   -13.7139     0.0000   172.0000 </r>
       <r>   -13.5298     0.0000   172.0000 </r>
       <r>   -13.3457     0.0000   172.0000 </r>
       <r>   -13.1615     0.0000   174.0000 </r>
       <r>   -12.9774    30.5582   177.9856 </r>
       <r>   -12.7933     0.2188   188.0000 </r>
       <r>   -12.6091     0.0000   198.0000 </r>
       <r>   -12.4250     0.0000   204.0000 </r>
       <r>   -12.2409     0.0000   204.0000 </r>
       <r>   -12.0567     0.0000   204.0000 </r>
       <r>   -11.8726     0.0000   204.0000 </r>
       <r>   -11.6885     0.0000   204.0000 </r>
       <r>   -11.5043     0.0000   204.0000 </r>
       <r>   -11.3202     0.0000   204.0000 </r>
       <r>   -11.1361     0.0000   204.0000 </r>
       <r>   -10.9519     0.0000   204.0000 </r>
       <r>   -10.7678     0.0000   204.0000 </r>
       <r>   -10.5837     0.0000   204.0000 </r>
       <r>   -10.3995     0.0000   204.0000 </r>
       <r>   -10.2154     0.0000   204.0000 </r>
       <r>   -10.0313     0.0000   204.0000 </r>
       <r>    -9.8472     0.0000   204.0000 </r>
       <r>    -9.6630     0.0000   204.0000 </r>
       <r>    -9.4789     0.0000   204.0000 </r>
       <r>    -9.2948     4.8760   204.1877 </r>
       <r>    -9.1106    21.0413   206.0397 </r>
       <r>    -8.9265     0.0000   208.0000 </r>
       <r>    -8.7424    13.5052   210.9271 </r>
       <r>    -8.5582    16.8137   212.9227 </r>
       <r>    -8.3741    17.5479   217.8997 </r>
       <r>    -8.1900    12.1344   220.3126 </r>
       <r>    -8.0058    22.1822   225.3688 </r>
       <r>    -7.8217    21.1785   229.3451 </r>
       <r>    -7.6376    18.8868   232.7737 </r>
       <r>    -7.4534     6.5895   235.8065 </r>
       <r>    -7.2693     0.0000   236.0000 </r>
       <r>    -7.0852     0.0000   236.0000 </r>
       <r>    -6.9010     0.0000   236.0000 </r>
       <r>    -6.7169     0.0000   236.0000 </r>
       <r>    -6.5328     0.0000   236.0000 </r>
       <r>    -6.3486     3.4354   236.1249 </r>
       <r>    -6.1645    20.1286   238.2071 </r>
       <r>    -5.9804    21.0811   243.0345 </r>
       <r>    -5.7962    30.2519   246.5466 </r>
       <r>    -5.6121    25.3915   251.4483 </r>
       <r>    -5.4280    20.3652   255.5922 </r>
       <r>    -5.2438    12.8876   258.7833 </r>
       <r>    -5.0597     2.5159   260.0947 </r>
       <r>    -4.8756     8.2713   261.1326 </r>
       <r>    -4.6914    10.3771   262.7938 </r>
       <r>    -4.5073     5.8533   264.6260 </r>
       <r>    -4.3232     7.0580   265.7012 </r>
       <r>    -4.1390     5.8796   267.0451 </r>
       <r>    -3.9549     1.9814   267.7538 </r>
       <r>    -3.7708     0.5692   267.9708 </r>
       <r>    -3.5866     0.0000   268.0000 </r>
       <r>    -3.4025     0.0000   268.0000 </r>
       <r>    -3.2184     0.0000   268.0000 </r>
       <r>    -3.0342     0.0000   268.0000 </r>
       <r>    -2.8501     0.0000   268.0000 </r>
       <r>    -2.6660     0.0000   268.0000 </r>
       <r>    -2.4818     0.0000   268.0000 </r>
       <r>    -2.2977     0.0000   268.0000 </r>
       <r>    -2.1136     0.0000   268.0000 </r>
       <r>    -1.9294     0.0000   268.0000 </r>
       <r>    -1.7453     0.0000   268.0000 </r>
       <r>    -1.5612     0.0000   268.0000 </r>
       <r>    -1.3770     0.8735   268.0211 </r>
       <r>    -1.1929     8.7634   268.8097 </r>
       <r>    -1.0088     9.4011   270.4675 </r>
       <r>    -0.8246    13.3673   272.8249 </r>
       <r>    -0.6405     7.6646   274.6930 </r>
       <r>    -0.4564    10.5088   275.9946 </r>
       <r>    -0.2722    26.8653   279.6292 </r>
       <r>    -0.0881    42.1962   285.7702 </r>
       <r>     0.0960    37.1939   292.9134 </r>
       <r>     0.2802    45.1785   299.7790 </r>
       <r>     0.4643    36.9064   307.5414 </r>
       <r>     0.6484    39.9618   314.5733 </r>
       <r>     0.8325    43.4726   321.0062 </r>
       <r>     1.0167    40.5842   329.6705 </r>
       <r>     1.2008    40.6064   337.6234 </r>
       <r>     1.3849    46.6716   345.7479 </r>
       <r>     1.5691    48.4507   354.4503 </r>
       <r>     1.7532    49.9673   362.6849 </r>
       <r>     1.9373    46.8280   371.9606 </r>
       <r>     2.1215    38.6262   379.8499 </r>
       <r>     2.3056    46.8249   387.2029 </r>
       <r>     2.4897    65.8438   397.8689 </r>
       <r>     2.6739    64.7967   409.0060 </r>
       <r>     2.8580    81.7273   422.6536 </r>
       <r>     3.0421    55.1923   436.4199 </r>
       <r>     3.2263    26.9086   444.2038 </r>
       <r>     3.4104    47.5918   449.5681 </r>
       <r>     3.5945    16.4082   455.4230 </r>
       <r>     3.7787    10.3344   457.7976 </r>
       <r>     3.9628     5.8408   459.2870 </r>
       <r>     4.1469     1.3400   459.9481 </r>
       <r>     4.3311     0.0000   460.0000 </r>
       <r>     4.5152     0.0000   460.0000 </r>
       <r>     4.6993     0.0000   460.0000 </r>
       <r>     4.8835     0.0000   460.0000 </r>
       <r>     5.0676     0.0513   460.0006 </r>
       <r>     5.2517     2.6781   460.1898 </r>
       <r>     5.4359     7.0304   461.0836 </r>
       <r>     5.6200    10.2382   462.7400 </r>
       <r>     5.8041    29.1284   465.7426 </r>
       <r>     5.9883    13.5343   469.0647 </r>
       <r>     6.1724    11.9570   471.3686 </r>
       <r>     6.3565    13.0264   473.6299 </r>
       <r>     6.5407    14.7818   476.1904 </r>
       <r>     6.7248    16.5307   479.0724 </r>
       <r>     6.9089    18.7056   482.3087 </r>
       <r>     7.0931    24.5467   486.2275 </r>
       <r>     7.2772    33.4357   491.4470 </r>
       <r>     7.4613    34.6161   498.4374 </r>
       <r>     7.6455    34.0466   504.2578 </r>
       <r>     7.8296    35.6706   510.8888 </r>
       <r>     8.0137    38.1873   518.2700 </r>
       <r>     8.1979    22.9504   523.9668 </r>
       <r>     8.3820    18.7337   527.6535 </r>
       <r>     8.5661    23.9467   531.3527 </r>
       <r>     8.7503    25.8029   536.4996 </r>
       <r>     8.9344    45.4266   543.3624 </r>
       <r>     9.1185    20.9240   550.0775 </r>
       <r>     9.3027    12.5527   552.7310 </r>
       <r>     9.4868    13.2698   555.0607 </r>
       <r>     9.6709     7.8810   556.8168 </r>
       <r>     9.8551     9.8067   558.8198 </r>
       <r>    10.0392     2.3696   559.9378 </r>
       <r>    10.2233     0.0000   560.0000 </r>
       <r>    10.4075     0.0000   560.0000 </r>
       <r>    10.5916     0.0000   560.0000 </r>
       <r>    10.7757     0.0000   560.0000 </r>
       <r>    10.9599     0.0000   560.0000 </r>
       <r>    11.1440     0.0000   560.0000 </r>
       <r>    11.3281     0.0000   560.0000 </r>
       <r>    11.5123     0.0000   560.0000 </r>
       <r>    11.6964     0.0000   560.0000 </r>
       <r>    11.8805     0.0000   560.0000 </r>
       <r>    12.0646     0.0000   560.0000 </r>
       <r>    12.2488     0.0000   560.0000 </r>
       <r>    12.4329     0.0000   560.0000 </r>
       <r>    12.6170     0.0000   560.0000 </r>
      </set>
     </set>
    </array>
   </total>
  </dos>
 </calculation>
 <structure name="finalpos" >
  <crystal>
   <varray name="basis" >
    <v>      11.17850000       0.00000000       0.00000000 </v>
    <v>       0.00000000       9.57460000       0.00000000 </v>
    <v>       0.00000000       0.00000000      11.18240000 </v>
   </varray>
   <i name="volume">   1196.84853820 </i>
   <varray name="rec_basis" >
    <v>       0.08945744       0.00000000       0.00000000 </v>
    <v>       0.00000000       0.10444301       0.00000000 </v>
    <v>       0.00000000       0.00000000       0.08942624 </v>
   </varray>
  </crystal>
  <varray name="positions" >
   <v>       0.36679371      -0.00069693       0.43581766 </v>
   <v>       0.38150146       0.00152265       0.17972574 </v>
   <v>       0.62521853       0.99987999       0.44690739 </v>
   <v>       0.88364657       0.00078413       0.43570061 </v>
   <v>       0.62482215       0.99986829       0.19049824 </v>
   <v>       0.86812798      -0.00135544       0.17970224 </v>
   <v>       0.12486949       0.99992648       0.20075503 </v>
   <v>       0.12499628       0.99996889       0.92444859 </v>
   <v>       0.37798701       0.00150186       0.69922420 </v>
   <v>       0.62498676       0.99997931       0.92728460 </v>
   <v>       0.87197337      -0.00143408       0.69925904 </v>
   <v>      -0.00118151       0.30156679       0.06244993 </v>
   <v>       0.25120711       0.69841227       0.06250185 </v>
   <v>       0.25113669       0.30019695       0.31426937 </v>
   <v>       0.50089612       0.70440814       0.31348161 </v>
   <v>       0.49881386       0.29650691       0.06342150 </v>
   <v>       0.75124696       0.70339739       0.06346736 </v>
   <v>       0.74907320       0.29560742       0.31348640 </v>
   <v>      -0.00121142       0.69976395       0.31427759 </v>
   <v>       0.00219726       0.28939168       0.56185329 </v>
   <v>       0.24780043       0.71069323       0.56180977 </v>
   <v>       0.25052908       0.30163089       0.81260135 </v>
   <v>       0.50012636       0.70053140       0.81120909 </v>
   <v>       0.50223516       0.29674238       0.56215238 </v>
   <v>       0.74777831       0.70324575       0.56213397 </v>
   <v>       0.74984933       0.29960080       0.81123099 </v>
   <v>       0.99944895       0.69849601       0.81258932 </v>
   <v>       0.24802138       0.33452270       0.06295607 </v>
   <v>       0.00204788       0.66550867       0.06294865 </v>
   <v>       0.49968754       0.33424078       0.31231330 </v>
   <v>       0.24886605       0.66890045       0.31068229 </v>
   <v>       0.74901419       0.33255558       0.06241029 </v>
   <v>       0.50105096       0.66743863       0.06240281 </v>
   <v>       0.00108461       0.33107806       0.31068327 </v>
   <v>       0.75023056       0.66572787       0.31232418 </v>
   <v>       0.25228246       0.33172747       0.56394895 </v>
   <v>      -0.00222105       0.66823586       0.56393923 </v>
   <v>       0.50007815       0.32937312       0.81352083 </v>
   <v>       0.24929273       0.67055600       0.81375157 </v>
   <v>       0.75055821       0.33502805       0.56309560 </v>
   <v>       0.49949501       0.66494805       0.56307276 </v>
   <v>       0.00063664       0.32949666       0.81372470 </v>
   <v>       0.74985363       0.67068142       0.81353419 </v>
   <v>       0.51985672       0.08040151       0.06459829 </v>
   <v>       0.22494596       0.91686053       0.06923023 </v>
   <v>       0.26006371       0.08029610       0.29521931 </v>
   <v>      -0.01021695       0.91972161       0.29528942 </v>
   <v>       0.02508048       0.08300958       0.06916632 </v>
   <v>       0.73012993       0.91954040       0.06468299 </v>
   <v>       0.74998107       0.07814381       0.31211096 </v>
   <v>       0.50000383       0.92186586       0.31213641 </v>
   <v>       0.48150182       0.08243495       0.55920328 </v>
   <v>       0.27979098       0.91434578       0.56791606 </v>
   <v>       0.25119709       0.08318675       0.81285514 </v>
   <v>      -0.00121361       0.91689438       0.81279356 </v>
   <v>       0.97017925       0.08570341       0.56798099 </v>
   <v>       0.76849791       0.91758489       0.55916404 </v>
   <v>       0.74994261       0.08241206       0.81294618 </v>
   <v>       0.50002110       0.91766189       0.81286901 </v>
  </varray>
 </structure>
</modeling>
