<?xml version="1.0" encoding="ISO-8859-1"?>
<modeling>
 <generator>
  <i name="program" type="string">vasp </i>
  <i name="version" type="string">5.4.4.18Apr17-6-g9f103f2a35  </i>
  <i name="subversion" type="string">(build Jul 31 2017 11:33:29) complex            parallel </i>
  <i name="platform" type="string">LinuxIFC </i>
  <i name="date" type="string">2021 09 22 </i>
  <i name="time" type="string">17:51:25 </i>
 </generator>
 <incar>
  <i type="string" name="SYSTEM"> La2O2S</i>
  <i type="string" name="PREC">normal</i>
  <i type="int" name="NELMIN">     4</i>
  <i type="int" name="IBRION">     2</i>
  <i type="int" name="NFREE">    10</i>
  <i name="EDIFF">      0.00000100</i>
  <i name="EDIFFG">     -0.01000000</i>
  <i type="int" name="NSW">   200</i>
  <i type="int" name="ISIF">     3</i>
  <i name="ENCUT">    600.00000000</i>
  <i name="ENAUG">    900.00000000</i>
  <i type="int" name="ISMEAR">    -5</i>
  <i type="logical" name="LWAVE"> F  </i>
  <i type="logical" name="LCHARG"> F  </i>
  <v type="int" name="KPOINT_BSE">    -1     0     0     0</v>
 </incar>
 <structure name="primitive_cell" >
  <crystal>
   <varray name="basis" >
    <v>      11.17850000       0.00000000       0.00000000 </v>
    <v>       0.00000000       9.57460000       0.00000000 </v>
    <v>       0.00000000       0.00000000      11.18240000 </v>
   </varray>
   <i name="volume">   1196.84853820 </i>
   <varray name="rec_basis" >
    <v>       0.08945744       0.00000000       0.00000000 </v>
    <v>       0.00000000       0.10444301       0.00000000 </v>
    <v>       0.00000000       0.00000000       0.08942624 </v>
   </varray>
  </crystal>
  <varray name="positions" >
   <v>       0.37461000       0.00017000       0.18687000 </v>
   <v>       0.24987000      -0.07798000       0.06246000 </v>
   <v>       0.49987000       0.07798000       0.06246000 </v>
   <v>       0.25013000       0.07798000       0.31246000 </v>
   <v>      -0.49987000      -0.07798000       0.31246000 </v>
   <v>      -0.37539000      -0.00016000       0.18687000 </v>
   <v>       0.37539000       0.00017000      -0.06313000 </v>
   <v>       0.25013000      -0.29519000       0.06281000 </v>
   <v>      -0.49987000       0.29519000       0.06281000 </v>
   <v>       0.24987000       0.29519000       0.31282000 </v>
   <v>       0.49987000      -0.29519000       0.31282000 </v>
   <v>       0.25005000       0.32677000       0.06286000 </v>
   <v>      -0.49995000      -0.32677000       0.06286000 </v>
   <v>       0.24995000      -0.32677000       0.31286000 </v>
   <v>       0.49995000       0.32677000       0.31286000 </v>
   <v>       0.25013000       0.07798000      -0.18754000 </v>
   <v>      -0.00013000       0.07798000       0.06246000 </v>
   <v>       0.00013000      -0.07798000       0.31246000 </v>
   <v>      -0.49987000      -0.07798000      -0.18754000 </v>
   <v>      -0.25013000      -0.07798000       0.06246000 </v>
   <v>       0.24987000      -0.07798000      -0.43754000 </v>
   <v>      -0.24987000       0.07798000       0.31246000 </v>
   <v>       0.49987000       0.07798000      -0.43754000 </v>
   <v>       0.24987000       0.29519000      -0.18718000 </v>
   <v>       0.00013000       0.29519000       0.06281000 </v>
   <v>       0.49987000      -0.29519000      -0.18718000 </v>
   <v>      -0.00013000      -0.29519000       0.31282000 </v>
   <v>      -0.24987000      -0.29519000       0.06281000 </v>
   <v>      -0.25013000       0.29519000       0.31282000 </v>
   <v>       0.25013000      -0.29519000      -0.43719000 </v>
   <v>      -0.49987000       0.29519000      -0.43719000 </v>
   <v>       0.24995000      -0.32677000      -0.18714000 </v>
   <v>       0.49995000       0.32677000      -0.18714000 </v>
   <v>       0.00005000      -0.32677000       0.06286000 </v>
   <v>      -0.00005000       0.32677000       0.31286000 </v>
   <v>      -0.24995000       0.32677000       0.06286000 </v>
   <v>      -0.25005000      -0.32677000       0.31286000 </v>
   <v>       0.25005000       0.32677000      -0.43714000 </v>
   <v>      -0.49995000      -0.32677000      -0.43714000 </v>
   <v>      -0.12539000       0.00017000       0.18687000 </v>
   <v>       0.37461000       0.00017000      -0.31313000 </v>
   <v>       0.00013000      -0.07798000      -0.18754000 </v>
   <v>      -0.24987000       0.07798000      -0.18754000 </v>
   <v>      -0.00013000       0.07798000      -0.43754000 </v>
   <v>      -0.25013000      -0.07798000      -0.43754000 </v>
   <v>      -0.12461000       0.00017000       0.43687000 </v>
   <v>       0.12461000      -0.00016000      -0.31313000 </v>
   <v>      -0.37539000      -0.00016000      -0.31313000 </v>
   <v>      -0.00013000      -0.29519000      -0.18718000 </v>
   <v>      -0.25013000       0.29519000      -0.18718000 </v>
   <v>       0.00013000       0.29519000      -0.43719000 </v>
   <v>      -0.24987000      -0.29519000      -0.43719000 </v>
   <v>      -0.00005000       0.32677000      -0.18714000 </v>
   <v>      -0.25005000      -0.32677000      -0.18714000 </v>
   <v>       0.00005000      -0.32677000      -0.43714000 </v>
   <v>      -0.24995000       0.32677000      -0.43714000 </v>
   <v>      -0.12539000       0.00017000      -0.31313000 </v>
  </varray>
 </structure>
 <varray name="primitive_index" >
  <v type="int" >        1 </v>
  <v type="int" >       43 </v>
  <v type="int" >       42 </v>
  <v type="int" >       44 </v>
  <v type="int" >       49 </v>
  <v type="int" >        2 </v>
  <v type="int" >        5 </v>
  <v type="int" >       11 </v>
  <v type="int" >       14 </v>
  <v type="int" >       12 </v>
  <v type="int" >       13 </v>
  <v type="int" >       26 </v>
  <v type="int" >       31 </v>
  <v type="int" >       29 </v>
  <v type="int" >       28 </v>
  <v type="int" >       52 </v>
  <v type="int" >       46 </v>
  <v type="int" >       45 </v>
  <v type="int" >       57 </v>
  <v type="int" >       47 </v>
  <v type="int" >       51 </v>
  <v type="int" >       48 </v>
  <v type="int" >       50 </v>
  <v type="int" >       20 </v>
  <v type="int" >       10 </v>
  <v type="int" >       21 </v>
  <v type="int" >       17 </v>
  <v type="int" >       15 </v>
  <v type="int" >       16 </v>
  <v type="int" >       19 </v>
  <v type="int" >       22 </v>
  <v type="int" >       37 </v>
  <v type="int" >       36 </v>
  <v type="int" >       27 </v>
  <v type="int" >       32 </v>
  <v type="int" >       30 </v>
  <v type="int" >       33 </v>
  <v type="int" >       34 </v>
  <v type="int" >       39 </v>
  <v type="int" >        4 </v>
  <v type="int" >        7 </v>
  <v type="int" >       53 </v>
  <v type="int" >       56 </v>
  <v type="int" >       54 </v>
  <v type="int" >       55 </v>
  <v type="int" >        3 </v>
  <v type="int" >        6 </v>
  <v type="int" >        8 </v>
  <v type="int" >       25 </v>
  <v type="int" >       24 </v>
  <v type="int" >       18 </v>
  <v type="int" >       23 </v>
  <v type="int" >       40 </v>
  <v type="int" >       41 </v>
  <v type="int" >       35 </v>
  <v type="int" >       38 </v>
  <v type="int" >        9 </v>
 </varray>
 <kpoints>
  <generation param="Gamma">
   <v type="int" name="divisions">       2        2        2 </v>
   <v name="usershift">      0.00000000       0.00000000       0.00000000 </v>
   <v name="genvec1">      0.50000000       0.00000000       0.00000000 </v>
   <v name="genvec2">      0.00000000       0.50000000       0.00000000 </v>
   <v name="genvec3">      0.00000000       0.00000000       0.50000000 </v>
   <v name="shift">      0.00000000       0.00000000       0.00000000 </v>
  </generation>
  <varray name="kpointlist" >
   <v>       0.00000000       0.00000000       0.00000000 </v>
   <v>       0.50000000       0.00000000       0.00000000 </v>
   <v>       0.00000000       0.50000000       0.00000000 </v>
   <v>       0.50000000       0.50000000       0.00000000 </v>
   <v>       0.00000000       0.00000000       0.50000000 </v>
   <v>       0.50000000       0.00000000       0.50000000 </v>
   <v>       0.00000000       0.50000000       0.50000000 </v>
   <v>       0.50000000       0.50000000       0.50000000 </v>
  </varray>
  <varray name="weights" >
   <v>       0.12500000 </v>
   <v>       0.12500000 </v>
   <v>       0.12500000 </v>
   <v>       0.12500000 </v>
   <v>       0.12500000 </v>
   <v>       0.12500000 </v>
   <v>       0.12500000 </v>
   <v>       0.12500000 </v>
  </varray>
  <varray name="tetrahedronlist"  type="int" >
   <v type="int" >        2        1        2        4        5 </v>
   <v type="int" >        2        1        3        4        5 </v>
   <v type="int" >        2        3        4        5        7 </v>
   <v type="int" >        2        2        4        5        6 </v>
   <v type="int" >        2        4        5        6        8 </v>
   <v type="int" >        2        4        5        7        8 </v>
   <v type="int" >        2        1        2        3        6 </v>
   <v type="int" >        2        2        3        4        6 </v>
   <v type="int" >        2        3        4        6        8 </v>
   <v type="int" >        2        1        3        5        6 </v>
   <v type="int" >        2        3        5        6        7 </v>
   <v type="int" >        2        3        6        7        8 </v>
   <v type="int" >        2        2        3        4        7 </v>
   <v type="int" >        2        1        2        3        7 </v>
   <v type="int" >        2        1        2        5        7 </v>
   <v type="int" >        2        2        4        7        8 </v>
   <v type="int" >        2        2        6        7        8 </v>
   <v type="int" >        2        2        5        6        7 </v>
   <v type="int" >        2        1        3        4        8 </v>
   <v type="int" >        2        1        2        4        8 </v>
   <v type="int" >        2        1        2        6        8 </v>
   <v type="int" >        2        1        3        7        8 </v>
   <v type="int" >        2        1        5        7        8 </v>
   <v type="int" >        2        1        5        6        8 </v>
  </varray>
  <i name="volumeweight">      0.02083333 </i>
 </kpoints>
 <parameters>
  <separator name="general" >
   <i type="string" name="SYSTEM">La2O2S</i>
   <i type="logical" name="LCOMPAT"> F  </i>
  </separator>
  <separator name="electronic" >
   <i type="string" name="PREC">normal</i>
   <i name="ENMAX">    600.00000000</i>
   <i name="ENAUG">    900.00000000</i>
   <i name="EDIFF">      0.00000100</i>
   <i type="int" name="IALGO">    38</i>
   <i type="int" name="IWAVPR">    11</i>
   <i type="int" name="NBANDS">   280</i>
   <i name="NELECT">    452.00000000</i>
   <i type="int" name="TURBO">     0</i>
   <i type="int" name="IRESTART">     0</i>
   <i type="int" name="NREBOOT">     0</i>
   <i type="int" name="NMIN">     0</i>
   <i name="EREF">      0.00000000</i>
   <separator name="electronic smearing" >
    <i type="int" name="ISMEAR">    -5</i>
    <i name="SIGMA">      0.20000000</i>
    <i name="KSPACING">      0.50000000</i>
    <i type="logical" name="KGAMMA"> T  </i>
   </separator>
   <separator name="electronic projectors" >
    <i type="logical" name="LREAL"> F  </i>
    <v name="ROPT">      0.00000000      0.00000000      0.00000000      0.00000000      0.00000000</v>
    <i type="int" name="LMAXPAW">  -100</i>
    <i type="int" name="LMAXMIX">     2</i>
    <i type="logical" name="NLSPLINE"> F  </i>
   </separator>
   <separator name="electronic startup" >
    <i type="int" name="ISTART">     0</i>
    <i type="int" name="ICHARG">     2</i>
    <i type="int" name="INIWAV">     1</i>
   </separator>
   <separator name="electronic spin" >
    <i type="int" name="ISPIN">     1</i>
    <i type="logical" name="LNONCOLLINEAR"> F  </i>
    <v name="MAGMOM">      1.00000000      1.00000000      1.00000000      1.00000000      1.00000000      1.00000000      1.00000000      1.00000000      1.00000000      1.00000000      1.00000000      1.00000000      1.00000000      1.00000000      1.00000000      1.00000000      1.00000000      1.00000000      1.00000000      1.00000000
      1.00000000      1.00000000      1.00000000      1.00000000      1.00000000      1.00000000      1.00000000      1.00000000      1.00000000      1.00000000      1.00000000      1.00000000      1.00000000      1.00000000      1.00000000      1.00000000      1.00000000      1.00000000      1.00000000      1.00000000
      1.00000000      1.00000000      1.00000000      1.00000000      1.00000000      1.00000000      1.00000000      1.00000000      1.00000000      1.00000000      1.00000000      1.00000000      1.00000000      1.00000000      1.00000000      1.00000000      1.00000000</v>
    <i name="NUPDOWN">     -1.00000000</i>
    <i type="logical" name="LSORBIT"> F  </i>
    <v name="SAXIS">      0.00000000      0.00000000      1.00000000</v>
    <i type="logical" name="LSPIRAL"> F  </i>
    <v name="QSPIRAL">      0.00000000      0.00000000      0.00000000</v>
    <i type="logical" name="LZEROZ"> F  </i>
   </separator>
   <separator name="electronic exchange-correlation" >
    <i type="logical" name="LASPH"> F  </i>
    <i type="logical" name="LMETAGGA"> F  </i>
   </separator>
   <separator name="electronic convergence" >
    <i type="int" name="NELM">    60</i>
    <i type="int" name="NELMDL">    -5</i>
    <i type="int" name="NELMIN">     4</i>
    <i name="ENINI">    600.00000000</i>
    <separator name="electronic convergence detail" >
     <i type="logical" name="LDIAG"> T  </i>
     <i type="logical" name="LSUBROT"> F  </i>
     <i name="WEIMIN">      0.00100000</i>
     <i name="EBREAK">      0.00000000</i>
     <i name="DEPER">      0.30000000</i>
     <i type="int" name="NRMM">     4</i>
     <i name="TIME">      0.40000000</i>
    </separator>
   </separator>
   <separator name="electronic mixer" >
    <i name="AMIX">      0.40000000</i>
    <i name="BMIX">      1.00000000</i>
    <i name="AMIN">      0.10000000</i>
    <i name="AMIX_MAG">      1.60000000</i>
    <i name="BMIX_MAG">      1.00000000</i>
    <separator name="electronic mixer details" >
     <i type="int" name="IMIX">     4</i>
     <i type="logical" name="MIXFIRST"> F  </i>
     <i type="int" name="MAXMIX">   -45</i>
     <i name="WC">    100.00000000</i>
     <i type="int" name="INIMIX">     1</i>
     <i type="int" name="MIXPRE">     1</i>
     <i type="int" name="MREMOVE">     5</i>
    </separator>
   </separator>
   <separator name="electronic dipolcorrection" >
    <i type="logical" name="LDIPOL"> F  </i>
    <i type="logical" name="LMONO"> F  </i>
    <i type="int" name="IDIPOL">     0</i>
    <i name="EPSILON">      1.00000000</i>
    <v name="DIPOL">   -100.00000000   -100.00000000   -100.00000000</v>
    <i name="EFIELD">      0.00000000</i>
   </separator>
  </separator>
  <separator name="grids" >
   <i type="int" name="NGX">    70</i>
   <i type="int" name="NGY">    60</i>
   <i type="int" name="NGZ">    70</i>
   <i type="int" name="NGXF">   140</i>
   <i type="int" name="NGYF">   120</i>
   <i type="int" name="NGZF">   140</i>
   <i type="logical" name="ADDGRID"> F  </i>
  </separator>
  <separator name="ionic" >
   <i type="int" name="NSW">   200</i>
   <i type="int" name="IBRION">     2</i>
   <i type="int" name="MDALGO">     0</i>
   <i type="int" name="ISIF">     3</i>
   <i name="PSTRESS">      0.00000000</i>
   <i name="EDIFFG">     -0.01000000</i>
   <i type="int" name="NFREE">    10</i>
   <i name="POTIM">      0.50000000</i>
   <i name="SMASS">     -3.00000000</i>
   <i name="SCALEE">      1.00000000</i>
  </separator>
  <separator name="ionic md" >
   <i name="TEBEG">      0.00010000</i>
   <i name="TEEND">      0.00010000</i>
   <i type="int" name="NBLOCK">     1</i>
   <i type="int" name="KBLOCK">   200</i>
   <i type="int" name="NPACO">   256</i>
   <i name="APACO">     16.00000000</i>
  </separator>
  <separator name="symmetry" >
   <i type="int" name="ISYM">     2</i>
   <i name="SYMPREC">      0.00001000</i>
  </separator>
  <separator name="dos" >
   <i type="int" name="LORBIT">     0</i>
   <v name="RWIGS">     -1.00000000     -1.00000000     -1.00000000     -1.00000000     -1.00000000</v>
   <i type="int" name="NEDOS">   301</i>
   <i name="EMIN">     10.00000000</i>
   <i name="EMAX">    -10.00000000</i>
   <i name="EFERMI">      0.00000000</i>
  </separator>
  <separator name="writing" >
   <i type="int" name="NWRITE">     2</i>
   <i type="logical" name="LWAVE"> F  </i>
   <i type="logical" name="LDOWNSAMPLE"> F  </i>
   <i type="logical" name="LCHARG"> F  </i>
   <i type="logical" name="LPARD"> F  </i>
   <i type="logical" name="LVTOT"> F  </i>
   <i type="logical" name="LVHAR"> F  </i>
   <i type="logical" name="LELF"> F  </i>
   <i type="logical" name="LOPTICS"> F  </i>
   <v name="STM">      0.00000000      0.00000000      0.00000000      0.00000000      0.00000000      0.00000000      0.00000000</v>
  </separator>
  <separator name="performance" >
   <i type="int" name="NPAR">    28</i>
   <i type="int" name="NSIM">     4</i>
   <i type="int" name="NBLK">    -1</i>
   <i type="logical" name="LPLANE"> T  </i>
   <i type="logical" name="LSCALAPACK"> T  </i>
   <i type="logical" name="LSCAAWARE"> F  </i>
   <i type="logical" name="LSCALU"> F  </i>
   <i type="logical" name="LASYNC"> F  </i>
   <i type="logical" name="LORBITALREAL"> F  </i>
  </separator>
  <separator name="miscellaneous" >
   <i type="int" name="IDIOT">     3</i>
   <i type="int" name="ISPECIAL">     0</i>
   <i type="logical" name="LMUSIC"> F  </i>
   <v name="POMASS">      7.01000000     24.30500000    208.98000000     32.06600000     16.00000000</v>
   <v name="DARWINR">      0.00000000      0.00000000      0.00000000      0.00000000      0.00000000</v>
   <v name="DARWINV">      1.00000000      1.00000000      1.00000000      1.00000000      1.00000000</v>
   <i type="logical" name="LCORR"> T  </i>
  </separator>
  <i type="logical" name="GGA_COMPAT"> T  </i>
  <i type="logical" name="LBERRY"> F  </i>
  <i type="int" name="ICORELEVEL">     0</i>
  <i type="logical" name="LDAU"> F  </i>
  <i type="int" name="I_CONSTRAINED_M">     0</i>
  <separator name="electronic exchange-correlation" >
   <i type="string" name="GGA">--</i>
   <i type="int" name="VOSKOWN">     0</i>
   <i type="logical" name="LHFCALC"> F  </i>
   <i type="string" name="PRECFOCK"></i>
   <i type="logical" name="LSYMGRAD"> F  </i>
   <i type="logical" name="LHFONE"> F  </i>
   <i type="logical" name="LRHFCALC"> F  </i>
   <i type="logical" name="LTHOMAS"> F  </i>
   <i type="logical" name="LMODELHF"> F  </i>
   <i name="ENCUT4O">     -1.00000000</i>
   <i type="int" name="EXXOEP">     0</i>
   <i type="int" name="FOURORBIT">     0</i>
   <i name="AEXX">      0.00000000</i>
   <i name="HFALPHA">      0.00000000</i>
   <i name="MCALPHA">      0.00000000</i>
   <i name="ALDAX">      1.00000000</i>
   <i name="AGGAX">      1.00000000</i>
   <i name="ALDAC">      1.00000000</i>
   <i name="AGGAC">      1.00000000</i>
   <i type="int" name="NKREDX">     1</i>
   <i type="int" name="NKREDY">     1</i>
   <i type="int" name="NKREDZ">     1</i>
   <i type="logical" name="SHIFTRED"> F  </i>
   <i type="logical" name="ODDONLY"> F  </i>
   <i type="logical" name="EVENONLY"> F  </i>
   <i type="int" name="LMAXFOCK">     0</i>
   <i type="int" name="NMAXFOCKAE">     0</i>
   <i type="logical" name="LFOCKAEDFT"> F  </i>
   <i name="HFSCREEN">      0.00000000</i>
   <i name="HFSCREENC">      0.00000000</i>
   <i type="int" name="NBANDSGWLOW">     0</i>
  </separator>
  <separator name="vdW DFT" >
   <i type="logical" name="LUSE_VDW"> F  </i>
   <i name="Zab_VDW">     -0.84910000</i>
   <i name="PARAM1">      0.12340000</i>
   <i name="PARAM2">      1.00000000</i>
   <i name="PARAM3">      0.00000000</i>
  </separator>
  <separator name="model GW" >
   <i type="int" name="MODEL_GW">     0</i>
   <i name="MODEL_EPS0">     12.59840567</i>
   <i name="MODEL_ALPHA">      1.00000000</i>
  </separator>
  <separator name="linear response parameters" >
   <i type="logical" name="LEPSILON"> F  </i>
   <i type="logical" name="LRPA"> F  </i>
   <i type="logical" name="LNABLA"> F  </i>
   <i type="logical" name="LVEL"> F  </i>
   <i type="int" name="KINTER">     0</i>
   <i name="CSHIFT">      0.10000000</i>
   <i name="OMEGAMAX">     -1.00000000</i>
   <i name="DEG_THRESHOLD">      0.00200000</i>
   <i name="RTIME">     -0.10000000</i>
   <i name="WPLASMAI">      0.00000000</i>
   <v name="DFIELD">      0.00000000      0.00000000      0.00000000</v>
   <v name="WPLASMA">      0.00000000      0.00000000      0.00000000      0.00000000      0.00000000      0.00000000      0.00000000      0.00000000      0.00000000</v>
  </separator>
  <separator name="orbital magnetization" >
   <i type="logical" name="NUCIND"> F  </i>
   <v name="MAGPOS">      0.00000000      0.00000000      0.00000000</v>
   <i type="logical" name="LNICSALL"> T  </i>
   <i type="logical" name="ORBITALMAG"> F  </i>
   <i type="logical" name="LMAGBLOCH"> F  </i>
   <i type="logical" name="LCHIMAG"> F  </i>
   <i type="logical" name="LGAUGE"> T  </i>
   <i type="int" name="MAGATOM">     0</i>
   <v name="MAGDIPOL">      0.00000000      0.00000000      0.00000000</v>
   <v name="AVECCONST">      0.00000000      0.00000000      0.00000000</v>
  </separator>
  <separator name="response functions" >
   <i type="logical" name="LADDER"> F  </i>
   <i type="logical" name="LRPAFORCE"> F  </i>
   <i type="logical" name="LFXC"> F  </i>
   <i type="logical" name="LHARTREE"> T  </i>
   <i type="int" name="IBSE">     0</i>
   <v type="int" name="KPOINT">    -1     0     0     0</v>
   <i type="logical" name="LTCTE"> F  </i>
   <i type="logical" name="LTETE"> F  </i>
   <i type="logical" name="LTRIPLET"> F  </i>
   <i type="logical" name="LFXCEPS"> F  </i>
   <i type="logical" name="LFXHEG"> F  </i>
   <i type="int" name="NATURALO">     2</i>
   <i type="logical" name="L2ORDER"> F  </i>
   <i type="logical" name="LMP2LT"> F  </i>
   <i type="logical" name="LUSEW"> F  </i>
   <i name="ENCUTGW">     -2.00000000</i>
   <i name="ENCUTGWSOFT">     -2.00000000</i>
   <i name="ENCUTLF">     -1.00000000</i>
   <i type="int" name="LMAXMP2">    -1</i>
   <i name="SCISSOR">      0.00000000</i>
   <i type="int" name="NOMEGA">     0</i>
   <i type="int" name="NOMEGAR">     0</i>
   <i type="int" name="NBANDSGW">    -1</i>
   <i type="int" name="NBANDSO">    -1</i>
   <i type="int" name="NBANDSV">    -1</i>
   <i type="int" name="NELM">     1</i>
   <i type="int" name="NELMHF">     1</i>
   <i type="int" name="DIM">     3</i>
   <i type="int" name="ANTIRES">     0</i>
   <i name="OMEGAMAX">    -30.00000000</i>
   <i name="OMEGAMIN">    -30.00000000</i>
   <i name="OMEGATL">   -200.00000000</i>
   <i type="int" name="OMEGAGRID">   140</i>
   <i name="CSHIFT">     -0.10000000</i>
   <i type="logical" name="SELFENERGY"> F  </i>
   <i type="logical" name="LSPECTRAL"> F  </i>
   <i type="logical" name="LSPECTRALGW"> F  </i>
   <i type="logical" name="LSINGLES"> F  </i>
   <i type="logical" name="LFERMIGW"> F  </i>
   <i type="logical" name="ODDONLYGW"> F  </i>
   <i type="logical" name="EVENONLYGW"> F  </i>
   <i type="int" name="NKREDLFX">     1</i>
   <i type="int" name="NKREDLFY">     1</i>
   <i type="int" name="NKREDLFZ">     1</i>
   <i type="int" name="MAXMEM">  2800</i>
   <i type="int" name="TELESCOPE">     0</i>
   <i type="int" name="TAUPAR">     1</i>
   <i type="int" name="OMEGAPAR">    -1</i>
   <i name="LAMBDA">      1.00000000</i>
  </separator>
  <separator name="External order field" >
   <i name="OFIELD_KAPPA">      0.00000000</i>
   <v name="OFIELD_K">      0.00000000      0.00000000      0.00000000</v>
   <i name="OFIELD_Q6_NEAR">      0.00000000</i>
   <i name="OFIELD_Q6_FAR">      0.00000000</i>
   <i name="OFIELD_A">      0.00000000</i>
  </separator>
 </parameters>
 <atominfo>
  <atoms>      57 </atoms>
  <types>       5 </types>
  <array name="atoms" >
   <dimension dim="1">ion</dimension>
   <field type="string">element</field>
   <field type="int">atomtype</field>
   <set>
    <rc><c>Li</c><c>   1</c></rc>
    <rc><c>Li</c><c>   1</c></rc>
    <rc><c>Mg</c><c>   2</c></rc>
    <rc><c>Mg</c><c>   2</c></rc>
    <rc><c>Mg</c><c>   2</c></rc>
    <rc><c>Mg</c><c>   2</c></rc>
    <rc><c>Mg</c><c>   2</c></rc>
    <rc><c>Mg</c><c>   2</c></rc>
    <rc><c>Mg</c><c>   2</c></rc>
    <rc><c>Bi</c><c>   3</c></rc>
    <rc><c>Bi</c><c>   3</c></rc>
    <rc><c>Bi</c><c>   3</c></rc>
    <rc><c>Bi</c><c>   3</c></rc>
    <rc><c>Bi</c><c>   3</c></rc>
    <rc><c>Bi</c><c>   3</c></rc>
    <rc><c>Bi</c><c>   3</c></rc>
    <rc><c>Bi</c><c>   3</c></rc>
    <rc><c>Bi</c><c>   3</c></rc>
    <rc><c>Bi</c><c>   3</c></rc>
    <rc><c>Bi</c><c>   3</c></rc>
    <rc><c>Bi</c><c>   3</c></rc>
    <rc><c>Bi</c><c>   3</c></rc>
    <rc><c>Bi</c><c>   3</c></rc>
    <rc><c>Bi</c><c>   3</c></rc>
    <rc><c>Bi</c><c>   3</c></rc>
    <rc><c>S </c><c>   4</c></rc>
    <rc><c>S </c><c>   4</c></rc>
    <rc><c>S </c><c>   4</c></rc>
    <rc><c>S </c><c>   4</c></rc>
    <rc><c>S </c><c>   4</c></rc>
    <rc><c>S </c><c>   4</c></rc>
    <rc><c>S </c><c>   4</c></rc>
    <rc><c>S </c><c>   4</c></rc>
    <rc><c>S </c><c>   4</c></rc>
    <rc><c>S </c><c>   4</c></rc>
    <rc><c>S </c><c>   4</c></rc>
    <rc><c>S </c><c>   4</c></rc>
    <rc><c>S </c><c>   4</c></rc>
    <rc><c>S </c><c>   4</c></rc>
    <rc><c>S </c><c>   4</c></rc>
    <rc><c>S </c><c>   4</c></rc>
    <rc><c>O </c><c>   5</c></rc>
    <rc><c>O </c><c>   5</c></rc>
    <rc><c>O </c><c>   5</c></rc>
    <rc><c>O </c><c>   5</c></rc>
    <rc><c>O </c><c>   5</c></rc>
    <rc><c>O </c><c>   5</c></rc>
    <rc><c>O </c><c>   5</c></rc>
    <rc><c>O </c><c>   5</c></rc>
    <rc><c>O </c><c>   5</c></rc>
    <rc><c>O </c><c>   5</c></rc>
    <rc><c>O </c><c>   5</c></rc>
    <rc><c>O </c><c>   5</c></rc>
    <rc><c>O </c><c>   5</c></rc>
    <rc><c>O </c><c>   5</c></rc>
    <rc><c>O </c><c>   5</c></rc>
    <rc><c>O </c><c>   5</c></rc>
   </set>
  </array>
  <array name="atomtypes" >
   <dimension dim="1">type</dimension>
   <field type="int">atomspertype</field>
   <field type="string">element</field>
   <field>mass</field>
   <field>valence</field>
   <field type="string">pseudopotential</field>
   <set>
    <rc><c>   2</c><c>Li</c><c>      7.01000000</c><c>      3.00000000</c><c>  PAW_PBE Li_sv 10Sep2004               </c></rc>
    <rc><c>   7</c><c>Mg</c><c>     24.30500000</c><c>      2.00000000</c><c>  PAW_PBE Mg 13Apr2007                  </c></rc>
    <rc><c>  16</c><c>Bi</c><c>    208.98000000</c><c>     15.00000000</c><c>  PAW_PBE Bi_d 06Sep2000                </c></rc>
    <rc><c>  16</c><c>S </c><c>     32.06600000</c><c>      6.00000000</c><c>  PAW_PBE S 06Sep2000                   </c></rc>
    <rc><c>  16</c><c>O </c><c>     16.00000000</c><c>      6.00000000</c><c>  PAW_PBE O 08Apr2002                   </c></rc>
   </set>
  </array>
 </atominfo>
 <structure name="initialpos" >
  <crystal>
   <varray name="basis" >
    <v>      11.17850000       0.00000000       0.00000000 </v>
    <v>       0.00000000       9.57460000       0.00000000 </v>
    <v>       0.00000000       0.00000000      11.18240000 </v>
   </varray>
   <i name="volume">   1196.84853820 </i>
   <varray name="rec_basis" >
    <v>       0.08945744       0.00000000       0.00000000 </v>
    <v>       0.00000000       0.10444301       0.00000000 </v>
    <v>       0.00000000       0.00000000       0.08942624 </v>
   </varray>
  </crystal>
  <varray name="positions" >
   <v>       0.37461000       0.00017000       0.18687000 </v>
   <v>       0.62461000       0.99984000       0.18687000 </v>
   <v>       0.87539000       0.00017000       0.43687000 </v>
   <v>       0.87461000       0.00017000       0.18687000 </v>
   <v>       0.37539000       0.00017000       0.93687000 </v>
   <v>       0.12461000       0.99984000       0.68687000 </v>
   <v>       0.37461000       0.00017000       0.68687000 </v>
   <v>       0.62461000       0.99984000       0.68687000 </v>
   <v>       0.87461000       0.00017000       0.68687000 </v>
   <v>       0.00013000       0.29519000       0.06281000 </v>
   <v>       0.25013000       0.70481000       0.06281000 </v>
   <v>       0.24987000       0.29519000       0.31282000 </v>
   <v>       0.49987000       0.70481000       0.31282000 </v>
   <v>       0.50013000       0.29519000       0.06281000 </v>
   <v>       0.75013000       0.70481000       0.06281000 </v>
   <v>       0.74987000       0.29519000       0.31282000 </v>
   <v>       0.99987000       0.70481000       0.31282000 </v>
   <v>       0.00013000       0.29519000       0.56281000 </v>
   <v>       0.25013000       0.70481000       0.56281000 </v>
   <v>       0.24987000       0.29519000       0.81282000 </v>
   <v>       0.49987000       0.70481000       0.81282000 </v>
   <v>       0.50013000       0.29519000       0.56281000 </v>
   <v>       0.75013000       0.70481000       0.56281000 </v>
   <v>       0.74987000       0.29519000       0.81282000 </v>
   <v>       0.99987000       0.70481000       0.81282000 </v>
   <v>       0.25005000       0.32677000       0.06286000 </v>
   <v>       0.00005000       0.67323000       0.06286000 </v>
   <v>       0.49995000       0.32677000       0.31286000 </v>
   <v>       0.24995000       0.67323000       0.31286000 </v>
   <v>       0.75005000       0.32677000       0.06286000 </v>
   <v>       0.50005000       0.67323000       0.06286000 </v>
   <v>       0.99995000       0.32677000       0.31286000 </v>
   <v>       0.74995000       0.67323000       0.31286000 </v>
   <v>       0.25005000       0.32677000       0.56286000 </v>
   <v>       0.00005000       0.67323000       0.56286000 </v>
   <v>       0.49995000       0.32677000       0.81286000 </v>
   <v>       0.24995000       0.67323000       0.81286000 </v>
   <v>       0.75005000       0.32677000       0.56286000 </v>
   <v>       0.50005000       0.67323000       0.56286000 </v>
   <v>       0.99995000       0.32677000       0.81286000 </v>
   <v>       0.74995000       0.67323000       0.81286000 </v>
   <v>       0.49987000       0.07798000       0.06246000 </v>
   <v>       0.24987000       0.92202000       0.06246000 </v>
   <v>       0.25013000       0.07798000       0.31246000 </v>
   <v>       0.00013000       0.92202000       0.31246000 </v>
   <v>       0.99987000       0.07798000       0.06246000 </v>
   <v>       0.74987000       0.92202000       0.06246000 </v>
   <v>       0.75013000       0.07798000       0.31246000 </v>
   <v>       0.50013000       0.92202000       0.31246000 </v>
   <v>       0.49987000       0.07798000       0.56246000 </v>
   <v>       0.24987000       0.92202000       0.56246000 </v>
   <v>       0.25013000       0.07798000       0.81246000 </v>
   <v>       0.00013000       0.92202000       0.81246000 </v>
   <v>       0.99987000       0.07798000       0.56246000 </v>
   <v>       0.74987000       0.92202000       0.56246000 </v>
   <v>       0.75013000       0.07798000       0.81246000 </v>
   <v>       0.50013000       0.92202000       0.81246000 </v>
  </varray>
 </structure>
 <calculation>
  <scstep>
   <time name="dav">   60.60   60.60</time>
   <time name="total">   60.68   60.68</time>
   <energy>
    <i name="alphaZ">   1047.62774490 </i>
    <i name="ewald"> -29932.35151445 </i>
    <i name="hartreedc"> -12713.18907343 </i>
    <i name="XCdc">   1099.70941154 </i>
    <i name="pawpsdc">  36446.83583027 </i>
    <i name="pawaedc"> -35618.96860492 </i>
    <i name="eentropy">      0.00000000 </i>
    <i name="bandstr">   1951.65023464 </i>
    <i name="atom">  43261.00331033 </i>
    <i name="e_fr_energy">   5542.31733888 </i>
    <i name="e_wo_entrp">   5542.31733888 </i>
    <i name="e_0_energy">   5542.31733888 </i>
   </energy>
  </scstep>
  <scstep>
   <time name="dav">   61.05   61.05</time>
   <time name="total">   61.06   61.06</time>
   <energy>
    <i name="e_fr_energy">    724.83082236 </i>
    <i name="e_wo_entrp">    724.83082236 </i>
    <i name="e_0_energy">    724.83082236 </i>
   </energy>
  </scstep>
  <scstep>
   <time name="dav">   71.71   71.72</time>
   <time name="total">   71.71   71.72</time>
   <energy>
    <i name="e_fr_energy">   -243.13465256 </i>
    <i name="e_wo_entrp">   -243.13465256 </i>
    <i name="e_0_energy">   -243.13465256 </i>
   </energy>
  </scstep>
  <scstep>
   <time name="dav">   72.89   72.92</time>
   <time name="total">   72.90   72.92</time>
   <energy>
    <i name="e_fr_energy">   -324.51966450 </i>
    <i name="e_wo_entrp">   -324.51966450 </i>
    <i name="e_0_energy">   -324.51966450 </i>
   </energy>
  </scstep>
  <scstep>
   <time name="dav">   90.36   90.39</time>
   <time name="total">   91.07   91.11</time>
   <energy>
    <i name="e_fr_energy">   -329.34314151 </i>
    <i name="e_wo_entrp">   -329.34314151 </i>
    <i name="e_0_energy">   -329.34314151 </i>
   </energy>
  </scstep>
  <scstep>
   <time name="dav">   89.59   89.70</time>
   <time name="total">   90.38   90.49</time>
   <energy>
    <i name="e_fr_energy">   -277.06113864 </i>
    <i name="e_wo_entrp">   -277.06113864 </i>
    <i name="e_0_energy">   -277.06113864 </i>
   </energy>
  </scstep>
  <scstep>
   <time name="dav">   65.14   65.22</time>
   <time name="total">   65.92   66.01</time>
   <energy>
    <i name="e_fr_energy">   -278.32348310 </i>
    <i name="e_wo_entrp">   -278.32348310 </i>
    <i name="e_0_energy">   -278.32348310 </i>
   </energy>
  </scstep>
  <scstep>
   <time name="dav">   79.27   79.40</time>
   <time name="total">   80.06   80.19</time>
   <energy>
    <i name="e_fr_energy">   -277.27271718 </i>
    <i name="e_wo_entrp">   -277.27271718 </i>
    <i name="e_0_energy">   -277.27271718 </i>
   </energy>
  </scstep>
  <scstep>
   <time name="dav">   69.15   69.34</time>
   <time name="total">   69.94   70.13</time>
   <energy>
    <i name="e_fr_energy">   -276.71914457 </i>
    <i name="e_wo_entrp">   -276.71914457 </i>
    <i name="e_0_energy">   -276.71914457 </i>
   </energy>
  </scstep>
  <scstep>
   <time name="dav">   80.91   81.11</time>
   <time name="total">   81.70   81.89</time>
   <energy>
    <i name="e_fr_energy">   -276.73098200 </i>
    <i name="e_wo_entrp">   -276.73098200 </i>
    <i name="e_0_energy">   -276.73098200 </i>
   </energy>
  </scstep>
  <scstep>
   <time name="dav">   72.52   72.57</time>
   <time name="total">   73.32   73.38</time>
   <energy>
    <i name="e_fr_energy">   -276.72222767 </i>
    <i name="e_wo_entrp">   -276.72222767 </i>
    <i name="e_0_energy">   -276.72222767 </i>
   </energy>
  </scstep>
  <scstep>
   <time name="dav">   76.05   76.15</time>
   <time name="total">   76.83   76.94</time>
   <energy>
    <i name="e_fr_energy">   -276.72259085 </i>
    <i name="e_wo_entrp">   -276.72259085 </i>
    <i name="e_0_energy">   -276.72259085 </i>
   </energy>
  </scstep>
  <scstep>
   <time name="dav">   78.60   78.79</time>
   <time name="total">   79.39   79.58</time>
   <energy>
    <i name="e_fr_energy">   -276.72588386 </i>
    <i name="e_wo_entrp">   -276.72588386 </i>
    <i name="e_0_energy">   -276.72588386 </i>
   </energy>
  </scstep>
  <scstep>
   <time name="dav">   73.86   74.05</time>
   <time name="total">   74.62   74.84</time>
   <energy>
    <i name="e_fr_energy">   -276.72592768 </i>
    <i name="e_wo_entrp">   -276.72592768 </i>
    <i name="e_0_energy">   -276.72592768 </i>
   </energy>
  </scstep>
  <scstep>
   <time name="dav">   72.08   72.28</time>
   <time name="total">   72.87   73.07</time>
   <energy>
    <i name="e_fr_energy">   -276.72589300 </i>
    <i name="e_wo_entrp">   -276.72589300 </i>
    <i name="e_0_energy">   -276.72589300 </i>
   </energy>
  </scstep>
  <scstep>
   <time name="dav">   70.11   70.22</time>
   <time name="total">   70.90   71.01</time>
   <energy>
    <i name="e_fr_energy">   -276.72591981 </i>
    <i name="e_wo_entrp">   -276.72591981 </i>
    <i name="e_0_energy">   -276.72591981 </i>
   </energy>
  </scstep>
  <scstep>
   <time name="dav">   73.77   73.82</time>
   <time name="total">   74.56   74.61</time>
   <energy>
    <i name="e_fr_energy">   -276.72594623 </i>
    <i name="e_wo_entrp">   -276.72594623 </i>
    <i name="e_0_energy">   -276.72594623 </i>
   </energy>
  </scstep>
  <scstep>
   <time name="dav">   75.82   75.90</time>
   <time name="total">   76.60   76.69</time>
   <energy>
    <i name="e_fr_energy">   -276.72595102 </i>
    <i name="e_wo_entrp">   -276.72595102 </i>
    <i name="e_0_energy">   -276.72595102 </i>
   </energy>
  </scstep>
  <scstep>
   <time name="dav">   63.16   63.25</time>
   <time name="total">   63.96   64.06</time>
   <energy>
    <i name="e_fr_energy">   -276.72595203 </i>
    <i name="e_wo_entrp">   -276.72595203 </i>
    <i name="e_0_energy">   -276.72595203 </i>
   </energy>
  </scstep>
  <scstep>
   <time name="dav">   55.88   55.96</time>
   <time name="total">   56.67   56.74</time>
   <energy>
    <i name="e_fr_energy">   -276.72595323 </i>
    <i name="e_wo_entrp">   -276.72595323 </i>
    <i name="e_0_energy">   -276.72595323 </i>
   </energy>
  </scstep>
  <scstep>
   <time name="dav">   44.33   44.36</time>
   <time name="total">   44.40   44.43</time>
   <energy>
    <i name="alphaZ">   1047.62774490 </i>
    <i name="ewald"> -29932.35151445 </i>
    <i name="hartreedc"> -12939.53020479 </i>
    <i name="XCdc">   1124.73959776 </i>
    <i name="pawpsdc">  43446.82475980 </i>
    <i name="pawaedc"> -42591.06824679 </i>
    <i name="eentropy">      0.00000000 </i>
    <i name="bandstr">  -3693.97140041 </i>
    <i name="atom">  43261.00331033 </i>
    <i name="e_fr_energy">   -276.72595365 </i>
    <i name="e_wo_entrp">   -276.72595365 </i>
    <i name="e_0_energy">   -276.72595365 </i>
   </energy>
  </scstep>
  <structure>
   <crystal>
    <varray name="basis" >
     <v>      11.17850000       0.00000000       0.00000000 </v>
     <v>       0.00000000       9.57460000       0.00000000 </v>
     <v>       0.00000000       0.00000000      11.18240000 </v>
    </varray>
    <i name="volume">   1196.84853820 </i>
    <varray name="rec_basis" >
     <v>       0.08945744       0.00000000       0.00000000 </v>
     <v>       0.00000000       0.10444301       0.00000000 </v>
     <v>       0.00000000       0.00000000       0.08942624 </v>
    </varray>
   </crystal>
   <varray name="positions" >
    <v>       0.37461000       0.00017000       0.18687000 </v>
    <v>       0.62461000       0.99984000       0.18687000 </v>
    <v>       0.87539000       0.00017000       0.43687000 </v>
    <v>       0.87461000       0.00017000       0.18687000 </v>
    <v>       0.37539000       0.00017000       0.93687000 </v>
    <v>       0.12461000       0.99984000       0.68687000 </v>
    <v>       0.37461000       0.00017000       0.68687000 </v>
    <v>       0.62461000       0.99984000       0.68687000 </v>
    <v>       0.87461000       0.00017000       0.68687000 </v>
    <v>       0.00013000       0.29519000       0.06281000 </v>
    <v>       0.25013000       0.70481000       0.06281000 </v>
    <v>       0.24987000       0.29519000       0.31282000 </v>
    <v>       0.49987000       0.70481000       0.31282000 </v>
    <v>       0.50013000       0.29519000       0.06281000 </v>
    <v>       0.75013000       0.70481000       0.06281000 </v>
    <v>       0.74987000       0.29519000       0.31282000 </v>
    <v>       0.99987000       0.70481000       0.31282000 </v>
    <v>       0.00013000       0.29519000       0.56281000 </v>
    <v>       0.25013000       0.70481000       0.56281000 </v>
    <v>       0.24987000       0.29519000       0.81282000 </v>
    <v>       0.49987000       0.70481000       0.81282000 </v>
    <v>       0.50013000       0.29519000       0.56281000 </v>
    <v>       0.75013000       0.70481000       0.56281000 </v>
    <v>       0.74987000       0.29519000       0.81282000 </v>
    <v>       0.99987000       0.70481000       0.81282000 </v>
    <v>       0.25005000       0.32677000       0.06286000 </v>
    <v>       0.00005000       0.67323000       0.06286000 </v>
    <v>       0.49995000       0.32677000       0.31286000 </v>
    <v>       0.24995000       0.67323000       0.31286000 </v>
    <v>       0.75005000       0.32677000       0.06286000 </v>
    <v>       0.50005000       0.67323000       0.06286000 </v>
    <v>       0.99995000       0.32677000       0.31286000 </v>
    <v>       0.74995000       0.67323000       0.31286000 </v>
    <v>       0.25005000       0.32677000       0.56286000 </v>
    <v>       0.00005000       0.67323000       0.56286000 </v>
    <v>       0.49995000       0.32677000       0.81286000 </v>
    <v>       0.24995000       0.67323000       0.81286000 </v>
    <v>       0.75005000       0.32677000       0.56286000 </v>
    <v>       0.50005000       0.67323000       0.56286000 </v>
    <v>       0.99995000       0.32677000       0.81286000 </v>
    <v>       0.74995000       0.67323000       0.81286000 </v>
    <v>       0.49987000       0.07798000       0.06246000 </v>
    <v>       0.24987000       0.92202000       0.06246000 </v>
    <v>       0.25013000       0.07798000       0.31246000 </v>
    <v>       0.00013000       0.92202000       0.31246000 </v>
    <v>       0.99987000       0.07798000       0.06246000 </v>
    <v>       0.74987000       0.92202000       0.06246000 </v>
    <v>       0.75013000       0.07798000       0.31246000 </v>
    <v>       0.50013000       0.92202000       0.31246000 </v>
    <v>       0.49987000       0.07798000       0.56246000 </v>
    <v>       0.24987000       0.92202000       0.56246000 </v>
    <v>       0.25013000       0.07798000       0.81246000 </v>
    <v>       0.00013000       0.92202000       0.81246000 </v>
    <v>       0.99987000       0.07798000       0.56246000 </v>
    <v>       0.74987000       0.92202000       0.56246000 </v>
    <v>       0.75013000       0.07798000       0.81246000 </v>
    <v>       0.50013000       0.92202000       0.81246000 </v>
   </varray>
  </structure>
  <varray name="forces" >
   <v>      -0.46426681      -0.02201357       0.88855875 </v>
   <v>      -0.48285771      -0.23797332      -0.01641316 </v>
   <v>       0.24003540      -0.09334466      -0.89496023 </v>
   <v>       0.99611511      -0.01171929      -1.87632241 </v>
   <v>      -0.26940120      -0.09191716       1.89491652 </v>
   <v>       0.09867765      -0.42379181       0.05852714 </v>
   <v>      -0.03551664       0.01004199      -1.92505536 </v>
   <v>      -0.04490319       0.45651537       0.04688683 </v>
   <v>       0.06377428       0.00927313       2.03210823 </v>
   <v>       0.28346494      -1.92196091       0.09934928 </v>
   <v>      -0.33474013       0.93788562       0.58144423 </v>
   <v>       0.02060426      -2.63274789      -0.21428424 </v>
   <v>      -0.30520668       1.90326926      -0.08440105 </v>
   <v>       0.01721176       0.04029466       0.45480621 </v>
   <v>      -0.00757529       0.96911440      -0.04855682 </v>
   <v>      -0.40963704       1.08036604      -0.33973738 </v>
   <v>       0.72608537      -0.11049462      -0.49793268 </v>
   <v>       0.45730117       2.12727764      -0.55902657 </v>
   <v>       0.11847718      -0.22279619      -0.99105542 </v>
   <v>      -0.30396125       2.09399523       0.63535163 </v>
   <v>       0.17177584      -2.05766434       0.59190597 </v>
   <v>      -0.25839418       0.21554443      -0.94604029 </v>
   <v>      -0.33299976      -2.08252578      -0.51379975 </v>
   <v>       0.11735169       0.18717066       0.86069533 </v>
   <v>       0.02749919      -0.17428910       0.91084387 </v>
   <v>       0.28468548       0.16982484      -0.70938371 </v>
   <v>      -0.11050806      -0.17573226      -0.11838596 </v>
   <v>       0.47490579       0.21339292       0.15959934 </v>
   <v>      -0.21374950      -0.22425712       0.27645618 </v>
   <v>      -0.17549154       0.18071891      -0.02869117 </v>
   <v>       0.01035340      -0.23454077      -0.59135806 </v>
   <v>      -0.54346248       0.09561315       0.57738457 </v>
   <v>       0.29322436      -0.15929842       0.44473127 </v>
   <v>      -0.13359394      -0.03058354       0.63608385 </v>
   <v>      -0.25962020       0.03554441       0.16482069 </v>
   <v>      -0.10661429      -0.03063157      -0.17863410 </v>
   <v>       0.17971231      -0.01025215      -0.25841412 </v>
   <v>       0.18532397      -0.07079804       0.10921562 </v>
   <v>       0.20342737       0.04657255       0.55874824 </v>
   <v>       0.04157724      -0.03200176      -0.57022411 </v>
   <v>      -0.11710294       0.05589577      -0.48521921 </v>
   <v>      -1.03324019       0.10753290      -0.30259534 </v>
   <v>       1.72559269      -0.72640294      -0.90382491 </v>
   <v>       0.40985948       2.28928273      -0.35582759 </v>
   <v>      -2.28960747       0.16106379       0.43320481 </v>
   <v>      -1.00328036       1.64350740       0.90882512 </v>
   <v>       0.32098539      -0.80239123       1.58684433 </v>
   <v>       1.59061845      -0.76981201      -0.16930895 </v>
   <v>       0.23861813      -1.60182671      -1.01636973 </v>
   <v>       0.16517315      -0.41282954       2.41412099 </v>
   <v>      -0.11558942       0.38726142       2.43108924 </v>
   <v>       1.17169398      -1.59933252      -1.22296107 </v>
   <v>       0.03062841       0.38624261      -2.45432831 </v>
   <v>      -1.26504424      -1.63887303       1.09148384 </v>
   <v>       1.19835325       1.63741409       1.04112674 </v>
   <v>      -0.13014268      -0.42783422      -2.43060998 </v>
   <v>      -1.11659954       1.59002053      -1.18540719 </v>
  </varray>
  <varray name="stress" >
   <v>       5.04233075      -0.51868670       1.41519532 </v>
   <v>      -0.51868680     -11.70228242       0.22621884 </v>
   <v>       1.41519552       0.22621884      -4.97295568 </v>
  </varray>
  <energy>
   <i name="e_fr_energy">   -287.42268747 </i>
   <i name="e_wo_entrp">   -287.42268747 </i>
   <i name="e_0_energy">      0.00000000 </i>
  </energy>
  <time name="totalsc"> 1630.52 1632.76</time>
 </calculation>
 <calculation>
  <scstep>
   <time name="dav">   67.54   67.54</time>
   <time name="total">   68.32   68.33</time>
   <energy>
    <i name="alphaZ">   1055.40187314 </i>
    <i name="ewald"> -29960.92694194 </i>
    <i name="hartreedc"> -12990.71712432 </i>
    <i name="XCdc">   1129.37746303 </i>
    <i name="pawpsdc">  43446.87346086 </i>
    <i name="pawaedc"> -42591.11750665 </i>
    <i name="eentropy">      0.00000000 </i>
    <i name="bandstr">  -3625.58907559 </i>
    <i name="atom">  43261.00331033 </i>
    <i name="e_fr_energy">   -275.69454115 </i>
    <i name="e_wo_entrp">   -275.69454115 </i>
    <i name="e_0_energy">   -275.69454115 </i>
   </energy>
  </scstep>
  <scstep>
   <time name="dav">   67.57   67.57</time>
   <time name="total">   68.36   68.36</time>
   <energy>
    <i name="e_fr_energy">   -280.52137784 </i>
    <i name="e_wo_entrp">   -280.52137784 </i>
    <i name="e_0_energy">   -280.52137784 </i>
   </energy>
  </scstep>
  <scstep>
   <time name="dav">   80.79   80.79</time>
   <time name="total">   81.58   81.57</time>
   <energy>
    <i name="e_fr_energy">   -280.23208559 </i>
    <i name="e_wo_entrp">   -280.23208559 </i>
    <i name="e_0_energy">   -280.23208559 </i>
   </energy>
  </scstep>
  <scstep>
   <time name="dav">   75.75   75.79</time>
   <time name="total">   76.54   76.58</time>
   <energy>
    <i name="e_fr_energy">   -280.07286825 </i>
    <i name="e_wo_entrp">   -280.07286825 </i>
    <i name="e_0_energy">   -280.07286825 </i>
   </energy>
  </scstep>
  <scstep>
   <time name="dav">   76.05   76.06</time>
   <time name="total">   76.84   76.84</time>
   <energy>
    <i name="e_fr_energy">   -280.02083564 </i>
    <i name="e_wo_entrp">   -280.02083564 </i>
    <i name="e_0_energy">   -280.02083564 </i>
   </energy>
  </scstep>
  <scstep>
   <time name="dav">   76.37   76.37</time>
   <time name="total">   77.15   77.16</time>
   <energy>
    <i name="e_fr_energy">   -280.01837445 </i>
    <i name="e_wo_entrp">   -280.01837445 </i>
    <i name="e_0_energy">   -280.01837445 </i>
   </energy>
  </scstep>
  <scstep>
   <time name="dav">   72.30   72.30</time>
   <time name="total">   73.08   73.09</time>
   <energy>
    <i name="e_fr_energy">   -280.01796025 </i>
    <i name="e_wo_entrp">   -280.01796025 </i>
    <i name="e_0_energy">   -280.01796025 </i>
   </energy>
  </scstep>
  <scstep>
   <time name="dav">   69.62   69.61</time>
   <time name="total">   70.40   70.40</time>
   <energy>
    <i name="e_fr_energy">   -280.01707573 </i>
    <i name="e_wo_entrp">   -280.01707573 </i>
    <i name="e_0_energy">   -280.01707573 </i>
   </energy>
  </scstep>
  <scstep>
   <time name="dav">   81.18   81.20</time>
   <time name="total">   81.96   81.99</time>
   <energy>
    <i name="e_fr_energy">   -280.01703301 </i>
    <i name="e_wo_entrp">   -280.01703301 </i>
    <i name="e_0_energy">   -280.01703301 </i>
   </energy>
  </scstep>
  <scstep>
   <time name="dav">   74.34   74.36</time>
   <time name="total">   75.12   75.15</time>
   <energy>
    <i name="e_fr_energy">   -280.01705774 </i>
    <i name="e_wo_entrp">   -280.01705774 </i>
    <i name="e_0_energy">   -280.01705774 </i>
   </energy>
  </scstep>
  <scstep>
   <time name="dav">   78.21   78.22</time>
   <time name="total">   79.00   79.01</time>
   <energy>
    <i name="e_fr_energy">   -280.01706164 </i>
    <i name="e_wo_entrp">   -280.01706164 </i>
    <i name="e_0_energy">   -280.01706164 </i>
   </energy>
  </scstep>
  <scstep>
   <time name="dav">   79.03   79.06</time>
   <time name="total">   79.82   79.84</time>
   <energy>
    <i name="e_fr_energy">   -280.01706223 </i>
    <i name="e_wo_entrp">   -280.01706223 </i>
    <i name="e_0_energy">   -280.01706223 </i>
   </energy>
  </scstep>
  <scstep>
   <time name="dav">   65.29   65.30</time>
   <time name="total">   65.37   65.37</time>
   <energy>
    <i name="alphaZ">   1055.40187314 </i>
    <i name="ewald"> -29960.92694194 </i>
    <i name="hartreedc"> -12938.27367057 </i>
    <i name="XCdc">   1127.71132482 </i>
    <i name="pawpsdc">  43729.80728007 </i>
    <i name="pawaedc"> -42876.57901239 </i>
    <i name="eentropy">      0.00000000 </i>
    <i name="bandstr">  -3678.16122623 </i>
    <i name="atom">  43261.00331033 </i>
    <i name="e_fr_energy">   -280.01706277 </i>
    <i name="e_wo_entrp">   -280.01706277 </i>
    <i name="e_0_energy">   -280.01706277 </i>
   </energy>
  </scstep>
  <structure>
   <crystal>
    <varray name="basis" >
     <v>      11.21413689      -0.00366584       0.01000195 </v>
     <v>      -0.00313986       9.50376039       0.00136941 </v>
     <v>       0.01000545       0.00159937      11.14724116 </v>
    </varray>
    <i name="volume">   1188.03250873 </i>
    <varray name="rec_basis" >
     <v>       0.08917324       0.00002947      -0.00008004 </v>
     <v>       0.00003441       0.10522152      -0.00001513 </v>
     <v>      -0.00008002      -0.00001295       0.08970837 </v>
    </varray>
   </crystal>
   <varray name="positions" >
    <v>       0.37260638       0.00005908       0.19070338 </v>
    <v>       0.62252615       0.99864095       0.18679919 </v>
    <v>       0.87642591      -0.00030033       0.43300900 </v>
    <v>       0.87890890       0.00011095       0.17877525 </v>
    <v>       0.37422735      -0.00029313       0.94504497 </v>
    <v>       0.12503586       0.99770468       0.68712250 </v>
    <v>       0.37445672       0.00022060       0.67856500 </v>
    <v>       0.62441621       0.00214020       0.68707228 </v>
    <v>       0.87488523       0.00021672       0.69563684 </v>
    <v>       0.00135334       0.28550599       0.06323861 </v>
    <v>       0.24868537       0.70953564       0.06531844 </v>
    <v>       0.24995892       0.28192462       0.31189554 </v>
    <v>       0.49855283       0.71439983       0.31245588 </v>
    <v>       0.50020428       0.29539303       0.06477211 </v>
    <v>       0.75009731       0.70969299       0.06260052 </v>
    <v>       0.74810214       0.30063354       0.31135432 </v>
    <v>       0.00300354       0.70425326       0.31067184 </v>
    <v>       0.00210356       0.30590852       0.56039827 </v>
    <v>       0.25064131       0.70368742       0.55853443 </v>
    <v>       0.24855821       0.30574082       0.81556101 </v>
    <v>       0.50061133       0.69444224       0.81537358 </v>
    <v>       0.49901486       0.29627604       0.55872863 </v>
    <v>       0.74869288       0.69431697       0.56059339 </v>
    <v>       0.75037645       0.29613308       0.81653318 </v>
    <v>       0.99998868       0.70393183       0.81674953 </v>
    <v>       0.25127861       0.32762568       0.05979961 </v>
    <v>      -0.00042692       0.67234455       0.06234926 </v>
    <v>       0.50199953       0.32784520       0.31354854 </v>
    <v>       0.24902753       0.67210006       0.31405268 </v>
    <v>       0.74929264       0.32768057       0.06273622 </v>
    <v>       0.50009468       0.67204824       0.06030879 </v>
    <v>       0.99760460       0.32725176       0.31535093 </v>
    <v>       0.75121546       0.67242736       0.31477864 </v>
    <v>       0.24947345       0.32661590       0.56560417 </v>
    <v>      -0.00107043       0.67340909       0.56357106 </v>
    <v>       0.49948989       0.32661566       0.81208934 </v>
    <v>       0.25072558       0.67317834       0.81174516 </v>
    <v>       0.75084980       0.32641328       0.56333117 </v>
    <v>       0.50092792       0.67346466       0.56527053 </v>
    <v>       0.00012943       0.32660876       0.81039996 </v>
    <v>       0.74944462       0.67351164       0.81076669 </v>
    <v>       0.49541088       0.07852182       0.06115456 </v>
    <v>       0.25731708       0.91835994       0.05856076 </v>
    <v>       0.25189882       0.08951480       0.31092490 </v>
    <v>      -0.00975118       0.92283154       0.31432891 </v>
    <v>       0.99554018       0.08626099       0.06638082 </v>
    <v>       0.75125527       0.91797707       0.06930590 </v>
    <v>       0.75699458       0.07410122       0.31172957 </v>
    <v>       0.50115980       0.91394902       0.30807522 </v>
    <v>       0.50058283       0.07589991       0.57287490 </v>
    <v>       0.24937115       0.92397126       0.57294811 </v>
    <v>       0.25518664       0.06992159       0.80718395 </v>
    <v>       0.00026218       0.92396613       0.80187164 </v>
    <v>       0.99441049       0.06972236       0.56716884 </v>
    <v>       0.75504169       0.93027029       0.56695159 </v>
    <v>       0.74956835       0.07582431       0.80197396 </v>
    <v>       0.49531113       0.93003149       0.80734596 </v>
   </varray>
  </structure>
  <varray name="forces" >
   <v>      -0.36440939      -0.00484603       0.74478338 </v>
   <v>      -0.20634735      -0.11734539       0.04374725 </v>
   <v>      -0.09962542       0.07233062       0.38048758 </v>
   <v>       0.37493545      -0.10992071      -0.64265402 </v>
   <v>       0.02180493       0.07313992      -0.18877606 </v>
   <v>       0.01633321       0.00699465       0.02171434 </v>
   <v>       0.04359888      -0.00046913      -0.38727867 </v>
   <v>       0.03463769       0.03235339       0.03141362 </v>
   <v>       0.00927042      -0.01449207       0.50020028 </v>
   <v>       0.34734096       2.44966767      -0.08088926 </v>
   <v>      -0.21295608      -0.84218236       0.17303338 </v>
   <v>      -0.17412251       4.03854156       0.03151113 </v>
   <v>      -0.05058778      -2.30037656       0.14190058 </v>
   <v>      -0.00157333       0.38383700       0.06570116 </v>
   <v>      -0.11686836      -0.94372628      -0.10614585 </v>
   <v>      -0.08341676      -0.08961182      -0.02155886 </v>
   <v>       0.27152112      -0.00597019      -0.06883596 </v>
   <v>       0.11176515      -0.11664418      -0.28417693 </v>
   <v>      -0.01451777       0.13189360      -0.39031325 </v>
   <v>      -0.02565850      -0.11570730       0.24394934 </v>
   <v>      -0.00698053       0.14788224       0.23032175 </v>
   <v>      -0.04706724      -0.15188631      -0.39924977 </v>
   <v>      -0.07864328       0.14778563      -0.27610961 </v>
   <v>      -0.02965556      -0.16268566       0.34405806 </v>
   <v>       0.08230458       0.12542840       0.33284684 </v>
   <v>       0.19139621       0.13243342      -0.41177960 </v>
   <v>      -0.08552699      -0.03535600      -0.03103037 </v>
   <v>       0.26706148       0.11596808       0.06584281 </v>
   <v>      -0.11480013      -0.07097110       0.11823501 </v>
   <v>      -0.07060496       0.10687393      -0.00772214 </v>
   <v>      -0.02038922      -0.21296771      -0.30298256 </v>
   <v>      -0.32751686       0.16582866       0.28023562 </v>
   <v>       0.16160517      -0.27084113       0.21242619 </v>
   <v>      -0.02486737       0.06936439       0.30445019 </v>
   <v>      -0.06315723      -0.22486585       0.04620261 </v>
   <v>       0.00403015       0.22660955      -0.05142433 </v>
   <v>       0.02238054      -0.25221144      -0.06701341 </v>
   <v>       0.03108061       0.20877939       0.04901552 </v>
   <v>       0.05544588      -0.04384835       0.25157970 </v>
   <v>      -0.02472402       0.04855056      -0.23565081 </v>
   <v>      -0.00256071      -0.03123233      -0.20390260 </v>
   <v>      -0.66984883      -0.13282370       0.25483114 </v>
   <v>       1.09428851       0.74324713      -0.14065070 </v>
   <v>       0.52674080      -4.44812030      -0.47208009 </v>
   <v>      -1.24325842      -0.27141754      -0.27356456 </v>
   <v>      -0.66369800      -2.45551722       0.55045762 </v>
   <v>       0.20562894       0.94669080       1.14106671 </v>
   <v>       0.94179866       0.48005188      -0.60263254 </v>
   <v>       0.08922055       2.56625919      -1.03164136 </v>
   <v>       0.21222868       0.49645712       1.01866751 </v>
   <v>      -0.21741073      -0.50094105       1.02302194 </v>
   <v>       0.65654400       0.67472962      -0.56609907 </v>
   <v>       0.18558803      -0.45539855      -1.04227712 </v>
   <v>      -0.62287127       0.69060752       0.64853439 </v>
   <v>       0.66133191      -0.69385494       0.62857800 </v>
   <v>      -0.24427522       0.47498826      -1.03479711 </v>
   <v>      -0.71194275      -0.68106298      -0.55757708 </v>
  </varray>
  <varray name="stress" >
   <v>       9.99614080       1.12503321      -0.96023467 </v>
   <v>       1.12503345      13.39984450      -0.47706674 </v>
   <v>      -0.96023480      -0.47706707      12.28862630 </v>
  </varray>
  <energy>
   <i name="e_fr_energy">   -290.76956397 </i>
   <i name="e_wo_entrp">   -290.76956397 </i>
   <i name="e_0_energy">      0.00000000 </i>
  </energy>
  <time name="totalsc"> 1082.73 1082.91</time>
 </calculation>
 <calculation>
  <scstep>
   <time name="dav">   65.65   65.70</time>
   <time name="total">   66.43   66.49</time>
   <energy>
    <i name="alphaZ">   1054.80218995 </i>
    <i name="ewald"> -29962.10334674 </i>
    <i name="hartreedc"> -12931.39844372 </i>
    <i name="XCdc">   1127.30912763 </i>
    <i name="pawpsdc">  43729.87734814 </i>
    <i name="pawaedc"> -42876.64868783 </i>
    <i name="eentropy">      0.00000000 </i>
    <i name="bandstr">  -3682.86134883 </i>
    <i name="atom">  43261.00331033 </i>
    <i name="e_fr_energy">   -280.01985107 </i>
    <i name="e_wo_entrp">   -280.01985107 </i>
    <i name="e_0_energy">   -280.01985107 </i>
   </energy>
  </scstep>
  <scstep>
   <time name="dav">   70.63   70.77</time>
   <time name="total">   71.42   71.56</time>
   <energy>
    <i name="e_fr_energy">   -280.05291938 </i>
    <i name="e_wo_entrp">   -280.05291938 </i>
    <i name="e_0_energy">   -280.05291938 </i>
   </energy>
  </scstep>
  <scstep>
   <time name="dav">   74.81   74.94</time>
   <time name="total">   75.59   75.72</time>
   <energy>
    <i name="e_fr_energy">   -280.05166851 </i>
    <i name="e_wo_entrp">   -280.05166851 </i>
    <i name="e_0_energy">   -280.05166851 </i>
   </energy>
  </scstep>
  <scstep>
   <time name="dav">   68.35   68.49</time>
   <time name="total">   69.13   69.27</time>
   <energy>
    <i name="e_fr_energy">   -280.05022783 </i>
    <i name="e_wo_entrp">   -280.05022783 </i>
    <i name="e_0_energy">   -280.05022783 </i>
   </energy>
  </scstep>
  <scstep>
   <time name="dav">   77.04   77.26</time>
   <time name="total">   77.82   78.04</time>
   <energy>
    <i name="e_fr_energy">   -280.04995485 </i>
    <i name="e_wo_entrp">   -280.04995485 </i>
    <i name="e_0_energy">   -280.04995485 </i>
   </energy>
  </scstep>
  <scstep>
   <time name="dav">   74.15   74.35</time>
   <time name="total">   74.93   75.14</time>
   <energy>
    <i name="e_fr_energy">   -280.04995283 </i>
    <i name="e_wo_entrp">   -280.04995283 </i>
    <i name="e_0_energy">   -280.04995283 </i>
   </energy>
  </scstep>
  <scstep>
   <time name="dav">   78.25   78.46</time>
   <time name="total">   79.03   79.25</time>
   <energy>
    <i name="e_fr_energy">   -280.04994337 </i>
    <i name="e_wo_entrp">   -280.04994337 </i>
    <i name="e_0_energy">   -280.04994337 </i>
   </energy>
  </scstep>
  <scstep>
   <time name="dav">   68.59   68.77</time>
   <time name="total">   69.36   69.56</time>
   <energy>
    <i name="e_fr_energy">   -280.04993738 </i>
    <i name="e_wo_entrp">   -280.04993738 </i>
    <i name="e_0_energy">   -280.04993738 </i>
   </energy>
  </scstep>
  <scstep>
   <time name="dav">   72.84   72.97</time>
   <time name="total">   72.91   73.04</time>
   <energy>
    <i name="alphaZ">   1054.80218995 </i>
    <i name="ewald"> -29962.10334674 </i>
    <i name="hartreedc"> -12935.65448218 </i>
    <i name="XCdc">   1127.45273932 </i>
    <i name="pawpsdc">  43695.46739890 </i>
    <i name="pawaedc"> -42841.82869759 </i>
    <i name="eentropy">      0.00000000 </i>
    <i name="bandstr">  -3679.18904975 </i>
    <i name="atom">  43261.00331033 </i>
    <i name="e_fr_energy">   -280.04993776 </i>
    <i name="e_wo_entrp">   -280.04993776 </i>
    <i name="e_0_energy">   -280.04993776 </i>
   </energy>
  </scstep>
  <structure>
   <crystal>
    <varray name="basis" >
     <v>      11.21141042      -0.00338538       0.00923674 </v>
     <v>      -0.00289964       9.50918011       0.00126464 </v>
     <v>       0.00923996       0.00147701      11.14993105 </v>
    </varray>
    <i name="volume">   1188.70793691 </i>
    <varray name="rec_basis" >
     <v>       0.08919491       0.00002721      -0.00007392 </v>
     <v>       0.00003177       0.10516155      -0.00001396 </v>
     <v>      -0.00007389      -0.00001195       0.08968672 </v>
    </varray>
   </crystal>
   <varray name="positions" >
    <v>       0.37275945       0.00006774       0.19040904 </v>
    <v>       0.62268509       0.99873343       0.18680447 </v>
    <v>       0.87634666      -0.00026416       0.43330539 </v>
    <v>       0.87858049       0.00011527       0.17939680 </v>
    <v>       0.37431659      -0.00025730       0.94441747 </v>
    <v>       0.12500345       0.99786925       0.68710313 </v>
    <v>       0.37446784       0.00021659       0.67920239 </v>
    <v>       0.62443096       0.00196292       0.68705676 </v>
    <v>       0.87486484       0.00021323       0.69496402 </v>
    <v>       0.00126028       0.28625238       0.06320571 </v>
    <v>       0.24879562       0.70917147       0.06512587 </v>
    <v>       0.24995236       0.28294706       0.31196637 </v>
    <v>       0.49865305       0.71366070       0.31248383 </v>
    <v>       0.50019875       0.29537740       0.06462153 </v>
    <v>       0.75009968       0.70931662       0.06261664 </v>
    <v>       0.74823675       0.30021400       0.31146674 </v>
    <v>       0.00276443       0.70429605       0.31083692 </v>
    <v>       0.00195265       0.30508227       0.56058360 </v>
    <v>       0.25060204       0.70377387       0.55886260 </v>
    <v>       0.24865821       0.30492767       0.81535065 </v>
    <v>       0.50055519       0.69524137       0.81517755 </v>
    <v>       0.49909960       0.29619231       0.55904180 </v>
    <v>       0.74880256       0.69512576       0.56076331 </v>
    <v>       0.75033806       0.29606042       0.81624824 </v>
    <v>       0.99997991       0.70399956       0.81644794 </v>
    <v>       0.25118468       0.32755965       0.06003458 </v>
    <v>      -0.00039056       0.67241281       0.06238842 </v>
    <v>       0.50184325       0.32776228       0.31349584 </v>
    <v>       0.24909799       0.67218719       0.31396107 </v>
    <v>       0.74935037       0.32761041       0.06274568 </v>
    <v>       0.50009113       0.67213929       0.06050458 </v>
    <v>       0.99778363       0.32721473       0.31515960 </v>
    <v>       0.75111910       0.67248921       0.31463147 </v>
    <v>       0.24951761       0.32662783       0.56539352 </v>
    <v>      -0.00098494       0.67339533       0.56351641 </v>
    <v>       0.49952493       0.32662756       0.81214846 </v>
    <v>       0.25066635       0.67318229       0.81183078 </v>
    <v>       0.75078884       0.32644075       0.56329506 </v>
    <v>       0.50086113       0.67344658       0.56508559 </v>
    <v>       0.00011558       0.32662115       0.81058878 </v>
    <v>       0.74948302       0.67348992       0.81092731 </v>
    <v>       0.49575085       0.07848017       0.06125445 </v>
    <v>       0.25674895       0.91864178       0.05886049 </v>
    <v>       0.25176356       0.08862566       0.31104295 </v>
    <v>      -0.00899749       0.92276930       0.31418481 </v>
    <v>       0.99587048       0.08562289       0.06607968 </v>
    <v>       0.75115018       0.91828873       0.06878054 </v>
    <v>       0.75647109       0.07439997       0.31178607 </v>
    <v>       0.50108113       0.91457103       0.30841174 </v>
    <v>       0.50052923       0.07606035       0.57207560 </v>
    <v>       0.24940987       0.92382101       0.57214315 </v>
    <v>       0.25480081       0.07054249       0.80758915 </v>
    <v>       0.00025133       0.92381598       0.80268430 </v>
    <v>       0.99482736       0.07035906       0.56680699 </v>
    <v>       0.75464741       0.92963428       0.56660730 </v>
    <v>       0.74961051       0.07599035       0.80277869 </v>
    <v>       0.49567811       0.92941406       0.80773820 </v>
   </varray>
  </structure>
  <varray name="forces" >
   <v>      -0.37404990      -0.00471487       0.75841670 </v>
   <v>      -0.22753191      -0.12801662       0.04066421 </v>
   <v>      -0.06528689       0.05348250       0.26909367 </v>
   <v>       0.43048741      -0.09191989      -0.74778525 </v>
   <v>      -0.01043601       0.05200967      -0.01717147 </v>
   <v>       0.02358217      -0.03148652       0.02371018 </v>
   <v>       0.03708150       0.00011686      -0.51679459 </v>
   <v>       0.02767813       0.06973615       0.03212491 </v>
   <v>       0.01429991      -0.01309133       0.63277800 </v>
   <v>       0.32779296       1.95918057      -0.05668927 </v>
   <v>      -0.21617938      -0.67911810       0.20099342 </v>
   <v>      -0.14844256       3.18023096       0.00671246 </v>
   <v>      -0.06516929      -1.82612588       0.11278631 </v>
   <v>      -0.00053510       0.35499998       0.09641211 </v>
   <v>      -0.10705273      -0.76307435      -0.09499386 </v>
   <v>      -0.11146139      -0.01459195      -0.04691226 </v>
   <v>       0.30881822      -0.01584591      -0.10321402 </v>
   <v>       0.13881766       0.00209563      -0.30921549 </v>
   <v>      -0.00478000       0.10454963      -0.44138034 </v>
   <v>      -0.04658472       0.00223204       0.27899187 </v>
   <v>       0.00643963       0.02858583       0.26224824 </v>
   <v>      -0.06311530      -0.12396788      -0.44571972 </v>
   <v>      -0.09818904       0.02808823      -0.29745168 </v>
   <v>      -0.01898357      -0.13581948       0.38657832 </v>
   <v>       0.07860804       0.10161171       0.38066929 </v>
   <v>       0.19791042       0.13772522      -0.44167628 </v>
   <v>      -0.08709921      -0.04704118      -0.03944483 </v>
   <v>       0.28527238       0.12502202       0.07514138 </v>
   <v>      -0.12378217      -0.08373279       0.13318703 </v>
   <v>      -0.07857699       0.11329395      -0.01024554 </v>
   <v>      -0.01774180      -0.21557409      -0.32977871 </v>
   <v>      -0.34490674       0.16261645       0.30675198 </v>
   <v>       0.17131228      -0.26309962       0.23268123 </v>
   <v>      -0.03391458       0.06386486       0.33247235 </v>
   <v>      -0.07853894      -0.20608572       0.05616781 </v>
   <v>      -0.00480466       0.20832388      -0.06181922 </v>
   <v>       0.03491572      -0.23486387      -0.08207869 </v>
   <v>       0.04329217       0.18889576       0.05473637 </v>
   <v>       0.06718059      -0.03831640       0.27625359 </v>
   <v>      -0.01889471       0.04384524      -0.26260849 </v>
   <v>      -0.01155280      -0.02562077      -0.22633554 </v>
   <v>      -0.70202694      -0.11517613       0.20599784 </v>
   <v>       1.15121441       0.61568512      -0.21026102 </v>
   <v>       0.50788022      -3.59100999      -0.45802510 </v>
   <v>      -1.33831042      -0.22785357      -0.20397505 </v>
   <v>      -0.68450778      -1.99945632       0.57695573 </v>
   <v>       0.21521365       0.78126304       1.17116027 </v>
   <v>       0.99864722       0.39430373      -0.56465956 </v>
   <v>       0.09618598       2.09894583      -1.02010175 </v>
   <v>       0.20089454       0.41438039       1.14489597 </v>
   <v>      -0.20151355      -0.41986416       1.15112878 </v>
   <v>       0.70044242       0.54759129      -0.62380751 </v>
   <v>       0.16338432      -0.37686072      -1.17027932 </v>
   <v>      -0.67688532       0.56096914       0.68910038 </v>
   <v>       0.70625103      -0.56236768       0.66590421 </v>
   <v>      -0.22586590       0.39303766      -1.16050777 </v>
   <v>      -0.74688270      -0.55198752      -0.61178228 </v>
  </varray>
  <varray name="stress" >
   <v>       9.37158325       0.91979771      -0.74212278 </v>
   <v>       0.91979805       9.48329295      -0.37637895 </v>
   <v>      -0.74212287      -0.37637930      10.75264135 </v>
  </varray>
  <energy>
   <i name="e_fr_energy">   -290.79744095 </i>
   <i name="e_wo_entrp">   -290.79744095 </i>
   <i name="e_0_energy">      0.00000000 </i>
  </energy>
  <time name="totalsc">  765.53  767.24</time>
 </calculation>
 <calculation>
  <scstep>
   <time name="dav">   69.51   69.60</time>
   <time name="total">   70.29   70.39</time>
   <energy>
    <i name="alphaZ">   1039.27623857 </i>
    <i name="ewald"> -29895.89232291 </i>
    <i name="hartreedc"> -12788.74166347 </i>
    <i name="XCdc">   1118.78050130 </i>
    <i name="pawpsdc">  43695.49919526 </i>
    <i name="pawaedc"> -42841.86188191 </i>
    <i name="eentropy">      0.00000000 </i>
    <i name="bandstr">  -3866.55345691 </i>
    <i name="atom">  43261.00331033 </i>
    <i name="e_fr_energy">   -278.49007974 </i>
    <i name="e_wo_entrp">   -278.49007974 </i>
    <i name="e_0_energy">   -278.49007974 </i>
   </energy>
  </scstep>
  <scstep>
   <time name="dav">   68.37   68.47</time>
   <time name="total">   69.17   69.27</time>
   <energy>
    <i name="e_fr_energy">   -281.60917997 </i>
    <i name="e_wo_entrp">   -281.60917997 </i>
    <i name="e_0_energy">   -281.60917997 </i>
   </energy>
  </scstep>
  <scstep>
   <time name="dav">   81.52   81.51</time>
   <time name="total">   82.31   82.30</time>
   <energy>
    <i name="e_fr_energy">   -281.40451203 </i>
    <i name="e_wo_entrp">   -281.40451203 </i>
    <i name="e_0_energy">   -281.40451203 </i>
   </energy>
  </scstep>
  <scstep>
   <time name="dav">   78.06   78.20</time>
   <time name="total">   78.85   78.99</time>
   <energy>
    <i name="e_fr_energy">   -281.33526103 </i>
    <i name="e_wo_entrp">   -281.33526103 </i>
    <i name="e_0_energy">   -281.33526103 </i>
   </energy>
  </scstep>
  <scstep>
   <time name="dav">   78.31   78.51</time>
   <time name="total">   79.09   79.31</time>
   <energy>
    <i name="e_fr_energy">   -281.29709619 </i>
    <i name="e_wo_entrp">   -281.29709619 </i>
    <i name="e_0_energy">   -281.29709619 </i>
   </energy>
  </scstep>
  <scstep>
   <time name="dav">   73.76   73.91</time>
   <time name="total">   74.54   74.72</time>
   <energy>
    <i name="e_fr_energy">   -281.28846599 </i>
    <i name="e_wo_entrp">   -281.28846599 </i>
    <i name="e_0_energy">   -281.28846599 </i>
   </energy>
  </scstep>
  <scstep>
   <time name="dav">   71.55   71.70</time>
   <time name="total">   72.34   72.50</time>
   <energy>
    <i name="e_fr_energy">   -281.28786860 </i>
    <i name="e_wo_entrp">   -281.28786860 </i>
    <i name="e_0_energy">   -281.28786860 </i>
   </energy>
  </scstep>
  <scstep>
   <time name="dav">   83.45   83.58</time>
   <time name="total">   84.24   84.36</time>
   <energy>
    <i name="e_fr_energy">   -281.28753593 </i>
    <i name="e_wo_entrp">   -281.28753593 </i>
    <i name="e_0_energy">   -281.28753593 </i>
   </energy>
  </scstep>
  <scstep>
   <time name="dav">   82.47   82.61</time>
   <time name="total">   83.26   83.40</time>
   <energy>
    <i name="e_fr_energy">   -281.28746535 </i>
    <i name="e_wo_entrp">   -281.28746535 </i>
    <i name="e_0_energy">   -281.28746535 </i>
   </energy>
  </scstep>
  <scstep>
   <time name="dav">   74.99   74.99</time>
   <time name="total">   75.77   75.79</time>
   <energy>
    <i name="e_fr_energy">   -281.28747166 </i>
    <i name="e_wo_entrp">   -281.28747166 </i>
    <i name="e_0_energy">   -281.28747166 </i>
   </energy>
  </scstep>
  <scstep>
   <time name="dav">   70.45   70.54</time>
   <time name="total">   71.24   71.33</time>
   <energy>
    <i name="e_fr_energy">   -281.28747683 </i>
    <i name="e_wo_entrp">   -281.28747683 </i>
    <i name="e_0_energy">   -281.28747683 </i>
   </energy>
  </scstep>
  <scstep>
   <time name="dav">   62.44   62.62</time>
   <time name="total">   63.23   63.41</time>
   <energy>
    <i name="e_fr_energy">   -281.28748214 </i>
    <i name="e_wo_entrp">   -281.28748214 </i>
    <i name="e_0_energy">   -281.28748214 </i>
   </energy>
  </scstep>
  <scstep>
   <time name="dav">   61.32   61.45</time>
   <time name="total">   62.10   62.24</time>
   <energy>
    <i name="e_fr_energy">   -281.28748487 </i>
    <i name="e_wo_entrp">   -281.28748487 </i>
    <i name="e_0_energy">   -281.28748487 </i>
   </energy>
  </scstep>
  <scstep>
   <time name="dav">   54.39   54.48</time>
   <time name="total">   54.47   54.56</time>
   <energy>
    <i name="alphaZ">   1039.27623857 </i>
    <i name="ewald"> -29895.89232291 </i>
    <i name="hartreedc"> -12926.66865722 </i>
    <i name="XCdc">   1125.12026896 </i>
    <i name="pawpsdc">  43222.33156185 </i>
    <i name="pawaedc"> -42362.46984043 </i>
    <i name="eentropy">      0.00000000 </i>
    <i name="bandstr">  -3743.98804490 </i>
    <i name="atom">  43261.00331033 </i>
    <i name="e_fr_energy">   -281.28748574 </i>
    <i name="e_wo_entrp">   -281.28748574 </i>
    <i name="e_0_energy">   -281.28748574 </i>
   </energy>
  </scstep>
  <structure>
   <crystal>
    <varray name="basis" >
     <v>      11.29307311       0.00126382       0.00882661 </v>
     <v>       0.00103071       9.53207257      -0.00030639 </v>
     <v>       0.00885186      -0.00036553      11.20768667 </v>
    </varray>
    <i name="volume">   1206.46627771 </i>
    <varray name="rec_basis" >
     <v>       0.08854991      -0.00000958      -0.00006994 </v>
     <v>      -0.00001174       0.10490898       0.00000343 </v>
     <v>      -0.00006974       0.00000288       0.08922453 </v>
    </varray>
   </crystal>
   <varray name="positions" >
    <v>       0.37023713      -0.00000966       0.19543837 </v>
    <v>       0.62074996       0.99752920       0.18694629 </v>
    <v>       0.87655309      -0.00021802       0.43264277 </v>
    <v>       0.88241250      -0.00036925       0.17241525 </v>
    <v>       0.37372775      -0.00021611       0.94817485 </v>
    <v>       0.12530124       0.99670765       0.68732233 </v>
    <v>       0.37455860       0.00024196       0.67310952 </v>
    <v>       0.62445815       0.00339320       0.68728821 </v>
    <v>       0.87504801       0.00016881       0.70176719 </v>
    <v>       0.00322038       0.29148545       0.06316277 </v>
    <v>       0.24720478       0.70800073       0.06715889 </v>
    <v>       0.24936764       0.29259466       0.31156125 </v>
    <v>       0.49776196       0.70904837       0.31279502 </v>
    <v>       0.50023046       0.29724616       0.06595132 </v>
    <v>       0.74963088       0.70780126       0.06211433 </v>
    <v>       0.74694241       0.30270123       0.31058097 </v>
    <v>       0.00553358       0.70395623       0.30938848 </v>
    <v>       0.00346341       0.31013526       0.55813444 </v>
    <v>       0.25082315       0.70376883       0.55497876 </v>
    <v>       0.24784906       0.30990087       0.81782360 </v>
    <v>       0.50092464       0.69050732       0.81749147 </v>
    <v>       0.49831587       0.29608416       0.55523131 </v>
    <v>       0.74771780       0.69033051       0.55845895 </v>
    <v>       0.75049067       0.29582504       0.81963483 </v>
    <v>       0.00036544       0.70409371       0.81991048 </v>
    <v>       0.25259853       0.32865118       0.05671769 </v>
    <v>      -0.00098158       0.67176118       0.06198164 </v>
    <v>       0.50400639       0.32889325       0.31413665 </v>
    <v>       0.24814266       0.67123689       0.31508819 </v>
    <v>       0.74866500       0.32860446       0.06264449 </v>
    <v>       0.50003848       0.67050689       0.05790451 </v>
    <v>       0.99522799       0.32825241       0.31763555 </v>
    <v>       0.75243240       0.67079750       0.31652082 </v>
    <v>       0.24910321       0.32687383       0.56809601 </v>
    <v>      -0.00184031       0.67244965       0.56408967 </v>
    <v>       0.49929103       0.32759569       0.81152410 </v>
    <v>       0.25117595       0.67198501       0.81095848 </v>
    <v>       0.75134463       0.32721675       0.56374847 </v>
    <v>       0.50155278       0.67336543       0.56739136 </v>
    <v>       0.00012101       0.32676469       0.80831736 </v>
    <v>       0.74920027       0.67349460       0.80898250 </v>
    <v>       0.49069899       0.07815780       0.06152471 </v>
    <v>       0.26509811       0.91999936       0.05613076 </v>
    <v>       0.25473837       0.07611327       0.30837127 </v>
    <v>      -0.01927077       0.92200908       0.31419997 </v>
    <v>       0.99094825       0.07952698       0.07037952 </v>
    <v>       0.75270106       0.92028927       0.07697615 </v>
    <v>       0.76390219       0.07454841       0.30903194 </v>
    <v>       0.50197535       0.92126163       0.30200976 </v>
    <v>       0.50170471       0.07715096       0.58183184 </v>
    <v>       0.24831528       0.92263941       0.58196238 </v>
    <v>       0.26012793       0.06949038       0.80245523 </v>
    <v>       0.00101313       0.92285052       0.79273703 </v>
    <v>       0.98941185       0.06927464       0.57195366 </v>
    <v>       0.76004497       0.93070669       0.57154415 </v>
    <v>       0.74840024       0.07694096       0.79292240 </v>
    <v>       0.49027331       0.93042370       0.80274008 </v>
   </varray>
  </structure>
  <varray name="forces" >
   <v>      -0.20888308      -0.00855215       0.52635466 </v>
   <v>      -0.07527779      -0.12372419       0.04162763 </v>
   <v>      -0.37115439       0.21525345       0.88714476 </v>
[...]
       <r>    8.4252    0.0000 </r>
       <r>    8.4991    0.0000 </r>
       <r>    8.5714    0.0000 </r>
       <r>    8.6286    0.0000 </r>
       <r>    8.7527    0.0000 </r>
       <r>    8.7931    0.0000 </r>
       <r>    9.5726    0.0000 </r>
       <r>    9.6331    0.0000 </r>
       <r>    9.9347    0.0000 </r>
       <r>    9.9800    0.0000 </r>
       <r>   10.0225    0.0000 </r>
       <r>   10.0579    0.0000 </r>
      </set>
     </set>
    </set>
   </array>
  </eigenvalues>
  <separator name="orbital magnetization" >
   <v name="MAGDIPOLOUT">      0.00000000      0.00000000      0.00000000</v>
  </separator>
  <dos>
   <i name="efermi">      3.90225602 </i>
   <total>
    <array>
     <dimension dim="1">gridpoints</dimension>
     <dimension dim="2">spin</dimension>
     <field>energy</field>
     <field>total</field>
     <field>integrated</field>
     <set>
      <set comment="spin 1">
       <r>   -41.7277     0.0000     0.0000 </r>
       <r>   -41.5468     0.0000     0.0000 </r>
       <r>   -41.3659     0.0000     0.0000 </r>
       <r>   -41.1851     0.0000     0.0000 </r>
       <r>   -41.0042     0.0000     0.0000 </r>
       <r>   -40.8233     0.0000     0.0000 </r>
       <r>   -40.6424     0.0000     0.0000 </r>
       <r>   -40.4615     0.0000     0.0000 </r>
       <r>   -40.2806     0.0000     0.0000 </r>
       <r>   -40.0997     0.0000     0.0000 </r>
       <r>   -39.9188     0.0000     0.0000 </r>
       <r>   -39.7379     0.0000     0.0000 </r>
       <r>   -39.5570     0.0000     0.0000 </r>
       <r>   -39.3761     0.0000     0.0000 </r>
       <r>   -39.1952     0.0000     2.0000 </r>
       <r>   -39.0144     0.0000     4.0000 </r>
       <r>   -38.8335     0.0000     4.0000 </r>
       <r>   -38.6526     0.0000     4.0000 </r>
       <r>   -38.4717     0.0000     4.0000 </r>
       <r>   -38.2908     0.0000     4.0000 </r>
       <r>   -38.1099     0.0000     4.0000 </r>
       <r>   -37.9290     0.0000     4.0000 </r>
       <r>   -37.7481     0.0000     4.0000 </r>
       <r>   -37.5672     0.0000     4.0000 </r>
       <r>   -37.3863     0.0000     4.0000 </r>
       <r>   -37.2054     0.0000     4.0000 </r>
       <r>   -37.0245     0.0000     4.0000 </r>
       <r>   -36.8436     0.0000     4.0000 </r>
       <r>   -36.6628     0.0000     4.0000 </r>
       <r>   -36.4819     0.0000     4.0000 </r>
       <r>   -36.3010     0.0000     4.0000 </r>
       <r>   -36.1201     0.0000     4.0000 </r>
       <r>   -35.9392     0.0000     4.0000 </r>
       <r>   -35.7583     0.0000     4.0000 </r>
       <r>   -35.5774     0.0000     4.0000 </r>
       <r>   -35.3965     0.0000     4.0000 </r>
       <r>   -35.2156     0.0000     4.0000 </r>
       <r>   -35.0347     0.0000     4.0000 </r>
       <r>   -34.8538     0.0000     4.0000 </r>
       <r>   -34.6729     0.0000     4.0000 </r>
       <r>   -34.4921     0.0000     4.0000 </r>
       <r>   -34.3112     0.0000     4.0000 </r>
       <r>   -34.1303     0.0000     4.0000 </r>
       <r>   -33.9494     0.0000     4.0000 </r>
       <r>   -33.7685     0.0000     4.0000 </r>
       <r>   -33.5876     0.0000     4.0000 </r>
       <r>   -33.4067     0.0000     4.0000 </r>
       <r>   -33.2258     0.0000     4.0000 </r>
       <r>   -33.0449     0.0000     4.0000 </r>
       <r>   -32.8640     0.0000     4.0000 </r>
       <r>   -32.6831     0.0000     4.0000 </r>
       <r>   -32.5022     0.0000     4.0000 </r>
       <r>   -32.3214     0.0000     4.0000 </r>
       <r>   -32.1405     0.0000     4.0000 </r>
       <r>   -31.9596     0.0000     4.0000 </r>
       <r>   -31.7787     0.0000     4.0000 </r>
       <r>   -31.5978     0.0000     4.0000 </r>
       <r>   -31.4169     0.0000     4.0000 </r>
       <r>   -31.2360     0.0000     4.0000 </r>
       <r>   -31.0551     0.0000     4.0000 </r>
       <r>   -30.8742     0.0000     4.0000 </r>
       <r>   -30.6933     0.0000     4.0000 </r>
       <r>   -30.5124     0.0000     4.0000 </r>
       <r>   -30.3315     0.0000     4.0000 </r>
       <r>   -30.1506     0.0000     4.0000 </r>
       <r>   -29.9698     0.0000     4.0000 </r>
       <r>   -29.7889     0.0000     4.0000 </r>
       <r>   -29.6080     0.0000     4.0000 </r>
       <r>   -29.4271     0.0000     4.0000 </r>
       <r>   -29.2462     0.0000     4.0000 </r>
       <r>   -29.0653     0.0000     4.0000 </r>
       <r>   -28.8844     0.0000     4.0000 </r>
       <r>   -28.7035     0.0000     4.0000 </r>
       <r>   -28.5226     0.0000     4.0000 </r>
       <r>   -28.3417     0.0000     4.0000 </r>
       <r>   -28.1608     0.0000     4.0000 </r>
       <r>   -27.9799     0.0000     4.0000 </r>
       <r>   -27.7991     0.0000     4.0000 </r>
       <r>   -27.6182     0.0000     4.0000 </r>
       <r>   -27.4373     0.0000     4.0000 </r>
       <r>   -27.2564     0.0000     4.0000 </r>
       <r>   -27.0755     0.0000     4.0000 </r>
       <r>   -26.8946     0.0000     4.0000 </r>
       <r>   -26.7137     0.0000     4.0000 </r>
       <r>   -26.5328     0.0000     4.0000 </r>
       <r>   -26.3519     0.0000     4.0000 </r>
       <r>   -26.1710     0.0000     4.0000 </r>
       <r>   -25.9901     0.0000     4.0000 </r>
       <r>   -25.8092     0.0000     4.0000 </r>
       <r>   -25.6284     0.0000     4.0000 </r>
       <r>   -25.4475     0.0000     4.0000 </r>
       <r>   -25.2666     0.0000     4.0000 </r>
       <r>   -25.0857     0.0000     4.0000 </r>
       <r>   -24.9048     0.0000     4.0000 </r>
       <r>   -24.7239     0.0000     4.0000 </r>
       <r>   -24.5430     0.0000     4.0000 </r>
       <r>   -24.3621     0.0000     4.0000 </r>
       <r>   -24.1812     0.0000     4.0000 </r>
       <r>   -24.0003     0.0000     4.0000 </r>
       <r>   -23.8194     0.0000     4.0000 </r>
       <r>   -23.6385     0.0000     4.0000 </r>
       <r>   -23.4576     0.0000     4.0000 </r>
       <r>   -23.2768     0.0000     4.0000 </r>
       <r>   -23.0959     0.0000     4.0000 </r>
       <r>   -22.9150     0.0000     4.0000 </r>
       <r>   -22.7341     0.0000     4.0000 </r>
       <r>   -22.5532     0.0000     4.0000 </r>
       <r>   -22.3723     0.0000     4.0000 </r>
       <r>   -22.1914     0.0000     4.0000 </r>
       <r>   -22.0105     0.0000     4.0000 </r>
       <r>   -21.8296     0.0000     4.0000 </r>
       <r>   -21.6487     0.0000     4.0000 </r>
       <r>   -21.4678     0.0000     4.0000 </r>
       <r>   -21.2869     0.0000     4.0000 </r>
       <r>   -21.1061     0.0000     4.0000 </r>
       <r>   -20.9252     0.0000     4.0000 </r>
       <r>   -20.7443     0.0000     4.0000 </r>
       <r>   -20.5634     0.0000     4.0000 </r>
       <r>   -20.3825     0.0000     4.0000 </r>
       <r>   -20.2016     0.0000     4.0000 </r>
       <r>   -20.0207     0.0000     4.0000 </r>
       <r>   -19.8398     0.0000     4.0000 </r>
       <r>   -19.6589     0.0000     4.0000 </r>
       <r>   -19.4780     0.0000     4.0000 </r>
       <r>   -19.2971     0.0000     4.0000 </r>
       <r>   -19.1162     0.0000    56.0000 </r>
       <r>   -18.9353     0.0000    84.0000 </r>
       <r>   -18.7545     0.0000   116.0000 </r>
       <r>   -18.5736     0.0000   146.0000 </r>
       <r>   -18.3927     0.0000   160.0000 </r>
       <r>   -18.2118     0.0000   164.0000 </r>
       <r>   -18.0309     0.0000   164.0000 </r>
       <r>   -17.8500     0.0000   164.0000 </r>
       <r>   -17.6691     0.0000   164.0000 </r>
       <r>   -17.4882     0.0000   164.0000 </r>
       <r>   -17.3073     0.0000   164.0000 </r>
       <r>   -17.1264     0.0000   164.0000 </r>
       <r>   -16.9455     0.0000   164.0000 </r>
       <r>   -16.7646     0.0000   164.0000 </r>
       <r>   -16.5838     0.0000   164.0000 </r>
       <r>   -16.4029     0.0000   164.0000 </r>
       <r>   -16.2220     0.0000   164.0000 </r>
       <r>   -16.0411     0.0000   164.0000 </r>
       <r>   -15.8602     0.0000   164.0000 </r>
       <r>   -15.6793     0.0000   164.0000 </r>
       <r>   -15.4984     0.0000   164.0000 </r>
       <r>   -15.3175     0.0000   164.0000 </r>
       <r>   -15.1366     0.0000   164.0000 </r>
       <r>   -14.9557     0.0000   164.0000 </r>
       <r>   -14.7748     0.0000   164.0000 </r>
       <r>   -14.5939     0.0000   164.0000 </r>
       <r>   -14.4131     0.0000   164.0000 </r>
       <r>   -14.2322     0.0000   164.0000 </r>
       <r>   -14.0513     0.0000   164.0000 </r>
       <r>   -13.8704     0.0000   166.0000 </r>
       <r>   -13.6895     0.0000   168.0000 </r>
       <r>   -13.5086     0.0000   172.0000 </r>
       <r>   -13.3277     0.0000   180.0000 </r>
       <r>   -13.1468     0.0000   182.0000 </r>
       <r>   -12.9659     0.0000   182.0000 </r>
       <r>   -12.7850  1201.2136   189.3386 </r>
       <r>   -12.6041     0.0000   190.0000 </r>
       <r>   -12.4232     0.0000   194.0000 </r>
       <r>   -12.2423     0.0000   196.0000 </r>
       <r>   -12.0615     0.0000   196.0000 </r>
       <r>   -11.8806     0.0000   196.0000 </r>
       <r>   -11.6997     0.0000   196.0000 </r>
       <r>   -11.5188     0.0000   196.0000 </r>
       <r>   -11.3379     0.0000   196.0000 </r>
       <r>   -11.1570     0.0000   196.0000 </r>
       <r>   -10.9761     0.0000   196.0000 </r>
       <r>   -10.7952     0.0000   196.0000 </r>
       <r>   -10.6143     0.0000   196.0000 </r>
       <r>   -10.4334     0.0000   196.0000 </r>
       <r>   -10.2525     0.0000   196.0000 </r>
       <r>   -10.0716     0.0000   196.0000 </r>
       <r>    -9.8908     0.0000   196.0000 </r>
       <r>    -9.7099     5.7413   196.1236 </r>
       <r>    -9.5290     5.5251   197.8827 </r>
       <r>    -9.3481     7.9235   199.1867 </r>
       <r>    -9.1672     0.3690   199.9974 </r>
       <r>    -8.9863    16.4759   202.4379 </r>
       <r>    -8.8054    34.1611   205.7377 </r>
       <r>    -8.6245    15.0138   208.6713 </r>
       <r>    -8.4436     2.9286   211.9748 </r>
       <r>    -8.2627    40.5880   215.8706 </r>
       <r>    -8.0818    25.5032   222.1960 </r>
       <r>    -7.9009    16.8376   224.5261 </r>
       <r>    -7.7201     4.1735   227.9544 </r>
       <r>    -7.5392     0.0000   228.0000 </r>
       <r>    -7.3583     0.0000   228.0000 </r>
       <r>    -7.1774     0.0000   228.0000 </r>
       <r>    -6.9965     0.0000   228.0000 </r>
       <r>    -6.8156     0.0000   228.0000 </r>
       <r>    -6.6347    19.5194   228.8311 </r>
       <r>    -6.4538    23.4479   233.1185 </r>
       <r>    -6.2729     2.1809   235.9750 </r>
       <r>    -6.0920    19.8486   238.6456 </r>
       <r>    -5.9111    25.7813   243.1327 </r>
       <r>    -5.7302    14.3756   246.4593 </r>
       <r>    -5.5493     9.4952   248.9680 </r>
       <r>    -5.3685     7.7550   251.6690 </r>
       <r>    -5.1876    12.0695   253.2290 </r>
       <r>    -5.0067     6.7183   255.1560 </r>
       <r>    -4.8258     4.1527   256.2921 </r>
       <r>    -4.6449     9.3477   257.5545 </r>
       <r>    -4.4640     4.5418   259.0379 </r>
       <r>    -4.2831     2.5995   259.6897 </r>
       <r>    -4.1022     0.5914   259.9772 </r>
       <r>    -3.9213     0.0000   260.0000 </r>
       <r>    -3.7404     0.0000   260.0000 </r>
       <r>    -3.5595     0.0000   260.0000 </r>
       <r>    -3.3786     0.0000   260.0000 </r>
       <r>    -3.1978     0.0000   260.0000 </r>
       <r>    -3.0169     0.0000   260.0000 </r>
       <r>    -2.8360     0.0000   260.0000 </r>
       <r>    -2.6551     0.0000   260.0000 </r>
       <r>    -2.4742     0.0000   260.0000 </r>
       <r>    -2.2933     0.0000   260.0000 </r>
       <r>    -2.1124     0.0000   260.0000 </r>
       <r>    -1.9315     0.0000   260.0000 </r>
       <r>    -1.7506     0.0000   260.0000 </r>
       <r>    -1.5697     3.2898   260.1073 </r>
       <r>    -1.3888     7.7747   261.1992 </r>
       <r>    -1.2079     9.1916   262.7781 </r>
       <r>    -1.0270    15.0940   264.8469 </r>
       <r>    -0.8462    17.8757   267.7236 </r>
       <r>    -0.6653    32.4466   273.8657 </r>
       <r>    -0.4844    34.4291   279.6452 </r>
       <r>    -0.3035    30.3975   285.8807 </r>
       <r>    -0.1226    35.5453   291.2626 </r>
       <r>     0.0583    28.3270   298.1287 </r>
       <r>     0.2392    40.0136   304.3869 </r>
       <r>     0.4201    41.6945   311.8049 </r>
       <r>     0.6010    37.7088   319.3933 </r>
       <r>     0.7819    25.8303   326.4980 </r>
       <r>     0.9628    44.3206   334.5233 </r>
       <r>     1.1437    38.4878   342.8946 </r>
       <r>     1.3245    35.8297   351.5374 </r>
       <r>     1.5054    45.1963   358.8394 </r>
       <r>     1.6863    36.2775   366.3744 </r>
       <r>     1.8672    52.6811   374.1596 </r>
       <r>     2.0481    59.7042   384.2612 </r>
       <r>     2.2290    57.8261   393.1808 </r>
       <r>     2.4099    51.3515   402.7046 </r>
       <r>     2.5908    62.1411   411.7822 </r>
       <r>     2.7717    52.7761   422.2271 </r>
       <r>     2.9526    41.7589   431.5029 </r>
       <r>     3.1335    37.9848   438.9913 </r>
       <r>     3.3144    19.4909   445.4221 </r>
       <r>     3.4952    18.6582   449.4050 </r>
       <r>     3.6761     5.5890   451.5878 </r>
       <r>     3.8570     0.2692   451.9978 </r>
       <r>     4.0379     0.0000   452.0000 </r>
       <r>     4.2188     0.0000   452.0000 </r>
       <r>     4.3997     0.0000   452.0000 </r>
       <r>     4.5806     0.0000   452.0000 </r>
       <r>     4.7615     0.0000   452.0000 </r>
       <r>     4.9424     4.4872   452.2663 </r>
       <r>     5.1233    10.9756   453.8071 </r>
       <r>     5.3042    10.1852   455.8328 </r>
       <r>     5.4851    19.0853   458.4564 </r>
       <r>     5.6660    17.5690   462.0009 </r>
       <r>     5.8468    14.1167   464.7441 </r>
       <r>     6.0277    14.5165   467.3035 </r>
       <r>     6.2086    16.5863   470.1051 </r>
       <r>     6.3895    18.7136   473.2943 </r>
       <r>     6.5704    21.3289   476.9139 </r>
       <r>     6.7513    22.8436   480.9562 </r>
       <r>     6.9322    27.7643   485.0980 </r>
       <r>     7.1131    30.8200   490.0501 </r>
       <r>     7.2940    32.1711   494.6511 </r>
       <r>     7.4749    34.4829   500.1513 </r>
       <r>     7.6558    29.4661   505.8982 </r>
       <r>     7.8367    31.6583   511.4697 </r>
       <r>     8.0175    26.7845   516.8096 </r>
       <r>     8.1984    31.4587   522.2701 </r>
       <r>     8.3793    35.5900   528.2784 </r>
       <r>     8.5602    31.0323   534.2778 </r>
       <r>     8.7411    30.2593   539.9842 </r>
       <r>     8.9220    18.4597   544.3422 </r>
       <r>     9.1029    13.2049   547.1124 </r>
       <r>     9.2838     8.0697   548.8028 </r>
       <r>     9.4647    10.4060   550.5173 </r>
       <r>     9.6456     9.2512   552.2283 </r>
       <r>     9.8265    20.4756   554.6742 </r>
       <r>    10.0074    27.4037   559.0034 </r>
       <r>    10.1883     0.0000   560.0000 </r>
       <r>    10.3691     0.0000   560.0000 </r>
       <r>    10.5500     0.0000   560.0000 </r>
       <r>    10.7309     0.0000   560.0000 </r>
       <r>    10.9118     0.0000   560.0000 </r>
       <r>    11.0927     0.0000   560.0000 </r>
       <r>    11.2736     0.0000   560.0000 </r>
       <r>    11.4545     0.0000   560.0000 </r>
       <r>    11.6354     0.0000   560.0000 </r>
       <r>    11.8163     0.0000   560.0000 </r>
       <r>    11.9972     0.0000   560.0000 </r>
       <r>    12.1781     0.0000   560.0000 </r>
       <r>    12.3590     0.0000   560.0000 </r>
       <r>    12.5398     0.0000   560.0000 </r>
      </set>
     </set>
    </array>
   </total>
  </dos>
 </calculation>
 <structure name="finalpos" >
  <crystal>
   <varray name="basis" >
    <v>      11.30240051       0.08930267      -0.00382934 </v>
    <v>       0.07457793       9.63198736      -0.00259568 </v>
    <v>      -0.00361590      -0.00415756      11.27679508 </v>
   </varray>
   <i name="volume">   1227.56819014 </i>
   <varray name="rec_basis" >
    <v>       0.08848220      -0.00068509       0.00002812 </v>
    <v>      -0.00082035       0.10382710       0.00003802 </v>
    <v>       0.00002986       0.00002367       0.08867770 </v>
   </varray>
  </crystal>
  <varray name="positions" >
   <v>       0.32559361      -0.02957234       0.20732901 </v>
   <v>       0.58424921       0.98216807       0.12690866 </v>
   <v>       0.87584542       0.00308247       0.46363847 </v>
   <v>       0.86849176      -0.00691108       0.20418109 </v>
   <v>       0.37898847       0.00267448       0.92004308 </v>
   <v>       0.12769517      -0.00003439       0.69174939 </v>
   <v>       0.37720104       0.00259623       0.65788770 </v>
   <v>       0.62634421       0.00567063       0.69503898 </v>
   <v>       0.87728111       0.00262677       0.72203144 </v>
   <v>      -0.00036109       0.27979172       0.07432561 </v>
   <v>       0.25792815       0.69397061       0.05811099 </v>
   <v>       0.25181145       0.29032683       0.30741500 </v>
   <v>       0.49904309       0.71641527       0.29733383 </v>
   <v>       0.49916236       0.30595417       0.05750067 </v>
   <v>       0.75354016       0.69822082       0.07471539 </v>
   <v>       0.75323455       0.31731227       0.31541189 </v>
   <v>      -0.00059827       0.68382881       0.31423978 </v>
   <v>       0.00041495       0.31535815       0.56525678 </v>
   <v>       0.25209766       0.68777494       0.55475389 </v>
   <v>       0.25263870       0.31799143       0.81063275 </v>
   <v>       0.50189139       0.68655466       0.80722492 </v>
   <v>       0.50271396       0.31627623       0.55380402 </v>
   <v>       0.75530844       0.69014704       0.56589717 </v>
   <v>       0.74829768       0.32109854       0.81941409 </v>
   <v>       0.00640297       0.68450716       0.81961425 </v>
   <v>       0.25770424       0.33995372       0.05403314 </v>
   <v>      -0.00076522       0.67971877       0.06426704 </v>
   <v>       0.50814117       0.31221046       0.31283659 </v>
   <v>       0.24958891       0.69355486       0.31197512 </v>
   <v>       0.75725134       0.34266481       0.06229374 </v>
   <v>       0.50262235       0.63593463       0.06031594 </v>
   <v>       0.00443190       0.35958355       0.31320470 </v>
   <v>       0.74851173       0.63845841       0.31377413 </v>
   <v>       0.25714319       0.34077360       0.56248466 </v>
   <v>       0.00032889       0.63703170       0.56635972 </v>
   <v>       0.50725173       0.36997183       0.80909797 </v>
   <v>       0.24938757       0.63843732       0.81051025 </v>
   <v>       0.75733664       0.36783456       0.56518767 </v>
   <v>       0.50074807       0.66974227       0.56533874 </v>
   <v>       0.00753925       0.33497695       0.80853434 </v>
   <v>       0.74866362       0.67395542       0.80836207 </v>
   <v>       0.49431145       0.09732164       0.01937057 </v>
   <v>       0.29199480       0.89950597       0.03922890 </v>
   <v>       0.23864672       0.08786504       0.30357419 </v>
   <v>      -0.05327517       0.88888598       0.33831072 </v>
   <v>       0.97757281       0.07765026       0.09500124 </v>
   <v>       0.74047313       0.90502242       0.11243296 </v>
   <v>       0.79616102       0.10764206       0.33633375 </v>
   <v>       0.48786366       0.91623597       0.25278672 </v>
   <v>       0.51015349       0.10432196       0.59528636 </v>
   <v>       0.24488062       0.89960778       0.59528274 </v>
   <v>       0.26938803       0.08880996       0.78595156 </v>
   <v>       0.01112792       0.89777484       0.78468691 </v>
   <v>       0.98410200       0.08705386       0.59397550 </v>
   <v>       0.76910754       0.91838596       0.59473018 </v>
   <v>       0.74436134       0.10679264       0.78732122 </v>
   <v>       0.48507911       0.91503128       0.78468177 </v>
  </varray>
 </structure>
</modeling>
