<?xml version="1.0" encoding="ISO-8859-1"?>
<modeling>
 <generator>
  <i name="program" type="string">vasp </i>
  <i name="version" type="string">5.4.4.18Apr17-6-g9f103f2a35  </i>
  <i name="subversion" type="string">(build Jul 31 2017 11:33:29) complex            parallel </i>
  <i name="platform" type="string">LinuxIFC </i>
  <i name="date" type="string">2021 09 29 </i>
  <i name="time" type="string">04:33:33 </i>
 </generator>
 <incar>
  <i type="string" name="SYSTEM"> La2O2S</i>
  <i type="string" name="PREC">normal</i>
  <i type="int" name="NELMIN">     4</i>
  <i type="int" name="IBRION">     2</i>
  <i type="int" name="NFREE">    10</i>
  <i name="EDIFF">      0.00000100</i>
  <i name="EDIFFG">     -0.01000000</i>
  <i type="int" name="NSW">     1</i>
  <i type="int" name="ISIF">     2</i>
  <i name="ENCUT">    600.00000000</i>
  <i name="ENAUG">    900.00000000</i>
  <i type="int" name="ISMEAR">    -5</i>
  <i type="logical" name="LWAVE"> F  </i>
  <i type="logical" name="LCHARG"> F  </i>
  <v type="int" name="KPOINT_BSE">    -1     0     0     0</v>
 </incar>
 <structure name="primitive_cell" >
  <crystal>
   <varray name="basis" >
    <v>      11.17850000       0.00000000       0.00000000 </v>
    <v>       0.00000000       9.57460000       0.00000000 </v>
    <v>       0.00000000       0.00000000      11.18240000 </v>
   </varray>
   <i name="volume">   1196.84853820 </i>
   <varray name="rec_basis" >
    <v>       0.08945744       0.00000000       0.00000000 </v>
    <v>       0.00000000       0.10444301       0.00000000 </v>
    <v>       0.00000000       0.00000000       0.08942624 </v>
   </varray>
  </crystal>
  <varray name="positions" >
   <v>       0.37539000       0.00017000       0.43687000 </v>
   <v>      -0.49987000      -0.07798000       0.31246000 </v>
   <v>       0.25013000       0.07798000       0.31246000 </v>
   <v>       0.49987000       0.07798000      -0.43754000 </v>
   <v>       0.24987000      -0.07798000      -0.43754000 </v>
   <v>      -0.37461000      -0.00016000       0.43687000 </v>
   <v>       0.37461000       0.00017000       0.18687000 </v>
   <v>       0.49987000      -0.29519000       0.31282000 </v>
   <v>       0.24987000       0.29519000       0.31282000 </v>
   <v>      -0.49987000       0.29519000      -0.43719000 </v>
   <v>       0.25013000      -0.29519000      -0.43719000 </v>
   <v>       0.49995000       0.32677000       0.31286000 </v>
   <v>       0.24995000      -0.32677000       0.31286000 </v>
   <v>      -0.49995000      -0.32677000      -0.43714000 </v>
   <v>       0.25005000       0.32677000      -0.43714000 </v>
   <v>      -0.37539000      -0.00016000       0.18687000 </v>
   <v>      -0.37539000      -0.00016000      -0.31313000 </v>
   <v>       0.12461000      -0.00016000       0.18687000 </v>
   <v>       0.12461000      -0.00016000      -0.31313000 </v>
   <v>       0.49987000       0.07798000       0.06246000 </v>
   <v>      -0.24987000       0.07798000       0.31246000 </v>
   <v>      -0.25013000      -0.07798000      -0.43754000 </v>
   <v>       0.24987000      -0.07798000       0.06246000 </v>
   <v>       0.00013000      -0.07798000       0.31246000 </v>
   <v>      -0.49987000      -0.07798000      -0.18754000 </v>
   <v>      -0.00013000       0.07798000      -0.43754000 </v>
   <v>       0.25013000       0.07798000      -0.18754000 </v>
   <v>      -0.49987000       0.29519000       0.06281000 </v>
   <v>      -0.25013000       0.29519000       0.31282000 </v>
   <v>       0.25013000      -0.29519000       0.06281000 </v>
   <v>      -0.24987000      -0.29519000      -0.43719000 </v>
   <v>      -0.00013000      -0.29519000       0.31282000 </v>
   <v>       0.00013000       0.29519000      -0.43719000 </v>
   <v>       0.49987000      -0.29519000      -0.18718000 </v>
   <v>       0.24987000       0.29519000      -0.18718000 </v>
   <v>      -0.49995000      -0.32677000       0.06286000 </v>
   <v>       0.25005000       0.32677000       0.06286000 </v>
   <v>      -0.25005000      -0.32677000       0.31286000 </v>
   <v>      -0.24995000       0.32677000      -0.43714000 </v>
   <v>      -0.00005000       0.32677000       0.31286000 </v>
   <v>       0.00005000      -0.32677000      -0.43714000 </v>
   <v>       0.49995000       0.32677000      -0.18714000 </v>
   <v>       0.24995000      -0.32677000      -0.18714000 </v>
   <v>      -0.12461000       0.00017000       0.43687000 </v>
   <v>       0.37539000       0.00017000      -0.06313000 </v>
   <v>      -0.25013000      -0.07798000       0.06246000 </v>
   <v>      -0.00013000       0.07798000       0.06246000 </v>
   <v>      -0.24987000       0.07798000      -0.18754000 </v>
   <v>       0.00013000      -0.07798000      -0.18754000 </v>
   <v>      -0.12539000       0.00017000       0.18687000 </v>
   <v>      -0.12539000       0.00017000      -0.31313000 </v>
   <v>       0.12539000      -0.00016000      -0.06313000 </v>
   <v>      -0.37461000      -0.00016000      -0.06313000 </v>
   <v>      -0.24987000      -0.29519000       0.06281000 </v>
   <v>       0.00013000       0.29519000       0.06281000 </v>
   <v>      -0.25013000       0.29519000      -0.18718000 </v>
   <v>      -0.00013000      -0.29519000      -0.18718000 </v>
   <v>      -0.24995000       0.32677000       0.06286000 </v>
   <v>       0.00005000      -0.32677000       0.06286000 </v>
   <v>      -0.25005000      -0.32677000      -0.18714000 </v>
   <v>      -0.00005000       0.32677000      -0.18714000 </v>
   <v>      -0.12461000       0.00017000      -0.06313000 </v>
  </varray>
 </structure>
 <varray name="primitive_index" >
  <v type="int" >        1 </v>
  <v type="int" >       54 </v>
  <v type="int" >       49 </v>
  <v type="int" >       55 </v>
  <v type="int" >       56 </v>
  <v type="int" >        4 </v>
  <v type="int" >        3 </v>
  <v type="int" >       18 </v>
  <v type="int" >       17 </v>
  <v type="int" >       27 </v>
  <v type="int" >       24 </v>
  <v type="int" >       33 </v>
  <v type="int" >       34 </v>
  <v type="int" >       44 </v>
  <v type="int" >       39 </v>
  <v type="int" >        6 </v>
  <v type="int" >       14 </v>
  <v type="int" >        2 </v>
  <v type="int" >       13 </v>
  <v type="int" >       47 </v>
  <v type="int" >       53 </v>
  <v type="int" >       60 </v>
  <v type="int" >       48 </v>
  <v type="int" >       50 </v>
  <v type="int" >       62 </v>
  <v type="int" >       59 </v>
  <v type="int" >       57 </v>
  <v type="int" >       19 </v>
  <v type="int" >       21 </v>
  <v type="int" >       16 </v>
  <v type="int" >       28 </v>
  <v type="int" >       22 </v>
  <v type="int" >       23 </v>
  <v type="int" >       26 </v>
  <v type="int" >       25 </v>
  <v type="int" >       36 </v>
  <v type="int" >       31 </v>
  <v type="int" >       38 </v>
  <v type="int" >       43 </v>
  <v type="int" >       37 </v>
  <v type="int" >       40 </v>
  <v type="int" >       41 </v>
  <v type="int" >       42 </v>
  <v type="int" >        5 </v>
  <v type="int" >        9 </v>
  <v type="int" >       52 </v>
  <v type="int" >       51 </v>
  <v type="int" >       61 </v>
  <v type="int" >       58 </v>
  <v type="int" >        7 </v>
  <v type="int" >       12 </v>
  <v type="int" >        8 </v>
  <v type="int" >       10 </v>
  <v type="int" >       20 </v>
  <v type="int" >       15 </v>
  <v type="int" >       29 </v>
  <v type="int" >       30 </v>
  <v type="int" >       35 </v>
  <v type="int" >       32 </v>
  <v type="int" >       46 </v>
  <v type="int" >       45 </v>
  <v type="int" >       11 </v>
 </varray>
 <kpoints>
  <generation param="Gamma">
   <v type="int" name="divisions">       2        2        2 </v>
   <v name="usershift">      0.00000000       0.00000000       0.00000000 </v>
   <v name="genvec1">      0.50000000       0.00000000       0.00000000 </v>
   <v name="genvec2">      0.00000000       0.50000000       0.00000000 </v>
   <v name="genvec3">      0.00000000       0.00000000       0.50000000 </v>
   <v name="shift">      0.00000000       0.00000000       0.00000000 </v>
  </generation>
  <varray name="kpointlist" >
   <v>       0.00000000       0.00000000       0.00000000 </v>
   <v>       0.50000000       0.00000000       0.00000000 </v>
   <v>       0.00000000       0.50000000       0.00000000 </v>
   <v>       0.50000000       0.50000000       0.00000000 </v>
   <v>       0.00000000       0.00000000       0.50000000 </v>
   <v>       0.50000000       0.00000000       0.50000000 </v>
   <v>       0.00000000       0.50000000       0.50000000 </v>
   <v>       0.50000000       0.50000000       0.50000000 </v>
  </varray>
  <varray name="weights" >
   <v>       0.12500000 </v>
   <v>       0.12500000 </v>
   <v>       0.12500000 </v>
   <v>       0.12500000 </v>
   <v>       0.12500000 </v>
   <v>       0.12500000 </v>
   <v>       0.12500000 </v>
   <v>       0.12500000 </v>
  </varray>
  <varray name="tetrahedronlist"  type="int" >
   <v type="int" >        2        1        2        4        5 </v>
   <v type="int" >        2        1        3        4        5 </v>
   <v type="int" >        2        3        4        5        7 </v>
   <v type="int" >        2        2        4        5        6 </v>
   <v type="int" >        2        4        5        6        8 </v>
   <v type="int" >        2        4        5        7        8 </v>
   <v type="int" >        2        1        2        3        6 </v>
   <v type="int" >        2        2        3        4        6 </v>
   <v type="int" >        2        3        4        6        8 </v>
   <v type="int" >        2        1        3        5        6 </v>
   <v type="int" >        2        3        5        6        7 </v>
   <v type="int" >        2        3        6        7        8 </v>
   <v type="int" >        2        2        3        4        7 </v>
   <v type="int" >        2        1        2        3        7 </v>
   <v type="int" >        2        1        2        5        7 </v>
   <v type="int" >        2        2        4        7        8 </v>
   <v type="int" >        2        2        6        7        8 </v>
   <v type="int" >        2        2        5        6        7 </v>
   <v type="int" >        2        1        3        4        8 </v>
   <v type="int" >        2        1        2        4        8 </v>
   <v type="int" >        2        1        2        6        8 </v>
   <v type="int" >        2        1        3        7        8 </v>
   <v type="int" >        2        1        5        7        8 </v>
   <v type="int" >        2        1        5        6        8 </v>
  </varray>
  <i name="volumeweight">      0.02083333 </i>
 </kpoints>
 <parameters>
  <separator name="general" >
   <i type="string" name="SYSTEM">La2O2S</i>
   <i type="logical" name="LCOMPAT"> F  </i>
  </separator>
  <separator name="electronic" >
   <i type="string" name="PREC">normal</i>
   <i name="ENMAX">    600.00000000</i>
   <i name="ENAUG">    900.00000000</i>
   <i name="EDIFF">      0.00000100</i>
   <i type="int" name="IALGO">    38</i>
   <i type="int" name="IWAVPR">    11</i>
   <i type="int" name="NBANDS">   308</i>
   <i name="NELECT">    472.00000000</i>
   <i type="int" name="TURBO">     0</i>
   <i type="int" name="IRESTART">     0</i>
   <i type="int" name="NREBOOT">     0</i>
   <i type="int" name="NMIN">     0</i>
   <i name="EREF">      0.00000000</i>
   <separator name="electronic smearing" >
    <i type="int" name="ISMEAR">    -5</i>
    <i name="SIGMA">      0.20000000</i>
    <i name="KSPACING">      0.50000000</i>
    <i type="logical" name="KGAMMA"> T  </i>
   </separator>
   <separator name="electronic projectors" >
    <i type="logical" name="LREAL"> F  </i>
    <v name="ROPT">      0.00000000      0.00000000      0.00000000      0.00000000      0.00000000</v>
    <i type="int" name="LMAXPAW">  -100</i>
    <i type="int" name="LMAXMIX">     2</i>
    <i type="logical" name="NLSPLINE"> F  </i>
   </separator>
   <separator name="electronic startup" >
    <i type="int" name="ISTART">     0</i>
    <i type="int" name="ICHARG">     2</i>
    <i type="int" name="INIWAV">     1</i>
   </separator>
   <separator name="electronic spin" >
    <i type="int" name="ISPIN">     1</i>
    <i type="logical" name="LNONCOLLINEAR"> F  </i>
    <v name="MAGMOM">      1.00000000      1.00000000      1.00000000      1.00000000      1.00000000      1.00000000      1.00000000      1.00000000      1.00000000      1.00000000      1.00000000      1.00000000      1.00000000      1.00000000      1.00000000      1.00000000      1.00000000      1.00000000      1.00000000      1.00000000
      1.00000000      1.00000000      1.00000000      1.00000000      1.00000000      1.00000000      1.00000000      1.00000000      1.00000000      1.00000000      1.00000000      1.00000000      1.00000000      1.00000000      1.00000000      1.00000000      1.00000000      1.00000000      1.00000000      1.00000000
      1.00000000      1.00000000      1.00000000      1.00000000      1.00000000      1.00000000      1.00000000      1.00000000      1.00000000      1.00000000      1.00000000      1.00000000      1.00000000      1.00000000      1.00000000      1.00000000      1.00000000      1.00000000      1.00000000      1.00000000
      1.00000000      1.00000000</v>
    <i name="NUPDOWN">     -1.00000000</i>
    <i type="logical" name="LSORBIT"> F  </i>
    <v name="SAXIS">      0.00000000      0.00000000      1.00000000</v>
    <i type="logical" name="LSPIRAL"> F  </i>
    <v name="QSPIRAL">      0.00000000      0.00000000      0.00000000</v>
    <i type="logical" name="LZEROZ"> F  </i>
   </separator>
   <separator name="electronic exchange-correlation" >
    <i type="logical" name="LASPH"> F  </i>
    <i type="logical" name="LMETAGGA"> F  </i>
   </separator>
   <separator name="electronic convergence" >
    <i type="int" name="NELM">    60</i>
    <i type="int" name="NELMDL">    -5</i>
    <i type="int" name="NELMIN">     4</i>
    <i name="ENINI">    600.00000000</i>
    <separator name="electronic convergence detail" >
     <i type="logical" name="LDIAG"> T  </i>
     <i type="logical" name="LSUBROT"> F  </i>
     <i name="WEIMIN">      0.00100000</i>
     <i name="EBREAK">      0.00000000</i>
     <i name="DEPER">      0.30000000</i>
     <i type="int" name="NRMM">     4</i>
     <i name="TIME">      0.40000000</i>
    </separator>
   </separator>
   <separator name="electronic mixer" >
    <i name="AMIX">      0.40000000</i>
    <i name="BMIX">      1.00000000</i>
    <i name="AMIN">      0.10000000</i>
    <i name="AMIX_MAG">      1.60000000</i>
    <i name="BMIX_MAG">      1.00000000</i>
    <separator name="electronic mixer details" >
     <i type="int" name="IMIX">     4</i>
     <i type="logical" name="MIXFIRST"> F  </i>
     <i type="int" name="MAXMIX">   -45</i>
     <i name="WC">    100.00000000</i>
     <i type="int" name="INIMIX">     1</i>
     <i type="int" name="MIXPRE">     1</i>
     <i type="int" name="MREMOVE">     5</i>
    </separator>
   </separator>
   <separator name="electronic dipolcorrection" >
    <i type="logical" name="LDIPOL"> F  </i>
    <i type="logical" name="LMONO"> F  </i>
    <i type="int" name="IDIPOL">     0</i>
    <i name="EPSILON">      1.00000000</i>
    <v name="DIPOL">   -100.00000000   -100.00000000   -100.00000000</v>
    <i name="EFIELD">      0.00000000</i>
   </separator>
  </separator>
  <separator name="grids" >
   <i type="int" name="NGX">    70</i>
   <i type="int" name="NGY">    60</i>
   <i type="int" name="NGZ">    70</i>
   <i type="int" name="NGXF">   140</i>
   <i type="int" name="NGYF">   120</i>
   <i type="int" name="NGZF">   140</i>
   <i type="logical" name="ADDGRID"> F  </i>
  </separator>
  <separator name="ionic" >
   <i type="int" name="NSW">     1</i>
   <i type="int" name="IBRION">     2</i>
   <i type="int" name="MDALGO">     0</i>
   <i type="int" name="ISIF">     2</i>
   <i name="PSTRESS">      0.00000000</i>
   <i name="EDIFFG">     -0.01000000</i>
   <i type="int" name="NFREE">    10</i>
   <i name="POTIM">      0.50000000</i>
   <i name="SMASS">     -3.00000000</i>
   <i name="SCALEE">      1.00000000</i>
  </separator>
  <separator name="ionic md" >
   <i name="TEBEG">      0.00010000</i>
   <i name="TEEND">      0.00010000</i>
   <i type="int" name="NBLOCK">     1</i>
   <i type="int" name="KBLOCK">     1</i>
   <i type="int" name="NPACO">   256</i>
   <i name="APACO">     16.00000000</i>
  </separator>
  <separator name="symmetry" >
   <i type="int" name="ISYM">     2</i>
   <i name="SYMPREC">      0.00001000</i>
  </separator>
  <separator name="dos" >
   <i type="int" name="LORBIT">     0</i>
   <v name="RWIGS">     -1.00000000     -1.00000000     -1.00000000     -1.00000000     -1.00000000</v>
   <i type="int" name="NEDOS">   301</i>
   <i name="EMIN">     10.00000000</i>
   <i name="EMAX">    -10.00000000</i>
   <i name="EFERMI">      0.00000000</i>
  </separator>
  <separator name="writing" >
   <i type="int" name="NWRITE">     2</i>
   <i type="logical" name="LWAVE"> F  </i>
   <i type="logical" name="LDOWNSAMPLE"> F  </i>
   <i type="logical" name="LCHARG"> F  </i>
   <i type="logical" name="LPARD"> F  </i>
   <i type="logical" name="LVTOT"> F  </i>
   <i type="logical" name="LVHAR"> F  </i>
   <i type="logical" name="LELF"> F  </i>
   <i type="logical" name="LOPTICS"> F  </i>
   <v name="STM">      0.00000000      0.00000000      0.00000000      0.00000000      0.00000000      0.00000000      0.00000000</v>
  </separator>
  <separator name="performance" >
   <i type="int" name="NPAR">    28</i>
   <i type="int" name="NSIM">     4</i>
   <i type="int" name="NBLK">    -1</i>
   <i type="logical" name="LPLANE"> T  </i>
   <i type="logical" name="LSCALAPACK"> T  </i>
   <i type="logical" name="LSCAAWARE"> F  </i>
   <i type="logical" name="LSCALU"> F  </i>
   <i type="logical" name="LASYNC"> F  </i>
   <i type="logical" name="LORBITALREAL"> F  </i>
  </separator>
  <separator name="miscellaneous" >
   <i type="int" name="IDIOT">     3</i>
   <i type="int" name="ISPECIAL">     0</i>
   <i type="logical" name="LMUSIC"> F  </i>
   <v name="POMASS">      7.01000000     24.30500000    208.98000000     32.06600000     16.00000000</v>
   <v name="DARWINR">      0.00000000      0.00000000      0.00000000      0.00000000      0.00000000</v>
   <v name="DARWINV">      1.00000000      1.00000000      1.00000000      1.00000000      1.00000000</v>
   <i type="logical" name="LCORR"> T  </i>
  </separator>
  <i type="logical" name="GGA_COMPAT"> T  </i>
  <i type="logical" name="LBERRY"> F  </i>
  <i type="int" name="ICORELEVEL">     0</i>
  <i type="logical" name="LDAU"> F  </i>
  <i type="int" name="I_CONSTRAINED_M">     0</i>
  <separator name="electronic exchange-correlation" >
   <i type="string" name="GGA">--</i>
   <i type="int" name="VOSKOWN">     0</i>
   <i type="logical" name="LHFCALC"> F  </i>
   <i type="string" name="PRECFOCK"></i>
   <i type="logical" name="LSYMGRAD"> F  </i>
   <i type="logical" name="LHFONE"> F  </i>
   <i type="logical" name="LRHFCALC"> F  </i>
   <i type="logical" name="LTHOMAS"> F  </i>
   <i type="logical" name="LMODELHF"> F  </i>
   <i name="ENCUT4O">     -1.00000000</i>
   <i type="int" name="EXXOEP">     0</i>
   <i type="int" name="FOURORBIT">     0</i>
   <i name="AEXX">      0.00000000</i>
   <i name="HFALPHA">      0.00000000</i>
   <i name="MCALPHA">      0.00000000</i>
   <i name="ALDAX">      1.00000000</i>
   <i name="AGGAX">      1.00000000</i>
   <i name="ALDAC">      1.00000000</i>
   <i name="AGGAC">      1.00000000</i>
   <i type="int" name="NKREDX">     1</i>
   <i type="int" name="NKREDY">     1</i>
   <i type="int" name="NKREDZ">     1</i>
   <i type="logical" name="SHIFTRED"> F  </i>
   <i type="logical" name="ODDONLY"> F  </i>
   <i type="logical" name="EVENONLY"> F  </i>
   <i type="int" name="LMAXFOCK">     0</i>
   <i type="int" name="NMAXFOCKAE">     0</i>
   <i type="logical" name="LFOCKAEDFT"> F  </i>
   <i name="HFSCREEN">      0.00000000</i>
   <i name="HFSCREENC">      0.00000000</i>
   <i type="int" name="NBANDSGWLOW">     0</i>
  </separator>
  <separator name="vdW DFT" >
   <i type="logical" name="LUSE_VDW"> F  </i>
   <i name="Zab_VDW">     -0.84910000</i>
   <i name="PARAM1">      0.12340000</i>
   <i name="PARAM2">      1.00000000</i>
   <i name="PARAM3">      0.00000000</i>
  </separator>
  <separator name="model GW" >
   <i type="int" name="MODEL_GW">     0</i>
   <i name="MODEL_EPS0">     11.58240521</i>
   <i name="MODEL_ALPHA">      1.00000000</i>
  </separator>
  <separator name="linear response parameters" >
   <i type="logical" name="LEPSILON"> F  </i>
   <i type="logical" name="LRPA"> F  </i>
   <i type="logical" name="LNABLA"> F  </i>
   <i type="logical" name="LVEL"> F  </i>
   <i type="int" name="KINTER">     0</i>
   <i name="CSHIFT">      0.10000000</i>
   <i name="OMEGAMAX">     -1.00000000</i>
   <i name="DEG_THRESHOLD">      0.00200000</i>
   <i name="RTIME">     -0.10000000</i>
   <i name="WPLASMAI">      0.00000000</i>
   <v name="DFIELD">      0.00000000      0.00000000      0.00000000</v>
   <v name="WPLASMA">      0.00000000      0.00000000      0.00000000      0.00000000      0.00000000      0.00000000      0.00000000      0.00000000      0.00000000</v>
  </separator>
  <separator name="orbital magnetization" >
   <i type="logical" name="NUCIND"> F  </i>
   <v name="MAGPOS">      0.00000000      0.00000000      0.00000000</v>
   <i type="logical" name="LNICSALL"> T  </i>
   <i type="logical" name="ORBITALMAG"> F  </i>
   <i type="logical" name="LMAGBLOCH"> F  </i>
   <i type="logical" name="LCHIMAG"> F  </i>
   <i type="logical" name="LGAUGE"> T  </i>
   <i type="int" name="MAGATOM">     0</i>
   <v name="MAGDIPOL">      0.00000000      0.00000000      0.00000000</v>
   <v name="AVECCONST">      0.00000000      0.00000000      0.00000000</v>
  </separator>
  <separator name="response functions" >
   <i type="logical" name="LADDER"> F  </i>
   <i type="logical" name="LRPAFORCE"> F  </i>
   <i type="logical" name="LFXC"> F  </i>
   <i type="logical" name="LHARTREE"> T  </i>
   <i type="int" name="IBSE">     0</i>
   <v type="int" name="KPOINT">    -1     0     0     0</v>
   <i type="logical" name="LTCTE"> F  </i>
   <i type="logical" name="LTETE"> F  </i>
   <i type="logical" name="LTRIPLET"> F  </i>
   <i type="logical" name="LFXCEPS"> F  </i>
   <i type="logical" name="LFXHEG"> F  </i>
   <i type="int" name="NATURALO">     2</i>
   <i type="logical" name="L2ORDER"> F  </i>
   <i type="logical" name="LMP2LT"> F  </i>
   <i type="logical" name="LUSEW"> F  </i>
   <i name="ENCUTGW">     -2.00000000</i>
   <i name="ENCUTGWSOFT">     -2.00000000</i>
   <i name="ENCUTLF">     -1.00000000</i>
   <i type="int" name="LMAXMP2">    -1</i>
   <i name="SCISSOR">      0.00000000</i>
   <i type="int" name="NOMEGA">     0</i>
   <i type="int" name="NOMEGAR">     0</i>
   <i type="int" name="NBANDSGW">    -1</i>
   <i type="int" name="NBANDSO">    -1</i>
   <i type="int" name="NBANDSV">    -1</i>
   <i type="int" name="NELM">     1</i>
   <i type="int" name="NELMHF">     1</i>
   <i type="int" name="DIM">     3</i>
   <i type="int" name="ANTIRES">     0</i>
   <i name="OMEGAMAX">    -30.00000000</i>
   <i name="OMEGAMIN">    -30.00000000</i>
   <i name="OMEGATL">   -200.00000000</i>
   <i type="int" name="OMEGAGRID">   140</i>
   <i name="CSHIFT">     -0.10000000</i>
   <i type="logical" name="SELFENERGY"> F  </i>
   <i type="logical" name="LSPECTRAL"> F  </i>
   <i type="logical" name="LSPECTRALGW"> F  </i>
   <i type="logical" name="LSINGLES"> F  </i>
   <i type="logical" name="LFERMIGW"> F  </i>
   <i type="logical" name="ODDONLYGW"> F  </i>
   <i type="logical" name="EVENONLYGW"> F  </i>
   <i type="int" name="NKREDLFX">     1</i>
   <i type="int" name="NKREDLFY">     1</i>
   <i type="int" name="NKREDLFZ">     1</i>
   <i type="int" name="MAXMEM">  2800</i>
   <i type="int" name="TELESCOPE">     0</i>
   <i type="int" name="TAUPAR">     1</i>
   <i type="int" name="OMEGAPAR">    -1</i>
   <i name="LAMBDA">      1.00000000</i>
  </separator>
  <separator name="External order field" >
   <i name="OFIELD_KAPPA">      0.00000000</i>
   <v name="OFIELD_K">      0.00000000      0.00000000      0.00000000</v>
   <i name="OFIELD_Q6_NEAR">      0.00000000</i>
   <i name="OFIELD_Q6_FAR">      0.00000000</i>
   <i name="OFIELD_A">      0.00000000</i>
  </separator>
 </parameters>
 <atominfo>
  <atoms>      62 </atoms>
  <types>       5 </types>
  <array name="atoms" >
   <dimension dim="1">ion</dimension>
   <field type="string">element</field>
   <field type="int">atomtype</field>
   <set>
    <rc><c>Li</c><c>   1</c></rc>
    <rc><c>Li</c><c>   1</c></rc>
    <rc><c>Li</c><c>   1</c></rc>
    <rc><c>Li</c><c>   1</c></rc>
    <rc><c>Li</c><c>   1</c></rc>
    <rc><c>Li</c><c>   1</c></rc>
    <rc><c>Li</c><c>   1</c></rc>
    <rc><c>Li</c><c>   1</c></rc>
    <rc><c>Li</c><c>   1</c></rc>
    <rc><c>Li</c><c>   1</c></rc>
    <rc><c>Li</c><c>   1</c></rc>
    <rc><c>Li</c><c>   1</c></rc>
    <rc><c>Mg</c><c>   2</c></rc>
    <rc><c>Mg</c><c>   2</c></rc>
    <rc><c>Bi</c><c>   3</c></rc>
    <rc><c>Bi</c><c>   3</c></rc>
    <rc><c>Bi</c><c>   3</c></rc>
    <rc><c>Bi</c><c>   3</c></rc>
    <rc><c>Bi</c><c>   3</c></rc>
    <rc><c>Bi</c><c>   3</c></rc>
    <rc><c>Bi</c><c>   3</c></rc>
    <rc><c>Bi</c><c>   3</c></rc>
    <rc><c>Bi</c><c>   3</c></rc>
    <rc><c>Bi</c><c>   3</c></rc>
    <rc><c>Bi</c><c>   3</c></rc>
    <rc><c>Bi</c><c>   3</c></rc>
    <rc><c>Bi</c><c>   3</c></rc>
    <rc><c>Bi</c><c>   3</c></rc>
    <rc><c>Bi</c><c>   3</c></rc>
    <rc><c>Bi</c><c>   3</c></rc>
    <rc><c>S </c><c>   4</c></rc>
    <rc><c>S </c><c>   4</c></rc>
    <rc><c>S </c><c>   4</c></rc>
    <rc><c>S </c><c>   4</c></rc>
    <rc><c>S </c><c>   4</c></rc>
    <rc><c>S </c><c>   4</c></rc>
    <rc><c>S </c><c>   4</c></rc>
    <rc><c>S </c><c>   4</c></rc>
    <rc><c>S </c><c>   4</c></rc>
    <rc><c>S </c><c>   4</c></rc>
    <rc><c>S </c><c>   4</c></rc>
    <rc><c>S </c><c>   4</c></rc>
    <rc><c>S </c><c>   4</c></rc>
    <rc><c>S </c><c>   4</c></rc>
    <rc><c>S </c><c>   4</c></rc>
    <rc><c>S </c><c>   4</c></rc>
    <rc><c>O </c><c>   5</c></rc>
    <rc><c>O </c><c>   5</c></rc>
    <rc><c>O </c><c>   5</c></rc>
    <rc><c>O </c><c>   5</c></rc>
    <rc><c>O </c><c>   5</c></rc>
    <rc><c>O </c><c>   5</c></rc>
    <rc><c>O </c><c>   5</c></rc>
    <rc><c>O </c><c>   5</c></rc>
    <rc><c>O </c><c>   5</c></rc>
    <rc><c>O </c><c>   5</c></rc>
    <rc><c>O </c><c>   5</c></rc>
    <rc><c>O </c><c>   5</c></rc>
    <rc><c>O </c><c>   5</c></rc>
    <rc><c>O </c><c>   5</c></rc>
    <rc><c>O </c><c>   5</c></rc>
    <rc><c>O </c><c>   5</c></rc>
   </set>
  </array>
  <array name="atomtypes" >
   <dimension dim="1">type</dimension>
   <field type="int">atomspertype</field>
   <field type="string">element</field>
   <field>mass</field>
   <field>valence</field>
   <field type="string">pseudopotential</field>
   <set>
    <rc><c>  12</c><c>Li</c><c>      7.01000000</c><c>      3.00000000</c><c>  PAW_PBE Li_sv 10Sep2004               </c></rc>
    <rc><c>   2</c><c>Mg</c><c>     24.30500000</c><c>      2.00000000</c><c>  PAW_PBE Mg 13Apr2007                  </c></rc>
    <rc><c>  16</c><c>Bi</c><c>    208.98000000</c><c>     15.00000000</c><c>  PAW_PBE Bi_d 06Sep2000                </c></rc>
    <rc><c>  16</c><c>S </c><c>     32.06600000</c><c>      6.00000000</c><c>  PAW_PBE S 06Sep2000                   </c></rc>
    <rc><c>  16</c><c>O </c><c>     16.00000000</c><c>      6.00000000</c><c>  PAW_PBE O 08Apr2002                   </c></rc>
   </set>
  </array>
 </atominfo>
 <structure name="initialpos" >
  <crystal>
   <varray name="basis" >
    <v>      11.17850000       0.00000000       0.00000000 </v>
    <v>       0.00000000       9.57460000       0.00000000 </v>
    <v>       0.00000000       0.00000000      11.18240000 </v>
   </varray>
   <i name="volume">   1196.84853820 </i>
   <varray name="rec_basis" >
    <v>       0.08945744       0.00000000       0.00000000 </v>
    <v>       0.00000000       0.10444301       0.00000000 </v>
    <v>       0.00000000       0.00000000       0.08942624 </v>
   </varray>
  </crystal>
  <varray name="positions" >
   <v>       0.37539000       0.00017000       0.43687000 </v>
   <v>       0.12461000       0.99984000       0.18687000 </v>
   <v>       0.37461000       0.00017000       0.18687000 </v>
   <v>       0.62539000       0.99984000       0.43687000 </v>
   <v>       0.87539000       0.00017000       0.43687000 </v>
   <v>       0.62461000       0.99984000       0.18687000 </v>
   <v>       0.87461000       0.00017000       0.18687000 </v>
   <v>       0.12539000       0.99984000       0.93687000 </v>
   <v>       0.37539000       0.00017000       0.93687000 </v>
   <v>       0.62539000       0.99984000       0.93687000 </v>
   <v>       0.87539000       0.00017000       0.93687000 </v>
   <v>       0.87461000       0.00017000       0.68687000 </v>
   <v>       0.12461000       0.99984000       0.68687000 </v>
   <v>       0.62461000       0.99984000       0.68687000 </v>
   <v>       0.00013000       0.29519000       0.06281000 </v>
   <v>       0.25013000       0.70481000       0.06281000 </v>
   <v>       0.24987000       0.29519000       0.31282000 </v>
   <v>       0.49987000       0.70481000       0.31282000 </v>
   <v>       0.50013000       0.29519000       0.06281000 </v>
   <v>       0.75013000       0.70481000       0.06281000 </v>
   <v>       0.74987000       0.29519000       0.31282000 </v>
   <v>       0.99987000       0.70481000       0.31282000 </v>
   <v>       0.00013000       0.29519000       0.56281000 </v>
   <v>       0.25013000       0.70481000       0.56281000 </v>
   <v>       0.24987000       0.29519000       0.81282000 </v>
   <v>       0.49987000       0.70481000       0.81282000 </v>
   <v>       0.50013000       0.29519000       0.56281000 </v>
   <v>       0.75013000       0.70481000       0.56281000 </v>
   <v>       0.74987000       0.29519000       0.81282000 </v>
   <v>       0.99987000       0.70481000       0.81282000 </v>
   <v>       0.25005000       0.32677000       0.06286000 </v>
   <v>       0.00005000       0.67323000       0.06286000 </v>
   <v>       0.49995000       0.32677000       0.31286000 </v>
   <v>       0.24995000       0.67323000       0.31286000 </v>
   <v>       0.75005000       0.32677000       0.06286000 </v>
   <v>       0.50005000       0.67323000       0.06286000 </v>
   <v>       0.99995000       0.32677000       0.31286000 </v>
   <v>       0.74995000       0.67323000       0.31286000 </v>
   <v>       0.25005000       0.32677000       0.56286000 </v>
   <v>       0.00005000       0.67323000       0.56286000 </v>
   <v>       0.49995000       0.32677000       0.81286000 </v>
   <v>       0.24995000       0.67323000       0.81286000 </v>
   <v>       0.75005000       0.32677000       0.56286000 </v>
   <v>       0.50005000       0.67323000       0.56286000 </v>
   <v>       0.99995000       0.32677000       0.81286000 </v>
   <v>       0.74995000       0.67323000       0.81286000 </v>
   <v>       0.49987000       0.07798000       0.06246000 </v>
   <v>       0.24987000       0.92202000       0.06246000 </v>
   <v>       0.25013000       0.07798000       0.31246000 </v>
   <v>       0.00013000       0.92202000       0.31246000 </v>
   <v>       0.99987000       0.07798000       0.06246000 </v>
   <v>       0.74987000       0.92202000       0.06246000 </v>
   <v>       0.75013000       0.07798000       0.31246000 </v>
   <v>       0.50013000       0.92202000       0.31246000 </v>
   <v>       0.49987000       0.07798000       0.56246000 </v>
   <v>       0.24987000       0.92202000       0.56246000 </v>
   <v>       0.25013000       0.07798000       0.81246000 </v>
   <v>       0.00013000       0.92202000       0.81246000 </v>
   <v>       0.99987000       0.07798000       0.56246000 </v>
   <v>       0.74987000       0.92202000       0.56246000 </v>
   <v>       0.75013000       0.07798000       0.81246000 </v>
   <v>       0.50013000       0.92202000       0.81246000 </v>
  </varray>
 </structure>
 <calculation>
  <scstep>
   <time name="dav">   65.18   65.26</time>
   <time name="total">   65.27   65.35</time>
   <energy>
    <i name="alphaZ">   1079.87189334 </i>
    <i name="ewald"> -31100.40701744 </i>
    <i name="hartreedc"> -12724.26968547 </i>
    <i name="XCdc">   1468.88853952 </i>
    <i name="pawpsdc">  36917.91861236 </i>
    <i name="pawaedc"> -36503.41947684 </i>
    <i name="eentropy">      0.00000000 </i>
    <i name="bandstr">   1586.33936507 </i>
    <i name="atom">  45173.57650906 </i>
    <i name="e_fr_energy">   5898.49873961 </i>
    <i name="e_wo_entrp">   5898.49873961 </i>
    <i name="e_0_energy">   5898.49873961 </i>
   </energy>
  </scstep>
  <scstep>
   <time name="dav">   66.02   66.17</time>
   <time name="total">   66.03   66.18</time>
   <energy>
    <i name="e_fr_energy">    742.59634879 </i>
    <i name="e_wo_entrp">    742.59634879 </i>
    <i name="e_0_energy">    742.59634879 </i>
   </energy>
  </scstep>
  <scstep>
   <time name="dav">   72.51   72.66</time>
   <time name="total">   72.51   72.66</time>
   <energy>
    <i name="e_fr_energy">   -245.78241534 </i>
    <i name="e_wo_entrp">   -245.78241534 </i>
    <i name="e_0_energy">   -245.78241534 </i>
   </energy>
  </scstep>
  <scstep>
   <time name="dav">   79.83   80.16</time>
   <time name="total">   79.83   80.17</time>
   <energy>
    <i name="e_fr_energy">   -352.26831772 </i>
    <i name="e_wo_entrp">   -352.26831772 </i>
    <i name="e_0_energy">   -352.26831772 </i>
   </energy>
  </scstep>
  <scstep>
   <time name="dav">  105.81  106.10</time>
   <time name="total">  106.54  106.83</time>
   <energy>
    <i name="e_fr_energy">   -361.12968226 </i>
    <i name="e_wo_entrp">   -361.12968226 </i>
    <i name="e_0_energy">   -361.12968226 </i>
   </energy>
  </scstep>
  <scstep>
   <time name="dav">   93.11   93.28</time>
   <time name="total">   93.90   94.08</time>
   <energy>
    <i name="e_fr_energy">   -301.37404182 </i>
    <i name="e_wo_entrp">   -301.37404182 </i>
    <i name="e_0_energy">   -301.37404182 </i>
   </energy>
  </scstep>
  <scstep>
   <time name="dav">   73.00   73.02</time>
   <time name="total">   73.79   73.82</time>
   <energy>
    <i name="e_fr_energy">   -303.51735666 </i>
    <i name="e_wo_entrp">   -303.51735666 </i>
    <i name="e_0_energy">   -303.51735666 </i>
   </energy>
  </scstep>
  <scstep>
   <time name="dav">   81.99   82.11</time>
   <time name="total">   82.78   82.90</time>
   <energy>
    <i name="e_fr_energy">   -302.13328222 </i>
    <i name="e_wo_entrp">   -302.13328222 </i>
    <i name="e_0_energy">   -302.13328222 </i>
   </energy>
  </scstep>
  <scstep>
   <time name="dav">   86.39   86.71</time>
   <time name="total">   87.18   87.51</time>
   <energy>
    <i name="e_fr_energy">   -301.49256025 </i>
    <i name="e_wo_entrp">   -301.49256025 </i>
    <i name="e_0_energy">   -301.49256025 </i>
   </energy>
  </scstep>
  <scstep>
   <time name="dav">   78.05   78.27</time>
   <time name="total">   78.85   79.07</time>
   <energy>
    <i name="e_fr_energy">   -301.49272765 </i>
    <i name="e_wo_entrp">   -301.49272765 </i>
    <i name="e_0_energy">   -301.49272765 </i>
   </energy>
  </scstep>
  <scstep>
   <time name="dav">   89.33   89.72</time>
   <time name="total">   90.13   90.52</time>
   <energy>
    <i name="e_fr_energy">   -301.50367135 </i>
    <i name="e_wo_entrp">   -301.50367135 </i>
    <i name="e_0_energy">   -301.50367135 </i>
   </energy>
  </scstep>
  <scstep>
   <time name="dav">   83.54   83.78</time>
   <time name="total">   84.34   84.58</time>
   <energy>
    <i name="e_fr_energy">   -301.50832331 </i>
    <i name="e_wo_entrp">   -301.50832331 </i>
    <i name="e_0_energy">   -301.50832331 </i>
   </energy>
  </scstep>
  <scstep>
   <time name="dav">   81.99   82.15</time>
   <time name="total">   82.77   82.95</time>
   <energy>
    <i name="e_fr_energy">   -301.50919985 </i>
    <i name="e_wo_entrp">   -301.50919985 </i>
    <i name="e_0_energy">   -301.50919985 </i>
   </energy>
  </scstep>
  <scstep>
   <time name="dav">   77.22   77.66</time>
   <time name="total">   78.01   78.45</time>
   <energy>
    <i name="e_fr_energy">   -301.50944084 </i>
    <i name="e_wo_entrp">   -301.50944084 </i>
    <i name="e_0_energy">   -301.50944084 </i>
   </energy>
  </scstep>
  <scstep>
   <time name="dav">   92.37   92.84</time>
   <time name="total">   93.16   93.64</time>
   <energy>
    <i name="e_fr_energy">   -301.50945454 </i>
    <i name="e_wo_entrp">   -301.50945454 </i>
    <i name="e_0_energy">   -301.50945454 </i>
   </energy>
  </scstep>
  <scstep>
   <time name="dav">   72.08   72.31</time>
   <time name="total">   72.88   73.10</time>
   <energy>
    <i name="e_fr_energy">   -301.50947430 </i>
    <i name="e_wo_entrp">   -301.50947430 </i>
    <i name="e_0_energy">   -301.50947430 </i>
   </energy>
  </scstep>
  <scstep>
   <time name="dav">   76.90   77.30</time>
   <time name="total">   77.69   78.10</time>
   <energy>
    <i name="e_fr_energy">   -301.50947541 </i>
    <i name="e_wo_entrp">   -301.50947541 </i>
    <i name="e_0_energy">   -301.50947541 </i>
   </energy>
  </scstep>
  <scstep>
   <time name="dav">   57.74   58.07</time>
   <time name="total">   57.81   58.15</time>
   <energy>
    <i name="alphaZ">   1079.87189334 </i>
    <i name="ewald"> -31100.40701744 </i>
    <i name="hartreedc"> -12960.28819261 </i>
    <i name="XCdc">   1491.84256646 </i>
    <i name="pawpsdc">  43948.90558915 </i>
    <i name="pawaedc"> -43509.95247514 </i>
    <i name="eentropy">      0.00000000 </i>
    <i name="bandstr">  -4425.05834877 </i>
    <i name="atom">  45173.57650906 </i>
    <i name="e_fr_energy">   -301.50947595 </i>
    <i name="e_wo_entrp">   -301.50947595 </i>
    <i name="e_0_energy">   -301.50947595 </i>
   </energy>
  </scstep>
  <structure>
   <crystal>
    <varray name="basis" >
     <v>      11.17850000       0.00000000       0.00000000 </v>
     <v>       0.00000000       9.57460000       0.00000000 </v>
     <v>       0.00000000       0.00000000      11.18240000 </v>
    </varray>
    <i name="volume">   1196.84853820 </i>
    <varray name="rec_basis" >
     <v>       0.08945744       0.00000000       0.00000000 </v>
     <v>       0.00000000       0.10444301       0.00000000 </v>
     <v>       0.00000000       0.00000000       0.08942624 </v>
    </varray>
   </crystal>
   <varray name="positions" >
    <v>       0.37539000       0.00017000       0.43687000 </v>
    <v>       0.12461000       0.99984000       0.18687000 </v>
    <v>       0.37461000       0.00017000       0.18687000 </v>
    <v>       0.62539000       0.99984000       0.43687000 </v>
    <v>       0.87539000       0.00017000       0.43687000 </v>
    <v>       0.62461000       0.99984000       0.18687000 </v>
    <v>       0.87461000       0.00017000       0.18687000 </v>
    <v>       0.12539000       0.99984000       0.93687000 </v>
    <v>       0.37539000       0.00017000       0.93687000 </v>
    <v>       0.62539000       0.99984000       0.93687000 </v>
    <v>       0.87539000       0.00017000       0.93687000 </v>
    <v>       0.87461000       0.00017000       0.68687000 </v>
    <v>       0.12461000       0.99984000       0.68687000 </v>
    <v>       0.62461000       0.99984000       0.68687000 </v>
    <v>       0.00013000       0.29519000       0.06281000 </v>
    <v>       0.25013000       0.70481000       0.06281000 </v>
    <v>       0.24987000       0.29519000       0.31282000 </v>
    <v>       0.49987000       0.70481000       0.31282000 </v>
    <v>       0.50013000       0.29519000       0.06281000 </v>
    <v>       0.75013000       0.70481000       0.06281000 </v>
    <v>       0.74987000       0.29519000       0.31282000 </v>
    <v>       0.99987000       0.70481000       0.31282000 </v>
    <v>       0.00013000       0.29519000       0.56281000 </v>
    <v>       0.25013000       0.70481000       0.56281000 </v>
    <v>       0.24987000       0.29519000       0.81282000 </v>
    <v>       0.49987000       0.70481000       0.81282000 </v>
    <v>       0.50013000       0.29519000       0.56281000 </v>
    <v>       0.75013000       0.70481000       0.56281000 </v>
    <v>       0.74987000       0.29519000       0.81282000 </v>
    <v>       0.99987000       0.70481000       0.81282000 </v>
    <v>       0.25005000       0.32677000       0.06286000 </v>
    <v>       0.00005000       0.67323000       0.06286000 </v>
    <v>       0.49995000       0.32677000       0.31286000 </v>
    <v>       0.24995000       0.67323000       0.31286000 </v>
    <v>       0.75005000       0.32677000       0.06286000 </v>
    <v>       0.50005000       0.67323000       0.06286000 </v>
    <v>       0.99995000       0.32677000       0.31286000 </v>
    <v>       0.74995000       0.67323000       0.31286000 </v>
    <v>       0.25005000       0.32677000       0.56286000 </v>
    <v>       0.00005000       0.67323000       0.56286000 </v>
    <v>       0.49995000       0.32677000       0.81286000 </v>
    <v>       0.24995000       0.67323000       0.81286000 </v>
    <v>       0.75005000       0.32677000       0.56286000 </v>
    <v>       0.50005000       0.67323000       0.56286000 </v>
    <v>       0.99995000       0.32677000       0.81286000 </v>
    <v>       0.74995000       0.67323000       0.81286000 </v>
    <v>       0.49987000       0.07798000       0.06246000 </v>
    <v>       0.24987000       0.92202000       0.06246000 </v>
    <v>       0.25013000       0.07798000       0.31246000 </v>
    <v>       0.00013000       0.92202000       0.31246000 </v>
    <v>       0.99987000       0.07798000       0.06246000 </v>
    <v>       0.74987000       0.92202000       0.06246000 </v>
    <v>       0.75013000       0.07798000       0.31246000 </v>
    <v>       0.50013000       0.92202000       0.31246000 </v>
    <v>       0.49987000       0.07798000       0.56246000 </v>
    <v>       0.24987000       0.92202000       0.56246000 </v>
    <v>       0.25013000       0.07798000       0.81246000 </v>
    <v>       0.00013000       0.92202000       0.81246000 </v>
    <v>       0.99987000       0.07798000       0.56246000 </v>
    <v>       0.74987000       0.92202000       0.56246000 </v>
    <v>       0.75013000       0.07798000       0.81246000 </v>
    <v>       0.50013000       0.92202000       0.81246000 </v>
   </varray>
  </structure>
  <varray name="forces" >
   <v>      -0.53993154      -0.00266875       0.29968744 </v>
   <v>       0.03852565      -0.00196589       0.53191892 </v>
   <v>      -0.18945294       0.05883137       0.20189017 </v>
   <v>      -0.20676471       0.06451308      -0.36188271 </v>
   <v>       0.53254952       0.00106738      -0.20968232 </v>
   <v>      -0.01944806      -0.00068208       0.03482950 </v>
   <v>       0.20076197      -0.06296314       0.19923850 </v>
   <v>       0.19883542       0.06431279       0.36365186 </v>
   <v>      -0.04186938       0.00016478      -0.29564213 </v>
   <v>      -0.20699540      -0.06577648       0.37146168 </v>
   <v>       0.02474194      -0.00272600       0.22213209 </v>
   <v>       0.21199589       0.06101229      -0.18924845 </v>
   <v>       1.08354532       0.00874430      -1.01434022 </v>
   <v>      -1.05502825       0.00202293      -0.02799513 </v>
   <v>       0.13947319       0.01053530       0.24811192 </v>
   <v>      -0.01588440      -0.00428382       0.21390107 </v>
   <v>      -0.15175012      -1.04472508       0.11420399 </v>
   <v>      -0.17733808      -0.00451798      -0.03940484 </v>
   <v>      -0.14774436       0.00372615       0.17287809 </v>
   <v>       0.00082084      -0.02258668       0.20852407 </v>
   <v>       0.04784412       0.02208349      -0.07954992 </v>
   <v>       0.30343456       1.02845766       0.07808862 </v>
   <v>       0.27624943       0.02224593      -0.44881678 </v>
   <v>       0.04606787       1.06339705      -0.26891062 </v>
   <v>       0.22516822      -0.00737246      -0.07062065 </v>
   <v>      -0.36263284      -0.01859352      -0.02968864 </v>
   <v>      -0.42457703       0.00621466      -0.12264067 </v>
   <v>       0.07737114      -1.06991795      -0.29766867 </v>
   <v>       0.03890169       1.05789304       0.14937516 </v>
   <v>       0.12296085      -1.04752370       0.10415182 </v>
   <v>       0.00047347       0.22542207      -0.17469992 </v>
   <v>      -0.07922685      -0.18699537      -0.26265568 </v>
   <v>       0.18088905       0.22487870       0.00004619 </v>
   <v>       0.12541480      -0.22567362      -0.12991855 </v>
   <v>      -0.00152168       0.14453862      -0.16027337 </v>
   <v>       0.07679256      -0.18407021      -0.07374443 </v>
   <v>      -0.19322366       0.19245622      -0.01860804 </v>
   <v>      -0.10526306      -0.18872466       0.08495986 </v>
   <v>      -0.05432061       0.14299069       0.21305279 </v>
   <v>      -0.23976276      -0.11852706       0.31310190 </v>
   <v>       0.23413491       0.08631101      -0.02989299 </v>
   <v>      -0.14824667      -0.13274274       0.08105817 </v>
   <v>      -0.04313412       0.10294992       0.20337292 </v>
   <v>       0.33218593      -0.11478624       0.10647187 </v>
   <v>      -0.12302762       0.11805069      -0.03618705 </v>
   <v>       0.03574490      -0.06722561      -0.12205677 </v>
   <v>       0.09576653      -0.01767792      -0.08634312 </v>
   <v>       0.00562059      -0.02833430      -0.15678820 </v>
   <v>       0.65179282       0.88414653      -0.66315857 </v>
   <v>      -0.74441092      -0.83079145      -0.59480981 </v>
   <v>      -0.08230135      -0.02287214      -0.23549950 </v>
   <v>       0.00283672       0.08119278      -0.16476048 </v>
   <v>      -0.08211753      -0.02638748       0.07484846 </v>
   <v>       0.15730420      -0.02815829      -0.00292461 </v>
   <v>       1.33821706      -0.00152192      -0.03831927 </v>
   <v>      -0.50845986      -0.98421361       0.60910652 </v>
   <v>      -1.20063739       0.01840511       0.19395995 </v>
   <v>       0.29145714       0.83084773      -0.46121898 </v>
   <v>      -0.35067914      -0.01712374       1.28781815 </v>
   <v>      -0.46155130       0.86016004       0.64230238 </v>
   <v>      -0.40834481      -0.90243286      -0.56941024 </v>
   <v>       1.26776815       0.04699048       0.11321724 </v>
  </varray>
  <varray name="stress" >
   <v>      -9.23631194       0.02328120       0.61415192 </v>
   <v>       0.02328156     -14.36720529      -0.04655931 </v>
   <v>       0.61415164      -0.04655925      -8.34846060 </v>
  </varray>
  <energy>
   <i name="e_fr_energy">   -317.36091430 </i>
   <i name="e_wo_entrp">   -317.36091430 </i>
   <i name="e_0_energy">      0.00000000 </i>
  </energy>
  <time name="totalsc"> 1558.39 1563.61</time>
  <eigenvalues>
   <array>
    <dimension dim="1">band</dimension>
    <dimension dim="2">kpoint</dimension>
    <dimension dim="3">spin</dimension>
    <field>eigene</field>
    <field>occ</field>
    <set>
     <set comment="spin 1">
      <set comment="kpoint 1">
       <r>  -40.4612    1.0000 </r>
       <r>  -40.1978    1.0000 </r>
       <r>  -40.0777    1.0000 </r>
       <r>  -39.9915    1.0000 </r>
       <r>  -39.9791    1.0000 </r>
       <r>  -39.7733    1.0000 </r>
       <r>  -39.7489    1.0000 </r>
       <r>  -39.7418    1.0000 </r>
       <r>  -39.6166    1.0000 </r>
       <r>  -39.5283    1.0000 </r>
       <r>  -39.3343    1.0000 </r>
       <r>  -39.3062    1.0000 </r>
       <r>  -18.9767    1.0000 </r>
       <r>  -18.9034    1.0000 </r>
       <r>  -18.9028    1.0000 </r>
       <r>  -18.8953    1.0000 </r>
       <r>  -18.8917    1.0000 </r>
       <r>  -18.8339    1.0000 </r>
       <r>  -18.8272    1.0000 </r>
       <r>  -18.8180    1.0000 </r>
       <r>  -18.8096    1.0000 </r>
       <r>  -18.7985    1.0000 </r>
       <r>  -18.7926    1.0000 </r>
       <r>  -18.7269    1.0000 </r>
       <r>  -18.7193    1.0000 </r>
       <r>  -18.7144    1.0000 </r>
       <r>  -18.7058    1.0000 </r>
       <r>  -18.6922    1.0000 </r>
       <r>  -18.6815    1.0000 </r>
       <r>  -18.6793    1.0000 </r>
       <r>  -18.6728    1.0000 </r>
       <r>  -18.6613    1.0000 </r>
       <r>  -18.6544    1.0000 </r>
       <r>  -18.6398    1.0000 </r>
       <r>  -18.6317    1.0000 </r>
       <r>  -18.6251    1.0000 </r>
       <r>  -18.6246    1.0000 </r>
       <r>  -18.6202    1.0000 </r>
       <r>  -18.6178    1.0000 </r>
       <r>  -18.6123    1.0000 </r>
       <r>  -18.6114    1.0000 </r>
       <r>  -18.6103    1.0000 </r>
       <r>  -18.6081    1.0000 </r>
       <r>  -18.6040    1.0000 </r>
       <r>  -18.6012    1.0000 </r>
       <r>  -18.5971    1.0000 </r>
       <r>  -18.5964    1.0000 </r>
       <r>  -18.5936    1.0000 </r>
       <r>  -18.5823    1.0000 </r>
       <r>  -18.5755    1.0000 </r>
       <r>  -18.5731    1.0000 </r>
       <r>  -18.5435    1.0000 </r>
       <r>  -18.5371    1.0000 </r>
       <r>  -18.5337    1.0000 </r>
       <r>  -18.5290    1.0000 </r>
       <r>  -18.5213    1.0000 </r>
       <r>  -18.5182    1.0000 </r>
       <r>  -18.5168    1.0000 </r>
       <r>  -18.5129    1.0000 </r>
       <r>  -18.5070    1.0000 </r>
       <r>  -18.5028    1.0000 </r>
       <r>  -18.4734    1.0000 </r>
       <r>  -18.4726    1.0000 </r>
       <r>  -18.4610    1.0000 </r>
       <r>  -18.4579    1.0000 </r>
       <r>  -18.4574    1.0000 </r>
       <r>  -18.4528    1.0000 </r>
       <r>  -18.4492    1.0000 </r>
       <r>  -18.4480    1.0000 </r>
       <r>  -18.4465    1.0000 </r>
       <r>  -18.4456    1.0000 </r>
       <r>  -18.4321    1.0000 </r>
       <r>  -18.4293    1.0000 </r>
       <r>  -18.3761    1.0000 </r>
       <r>  -18.3697    1.0000 </r>
       <r>  -18.3693    1.0000 </r>
       <r>  -18.3637    1.0000 </r>
       <r>  -18.3579    1.0000 </r>
       <r>  -18.3575    1.0000 </r>
       <r>  -18.3556    1.0000 </r>
       <r>  -18.3428    1.0000 </r>
       <r>  -18.2985    1.0000 </r>
       <r>  -18.2861    1.0000 </r>
       <r>  -18.2767    1.0000 </r>
       <r>  -18.2672    1.0000 </r>
       <r>  -18.2032    1.0000 </r>
       <r>  -18.1638    1.0000 </r>
       <r>  -18.1561    1.0000 </r>
       <r>  -18.1430    1.0000 </r>
       <r>  -18.1353    1.0000 </r>
       <r>  -18.0867    1.0000 </r>
       <r>  -18.0771    1.0000 </r>
       <r>  -13.6077    1.0000 </r>
       <r>  -13.4673    1.0000 </r>
       <r>  -13.4585    1.0000 </r>
       <r>  -12.8362    1.0000 </r>
       <r>  -12.7546    1.0000 </r>
       <r>  -12.7381    1.0000 </r>
       <r>  -12.7027    1.0000 </r>
       <r>  -12.6716    1.0000 </r>
       <r>  -12.6353    1.0000 </r>
       <r>  -12.6251    1.0000 </r>
       <r>  -12.6132    1.0000 </r>
       <r>  -12.5260    1.0000 </r>
       <r>  -12.5080    1.0000 </r>
       <r>  -11.9568    1.0000 </r>
       <r>  -11.8980    1.0000 </r>
       <r>  -11.8119    1.0000 </r>
       <r>   -9.3059    1.0000 </r>
       <r>   -9.0137    1.0000 </r>
       <r>   -8.4950    1.0000 </r>
       <r>   -8.4916    1.0000 </r>
       <r>   -8.4393    1.0000 </r>
       <r>   -8.4309    1.0000 </r>
       <r>   -8.2735    1.0000 </r>
       <r>   -8.2687    1.0000 </r>
       <r>   -8.2216    1.0000 </r>
       <r>   -8.2068    1.0000 </r>
       <r>   -7.9943    1.0000 </r>
       <r>   -7.9681    1.0000 </r>
       <r>   -7.9610    1.0000 </r>
       <r>   -7.9267    1.0000 </r>
       <r>   -7.3215    1.0000 </r>
       <r>   -7.3170    1.0000 </r>
       <r>   -6.3505    1.0000 </r>
       <r>   -6.3448    1.0000 </r>
       <r>   -6.3209    1.0000 </r>
       <r>   -6.3146    1.0000 </r>
       <r>   -5.5152    1.0000 </r>
       <r>   -5.5121    1.0000 </r>
       <r>   -5.3394    1.0000 </r>
       <r>   -5.3142    1.0000 </r>
       <r>   -5.2414    1.0000 </r>
       <r>   -5.2401    1.0000 </r>
       <r>   -5.1555    1.0000 </r>
       <r>   -5.1181    1.0000 </r>
       <r>   -5.0441    1.0000 </r>
       <r>   -5.0190    1.0000 </r>
       <r>   -3.7641    1.0000 </r>
       <r>   -3.6078    1.0000 </r>
       <r>   -1.3959    1.0000 </r>
       <r>   -1.3056    1.0000 </r>
       <r>   -1.0607    1.0000 </r>
       <r>   -0.9985    1.0000 </r>
       <r>   -0.5180    1.0000 </r>
       <r>   -0.4754    1.0000 </r>
       <r>   -0.4463    1.0000 </r>
       <r>   -0.4367    1.0000 </r>
       <r>   -0.1442    1.0000 </r>
       <r>   -0.1391    1.0000 </r>
       <r>   -0.1261    1.0000 </r>
       <r>   -0.1131    1.0000 </r>
       <r>    0.0000    1.0000 </r>
       <r>    0.1596    1.0000 </r>
       <r>    0.2498    1.0000 </r>
       <r>    0.4210    1.0000 </r>
       <r>    0.5073    1.0000 </r>
       <r>    0.5555    1.0000 </r>
       <r>    0.5833    1.0000 </r>
       <r>    0.6897    1.0000 </r>
       <r>    0.7210    1.0000 </r>
       <r>    0.7710    1.0000 </r>
       <r>    0.7724    1.0000 </r>
       <r>    0.7840    1.0000 </r>
       <r>    0.8183    1.0000 </r>
       <r>    0.8687    1.0000 </r>
       <r>    0.9564    1.0000 </r>
       <r>    1.0013    1.0000 </r>
       <r>    1.0295    1.0000 </r>
       <r>    1.0573    1.0000 </r>
       <r>    1.0740    1.0000 </r>
       <r>    1.1059    1.0000 </r>
       <r>    1.1763    1.0000 </r>
       <r>    1.2170    1.0000 </r>
       <r>    1.2565    1.0000 </r>
       <r>    1.3197    1.0000 </r>
       <r>    1.3768    1.0000 </r>
       <r>    1.4258    1.0000 </r>
       <r>    1.4584    1.0000 </r>
       <r>    1.4940    1.0000 </r>
       <r>    1.5310    1.0000 </r>
       <r>    1.5912    1.0000 </r>
       <r>    1.6235    1.0000 </r>
       <r>    1.6965    1.0000 </r>
       <r>    1.7157    1.0000 </r>
       <r>    1.7365    1.0000 </r>
       <r>    1.8047    1.0000 </r>
       <r>    1.8724    1.0000 </r>
       <r>    1.9119    1.0000 </r>
       <r>    1.9331    1.0000 </r>
       <r>    1.9968    1.0000 </r>
       <r>    2.0601    1.0000 </r>
       <r>    2.0967    1.0000 </r>
       <r>    2.1215    1.0000 </r>
       <r>    2.2433    1.0000 </r>
       <r>    2.3001    1.0000 </r>
       <r>    2.3800    1.0000 </r>
       <r>    2.3918    1.0000 </r>
       <r>    2.4475    1.0000 </r>
       <r>    2.5762    1.0000 </r>
       <r>    2.5905    1.0000 </r>
       <r>    2.5994    1.0000 </r>
       <r>    2.6167    1.0000 </r>
       <r>    2.6238    1.0000 </r>
       <r>    2.6427    1.0000 </r>
       <r>    2.6519    1.0000 </r>
       <r>    2.6581    1.0000 </r>
       <r>    2.7636    1.0000 </r>
       <r>    2.7891    1.0000 </r>
       <r>    2.8207    1.0000 </r>
       <r>    2.8297    1.0000 </r>
       <r>    2.8699    1.0000 </r>
       <r>    2.8829    1.0000 </r>
       <r>    2.8995    1.0000 </r>
       <r>    2.9499    1.0000 </r>
       <r>    2.9681    1.0000 </r>
       <r>    3.0327    1.0000 </r>
       <r>    3.0354    1.0000 </r>
       <r>    3.1216    1.0000 </r>
       <r>    3.1610    1.0000 </r>
       <r>    3.1876    1.0000 </r>
       <r>    3.2029    1.0000 </r>
       <r>    3.2191    1.0000 </r>
       <r>    3.2571    1.0000 </r>
       <r>    3.2583    1.0000 </r>
       <r>    3.3308    1.0000 </r>
       <r>    3.3701    1.0000 </r>
       <r>    3.4082    1.0000 </r>
       <r>    3.4461    1.0000 </r>
       <r>    3.4694    1.0000 </r>
       <r>    3.6025    1.0000 </r>
       <r>    3.7498    1.0000 </r>
       <r>    4.2232    1.0000 </r>
       <r>    4.2446    1.0000 </r>
       <r>    4.2641    1.0000 </r>
       <r>    4.2715    1.0000 </r>
       <r>    5.0994    0.0000 </r>
       <r>    5.1065    0.0000 </r>
       <r>    5.1756    0.0000 </r>
       <r>    5.1866    0.0000 </r>
       <r>    5.7651    0.0000 </r>
       <r>    5.7709    0.0000 </r>
       <r>    5.8107    0.0000 </r>
       <r>    5.8380    0.0000 </r>
       <r>    6.1465    0.0000 </r>
       <r>    6.1517    0.0000 </r>
       <r>    6.1736    0.0000 </r>
       <r>    6.1820    0.0000 </r>
       <r>    6.2843    0.0000 </r>
       <r>    6.2924    0.0000 </r>
       <r>    6.3038    0.0000 </r>
       <r>    6.3181    0.0000 </r>
       <r>    7.1024    0.0000 </r>
       <r>    7.2055    0.0000 </r>
       <r>    7.2776    0.0000 </r>
       <r>    7.3223    0.0000 </r>
       <r>    7.8537    0.0000 </r>
       <r>    7.8778    0.0000 </r>
       <r>    7.9502    0.0000 </r>
       <r>    8.0090    0.0000 </r>
       <r>    8.0280    0.0000 </r>
       <r>    8.0778    0.0000 </r>
       <r>    8.1899    0.0000 </r>
       <r>    8.2120    0.0000 </r>
       <r>    8.4768    0.0000 </r>
       <r>    8.6799    0.0000 </r>
       <r>    8.7436    0.0000 </r>
       <r>    8.8302    0.0000 </r>
       <r>    8.8457    0.0000 </r>
       <r>    8.9304    0.0000 </r>
       <r>    8.9814    0.0000 </r>
       <r>    9.0140    0.0000 </r>
       <r>    9.0359    0.0000 </r>
       <r>    9.0572    0.0000 </r>
       <r>    9.0909    0.0000 </r>
       <r>    9.1639    0.0000 </r>
       <r>    9.1746    0.0000 </r>
       <r>    9.2007    0.0000 </r>
       <r>    9.2576    0.0000 </r>
       <r>    9.2836    0.0000 </r>
       <r>    9.4602    0.0000 </r>
       <r>    9.5455    0.0000 </r>
       <r>    9.5561    0.0000 </r>
       <r>    9.6385    0.0000 </r>
       <r>    9.7103    0.0000 </r>
       <r>    9.7220    0.0000 </r>
       <r>    9.7781    0.0000 </r>
       <r>    9.8878    0.0000 </r>
       <r>   10.2096    0.0000 </r>
       <r>   10.2530    0.0000 </r>
       <r>   10.2723    0.0000 </r>
       <r>   10.3234    0.0000 </r>
       <r>   10.3845    0.0000 </r>
       <r>   10.5051    0.0000 </r>
       <r>   10.6030    0.0000 </r>
       <r>   10.6158    0.0000 </r>
       <r>   10.6332    0.0000 </r>
       <r>   10.6544    0.0000 </r>
       <r>   11.1370    0.0000 </r>
       <r>   11.3443    0.0000 </r>
       <r>   11.4213    0.0000 </r>
       <r>   11.4513    0.0000 </r>
       <r>   11.6098    0.0000 </r>
       <r>   11.6980    0.0000 </r>
       <r>   11.7317    0.0000 </r>
       <r>   11.8043    0.0000 </r>
       <r>   11.9028    0.0000 </r>
       <r>   11.9634    0.0000 </r>
      </set>
      <set comment="kpoint 2">
       <r>  -40.4612    1.0000 </r>
       <r>  -40.1978    1.0000 </r>
       <r>  -40.0777    1.0000 </r>
       <r>  -39.9915    1.0000 </r>
       <r>  -39.9791    1.0000 </r>
       <r>  -39.7733    1.0000 </r>
       <r>  -39.7489    1.0000 </r>
       <r>  -39.7418    1.0000 </r>
       <r>  -39.6166    1.0000 </r>
       <r>  -39.5283    1.0000 </r>
       <r>  -39.3343    1.0000 </r>
       <r>  -39.3062    1.0000 </r>
       <r>  -18.9767    1.0000 </r>
       <r>  -18.9034    1.0000 </r>
       <r>  -18.9028    1.0000 </r>
       <r>  -18.8953    1.0000 </r>
       <r>  -18.8917    1.0000 </r>
       <r>  -18.8337    1.0000 </r>
       <r>  -18.8271    1.0000 </r>
       <r>  -18.8181    1.0000 </r>
       <r>  -18.8097    1.0000 </r>
       <r>  -18.7985    1.0000 </r>
       <r>  -18.7926    1.0000 </r>
       <r>  -18.7269    1.0000 </r>
       <r>  -18.7193    1.0000 </r>
       <r>  -18.7143    1.0000 </r>
       <r>  -18.7058    1.0000 </r>
       <r>  -18.6923    1.0000 </r>
       <r>  -18.6815    1.0000 </r>
       <r>  -18.6793    1.0000 </r>
       <r>  -18.6727    1.0000 </r>
       <r>  -18.6613    1.0000 </r>
       <r>  -18.6544    1.0000 </r>
       <r>  -18.6351    1.0000 </r>
       <r>  -18.6326    1.0000 </r>
       <r>  -18.6271    1.0000 </r>
       <r>  -18.6247    1.0000 </r>
       <r>  -18.6190    1.0000 </r>
       <r>  -18.6175    1.0000 </r>
       <r>  -18.6169    1.0000 </r>
       <r>  -18.6136    1.0000 </r>
       <r>  -18.6123    1.0000 </r>
       <r>  -18.6110    1.0000 </r>
       <r>  -18.6023    1.0000 </r>
       <r>  -18.6003    1.0000 </r>
       <r>  -18.5966    1.0000 </r>
       <r>  -18.5943    1.0000 </r>
       <r>  -18.5846    1.0000 </r>
       <r>  -18.5822    1.0000 </r>
       <r>  -18.5788    1.0000 </r>
       <r>  -18.5755    1.0000 </r>
       <r>  -18.5436    1.0000 </r>
       <r>  -18.5371    1.0000 </r>
       <r>  -18.5336    1.0000 </r>
       <r>  -18.5289    1.0000 </r>
       <r>  -18.5213    1.0000 </r>
       <r>  -18.5182    1.0000 </r>
       <r>  -18.5168    1.0000 </r>
       <r>  -18.5129    1.0000 </r>
       <r>  -18.5070    1.0000 </r>
       <r>  -18.5029    1.0000 </r>
       <r>  -18.4734    1.0000 </r>
       <r>  -18.4726    1.0000 </r>
       <r>  -18.4607    1.0000 </r>
       <r>  -18.4585    1.0000 </r>
       <r>  -18.4574    1.0000 </r>
       <r>  -18.4522    1.0000 </r>
       <r>  -18.4494    1.0000 </r>
       <r>  -18.4487    1.0000 </r>
       <r>  -18.4464    1.0000 </r>
       <r>  -18.4450    1.0000 </r>
       <r>  -18.4321    1.0000 </r>
       <r>  -18.4293    1.0000 </r>
       <r>  -18.3761    1.0000 </r>
       <r>  -18.3698    1.0000 </r>
       <r>  -18.3693    1.0000 </r>
       <r>  -18.3637    1.0000 </r>
       <r>  -18.3579    1.0000 </r>
       <r>  -18.3575    1.0000 </r>
       <r>  -18.3555    1.0000 </r>
       <r>  -18.3428    1.0000 </r>
       <r>  -18.2985    1.0000 </r>
       <r>  -18.2861    1.0000 </r>
       <r>  -18.2767    1.0000 </r>
       <r>  -18.2671    1.0000 </r>
       <r>  -18.2032    1.0000 </r>
       <r>  -18.1638    1.0000 </r>
       <r>  -18.1561    1.0000 </r>
       <r>  -18.1430    1.0000 </r>
       <r>  -18.1353    1.0000 </r>
       <r>  -18.0867    1.0000 </r>
       <r>  -18.0771    1.0000 </r>
       <r>  -13.6071    1.0000 </r>
       <r>  -13.4675    1.0000 </r>
       <r>  -13.4587    1.0000 </r>
       <r>  -12.8358    1.0000 </r>
       <r>  -12.7553    1.0000 </r>
       <r>  -12.7324    1.0000 </r>
       <r>  -12.7056    1.0000 </r>
       <r>  -12.6762    1.0000 </r>
       <r>  -12.6399    1.0000 </r>
       <r>  -12.6238    1.0000 </r>
       <r>  -12.6082    1.0000 </r>
       <r>  -12.5241    1.0000 </r>
       <r>  -12.5096    1.0000 </r>
       <r>  -11.9568    1.0000 </r>
       <r>  -11.8983    1.0000 </r>
       <r>  -11.8117    1.0000 </r>
       <r>   -9.1611    1.0000 </r>
       <r>   -9.0060    1.0000 </r>
       <r>   -8.8887    1.0000 </r>
       <r>   -8.7302    1.0000 </r>
       <r>   -8.3670    1.0000 </r>
       <r>   -8.3524    1.0000 </r>
       <r>   -8.2299    1.0000 </r>
       <r>   -8.2195    1.0000 </r>
       <r>   -8.1655    1.0000 </r>
       <r>   -8.1556    1.0000 </r>
       <r>   -8.0300    1.0000 </r>
       <r>   -8.0195    1.0000 </r>
       <r>   -7.7112    1.0000 </r>
       <r>   -7.6039    1.0000 </r>
       <r>   -7.5938    1.0000 </r>
       <r>   -7.4861    1.0000 </r>
       <r>   -6.0166    1.0000 </r>
       <r>   -5.9906    1.0000 </r>
       <r>   -5.8984    1.0000 </r>
       <r>   -5.8084    1.0000 </r>
       <r>   -5.8050    1.0000 </r>
       <r>   -5.7652    1.0000 </r>
       <r>   -5.6837    1.0000 </r>
       <r>   -5.6440    1.0000 </r>
       <r>   -5.6111    1.0000 </r>
       <r>   -5.5774    1.0000 </r>
       <r>   -5.4441    1.0000 </r>
       <r>   -5.3873    1.0000 </r>
       <r>   -4.4625    1.0000 </r>
       <r>   -4.3059    1.0000 </r>
       <r>   -4.2940    1.0000 </r>
       <r>   -4.1298    1.0000 </r>
       <r>   -1.1945    1.0000 </r>
       <r>   -1.0138    1.0000 </r>
       <r>   -0.8642    1.0000 </r>
       <r>   -0.6922    1.0000 </r>
       <r>   -0.4301    1.0000 </r>
       <r>   -0.3211    1.0000 </r>
       <r>   -0.0078    1.0000 </r>
       <r>    0.0390    1.0000 </r>
       <r>    0.0615    1.0000 </r>
       <r>    0.0963    1.0000 </r>
       <r>    0.1574    1.0000 </r>
       <r>    0.1987    1.0000 </r>
       <r>    0.2164    1.0000 </r>
       <r>    0.2814    1.0000 </r>
       <r>    0.3709    1.0000 </r>
       <r>    0.3999    1.0000 </r>
       <r>    0.5011    1.0000 </r>
       <r>    0.5267    1.0000 </r>
       <r>    0.5697    1.0000 </r>
       <r>    0.6287    1.0000 </r>
       <r>    0.6658    1.0000 </r>
       <r>    0.6957    1.0000 </r>
       <r>    0.7047    1.0000 </r>
       <r>    0.7276    1.0000 </r>
       <r>    0.7375    1.0000 </r>
       <r>    0.8271    1.0000 </r>
       <r>    0.9035    1.0000 </r>
       <r>    0.9120    1.0000 </r>
       <r>    1.0028    1.0000 </r>
       <r>    1.0481    1.0000 </r>
       <r>    1.0918    1.0000 </r>
       <r>    1.1232    1.0000 </r>
       <r>    1.2275    1.0000 </r>
       <r>    1.2482    1.0000 </r>
       <r>    1.2758    1.0000 </r>
       <r>    1.3105    1.0000 </r>
       <r>    1.3495    1.0000 </r>
       <r>    1.3725    1.0000 </r>
       <r>    1.4382    1.0000 </r>
       <r>    1.4838    1.0000 </r>
       <r>    1.5034    1.0000 </r>
       <r>    1.5283    1.0000 </r>
       <r>    1.5656    1.0000 </r>
       <r>    1.5915    1.0000 </r>
       <r>    1.6539    1.0000 </r>
       <r>    1.6999    1.0000 </r>
       <r>    1.7639    1.0000 </r>
       <r>    1.8276    1.0000 </r>
       <r>    1.8771    1.0000 </r>
       <r>    1.8984    1.0000 </r>
       <r>    1.9139    1.0000 </r>
       <r>    1.9535    1.0000 </r>
       <r>    2.0260    1.0000 </r>
       <r>    2.0612    1.0000 </r>
       <r>    2.0667    1.0000 </r>
       <r>    2.1560    1.0000 </r>
       <r>    2.1859    1.0000 </r>
       <r>    2.2186    1.0000 </r>
       <r>    2.2224    1.0000 </r>
       <r>    2.3060    1.0000 </r>
       <r>    2.3142    1.0000 </r>
       <r>    2.3541    1.0000 </r>
       <r>    2.3961    1.0000 </r>
       <r>    2.4447    1.0000 </r>
       <r>    2.5433    1.0000 </r>
       <r>    2.5694    1.0000 </r>
       <r>    2.5842    1.0000 </r>
       <r>    2.6111    1.0000 </r>
       <r>    2.6438    1.0000 </r>
       <r>    2.7070    1.0000 </r>
       <r>    2.7374    1.0000 </r>
       <r>    2.7733    1.0000 </r>
       <r>    2.8185    1.0000 </r>
       <r>    2.8403    1.0000 </r>
       <r>    2.8553    1.0000 </r>
       <r>    2.8726    1.0000 </r>
       <r>    2.8988    1.0000 </r>
       <r>    2.9237    1.0000 </r>
       <r>    3.0102    1.0000 </r>
       <r>    3.0572    1.0000 </r>
       <r>    3.0936    1.0000 </r>
       <r>    3.1120    1.0000 </r>
       <r>    3.1551    1.0000 </r>
       <r>    3.2002    1.0000 </r>
       <r>    3.2103    1.0000 </r>
       <r>    3.2923    1.0000 </r>
       <r>    3.3515    1.0000 </r>
       <r>    3.4280    1.0000 </r>
       <r>    3.4918    1.0000 </r>
       <r>    3.5461    1.0000 </r>
       <r>    3.5669    1.0000 </r>
       <r>    3.5873    1.0000 </r>
       <r>    3.6732    1.0000 </r>
       <r>    3.7061    1.0000 </r>
       <r>    3.8026    1.0000 </r>
       <r>    3.8625    1.0000 </r>
       <r>    5.5922    0.0000 </r>
       <r>    5.5976    0.0000 </r>
       <r>    5.7468    0.0000 </r>
       <r>    5.7545    0.0000 </r>
       <r>    5.7766    0.0000 </r>
       <r>    5.7862    0.0000 </r>
       <r>    5.9333    0.0000 </r>
       <r>    5.9401    0.0000 </r>
       <r>    7.2018    0.0000 </r>
       <r>    7.2482    0.0000 </r>
       <r>    7.2682    0.0000 </r>
       <r>    7.3198    0.0000 </r>
       <r>    7.3946    0.0000 </r>
       <r>    7.4475    0.0000 </r>
       <r>    7.4618    0.0000 </r>
       <r>    7.4828    0.0000 </r>
       <r>    7.5050    0.0000 </r>
       <r>    7.5405    0.0000 </r>
       <r>    7.6061    0.0000 </r>
       <r>    7.6389    0.0000 </r>
       <r>    7.8363    0.0000 </r>
       <r>    7.8626    0.0000 </r>
       <r>    7.8824    0.0000 </r>
       <r>    7.9074    0.0000 </r>
       <r>    7.9314    0.0000 </r>
       <r>    7.9477    0.0000 </r>
       <r>    8.0015    0.0000 </r>
       <r>    8.0161    0.0000 </r>
       <r>    8.0338    0.0000 </r>
       <r>    8.0551    0.0000 </r>
       <r>    8.1052    0.0000 </r>
       <r>    8.1756    0.0000 </r>
       <r>    8.3083    0.0000 </r>
       <r>    8.4734    0.0000 </r>
       <r>    8.5070    0.0000 </r>
       <r>    8.6387    0.0000 </r>
       <r>    8.6756    0.0000 </r>
       <r>    8.7660    0.0000 </r>
       <r>    8.7730    0.0000 </r>
       <r>    8.7889    0.0000 </r>
       <r>    8.8157    0.0000 </r>
       <r>    8.9106    0.0000 </r>
       <r>    8.9704    0.0000 </r>
       <r>    8.9818    0.0000 </r>
       <r>    9.1334    0.0000 </r>
       <r>    9.3494    0.0000 </r>
       <r>    9.4016    0.0000 </r>
       <r>    9.4189    0.0000 </r>
       <r>    9.6197    0.0000 </r>
       <r>    9.6875    0.0000 </r>
       <r>   10.2425    0.0000 </r>
       <r>   10.3590    0.0000 </r>
       <r>   10.4971    0.0000 </r>
       <r>   10.5115    0.0000 </r>
       <r>   10.5528    0.0000 </r>
       <r>   10.5965    0.0000 </r>
       <r>   10.6855    0.0000 </r>
       <r>   10.7186    0.0000 </r>
       <r>   10.7815    0.0000 </r>
       <r>   10.8068    0.0000 </r>
       <r>   10.8285    0.0000 </r>
       <r>   10.8825    0.0000 </r>
       <r>   10.9846    0.0000 </r>
       <r>   11.1314    0.0000 </r>
       <r>   11.2244    0.0000 </r>
       <r>   11.3122    0.0000 </r>
       <r>   11.3315    0.0000 </r>
       <r>   11.4062    0.0000 </r>
       <r>   11.4420    0.0000 </r>
       <r>   11.4564    0.0000 </r>
       <r>   11.5326    0.0000 </r>
       <r>   11.6059    0.0000 </r>
      </set>
      <set comment="kpoint 3">
       <r>  -40.4612    1.0000 </r>
       <r>  -40.1978    1.0000 </r>
       <r>  -40.0777    1.0000 </r>
       <r>  -39.9915    1.0000 </r>
       <r>  -39.9791    1.0000 </r>
       <r>  -39.7733    1.0000 </r>
       <r>  -39.7489    1.0000 </r>
       <r>  -39.7418    1.0000 </r>
       <r>  -39.6166    1.0000 </r>
       <r>  -39.5283    1.0000 </r>
       <r>  -39.3343    1.0000 </r>
       <r>  -39.3061    1.0000 </r>
       <r>  -18.9767    1.0000 </r>
       <r>  -18.9033    1.0000 </r>
       <r>  -18.9029    1.0000 </r>
       <r>  -18.8953    1.0000 </r>
       <r>  -18.8917    1.0000 </r>
       <r>  -18.8339    1.0000 </r>
       <r>  -18.8272    1.0000 </r>
       <r>  -18.8180    1.0000 </r>
       <r>  -18.8096    1.0000 </r>
       <r>  -18.7985    1.0000 </r>
       <r>  -18.7926    1.0000 </r>
       <r>  -18.7269    1.0000 </r>
       <r>  -18.7193    1.0000 </r>
       <r>  -18.7144    1.0000 </r>
       <r>  -18.7058    1.0000 </r>
       <r>  -18.6922    1.0000 </r>
       <r>  -18.6815    1.0000 </r>
       <r>  -18.6794    1.0000 </r>
       <r>  -18.6728    1.0000 </r>
       <r>  -18.6613    1.0000 </r>
       <r>  -18.6544    1.0000 </r>
       <r>  -18.6398    1.0000 </r>
       <r>  -18.6317    1.0000 </r>
       <r>  -18.6251    1.0000 </r>
       <r>  -18.6246    1.0000 </r>
       <r>  -18.6202    1.0000 </r>
       <r>  -18.6178    1.0000 </r>
       <r>  -18.6123    1.0000 </r>
       <r>  -18.6114    1.0000 </r>
       <r>  -18.6103    1.0000 </r>
       <r>  -18.6081    1.0000 </r>
       <r>  -18.6040    1.0000 </r>
       <r>  -18.6012    1.0000 </r>
       <r>  -18.5971    1.0000 </r>
       <r>  -18.5964    1.0000 </r>
       <r>  -18.5936    1.0000 </r>
       <r>  -18.5823    1.0000 </r>
       <r>  -18.5755    1.0000 </r>
       <r>  -18.5731    1.0000 </r>
       <r>  -18.5435    1.0000 </r>
       <r>  -18.5371    1.0000 </r>
       <r>  -18.5337    1.0000 </r>
       <r>  -18.5290    1.0000 </r>
       <r>  -18.5213    1.0000 </r>
       <r>  -18.5182    1.0000 </r>
       <r>  -18.5168    1.0000 </r>
       <r>  -18.5129    1.0000 </r>
       <r>  -18.5070    1.0000 </r>
       <r>  -18.5029    1.0000 </r>
       <r>  -18.4734    1.0000 </r>
       <r>  -18.4726    1.0000 </r>
       <r>  -18.4610    1.0000 </r>
       <r>  -18.4579    1.0000 </r>
       <r>  -18.4574    1.0000 </r>
       <r>  -18.4528    1.0000 </r>
       <r>  -18.4492    1.0000 </r>
       <r>  -18.4480    1.0000 </r>
       <r>  -18.4465    1.0000 </r>
       <r>  -18.4456    1.0000 </r>
       <r>  -18.4321    1.0000 </r>
       <r>  -18.4293    1.0000 </r>
       <r>  -18.3761    1.0000 </r>
       <r>  -18.3697    1.0000 </r>
       <r>  -18.3693    1.0000 </r>
       <r>  -18.3637    1.0000 </r>
       <r>  -18.3579    1.0000 </r>
       <r>  -18.3575    1.0000 </r>
       <r>  -18.3556    1.0000 </r>
       <r>  -18.3428    1.0000 </r>
       <r>  -18.2985    1.0000 </r>
       <r>  -18.2861    1.0000 </r>
       <r>  -18.2767    1.0000 </r>
       <r>  -18.2672    1.0000 </r>
       <r>  -18.2032    1.0000 </r>
       <r>  -18.1638    1.0000 </r>
       <r>  -18.1561    1.0000 </r>
       <r>  -18.1430    1.0000 </r>
       <r>  -18.1353    1.0000 </r>
       <r>  -18.0867    1.0000 </r>
       <r>  -18.0771    1.0000 </r>
       <r>  -13.6074    1.0000 </r>
       <r>  -13.4673    1.0000 </r>
       <r>  -13.4586    1.0000 </r>
       <r>  -12.8352    1.0000 </r>
       <r>  -12.7538    1.0000 </r>
       <r>  -12.7386    1.0000 </r>
       <r>  -12.7029    1.0000 </r>
       <r>  -12.6716    1.0000 </r>
       <r>  -12.6353    1.0000 </r>
       <r>  -12.6254    1.0000 </r>
       <r>  -12.6131    1.0000 </r>
       <r>  -12.5272    1.0000 </r>
       <r>  -12.5083    1.0000 </r>
       <r>  -11.9565    1.0000 </r>
       <r>  -11.8981    1.0000 </r>
       <r>  -11.8132    1.0000 </r>
       <r>   -9.2973    1.0000 </r>
       <r>   -9.0192    1.0000 </r>
       <r>   -8.5136    1.0000 </r>
       <r>   -8.5098    1.0000 </r>
       <r>   -8.4564    1.0000 </r>
       <r>   -8.4487    1.0000 </r>
       <r>   -8.2530    1.0000 </r>
       <r>   -8.2489    1.0000 </r>
       <r>   -8.2034    1.0000 </r>
       <r>   -8.1870    1.0000 </r>
       <r>   -7.9982    1.0000 </r>
       <r>   -7.9711    1.0000 </r>
       <r>   -7.9638    1.0000 </r>
       <r>   -7.9292    1.0000 </r>
       <r>   -7.3244    1.0000 </r>
       <r>   -7.3199    1.0000 </r>
       <r>   -6.3423    1.0000 </r>
       <r>   -6.3338    1.0000 </r>
       <r>   -6.3115    1.0000 </r>
       <r>   -6.3047    1.0000 </r>
       <r>   -5.5181    1.0000 </r>
       <r>   -5.5165    1.0000 </r>
       <r>   -5.3737    1.0000 </r>
       <r>   -5.3552    1.0000 </r>
       <r>   -5.2638    1.0000 </r>
       <r>   -5.2620    1.0000 </r>
       <r>   -5.1007    1.0000 </r>
       <r>   -5.0791    1.0000 </r>
       <r>   -4.9960    1.0000 </r>
       <r>   -4.9781    1.0000 </r>
       <r>   -3.8346    1.0000 </r>
       <r>   -3.5261    1.0000 </r>
       <r>   -1.3184    1.0000 </r>
       <r>   -1.2634    1.0000 </r>
       <r>   -1.1666    1.0000 </r>
       <r>   -1.0552    1.0000 </r>
       <r>   -0.4080    1.0000 </r>
       <r>   -0.3855    1.0000 </r>
       <r>   -0.3812    1.0000 </r>
       <r>   -0.3595    1.0000 </r>
       <r>   -0.3514    1.0000 </r>
       <r>   -0.2704    1.0000 </r>
       <r>   -0.2389    1.0000 </r>
       <r>   -0.2215    1.0000 </r>
       <r>   -0.1722    1.0000 </r>
       <r>   -0.0273    1.0000 </r>
       <r>    0.0677    1.0000 </r>
       <r>    0.2084    1.0000 </r>
       <r>    0.3130    1.0000 </r>
       <r>    0.3443    1.0000 </r>
       <r>    0.4374    1.0000 </r>
       <r>    0.5247    1.0000 </r>
       <r>    0.5513    1.0000 </r>
       <r>    0.6650    1.0000 </r>
       <r>    0.7536    1.0000 </r>
       <r>    0.8044    1.0000 </r>
       <r>    0.8170    1.0000 </r>
       <r>    0.8276    1.0000 </r>
       <r>    0.8811    1.0000 </r>
       <r>    0.9244    1.0000 </r>
       <r>    1.0285    1.0000 </r>
       <r>    1.1274    1.0000 </r>
       <r>    1.1498    1.0000 </r>
       <r>    1.1646    1.0000 </r>
       <r>    1.2594    1.0000 </r>
       <r>    1.3126    1.0000 </r>
       <r>    1.3681    1.0000 </r>
       <r>    1.4126    1.0000 </r>
       <r>    1.4355    1.0000 </r>
       <r>    1.5286    1.0000 </r>
       <r>    1.5641    1.0000 </r>
       <r>    1.6860    1.0000 </r>
       <r>    1.7218    1.0000 </r>
       <r>    1.7346    1.0000 </r>
       <r>    1.7778    1.0000 </r>
       <r>    1.8337    1.0000 </r>
       <r>    1.8595    1.0000 </r>
       <r>    1.9008    1.0000 </r>
       <r>    1.9397    1.0000 </r>
       <r>    1.9670    1.0000 </r>
       <r>    2.0017    1.0000 </r>
       <r>    2.0223    1.0000 </r>
       <r>    2.0932    1.0000 </r>
       <r>    2.1178    1.0000 </r>
       <r>    2.1816    1.0000 </r>
       <r>    2.1989    1.0000 </r>
       <r>    2.3027    1.0000 </r>
       <r>    2.3392    1.0000 </r>
       <r>    2.4413    1.0000 </r>
       <r>    2.4823    1.0000 </r>
       <r>    2.5042    1.0000 </r>
       <r>    2.5518    1.0000 </r>
       <r>    2.5914    1.0000 </r>
       <r>    2.6037    1.0000 </r>
       <r>    2.6123    1.0000 </r>
       <r>    2.6211    1.0000 </r>
       <r>    2.6289    1.0000 </r>
       <r>    2.6474    1.0000 </r>
       <r>    2.6492    1.0000 </r>
       <r>    2.7063    1.0000 </r>
       <r>    2.7232    1.0000 </r>
       <r>    2.7461    1.0000 </r>
       <r>    2.8071    1.0000 </r>
       <r>    2.8406    1.0000 </r>
       <r>    2.8887    1.0000 </r>
       <r>    2.9073    1.0000 </r>
       <r>    2.9499    1.0000 </r>
       <r>    2.9599    1.0000 </r>
       <r>    2.9952    1.0000 </r>
       <r>    3.0238    1.0000 </r>
       <r>    3.0651    1.0000 </r>
       <r>    3.0940    1.0000 </r>
       <r>    3.1253    1.0000 </r>
       <r>    3.1939    1.0000 </r>
       <r>    3.3402    1.0000 </r>
       <r>    3.3720    1.0000 </r>
       <r>    3.3946    1.0000 </r>
       <r>    3.4265    1.0000 </r>
       <r>    3.4557    1.0000 </r>
       <r>    3.4993    1.0000 </r>
       <r>    3.5191    1.0000 </r>
       <r>    3.5273    1.0000 </r>
       <r>    3.6217    1.0000 </r>
       <r>    3.7071    1.0000 </r>
       <r>    4.2714    1.0000 </r>
       <r>    4.2960    1.0000 </r>
       <r>    4.3176    1.0000 </r>
       <r>    4.3222    1.0000 </r>
       <r>    5.1683    0.0000 </r>
       <r>    5.1779    0.0000 </r>
       <r>    5.2385    0.0000 </r>
       <r>    5.2509    0.0000 </r>
       <r>    5.7749    0.0000 </r>
       <r>    5.7794    0.0000 </r>
       <r>    5.8200    0.0000 </r>
       <r>    5.8460    0.0000 </r>
       <r>    6.2034    0.0000 </r>
       <r>    6.2104    0.0000 </r>
       <r>    6.2245    0.0000 </r>
       <r>    6.2296    0.0000 </r>
       <r>    6.2961    0.0000 </r>
       <r>    6.2996    0.0000 </r>
       <r>    6.3154    0.0000 </r>
       <r>    6.3327    0.0000 </r>
       <r>    6.7442    0.0000 </r>
       <r>    6.9294    0.0000 </r>
       <r>    6.9807    0.0000 </r>
       <r>    7.0731    0.0000 </r>
       <r>    7.2977    0.0000 </r>
       <r>    7.3980    0.0000 </r>
       <r>    7.5361    0.0000 </r>
       <r>    7.5437    0.0000 </r>
       <r>    7.8699    0.0000 </r>
       <r>    7.8962    0.0000 </r>
       <r>    7.9086    0.0000 </r>
       <r>    8.0023    0.0000 </r>
       <r>    8.0482    0.0000 </r>
       <r>    8.3800    0.0000 </r>
       <r>    8.4007    0.0000 </r>
       <r>    8.4830    0.0000 </r>
       <r>    8.7169    0.0000 </r>
       <r>    8.8668    0.0000 </r>
       <r>    8.9280    0.0000 </r>
       <r>    8.9482    0.0000 </r>
       <r>    9.0491    0.0000 </r>
       <r>    9.0774    0.0000 </r>
       <r>    9.1070    0.0000 </r>
       <r>    9.1221    0.0000 </r>
       <r>    9.1471    0.0000 </r>
       <r>    9.1924    0.0000 </r>
       <r>    9.2137    0.0000 </r>
       <r>    9.2371    0.0000 </r>
       <r>    9.5174    0.0000 </r>
       <r>    9.5247    0.0000 </r>
       <r>    9.7524    0.0000 </r>
       <r>    9.7577    0.0000 </r>
       <r>    9.7726    0.0000 </r>
       <r>    9.7831    0.0000 </r>
[...]
       <r>   11.3380    0.0000 </r>
       <r>   11.4015    0.0000 </r>
       <r>   11.4398    0.0000 </r>
       <r>   11.5956    0.0000 </r>
      </set>
     </set>
    </set>
   </array>
  </eigenvalues>
  <separator name="orbital magnetization" >
   <v name="MAGDIPOLOUT">      0.00000000      0.00000000      0.00000000</v>
  </separator>
  <dos>
   <i name="efermi">      4.45282481 </i>
   <total>
    <array>
     <dimension dim="1">gridpoints</dimension>
     <dimension dim="2">spin</dimension>
     <field>energy</field>
     <field>total</field>
     <field>integrated</field>
     <set>
      <set comment="spin 1">
       <r>   -43.1055     0.0000     0.0000 </r>
       <r>   -42.9116     0.0000     0.0000 </r>
       <r>   -42.7177     0.0000     0.0000 </r>
       <r>   -42.5238     0.0000     0.0000 </r>
       <r>   -42.3299     0.0000     0.0000 </r>
       <r>   -42.1360     0.0000     0.0000 </r>
       <r>   -41.9420     0.0000     0.0000 </r>
       <r>   -41.7481     0.0000     0.0000 </r>
       <r>   -41.5542     0.0000     0.0000 </r>
       <r>   -41.3603     0.0000     0.0000 </r>
       <r>   -41.1664     0.0000     0.0000 </r>
       <r>   -40.9724     0.0000     0.0000 </r>
       <r>   -40.7785     0.0000     0.0000 </r>
       <r>   -40.5846     0.0000     0.0000 </r>
       <r>   -40.3907     0.0000     2.0000 </r>
       <r>   -40.1968     0.0000     4.0000 </r>
       <r>   -40.0029     0.0000     6.0000 </r>
       <r>   -39.8089     0.0000    10.0000 </r>
       <r>   -39.6150     0.0000    18.0000 </r>
       <r>   -39.4211     0.0000    20.0000 </r>
       <r>   -39.2272     0.0000    24.0000 </r>
       <r>   -39.0333     0.0000    24.0000 </r>
       <r>   -38.8394     0.0000    24.0000 </r>
       <r>   -38.6454     0.0000    24.0000 </r>
       <r>   -38.4515     0.0000    24.0000 </r>
       <r>   -38.2576     0.0000    24.0000 </r>
       <r>   -38.0637     0.0000    24.0000 </r>
       <r>   -37.8698     0.0000    24.0000 </r>
       <r>   -37.6758     0.0000    24.0000 </r>
       <r>   -37.4819     0.0000    24.0000 </r>
       <r>   -37.2880     0.0000    24.0000 </r>
       <r>   -37.0941     0.0000    24.0000 </r>
       <r>   -36.9002     0.0000    24.0000 </r>
       <r>   -36.7063     0.0000    24.0000 </r>
       <r>   -36.5123     0.0000    24.0000 </r>
       <r>   -36.3184     0.0000    24.0000 </r>
       <r>   -36.1245     0.0000    24.0000 </r>
       <r>   -35.9306     0.0000    24.0000 </r>
       <r>   -35.7367     0.0000    24.0000 </r>
       <r>   -35.5427     0.0000    24.0000 </r>
       <r>   -35.3488     0.0000    24.0000 </r>
       <r>   -35.1549     0.0000    24.0000 </r>
       <r>   -34.9610     0.0000    24.0000 </r>
       <r>   -34.7671     0.0000    24.0000 </r>
       <r>   -34.5732     0.0000    24.0000 </r>
       <r>   -34.3792     0.0000    24.0000 </r>
       <r>   -34.1853     0.0000    24.0000 </r>
       <r>   -33.9914     0.0000    24.0000 </r>
       <r>   -33.7975     0.0000    24.0000 </r>
       <r>   -33.6036     0.0000    24.0000 </r>
       <r>   -33.4096     0.0000    24.0000 </r>
       <r>   -33.2157     0.0000    24.0000 </r>
       <r>   -33.0218     0.0000    24.0000 </r>
       <r>   -32.8279     0.0000    24.0000 </r>
       <r>   -32.6340     0.0000    24.0000 </r>
       <r>   -32.4401     0.0000    24.0000 </r>
       <r>   -32.2461     0.0000    24.0000 </r>
       <r>   -32.0522     0.0000    24.0000 </r>
       <r>   -31.8583     0.0000    24.0000 </r>
       <r>   -31.6644     0.0000    24.0000 </r>
       <r>   -31.4705     0.0000    24.0000 </r>
       <r>   -31.2766     0.0000    24.0000 </r>
       <r>   -31.0826     0.0000    24.0000 </r>
       <r>   -30.8887     0.0000    24.0000 </r>
       <r>   -30.6948     0.0000    24.0000 </r>
       <r>   -30.5009     0.0000    24.0000 </r>
       <r>   -30.3070     0.0000    24.0000 </r>
       <r>   -30.1130     0.0000    24.0000 </r>
       <r>   -29.9191     0.0000    24.0000 </r>
       <r>   -29.7252     0.0000    24.0000 </r>
       <r>   -29.5313     0.0000    24.0000 </r>
       <r>   -29.3374     0.0000    24.0000 </r>
       <r>   -29.1435     0.0000    24.0000 </r>
       <r>   -28.9495     0.0000    24.0000 </r>
       <r>   -28.7556     0.0000    24.0000 </r>
       <r>   -28.5617     0.0000    24.0000 </r>
       <r>   -28.3678     0.0000    24.0000 </r>
       <r>   -28.1739     0.0000    24.0000 </r>
       <r>   -27.9799     0.0000    24.0000 </r>
       <r>   -27.7860     0.0000    24.0000 </r>
       <r>   -27.5921     0.0000    24.0000 </r>
       <r>   -27.3982     0.0000    24.0000 </r>
       <r>   -27.2043     0.0000    24.0000 </r>
       <r>   -27.0104     0.0000    24.0000 </r>
       <r>   -26.8164     0.0000    24.0000 </r>
       <r>   -26.6225     0.0000    24.0000 </r>
       <r>   -26.4286     0.0000    24.0000 </r>
       <r>   -26.2347     0.0000    24.0000 </r>
       <r>   -26.0408     0.0000    24.0000 </r>
       <r>   -25.8469     0.0000    24.0000 </r>
       <r>   -25.6529     0.0000    24.0000 </r>
       <r>   -25.4590     0.0000    24.0000 </r>
       <r>   -25.2651     0.0000    24.0000 </r>
       <r>   -25.0712     0.0000    24.0000 </r>
       <r>   -24.8773     0.0000    24.0000 </r>
       <r>   -24.6833     0.0000    24.0000 </r>
       <r>   -24.4894     0.0000    24.0000 </r>
       <r>   -24.2955     0.0000    24.0000 </r>
       <r>   -24.1016     0.0000    24.0000 </r>
       <r>   -23.9077     0.0000    24.0000 </r>
       <r>   -23.7138     0.0000    24.0000 </r>
       <r>   -23.5198     0.0000    24.0000 </r>
       <r>   -23.3259     0.0000    24.0000 </r>
       <r>   -23.1320     0.0000    24.0000 </r>
       <r>   -22.9381     0.0000    24.0000 </r>
       <r>   -22.7442     0.0000    24.0000 </r>
       <r>   -22.5502     0.0000    24.0000 </r>
       <r>   -22.3563     0.0000    24.0000 </r>
       <r>   -22.1624     0.0000    24.0000 </r>
       <r>   -21.9685     0.0000    24.0000 </r>
       <r>   -21.7746     0.0000    24.0000 </r>
       <r>   -21.5807     0.0000    24.0000 </r>
       <r>   -21.3867     0.0000    24.0000 </r>
       <r>   -21.1928     0.0000    24.0000 </r>
       <r>   -20.9989     0.0000    24.0000 </r>
       <r>   -20.8050     0.0000    24.0000 </r>
       <r>   -20.6111     0.0000    24.0000 </r>
       <r>   -20.4171     0.0000    24.0000 </r>
       <r>   -20.2232     0.0000    24.0000 </r>
       <r>   -20.0293     0.0000    24.0000 </r>
       <r>   -19.8354     0.0000    24.0000 </r>
       <r>   -19.6415     0.0000    24.0000 </r>
       <r>   -19.4476     0.0000    24.0000 </r>
       <r>   -19.2536     0.0000    24.0000 </r>
       <r>   -19.0597     0.0000    24.0000 </r>
       <r>   -18.8658     0.0000    34.0000 </r>
       <r>   -18.6719     0.0000    62.0000 </r>
       <r>   -18.4780     0.0000   122.0000 </r>
       <r>   -18.2841     0.0000   166.0000 </r>
       <r>   -18.0901     0.0000   180.0000 </r>
       <r>   -17.8962     0.0000   184.0000 </r>
       <r>   -17.7023     0.0000   184.0000 </r>
       <r>   -17.5084     0.0000   184.0000 </r>
       <r>   -17.3145     0.0000   184.0000 </r>
       <r>   -17.1205     0.0000   184.0000 </r>
       <r>   -16.9266     0.0000   184.0000 </r>
       <r>   -16.7327     0.0000   184.0000 </r>
       <r>   -16.5388     0.0000   184.0000 </r>
       <r>   -16.3449     0.0000   184.0000 </r>
       <r>   -16.1510     0.0000   184.0000 </r>
       <r>   -15.9570     0.0000   184.0000 </r>
       <r>   -15.7631     0.0000   184.0000 </r>
       <r>   -15.5692     0.0000   184.0000 </r>
       <r>   -15.3753     0.0000   184.0000 </r>
       <r>   -15.1814     0.0000   184.0000 </r>
       <r>   -14.9874     0.0000   184.0000 </r>
       <r>   -14.7935     0.0000   184.0000 </r>
       <r>   -14.5996     0.0000   184.0000 </r>
       <r>   -14.4057     0.0000   184.0000 </r>
       <r>   -14.2118     0.0000   184.0000 </r>
       <r>   -14.0179     0.0000   184.0000 </r>
       <r>   -13.8239     0.0000   184.0000 </r>
       <r>   -13.6300     0.0000   184.0000 </r>
       <r>   -13.4361     0.0000   190.0000 </r>
       <r>   -13.2422     0.0000   190.0000 </r>
       <r>   -13.0483     0.0000   190.0000 </r>
       <r>   -12.8543     0.0000   190.0000 </r>
       <r>   -12.6604     0.0000   200.0000 </r>
       <r>   -12.4665     0.0000   210.0000 </r>
       <r>   -12.2726     0.0000   210.0000 </r>
       <r>   -12.0787     0.0000   210.0000 </r>
       <r>   -11.8848     0.0000   214.0000 </r>
       <r>   -11.6908     0.0000   216.0000 </r>
       <r>   -11.4969     0.0000   216.0000 </r>
       <r>   -11.3030     0.0000   216.0000 </r>
       <r>   -11.1091     0.0000   216.0000 </r>
       <r>   -10.9152     0.0000   216.0000 </r>
       <r>   -10.7213     0.0000   216.0000 </r>
       <r>   -10.5273     0.0000   216.0000 </r>
       <r>   -10.3334     0.0000   216.0000 </r>
       <r>   -10.1395     0.0000   216.0000 </r>
       <r>    -9.9456     0.0000   216.0000 </r>
       <r>    -9.7517     0.0000   216.0000 </r>
       <r>    -9.5577     0.0000   216.0000 </r>
       <r>    -9.3638     0.0000   216.0000 </r>
       <r>    -9.1699    13.9844   216.9205 </r>
       <r>    -8.9760    16.8615   219.1399 </r>
       <r>    -8.7821     5.8895   221.1824 </r>
       <r>    -8.5882    11.8674   223.9894 </r>
       <r>    -8.3942    38.6470   227.8586 </r>
       <r>    -8.2003     5.5468   232.0376 </r>
       <r>    -8.0064    53.3192   235.6176 </r>
       <r>    -7.8125    18.9507   240.3032 </r>
       <r>    -7.6186    15.2830   243.8289 </r>
       <r>    -7.4246    13.9079   247.2715 </r>
       <r>    -7.2307     0.0000   248.0000 </r>
       <r>    -7.0368     0.0000   248.0000 </r>
       <r>    -6.8429     0.0000   248.0000 </r>
       <r>    -6.6490     0.0000   248.0000 </r>
       <r>    -6.4551     0.0000   248.0000 </r>
       <r>    -6.2611     8.6943   248.3300 </r>
       <r>    -6.0672    27.7289   252.0748 </r>
       <r>    -5.8733    17.5724   255.8091 </r>
       <r>    -5.6794    32.1300   259.9693 </r>
       <r>    -5.4855    17.6603   264.4615 </r>
       <r>    -5.2916    21.2029   268.2446 </r>
       <r>    -5.0976    10.5305   271.3724 </r>
       <r>    -4.9037     4.9054   272.2718 </r>
       <r>    -4.7098     8.4330   273.6768 </r>
       <r>    -4.5159     9.9517   275.5130 </r>
       <r>    -4.3220     6.6946   277.0842 </r>
       <r>    -4.1280     6.6401   278.3599 </r>
       <r>    -3.9341     3.9203   279.4214 </r>
       <r>    -3.7402     1.2614   279.8887 </r>
       <r>    -3.5463     0.0181   279.9999 </r>
       <r>    -3.3524     0.0000   280.0000 </r>
       <r>    -3.1585     0.0000   280.0000 </r>
       <r>    -2.9645     0.0000   280.0000 </r>
       <r>    -2.7706     0.0000   280.0000 </r>
       <r>    -2.5767     0.0000   280.0000 </r>
       <r>    -2.3828     0.0000   280.0000 </r>
       <r>    -2.1889     0.0000   280.0000 </r>
       <r>    -1.9949     0.0000   280.0000 </r>
       <r>    -1.8010     0.0000   280.0000 </r>
       <r>    -1.6071     0.0000   280.0000 </r>
       <r>    -1.4132     0.0000   280.0000 </r>
       <r>    -1.2193     6.5149   280.4153 </r>
       <r>    -1.0254    11.3432   282.0130 </r>
       <r>    -0.8314    11.9706   284.4554 </r>
       <r>    -0.6375     8.1685   286.5368 </r>
       <r>    -0.4436    13.6954   287.8895 </r>
       <r>    -0.2497    22.7627   291.8000 </r>
       <r>    -0.0558    38.8008   297.3963 </r>
       <r>     0.1382    26.8999   304.7023 </r>
       <r>     0.3321    43.0383   310.4858 </r>
       <r>     0.5260    38.0896   317.9722 </r>
       <r>     0.7199    47.3929   325.0966 </r>
       <r>     0.9138    55.1496   332.6640 </r>
       <r>     1.1077    61.2498   341.6167 </r>
       <r>     1.3017    30.6278   349.2153 </r>
       <r>     1.4956    40.8789   358.8295 </r>
       <r>     1.6895    43.8993   368.0981 </r>
       <r>     1.8834    54.2036   376.8967 </r>
       <r>     2.0773    49.3128   386.0836 </r>
       <r>     2.2712    47.4484   394.6798 </r>
       <r>     2.4652    50.3023   404.1524 </r>
       <r>     2.6591    43.4850   416.3904 </r>
       <r>     2.8530    76.2799   428.2014 </r>
       <r>     3.0469    57.3530   440.1220 </r>
       <r>     3.2408    44.9654   450.0165 </r>
       <r>     3.4348    38.4536   457.5843 </r>
       <r>     3.6287    20.5468   464.0083 </r>
       <r>     3.8226    18.7691   467.5260 </r>
       <r>     4.0165    10.7691   470.5640 </r>
       <r>     4.2104     2.8739   471.8872 </r>
       <r>     4.4043     0.0000   472.0000 </r>
       <r>     4.5983     0.0000   472.0000 </r>
       <r>     4.7922     0.0000   472.0000 </r>
       <r>     4.9861     0.0000   472.0000 </r>
       <r>     5.1800     0.5557   472.0145 </r>
       <r>     5.3739     4.7679   472.5052 </r>
       <r>     5.5679     9.3288   473.8718 </r>
       <r>     5.7618     8.5253   475.5980 </r>
       <r>     5.9557    21.4457   479.6876 </r>
       <r>     6.1496    12.0133   482.3480 </r>
       <r>     6.3435    11.9739   484.6062 </r>
       <r>     6.5374    14.0397   487.1289 </r>
       <r>     6.7314    16.0510   490.0490 </r>
       <r>     6.9253    18.2150   493.3556 </r>
       <r>     7.1192    23.0713   497.2734 </r>
       <r>     7.3131    33.4056   502.8345 </r>
       <r>     7.5070    35.2677   510.2832 </r>
       <r>     7.7009    28.7148   515.5375 </r>
       <r>     7.8949    53.5257   523.2034 </r>
       <r>     8.0888    31.3323   532.1631 </r>
       <r>     8.2827    20.0372   536.8239 </r>
       <r>     8.4766    19.9024   540.5057 </r>
       <r>     8.6705    26.7577   544.8847 </r>
       <r>     8.8645    42.8155   551.0196 </r>
       <r>     9.0584    30.7581   559.2025 </r>
       <r>     9.2523    14.6044   563.1509 </r>
       <r>     9.4462    13.8288   565.9443 </r>
       <r>     9.6401    17.3681   568.5142 </r>
       <r>     9.8340     9.1810   570.9213 </r>
       <r>    10.0280     8.8895   572.7214 </r>
       <r>    10.2219    14.4591   574.8626 </r>
       <r>    10.4158    28.0354   578.7177 </r>
       <r>    10.6097    25.9283   584.9762 </r>
       <r>    10.8036    38.6663   592.6788 </r>
       <r>    10.9976    24.1986   597.2572 </r>
       <r>    11.1915    19.6796   601.4687 </r>
       <r>    11.3854    25.9112   606.0823 </r>
       <r>    11.5793    19.8786   610.4899 </r>
       <r>    11.7732    11.9647   613.6273 </r>
       <r>    11.9671     5.3526   615.2643 </r>
       <r>    12.1611     1.4713   615.8831 </r>
       <r>    12.3550     0.0842   615.9980 </r>
       <r>    12.5489     0.0000   616.0000 </r>
       <r>    12.7428     0.0000   616.0000 </r>
       <r>    12.9367     0.0000   616.0000 </r>
       <r>    13.1307     0.0000   616.0000 </r>
       <r>    13.3246     0.0000   616.0000 </r>
       <r>    13.5185     0.0000   616.0000 </r>
       <r>    13.7124     0.0000   616.0000 </r>
       <r>    13.9063     0.0000   616.0000 </r>
       <r>    14.1002     0.0000   616.0000 </r>
       <r>    14.2942     0.0000   616.0000 </r>
       <r>    14.4881     0.0000   616.0000 </r>
       <r>    14.6820     0.0000   616.0000 </r>
       <r>    14.8759     0.0000   616.0000 </r>
       <r>    15.0698     0.0000   616.0000 </r>
      </set>
     </set>
    </array>
   </total>
  </dos>
 </calculation>
 <structure name="finalpos" >
  <crystal>
   <varray name="basis" >
    <v>      11.17850000       0.00000000       0.00000000 </v>
    <v>       0.00000000       9.57460000       0.00000000 </v>
    <v>       0.00000000       0.00000000      11.18240000 </v>
   </varray>
   <i name="volume">   1196.84853820 </i>
   <varray name="rec_basis" >
    <v>       0.08945744       0.00000000       0.00000000 </v>
    <v>       0.00000000       0.10444301       0.00000000 </v>
    <v>       0.00000000       0.00000000       0.08942624 </v>
   </varray>
  </crystal>
  <varray name="positions" >
   <v>       0.37539000       0.00017000       0.43687000 </v>
   <v>       0.12461000       0.99984000       0.18687000 </v>
   <v>       0.37461000       0.00017000       0.18687000 </v>
   <v>       0.62539000       0.99984000       0.43687000 </v>
   <v>       0.87539000       0.00017000       0.43687000 </v>
   <v>       0.62461000       0.99984000       0.18687000 </v>
   <v>       0.87461000       0.00017000       0.18687000 </v>
   <v>       0.12539000       0.99984000       0.93687000 </v>
   <v>       0.37539000       0.00017000       0.93687000 </v>
   <v>       0.62539000       0.99984000       0.93687000 </v>
   <v>       0.87539000       0.00017000       0.93687000 </v>
   <v>       0.87461000       0.00017000       0.68687000 </v>
   <v>       0.12461000       0.99984000       0.68687000 </v>
   <v>       0.62461000       0.99984000       0.68687000 </v>
   <v>       0.00013000       0.29519000       0.06281000 </v>
   <v>       0.25013000       0.70481000       0.06281000 </v>
   <v>       0.24987000       0.29519000       0.31282000 </v>
   <v>       0.49987000       0.70481000       0.31282000 </v>
   <v>       0.50013000       0.29519000       0.06281000 </v>
   <v>       0.75013000       0.70481000       0.06281000 </v>
   <v>       0.74987000       0.29519000       0.31282000 </v>
   <v>       0.99987000       0.70481000       0.31282000 </v>
   <v>       0.00013000       0.29519000       0.56281000 </v>
   <v>       0.25013000       0.70481000       0.56281000 </v>
   <v>       0.24987000       0.29519000       0.81282000 </v>
   <v>       0.49987000       0.70481000       0.81282000 </v>
   <v>       0.50013000       0.29519000       0.56281000 </v>
   <v>       0.75013000       0.70481000       0.56281000 </v>
   <v>       0.74987000       0.29519000       0.81282000 </v>
   <v>       0.99987000       0.70481000       0.81282000 </v>
   <v>       0.25005000       0.32677000       0.06286000 </v>
   <v>       0.00005000       0.67323000       0.06286000 </v>
   <v>       0.49995000       0.32677000       0.31286000 </v>
   <v>       0.24995000       0.67323000       0.31286000 </v>
   <v>       0.75005000       0.32677000       0.06286000 </v>
   <v>       0.50005000       0.67323000       0.06286000 </v>
   <v>       0.99995000       0.32677000       0.31286000 </v>
   <v>       0.74995000       0.67323000       0.31286000 </v>
   <v>       0.25005000       0.32677000       0.56286000 </v>
   <v>       0.00005000       0.67323000       0.56286000 </v>
   <v>       0.49995000       0.32677000       0.81286000 </v>
   <v>       0.24995000       0.67323000       0.81286000 </v>
   <v>       0.75005000       0.32677000       0.56286000 </v>
   <v>       0.50005000       0.67323000       0.56286000 </v>
   <v>       0.99995000       0.32677000       0.81286000 </v>
   <v>       0.74995000       0.67323000       0.81286000 </v>
   <v>       0.49987000       0.07798000       0.06246000 </v>
   <v>       0.24987000       0.92202000       0.06246000 </v>
   <v>       0.25013000       0.07798000       0.31246000 </v>
   <v>       0.00013000       0.92202000       0.31246000 </v>
   <v>       0.99987000       0.07798000       0.06246000 </v>
   <v>       0.74987000       0.92202000       0.06246000 </v>
   <v>       0.75013000       0.07798000       0.31246000 </v>
   <v>       0.50013000       0.92202000       0.31246000 </v>
   <v>       0.49987000       0.07798000       0.56246000 </v>
   <v>       0.24987000       0.92202000       0.56246000 </v>
   <v>       0.25013000       0.07798000       0.81246000 </v>
   <v>       0.00013000       0.92202000       0.81246000 </v>
   <v>       0.99987000       0.07798000       0.56246000 </v>
   <v>       0.74987000       0.92202000       0.56246000 </v>
   <v>       0.75013000       0.07798000       0.81246000 </v>
   <v>       0.50013000       0.92202000       0.81246000 </v>
  </varray>
 </structure>
</modeling>
