<?xml version="1.0" encoding="ISO-8859-1"?>
<modeling>
 <generator>
  <i name="program" type="string">vasp </i>
  <i name="version" type="string">5.4.4.18Apr17-6-g9f103f2a35  </i>
  <i name="subversion" type="string">(build Jul 31 2017 11:33:29) complex            parallel </i>
  <i name="platform" type="string">LinuxIFC </i>
  <i name="date" type="string">2021 09 23 </i>
  <i name="time" type="string">23:32:54 </i>
 </generator>
 <incar>
  <i type="string" name="SYSTEM"> La2O2S</i>
  <i type="string" name="PREC">normal</i>
  <i type="int" name="NELMIN">     4</i>
  <i type="int" name="IBRION">     2</i>
  <i type="int" name="NFREE">    10</i>
  <i name="EDIFF">      0.00000100</i>
  <i name="EDIFFG">     -0.01000000</i>
  <i type="int" name="NSW">   200</i>
  <i type="int" name="ISIF">     3</i>
  <i name="ENCUT">    600.00000000</i>
  <i name="ENAUG">    900.00000000</i>
  <i type="int" name="ISMEAR">    -5</i>
  <i type="logical" name="LWAVE"> F  </i>
  <i type="logical" name="LCHARG"> F  </i>
  <v type="int" name="KPOINT_BSE">    -1     0     0     0</v>
 </incar>
 <structure name="primitive_cell" >
  <crystal>
   <varray name="basis" >
    <v>      11.17850000       0.00000000       0.00000000 </v>
    <v>       0.00000000       9.57460000       0.00000000 </v>
    <v>       0.00000000       0.00000000      11.18240000 </v>
   </varray>
   <i name="volume">   1196.84853820 </i>
   <varray name="rec_basis" >
    <v>       0.08945744       0.00000000       0.00000000 </v>
    <v>       0.00000000       0.10444301       0.00000000 </v>
    <v>       0.00000000       0.00000000       0.08942624 </v>
   </varray>
  </crystal>
  <varray name="positions" >
   <v>       0.37539000       0.00017000       0.43687000 </v>
   <v>      -0.49987000      -0.07798000       0.31246000 </v>
   <v>       0.25013000       0.07798000       0.31246000 </v>
   <v>       0.49987000       0.07798000      -0.43754000 </v>
   <v>       0.24987000      -0.07798000      -0.43754000 </v>
   <v>      -0.37461000      -0.00016000       0.43687000 </v>
   <v>       0.37461000       0.00017000      -0.31313000 </v>
   <v>       0.49987000      -0.29519000       0.31282000 </v>
   <v>       0.24987000       0.29519000       0.31282000 </v>
   <v>      -0.49987000       0.29519000      -0.43719000 </v>
   <v>       0.25013000      -0.29519000      -0.43719000 </v>
   <v>       0.49995000       0.32677000       0.31286000 </v>
   <v>       0.24995000      -0.32677000       0.31286000 </v>
   <v>      -0.49995000      -0.32677000      -0.43714000 </v>
   <v>       0.25005000       0.32677000      -0.43714000 </v>
   <v>      -0.37539000      -0.00016000       0.18687000 </v>
   <v>      -0.37539000      -0.00016000      -0.31313000 </v>
   <v>       0.12461000      -0.00016000       0.18687000 </v>
   <v>       0.12461000      -0.00016000      -0.31313000 </v>
   <v>       0.49987000       0.07798000       0.06246000 </v>
   <v>      -0.24987000       0.07798000       0.31246000 </v>
   <v>      -0.25013000      -0.07798000      -0.43754000 </v>
   <v>       0.24987000      -0.07798000       0.06246000 </v>
   <v>       0.00013000      -0.07798000       0.31246000 </v>
   <v>      -0.49987000      -0.07798000      -0.18754000 </v>
   <v>      -0.00013000       0.07798000      -0.43754000 </v>
   <v>       0.25013000       0.07798000      -0.18754000 </v>
   <v>      -0.49987000       0.29519000       0.06281000 </v>
   <v>      -0.25013000       0.29519000       0.31282000 </v>
   <v>       0.25013000      -0.29519000       0.06281000 </v>
   <v>      -0.24987000      -0.29519000      -0.43719000 </v>
   <v>      -0.00013000      -0.29519000       0.31282000 </v>
   <v>       0.00013000       0.29519000      -0.43719000 </v>
   <v>       0.49987000      -0.29519000      -0.18718000 </v>
   <v>       0.24987000       0.29519000      -0.18718000 </v>
   <v>      -0.49995000      -0.32677000       0.06286000 </v>
   <v>       0.25005000       0.32677000       0.06286000 </v>
   <v>      -0.25005000      -0.32677000       0.31286000 </v>
   <v>      -0.24995000       0.32677000      -0.43714000 </v>
   <v>      -0.00005000       0.32677000       0.31286000 </v>
   <v>       0.00005000      -0.32677000      -0.43714000 </v>
   <v>       0.49995000       0.32677000      -0.18714000 </v>
   <v>       0.24995000      -0.32677000      -0.18714000 </v>
   <v>      -0.12461000       0.00017000       0.43687000 </v>
   <v>       0.37539000       0.00017000      -0.06313000 </v>
   <v>      -0.25013000      -0.07798000       0.06246000 </v>
   <v>      -0.00013000       0.07798000       0.06246000 </v>
   <v>      -0.24987000       0.07798000      -0.18754000 </v>
   <v>       0.00013000      -0.07798000      -0.18754000 </v>
   <v>      -0.12539000       0.00017000       0.18687000 </v>
   <v>       0.12539000      -0.00016000      -0.06313000 </v>
   <v>      -0.37461000      -0.00016000      -0.06313000 </v>
   <v>      -0.24987000      -0.29519000       0.06281000 </v>
   <v>       0.00013000       0.29519000       0.06281000 </v>
   <v>      -0.25013000       0.29519000      -0.18718000 </v>
   <v>      -0.00013000      -0.29519000      -0.18718000 </v>
   <v>      -0.24995000       0.32677000       0.06286000 </v>
   <v>       0.00005000      -0.32677000       0.06286000 </v>
   <v>      -0.25005000      -0.32677000      -0.18714000 </v>
   <v>      -0.00005000       0.32677000      -0.18714000 </v>
   <v>      -0.12461000       0.00017000      -0.06313000 </v>
  </varray>
 </structure>
 <varray name="primitive_index" >
  <v type="int" >        1 </v>
  <v type="int" >       53 </v>
  <v type="int" >       48 </v>
  <v type="int" >       54 </v>
  <v type="int" >       55 </v>
  <v type="int" >        3 </v>
  <v type="int" >        9 </v>
  <v type="int" >       17 </v>
  <v type="int" >       16 </v>
  <v type="int" >       26 </v>
  <v type="int" >       23 </v>
  <v type="int" >       32 </v>
  <v type="int" >       33 </v>
  <v type="int" >       43 </v>
  <v type="int" >       38 </v>
  <v type="int" >        5 </v>
  <v type="int" >       10 </v>
  <v type="int" >        2 </v>
  <v type="int" >        8 </v>
  <v type="int" >       46 </v>
  <v type="int" >       52 </v>
  <v type="int" >       59 </v>
  <v type="int" >       47 </v>
  <v type="int" >       49 </v>
  <v type="int" >       61 </v>
  <v type="int" >       58 </v>
  <v type="int" >       56 </v>
  <v type="int" >       18 </v>
  <v type="int" >       20 </v>
  <v type="int" >       15 </v>
  <v type="int" >       27 </v>
  <v type="int" >       21 </v>
  <v type="int" >       22 </v>
  <v type="int" >       25 </v>
  <v type="int" >       24 </v>
  <v type="int" >       35 </v>
  <v type="int" >       30 </v>
  <v type="int" >       37 </v>
  <v type="int" >       42 </v>
  <v type="int" >       36 </v>
  <v type="int" >       39 </v>
  <v type="int" >       40 </v>
  <v type="int" >       41 </v>
  <v type="int" >        4 </v>
  <v type="int" >       11 </v>
  <v type="int" >       51 </v>
  <v type="int" >       50 </v>
  <v type="int" >       60 </v>
  <v type="int" >       57 </v>
  <v type="int" >        6 </v>
  <v type="int" >        7 </v>
  <v type="int" >       12 </v>
  <v type="int" >       19 </v>
  <v type="int" >       14 </v>
  <v type="int" >       28 </v>
  <v type="int" >       29 </v>
  <v type="int" >       34 </v>
  <v type="int" >       31 </v>
  <v type="int" >       45 </v>
  <v type="int" >       44 </v>
  <v type="int" >       13 </v>
 </varray>
 <kpoints>
  <generation param="Gamma">
   <v type="int" name="divisions">       2        2        2 </v>
   <v name="usershift">      0.00000000       0.00000000       0.00000000 </v>
   <v name="genvec1">      0.50000000       0.00000000       0.00000000 </v>
   <v name="genvec2">      0.00000000       0.50000000       0.00000000 </v>
   <v name="genvec3">      0.00000000       0.00000000       0.50000000 </v>
   <v name="shift">      0.00000000       0.00000000       0.00000000 </v>
  </generation>
  <varray name="kpointlist" >
   <v>       0.00000000       0.00000000       0.00000000 </v>
   <v>       0.50000000       0.00000000       0.00000000 </v>
   <v>       0.00000000       0.50000000       0.00000000 </v>
   <v>       0.50000000       0.50000000       0.00000000 </v>
   <v>       0.00000000       0.00000000       0.50000000 </v>
   <v>       0.50000000       0.00000000       0.50000000 </v>
   <v>       0.00000000       0.50000000       0.50000000 </v>
   <v>       0.50000000       0.50000000       0.50000000 </v>
  </varray>
  <varray name="weights" >
   <v>       0.12500000 </v>
   <v>       0.12500000 </v>
   <v>       0.12500000 </v>
   <v>       0.12500000 </v>
   <v>       0.12500000 </v>
   <v>       0.12500000 </v>
   <v>       0.12500000 </v>
   <v>       0.12500000 </v>
  </varray>
  <varray name="tetrahedronlist"  type="int" >
   <v type="int" >        2        1        2        4        5 </v>
   <v type="int" >        2        1        3        4        5 </v>
   <v type="int" >        2        3        4        5        7 </v>
   <v type="int" >        2        2        4        5        6 </v>
   <v type="int" >        2        4        5        6        8 </v>
   <v type="int" >        2        4        5        7        8 </v>
   <v type="int" >        2        1        2        3        6 </v>
   <v type="int" >        2        2        3        4        6 </v>
   <v type="int" >        2        3        4        6        8 </v>
   <v type="int" >        2        1        3        5        6 </v>
   <v type="int" >        2        3        5        6        7 </v>
   <v type="int" >        2        3        6        7        8 </v>
   <v type="int" >        2        2        3        4        7 </v>
   <v type="int" >        2        1        2        3        7 </v>
   <v type="int" >        2        1        2        5        7 </v>
   <v type="int" >        2        2        4        7        8 </v>
   <v type="int" >        2        2        6        7        8 </v>
   <v type="int" >        2        2        5        6        7 </v>
   <v type="int" >        2        1        3        4        8 </v>
   <v type="int" >        2        1        2        4        8 </v>
   <v type="int" >        2        1        2        6        8 </v>
   <v type="int" >        2        1        3        7        8 </v>
   <v type="int" >        2        1        5        7        8 </v>
   <v type="int" >        2        1        5        6        8 </v>
  </varray>
  <i name="volumeweight">      0.02083333 </i>
 </kpoints>
 <parameters>
  <separator name="general" >
   <i type="string" name="SYSTEM">La2O2S</i>
   <i type="logical" name="LCOMPAT"> F  </i>
  </separator>
  <separator name="electronic" >
   <i type="string" name="PREC">normal</i>
   <i name="ENMAX">    600.00000000</i>
   <i name="ENAUG">    900.00000000</i>
   <i name="EDIFF">      0.00000100</i>
   <i type="int" name="IALGO">    38</i>
   <i type="int" name="IWAVPR">    11</i>
   <i type="int" name="NBANDS">   280</i>
   <i name="NELECT">    468.00000000</i>
   <i type="int" name="TURBO">     0</i>
   <i type="int" name="IRESTART">     0</i>
   <i type="int" name="NREBOOT">     0</i>
   <i type="int" name="NMIN">     0</i>
   <i name="EREF">      0.00000000</i>
   <separator name="electronic smearing" >
    <i type="int" name="ISMEAR">    -5</i>
    <i name="SIGMA">      0.20000000</i>
    <i name="KSPACING">      0.50000000</i>
    <i type="logical" name="KGAMMA"> T  </i>
   </separator>
   <separator name="electronic projectors" >
    <i type="logical" name="LREAL"> F  </i>
    <v name="ROPT">      0.00000000      0.00000000      0.00000000      0.00000000      0.00000000</v>
    <i type="int" name="LMAXPAW">  -100</i>
    <i type="int" name="LMAXMIX">     2</i>
    <i type="logical" name="NLSPLINE"> F  </i>
   </separator>
   <separator name="electronic startup" >
    <i type="int" name="ISTART">     0</i>
    <i type="int" name="ICHARG">     2</i>
    <i type="int" name="INIWAV">     1</i>
   </separator>
   <separator name="electronic spin" >
    <i type="int" name="ISPIN">     1</i>
    <i type="logical" name="LNONCOLLINEAR"> F  </i>
    <v name="MAGMOM">      1.00000000      1.00000000      1.00000000      1.00000000      1.00000000      1.00000000      1.00000000      1.00000000      1.00000000      1.00000000      1.00000000      1.00000000      1.00000000      1.00000000      1.00000000      1.00000000      1.00000000      1.00000000      1.00000000      1.00000000
      1.00000000      1.00000000      1.00000000      1.00000000      1.00000000      1.00000000      1.00000000      1.00000000      1.00000000      1.00000000      1.00000000      1.00000000      1.00000000      1.00000000      1.00000000      1.00000000      1.00000000      1.00000000      1.00000000      1.00000000
      1.00000000      1.00000000      1.00000000      1.00000000      1.00000000      1.00000000      1.00000000      1.00000000      1.00000000      1.00000000      1.00000000      1.00000000      1.00000000      1.00000000      1.00000000      1.00000000      1.00000000      1.00000000      1.00000000      1.00000000
      1.00000000</v>
    <i name="NUPDOWN">     -1.00000000</i>
    <i type="logical" name="LSORBIT"> F  </i>
    <v name="SAXIS">      0.00000000      0.00000000      1.00000000</v>
    <i type="logical" name="LSPIRAL"> F  </i>
    <v name="QSPIRAL">      0.00000000      0.00000000      0.00000000</v>
    <i type="logical" name="LZEROZ"> F  </i>
   </separator>
   <separator name="electronic exchange-correlation" >
    <i type="logical" name="LASPH"> F  </i>
    <i type="logical" name="LMETAGGA"> F  </i>
   </separator>
   <separator name="electronic convergence" >
    <i type="int" name="NELM">    60</i>
    <i type="int" name="NELMDL">    -5</i>
    <i type="int" name="NELMIN">     4</i>
    <i name="ENINI">    600.00000000</i>
    <separator name="electronic convergence detail" >
     <i type="logical" name="LDIAG"> T  </i>
     <i type="logical" name="LSUBROT"> F  </i>
     <i name="WEIMIN">      0.00100000</i>
     <i name="EBREAK">      0.00000000</i>
     <i name="DEPER">      0.30000000</i>
     <i type="int" name="NRMM">     4</i>
     <i name="TIME">      0.40000000</i>
    </separator>
   </separator>
   <separator name="electronic mixer" >
    <i name="AMIX">      0.40000000</i>
    <i name="BMIX">      1.00000000</i>
    <i name="AMIN">      0.10000000</i>
    <i name="AMIX_MAG">      1.60000000</i>
    <i name="BMIX_MAG">      1.00000000</i>
    <separator name="electronic mixer details" >
     <i type="int" name="IMIX">     4</i>
     <i type="logical" name="MIXFIRST"> F  </i>
     <i type="int" name="MAXMIX">   -45</i>
     <i name="WC">    100.00000000</i>
     <i type="int" name="INIMIX">     1</i>
     <i type="int" name="MIXPRE">     1</i>
     <i type="int" name="MREMOVE">     5</i>
    </separator>
   </separator>
   <separator name="electronic dipolcorrection" >
    <i type="logical" name="LDIPOL"> F  </i>
    <i type="logical" name="LMONO"> F  </i>
    <i type="int" name="IDIPOL">     0</i>
    <i name="EPSILON">      1.00000000</i>
    <v name="DIPOL">   -100.00000000   -100.00000000   -100.00000000</v>
    <i name="EFIELD">      0.00000000</i>
   </separator>
  </separator>
  <separator name="grids" >
   <i type="int" name="NGX">    70</i>
   <i type="int" name="NGY">    60</i>
   <i type="int" name="NGZ">    70</i>
   <i type="int" name="NGXF">   140</i>
   <i type="int" name="NGYF">   120</i>
   <i type="int" name="NGZF">   140</i>
   <i type="logical" name="ADDGRID"> F  </i>
  </separator>
  <separator name="ionic" >
   <i type="int" name="NSW">   200</i>
   <i type="int" name="IBRION">     2</i>
   <i type="int" name="MDALGO">     0</i>
   <i type="int" name="ISIF">     3</i>
   <i name="PSTRESS">      0.00000000</i>
   <i name="EDIFFG">     -0.01000000</i>
   <i type="int" name="NFREE">    10</i>
   <i name="POTIM">      0.50000000</i>
   <i name="SMASS">     -3.00000000</i>
   <i name="SCALEE">      1.00000000</i>
  </separator>
  <separator name="ionic md" >
   <i name="TEBEG">      0.00010000</i>
   <i name="TEEND">      0.00010000</i>
   <i type="int" name="NBLOCK">     1</i>
   <i type="int" name="KBLOCK">   200</i>
   <i type="int" name="NPACO">   256</i>
   <i name="APACO">     16.00000000</i>
  </separator>
  <separator name="symmetry" >
   <i type="int" name="ISYM">     2</i>
   <i name="SYMPREC">      0.00001000</i>
  </separator>
  <separator name="dos" >
   <i type="int" name="LORBIT">     0</i>
   <v name="RWIGS">     -1.00000000     -1.00000000     -1.00000000     -1.00000000     -1.00000000</v>
   <i type="int" name="NEDOS">   301</i>
   <i name="EMIN">     10.00000000</i>
   <i name="EMAX">    -10.00000000</i>
   <i name="EFERMI">      0.00000000</i>
  </separator>
  <separator name="writing" >
   <i type="int" name="NWRITE">     2</i>
   <i type="logical" name="LWAVE"> F  </i>
   <i type="logical" name="LDOWNSAMPLE"> F  </i>
   <i type="logical" name="LCHARG"> F  </i>
   <i type="logical" name="LPARD"> F  </i>
   <i type="logical" name="LVTOT"> F  </i>
   <i type="logical" name="LVHAR"> F  </i>
   <i type="logical" name="LELF"> F  </i>
   <i type="logical" name="LOPTICS"> F  </i>
   <v name="STM">      0.00000000      0.00000000      0.00000000      0.00000000      0.00000000      0.00000000      0.00000000</v>
  </separator>
  <separator name="performance" >
   <i type="int" name="NPAR">    28</i>
   <i type="int" name="NSIM">     4</i>
   <i type="int" name="NBLK">    -1</i>
   <i type="logical" name="LPLANE"> T  </i>
   <i type="logical" name="LSCALAPACK"> T  </i>
   <i type="logical" name="LSCAAWARE"> F  </i>
   <i type="logical" name="LSCALU"> F  </i>
   <i type="logical" name="LASYNC"> F  </i>
   <i type="logical" name="LORBITALREAL"> F  </i>
  </separator>
  <separator name="miscellaneous" >
   <i type="int" name="IDIOT">     3</i>
   <i type="int" name="ISPECIAL">     0</i>
   <i type="logical" name="LMUSIC"> F  </i>
   <v name="POMASS">      7.01000000     24.30500000    208.98000000     32.06600000     16.00000000</v>
   <v name="DARWINR">      0.00000000      0.00000000      0.00000000      0.00000000      0.00000000</v>
   <v name="DARWINV">      1.00000000      1.00000000      1.00000000      1.00000000      1.00000000</v>
   <i type="logical" name="LCORR"> T  </i>
  </separator>
  <i type="logical" name="GGA_COMPAT"> T  </i>
  <i type="logical" name="LBERRY"> F  </i>
  <i type="int" name="ICORELEVEL">     0</i>
  <i type="logical" name="LDAU"> F  </i>
  <i type="int" name="I_CONSTRAINED_M">     0</i>
  <separator name="electronic exchange-correlation" >
   <i type="string" name="GGA">--</i>
   <i type="int" name="VOSKOWN">     0</i>
   <i type="logical" name="LHFCALC"> F  </i>
   <i type="string" name="PRECFOCK"></i>
   <i type="logical" name="LSYMGRAD"> F  </i>
   <i type="logical" name="LHFONE"> F  </i>
   <i type="logical" name="LRHFCALC"> F  </i>
   <i type="logical" name="LTHOMAS"> F  </i>
   <i type="logical" name="LMODELHF"> F  </i>
   <i name="ENCUT4O">     -1.00000000</i>
   <i type="int" name="EXXOEP">     0</i>
   <i type="int" name="FOURORBIT">     0</i>
   <i name="AEXX">      0.00000000</i>
   <i name="HFALPHA">      0.00000000</i>
   <i name="MCALPHA">      0.00000000</i>
   <i name="ALDAX">      1.00000000</i>
   <i name="AGGAX">      1.00000000</i>
   <i name="ALDAC">      1.00000000</i>
   <i name="AGGAC">      1.00000000</i>
   <i type="int" name="NKREDX">     1</i>
   <i type="int" name="NKREDY">     1</i>
   <i type="int" name="NKREDZ">     1</i>
   <i type="logical" name="SHIFTRED"> F  </i>
   <i type="logical" name="ODDONLY"> F  </i>
   <i type="logical" name="EVENONLY"> F  </i>
   <i type="int" name="LMAXFOCK">     0</i>
   <i type="int" name="NMAXFOCKAE">     0</i>
   <i type="logical" name="LFOCKAEDFT"> F  </i>
   <i name="HFSCREEN">      0.00000000</i>
   <i name="HFSCREENC">      0.00000000</i>
   <i type="int" name="NBANDSGWLOW">     0</i>
  </separator>
  <separator name="vdW DFT" >
   <i type="logical" name="LUSE_VDW"> F  </i>
   <i name="Zab_VDW">     -0.84910000</i>
   <i name="PARAM1">      0.12340000</i>
   <i name="PARAM2">      1.00000000</i>
   <i name="PARAM3">      0.00000000</i>
  </separator>
  <separator name="model GW" >
   <i type="int" name="MODEL_GW">     0</i>
   <i name="MODEL_EPS0">     11.77228070</i>
   <i name="MODEL_ALPHA">      1.00000000</i>
  </separator>
  <separator name="linear response parameters" >
   <i type="logical" name="LEPSILON"> F  </i>
   <i type="logical" name="LRPA"> F  </i>
   <i type="logical" name="LNABLA"> F  </i>
   <i type="logical" name="LVEL"> F  </i>
   <i type="int" name="KINTER">     0</i>
   <i name="CSHIFT">      0.10000000</i>
   <i name="OMEGAMAX">     -1.00000000</i>
   <i name="DEG_THRESHOLD">      0.00200000</i>
   <i name="RTIME">     -0.10000000</i>
   <i name="WPLASMAI">      0.00000000</i>
   <v name="DFIELD">      0.00000000      0.00000000      0.00000000</v>
   <v name="WPLASMA">      0.00000000      0.00000000      0.00000000      0.00000000      0.00000000      0.00000000      0.00000000      0.00000000      0.00000000</v>
  </separator>
  <separator name="orbital magnetization" >
   <i type="logical" name="NUCIND"> F  </i>
   <v name="MAGPOS">      0.00000000      0.00000000      0.00000000</v>
   <i type="logical" name="LNICSALL"> T  </i>
   <i type="logical" name="ORBITALMAG"> F  </i>
   <i type="logical" name="LMAGBLOCH"> F  </i>
   <i type="logical" name="LCHIMAG"> F  </i>
   <i type="logical" name="LGAUGE"> T  </i>
   <i type="int" name="MAGATOM">     0</i>
   <v name="MAGDIPOL">      0.00000000      0.00000000      0.00000000</v>
   <v name="AVECCONST">      0.00000000      0.00000000      0.00000000</v>
  </separator>
  <separator name="response functions" >
   <i type="logical" name="LADDER"> F  </i>
   <i type="logical" name="LRPAFORCE"> F  </i>
   <i type="logical" name="LFXC"> F  </i>
   <i type="logical" name="LHARTREE"> T  </i>
   <i type="int" name="IBSE">     0</i>
   <v type="int" name="KPOINT">    -1     0     0     0</v>
   <i type="logical" name="LTCTE"> F  </i>
   <i type="logical" name="LTETE"> F  </i>
   <i type="logical" name="LTRIPLET"> F  </i>
   <i type="logical" name="LFXCEPS"> F  </i>
   <i type="logical" name="LFXHEG"> F  </i>
   <i type="int" name="NATURALO">     2</i>
   <i type="logical" name="L2ORDER"> F  </i>
   <i type="logical" name="LMP2LT"> F  </i>
   <i type="logical" name="LUSEW"> F  </i>
   <i name="ENCUTGW">     -2.00000000</i>
   <i name="ENCUTGWSOFT">     -2.00000000</i>
   <i name="ENCUTLF">     -1.00000000</i>
   <i type="int" name="LMAXMP2">    -1</i>
   <i name="SCISSOR">      0.00000000</i>
   <i type="int" name="NOMEGA">     0</i>
   <i type="int" name="NOMEGAR">     0</i>
   <i type="int" name="NBANDSGW">    -1</i>
   <i type="int" name="NBANDSO">    -1</i>
   <i type="int" name="NBANDSV">    -1</i>
   <i type="int" name="NELM">     1</i>
   <i type="int" name="NELMHF">     1</i>
   <i type="int" name="DIM">     3</i>
   <i type="int" name="ANTIRES">     0</i>
   <i name="OMEGAMAX">    -30.00000000</i>
   <i name="OMEGAMIN">    -30.00000000</i>
   <i name="OMEGATL">   -200.00000000</i>
   <i type="int" name="OMEGAGRID">   140</i>
   <i name="CSHIFT">     -0.10000000</i>
   <i type="logical" name="SELFENERGY"> F  </i>
   <i type="logical" name="LSPECTRAL"> F  </i>
   <i type="logical" name="LSPECTRALGW"> F  </i>
   <i type="logical" name="LSINGLES"> F  </i>
   <i type="logical" name="LFERMIGW"> F  </i>
   <i type="logical" name="ODDONLYGW"> F  </i>
   <i type="logical" name="EVENONLYGW"> F  </i>
   <i type="int" name="NKREDLFX">     1</i>
   <i type="int" name="NKREDLFY">     1</i>
   <i type="int" name="NKREDLFZ">     1</i>
   <i type="int" name="MAXMEM">  2800</i>
   <i type="int" name="TELESCOPE">     0</i>
   <i type="int" name="TAUPAR">     1</i>
   <i type="int" name="OMEGAPAR">    -1</i>
   <i name="LAMBDA">      1.00000000</i>
  </separator>
  <separator name="External order field" >
   <i name="OFIELD_KAPPA">      0.00000000</i>
   <v name="OFIELD_K">      0.00000000      0.00000000      0.00000000</v>
   <i name="OFIELD_Q6_NEAR">      0.00000000</i>
   <i name="OFIELD_Q6_FAR">      0.00000000</i>
   <i name="OFIELD_A">      0.00000000</i>
  </separator>
 </parameters>
 <atominfo>
  <atoms>      61 </atoms>
  <types>       5 </types>
  <array name="atoms" >
   <dimension dim="1">ion</dimension>
   <field type="string">element</field>
   <field type="int">atomtype</field>
   <set>
    <rc><c>Li</c><c>   1</c></rc>
    <rc><c>Li</c><c>   1</c></rc>
    <rc><c>Li</c><c>   1</c></rc>
    <rc><c>Li</c><c>   1</c></rc>
    <rc><c>Li</c><c>   1</c></rc>
    <rc><c>Li</c><c>   1</c></rc>
    <rc><c>Li</c><c>   1</c></rc>
    <rc><c>Li</c><c>   1</c></rc>
    <rc><c>Li</c><c>   1</c></rc>
    <rc><c>Li</c><c>   1</c></rc>
    <rc><c>Mg</c><c>   2</c></rc>
    <rc><c>Mg</c><c>   2</c></rc>
    <rc><c>Mg</c><c>   2</c></rc>
    <rc><c>Bi</c><c>   3</c></rc>
    <rc><c>Bi</c><c>   3</c></rc>
    <rc><c>Bi</c><c>   3</c></rc>
    <rc><c>Bi</c><c>   3</c></rc>
    <rc><c>Bi</c><c>   3</c></rc>
    <rc><c>Bi</c><c>   3</c></rc>
    <rc><c>Bi</c><c>   3</c></rc>
    <rc><c>Bi</c><c>   3</c></rc>
    <rc><c>Bi</c><c>   3</c></rc>
    <rc><c>Bi</c><c>   3</c></rc>
    <rc><c>Bi</c><c>   3</c></rc>
    <rc><c>Bi</c><c>   3</c></rc>
    <rc><c>Bi</c><c>   3</c></rc>
    <rc><c>Bi</c><c>   3</c></rc>
    <rc><c>Bi</c><c>   3</c></rc>
    <rc><c>Bi</c><c>   3</c></rc>
    <rc><c>S </c><c>   4</c></rc>
    <rc><c>S </c><c>   4</c></rc>
    <rc><c>S </c><c>   4</c></rc>
    <rc><c>S </c><c>   4</c></rc>
    <rc><c>S </c><c>   4</c></rc>
    <rc><c>S </c><c>   4</c></rc>
    <rc><c>S </c><c>   4</c></rc>
    <rc><c>S </c><c>   4</c></rc>
    <rc><c>S </c><c>   4</c></rc>
    <rc><c>S </c><c>   4</c></rc>
    <rc><c>S </c><c>   4</c></rc>
    <rc><c>S </c><c>   4</c></rc>
    <rc><c>S </c><c>   4</c></rc>
    <rc><c>S </c><c>   4</c></rc>
    <rc><c>S </c><c>   4</c></rc>
    <rc><c>S </c><c>   4</c></rc>
    <rc><c>O </c><c>   5</c></rc>
    <rc><c>O </c><c>   5</c></rc>
    <rc><c>O </c><c>   5</c></rc>
    <rc><c>O </c><c>   5</c></rc>
    <rc><c>O </c><c>   5</c></rc>
    <rc><c>O </c><c>   5</c></rc>
    <rc><c>O </c><c>   5</c></rc>
    <rc><c>O </c><c>   5</c></rc>
    <rc><c>O </c><c>   5</c></rc>
    <rc><c>O </c><c>   5</c></rc>
    <rc><c>O </c><c>   5</c></rc>
    <rc><c>O </c><c>   5</c></rc>
    <rc><c>O </c><c>   5</c></rc>
    <rc><c>O </c><c>   5</c></rc>
    <rc><c>O </c><c>   5</c></rc>
    <rc><c>O </c><c>   5</c></rc>
   </set>
  </array>
  <array name="atomtypes" >
   <dimension dim="1">type</dimension>
   <field type="int">atomspertype</field>
   <field type="string">element</field>
   <field>mass</field>
   <field>valence</field>
   <field type="string">pseudopotential</field>
   <set>
    <rc><c>  10</c><c>Li</c><c>      7.01000000</c><c>      3.00000000</c><c>  PAW_PBE Li_sv 10Sep2004               </c></rc>
    <rc><c>   3</c><c>Mg</c><c>     24.30500000</c><c>      2.00000000</c><c>  PAW_PBE Mg 13Apr2007                  </c></rc>
    <rc><c>  16</c><c>Bi</c><c>    208.98000000</c><c>     15.00000000</c><c>  PAW_PBE Bi_d 06Sep2000                </c></rc>
    <rc><c>  16</c><c>S </c><c>     32.06600000</c><c>      6.00000000</c><c>  PAW_PBE S 06Sep2000                   </c></rc>
    <rc><c>  16</c><c>O </c><c>     16.00000000</c><c>      6.00000000</c><c>  PAW_PBE O 08Apr2002                   </c></rc>
   </set>
  </array>
 </atominfo>
 <structure name="initialpos" >
  <crystal>
   <varray name="basis" >
    <v>      11.17850000       0.00000000       0.00000000 </v>
    <v>       0.00000000       9.57460000       0.00000000 </v>
    <v>       0.00000000       0.00000000      11.18240000 </v>
   </varray>
   <i name="volume">   1196.84853820 </i>
   <varray name="rec_basis" >
    <v>       0.08945744       0.00000000       0.00000000 </v>
    <v>       0.00000000       0.10444301       0.00000000 </v>
    <v>       0.00000000       0.00000000       0.08942624 </v>
   </varray>
  </crystal>
  <varray name="positions" >
   <v>       0.37539000       0.00017000       0.43687000 </v>
   <v>       0.12461000       0.99984000       0.18687000 </v>
   <v>       0.62539000       0.99984000       0.43687000 </v>
   <v>       0.87539000       0.00017000       0.43687000 </v>
   <v>       0.62461000       0.99984000       0.18687000 </v>
   <v>       0.87461000       0.00017000       0.18687000 </v>
   <v>       0.12539000       0.99984000       0.93687000 </v>
   <v>       0.12461000       0.99984000       0.68687000 </v>
   <v>       0.37461000       0.00017000       0.68687000 </v>
   <v>       0.62461000       0.99984000       0.68687000 </v>
   <v>       0.37539000       0.00017000       0.93687000 </v>
   <v>       0.62539000       0.99984000       0.93687000 </v>
   <v>       0.87539000       0.00017000       0.93687000 </v>
   <v>       0.00013000       0.29519000       0.06281000 </v>
   <v>       0.25013000       0.70481000       0.06281000 </v>
   <v>       0.24987000       0.29519000       0.31282000 </v>
   <v>       0.49987000       0.70481000       0.31282000 </v>
   <v>       0.50013000       0.29519000       0.06281000 </v>
   <v>       0.75013000       0.70481000       0.06281000 </v>
   <v>       0.74987000       0.29519000       0.31282000 </v>
   <v>       0.99987000       0.70481000       0.31282000 </v>
   <v>       0.00013000       0.29519000       0.56281000 </v>
   <v>       0.25013000       0.70481000       0.56281000 </v>
   <v>       0.24987000       0.29519000       0.81282000 </v>
   <v>       0.49987000       0.70481000       0.81282000 </v>
   <v>       0.50013000       0.29519000       0.56281000 </v>
   <v>       0.75013000       0.70481000       0.56281000 </v>
   <v>       0.74987000       0.29519000       0.81282000 </v>
   <v>       0.99987000       0.70481000       0.81282000 </v>
   <v>       0.25005000       0.32677000       0.06286000 </v>
   <v>       0.00005000       0.67323000       0.06286000 </v>
   <v>       0.49995000       0.32677000       0.31286000 </v>
   <v>       0.24995000       0.67323000       0.31286000 </v>
   <v>       0.75005000       0.32677000       0.06286000 </v>
   <v>       0.50005000       0.67323000       0.06286000 </v>
   <v>       0.99995000       0.32677000       0.31286000 </v>
   <v>       0.74995000       0.67323000       0.31286000 </v>
   <v>       0.25005000       0.32677000       0.56286000 </v>
   <v>       0.00005000       0.67323000       0.56286000 </v>
   <v>       0.49995000       0.32677000       0.81286000 </v>
   <v>       0.24995000       0.67323000       0.81286000 </v>
   <v>       0.75005000       0.32677000       0.56286000 </v>
   <v>       0.50005000       0.67323000       0.56286000 </v>
   <v>       0.99995000       0.32677000       0.81286000 </v>
   <v>       0.74995000       0.67323000       0.81286000 </v>
   <v>       0.49987000       0.07798000       0.06246000 </v>
   <v>       0.24987000       0.92202000       0.06246000 </v>
   <v>       0.25013000       0.07798000       0.31246000 </v>
   <v>       0.00013000       0.92202000       0.31246000 </v>
   <v>       0.99987000       0.07798000       0.06246000 </v>
   <v>       0.74987000       0.92202000       0.06246000 </v>
   <v>       0.75013000       0.07798000       0.31246000 </v>
   <v>       0.50013000       0.92202000       0.31246000 </v>
   <v>       0.49987000       0.07798000       0.56246000 </v>
   <v>       0.24987000       0.92202000       0.56246000 </v>
   <v>       0.25013000       0.07798000       0.81246000 </v>
   <v>       0.00013000       0.92202000       0.81246000 </v>
   <v>       0.99987000       0.07798000       0.56246000 </v>
   <v>       0.74987000       0.92202000       0.56246000 </v>
   <v>       0.75013000       0.07798000       0.81246000 </v>
   <v>       0.50013000       0.92202000       0.81246000 </v>
  </varray>
 </structure>
 <calculation>
  <scstep>
   <time name="dav">   59.18   59.17</time>
   <time name="total">   59.27   59.25</time>
   <energy>
    <i name="alphaZ">   1073.51873187 </i>
    <i name="ewald"> -30890.00350200 </i>
    <i name="hartreedc"> -12699.21728521 </i>
    <i name="XCdc">   1395.02746218 </i>
    <i name="pawpsdc">  36823.70205594 </i>
    <i name="pawaedc"> -36326.52930246 </i>
    <i name="eentropy">      0.00000000 </i>
    <i name="bandstr">   1807.94874441 </i>
    <i name="atom">  44791.06186932 </i>
    <i name="e_fr_energy">   5975.50877405 </i>
    <i name="e_wo_entrp">   5975.50877405 </i>
    <i name="e_0_energy">   5975.50877405 </i>
   </energy>
  </scstep>
  <scstep>
   <time name="dav">   59.68   59.68</time>
   <time name="total">   59.69   59.69</time>
   <energy>
    <i name="e_fr_energy">    805.09417907 </i>
    <i name="e_wo_entrp">    805.09417907 </i>
    <i name="e_0_energy">    805.09417907 </i>
   </energy>
  </scstep>
  <scstep>
   <time name="dav">   68.40   68.38</time>
   <time name="total">   68.41   68.39</time>
   <energy>
    <i name="e_fr_energy">   -241.59192142 </i>
    <i name="e_wo_entrp">   -241.59192142 </i>
    <i name="e_0_energy">   -241.59192142 </i>
   </energy>
  </scstep>
  <scstep>
   <time name="dav">   71.81   71.79</time>
   <time name="total">   71.81   71.80</time>
   <energy>
    <i name="e_fr_energy">   -345.03453073 </i>
    <i name="e_wo_entrp">   -345.03453073 </i>
    <i name="e_0_energy">   -345.03453073 </i>
   </energy>
  </scstep>
  <scstep>
   <time name="dav">   96.55   96.53</time>
   <time name="total">   97.27   97.25</time>
   <energy>
    <i name="e_fr_energy">   -354.06923938 </i>
    <i name="e_wo_entrp">   -354.06923938 </i>
    <i name="e_0_energy">   -354.06923938 </i>
   </energy>
  </scstep>
  <scstep>
   <time name="dav">   84.35   84.35</time>
   <time name="total">   85.15   85.15</time>
   <energy>
    <i name="e_fr_energy">   -294.75270439 </i>
    <i name="e_wo_entrp">   -294.75270439 </i>
    <i name="e_0_energy">   -294.75270439 </i>
   </energy>
  </scstep>
  <scstep>
   <time name="dav">   64.55   64.62</time>
   <time name="total">   65.33   65.41</time>
   <energy>
    <i name="e_fr_energy">   -297.14766769 </i>
    <i name="e_wo_entrp">   -297.14766769 </i>
    <i name="e_0_energy">   -297.14766769 </i>
   </energy>
  </scstep>
  <scstep>
   <time name="dav">   74.51   74.64</time>
   <time name="total">   75.29   75.43</time>
   <energy>
    <i name="e_fr_energy">   -295.76211327 </i>
    <i name="e_wo_entrp">   -295.76211327 </i>
    <i name="e_0_energy">   -295.76211327 </i>
   </energy>
  </scstep>
  <scstep>
   <time name="dav">   67.95   68.09</time>
   <time name="total">   68.73   68.88</time>
   <energy>
    <i name="e_fr_energy">   -295.03528225 </i>
    <i name="e_wo_entrp">   -295.03528225 </i>
    <i name="e_0_energy">   -295.03528225 </i>
   </energy>
  </scstep>
  <scstep>
   <time name="dav">   74.32   74.35</time>
   <time name="total">   75.11   75.14</time>
   <energy>
    <i name="e_fr_energy">   -295.09166363 </i>
    <i name="e_wo_entrp">   -295.09166363 </i>
    <i name="e_0_energy">   -295.09166363 </i>
   </energy>
  </scstep>
  <scstep>
   <time name="dav">   75.87   75.86</time>
   <time name="total">   76.66   76.65</time>
   <energy>
    <i name="e_fr_energy">   -295.09154340 </i>
    <i name="e_wo_entrp">   -295.09154340 </i>
    <i name="e_0_energy">   -295.09154340 </i>
   </energy>
  </scstep>
  <scstep>
   <time name="dav">   77.59   77.62</time>
   <time name="total">   78.38   78.41</time>
   <energy>
    <i name="e_fr_energy">   -295.09599290 </i>
    <i name="e_wo_entrp">   -295.09599290 </i>
    <i name="e_0_energy">   -295.09599290 </i>
   </energy>
  </scstep>
  <scstep>
   <time name="dav">   80.03   80.13</time>
   <time name="total">   80.82   80.92</time>
   <energy>
    <i name="e_fr_energy">   -295.09690053 </i>
    <i name="e_wo_entrp">   -295.09690053 </i>
    <i name="e_0_energy">   -295.09690053 </i>
   </energy>
  </scstep>
  <scstep>
   <time name="dav">   71.86   71.98</time>
   <time name="total">   72.65   72.77</time>
   <energy>
    <i name="e_fr_energy">   -295.09674167 </i>
    <i name="e_wo_entrp">   -295.09674167 </i>
    <i name="e_0_energy">   -295.09674167 </i>
   </energy>
  </scstep>
  <scstep>
   <time name="dav">   72.05   72.17</time>
   <time name="total">   72.84   72.96</time>
   <energy>
    <i name="e_fr_energy">   -295.09689000 </i>
    <i name="e_wo_entrp">   -295.09689000 </i>
    <i name="e_0_energy">   -295.09689000 </i>
   </energy>
  </scstep>
  <scstep>
   <time name="dav">   84.48   84.56</time>
   <time name="total">   85.27   85.35</time>
   <energy>
    <i name="e_fr_energy">   -295.09689213 </i>
    <i name="e_wo_entrp">   -295.09689213 </i>
    <i name="e_0_energy">   -295.09689213 </i>
   </energy>
  </scstep>
  <scstep>
   <time name="dav">   68.99   69.07</time>
   <time name="total">   69.78   69.87</time>
   <energy>
    <i name="e_fr_energy">   -295.09689743 </i>
    <i name="e_wo_entrp">   -295.09689743 </i>
    <i name="e_0_energy">   -295.09689743 </i>
   </energy>
  </scstep>
  <scstep>
   <time name="dav">   66.90   66.94</time>
   <time name="total">   67.70   67.73</time>
   <energy>
    <i name="e_fr_energy">   -295.09689933 </i>
    <i name="e_wo_entrp">   -295.09689933 </i>
    <i name="e_0_energy">   -295.09689933 </i>
   </energy>
  </scstep>
  <scstep>
   <time name="dav">   58.33   58.33</time>
   <time name="total">   59.12   59.12</time>
   <energy>
    <i name="e_fr_energy">   -295.09690050 </i>
    <i name="e_wo_entrp">   -295.09690050 </i>
    <i name="e_0_energy">   -295.09690050 </i>
   </energy>
  </scstep>
  <scstep>
   <time name="dav">   44.19   44.20</time>
   <time name="total">   44.27   44.28</time>
   <energy>
    <i name="alphaZ">   1073.51873187 </i>
    <i name="ewald"> -30890.00350200 </i>
    <i name="hartreedc"> -12930.36528899 </i>
    <i name="XCdc">   1418.21650956 </i>
    <i name="pawpsdc">  43852.54930774 </i>
    <i name="pawaedc"> -43330.82931656 </i>
    <i name="eentropy">      0.00000000 </i>
    <i name="bandstr">  -4279.24521128 </i>
    <i name="atom">  44791.06186932 </i>
    <i name="e_fr_energy">   -295.09690034 </i>
    <i name="e_wo_entrp">   -295.09690034 </i>
    <i name="e_0_energy">   -295.09690034 </i>
   </energy>
  </scstep>
  <structure>
   <crystal>
    <varray name="basis" >
     <v>      11.17850000       0.00000000       0.00000000 </v>
     <v>       0.00000000       9.57460000       0.00000000 </v>
     <v>       0.00000000       0.00000000      11.18240000 </v>
    </varray>
    <i name="volume">   1196.84853820 </i>
    <varray name="rec_basis" >
     <v>       0.08945744       0.00000000       0.00000000 </v>
     <v>       0.00000000       0.10444301       0.00000000 </v>
     <v>       0.00000000       0.00000000       0.08942624 </v>
    </varray>
   </crystal>
   <varray name="positions" >
    <v>       0.37539000       0.00017000       0.43687000 </v>
    <v>       0.12461000       0.99984000       0.18687000 </v>
    <v>       0.62539000       0.99984000       0.43687000 </v>
    <v>       0.87539000       0.00017000       0.43687000 </v>
    <v>       0.62461000       0.99984000       0.18687000 </v>
    <v>       0.87461000       0.00017000       0.18687000 </v>
    <v>       0.12539000       0.99984000       0.93687000 </v>
    <v>       0.12461000       0.99984000       0.68687000 </v>
    <v>       0.37461000       0.00017000       0.68687000 </v>
    <v>       0.62461000       0.99984000       0.68687000 </v>
    <v>       0.37539000       0.00017000       0.93687000 </v>
    <v>       0.62539000       0.99984000       0.93687000 </v>
    <v>       0.87539000       0.00017000       0.93687000 </v>
    <v>       0.00013000       0.29519000       0.06281000 </v>
    <v>       0.25013000       0.70481000       0.06281000 </v>
    <v>       0.24987000       0.29519000       0.31282000 </v>
    <v>       0.49987000       0.70481000       0.31282000 </v>
    <v>       0.50013000       0.29519000       0.06281000 </v>
    <v>       0.75013000       0.70481000       0.06281000 </v>
    <v>       0.74987000       0.29519000       0.31282000 </v>
    <v>       0.99987000       0.70481000       0.31282000 </v>
    <v>       0.00013000       0.29519000       0.56281000 </v>
    <v>       0.25013000       0.70481000       0.56281000 </v>
    <v>       0.24987000       0.29519000       0.81282000 </v>
    <v>       0.49987000       0.70481000       0.81282000 </v>
    <v>       0.50013000       0.29519000       0.56281000 </v>
    <v>       0.75013000       0.70481000       0.56281000 </v>
    <v>       0.74987000       0.29519000       0.81282000 </v>
    <v>       0.99987000       0.70481000       0.81282000 </v>
    <v>       0.25005000       0.32677000       0.06286000 </v>
    <v>       0.00005000       0.67323000       0.06286000 </v>
    <v>       0.49995000       0.32677000       0.31286000 </v>
    <v>       0.24995000       0.67323000       0.31286000 </v>
    <v>       0.75005000       0.32677000       0.06286000 </v>
    <v>       0.50005000       0.67323000       0.06286000 </v>
    <v>       0.99995000       0.32677000       0.31286000 </v>
    <v>       0.74995000       0.67323000       0.31286000 </v>
    <v>       0.25005000       0.32677000       0.56286000 </v>
    <v>       0.00005000       0.67323000       0.56286000 </v>
    <v>       0.49995000       0.32677000       0.81286000 </v>
    <v>       0.24995000       0.67323000       0.81286000 </v>
    <v>       0.75005000       0.32677000       0.56286000 </v>
    <v>       0.50005000       0.67323000       0.56286000 </v>
    <v>       0.99995000       0.32677000       0.81286000 </v>
    <v>       0.74995000       0.67323000       0.81286000 </v>
    <v>       0.49987000       0.07798000       0.06246000 </v>
    <v>       0.24987000       0.92202000       0.06246000 </v>
    <v>       0.25013000       0.07798000       0.31246000 </v>
    <v>       0.00013000       0.92202000       0.31246000 </v>
    <v>       0.99987000       0.07798000       0.06246000 </v>
    <v>       0.74987000       0.92202000       0.06246000 </v>
    <v>       0.75013000       0.07798000       0.31246000 </v>
    <v>       0.50013000       0.92202000       0.31246000 </v>
    <v>       0.49987000       0.07798000       0.56246000 </v>
    <v>       0.24987000       0.92202000       0.56246000 </v>
    <v>       0.25013000       0.07798000       0.81246000 </v>
    <v>       0.00013000       0.92202000       0.81246000 </v>
    <v>       0.99987000       0.07798000       0.56246000 </v>
    <v>       0.74987000       0.92202000       0.56246000 </v>
    <v>       0.75013000       0.07798000       0.81246000 </v>
    <v>       0.50013000       0.92202000       0.81246000 </v>
   </varray>
  </structure>
  <varray name="forces" >
   <v>      -0.54865510      -0.01007043      -0.47602893 </v>
   <v>       0.49960977      -0.01198524       0.79560753 </v>
   <v>      -0.00462655      -0.12126566       0.01014436 </v>
   <v>       0.52925191      -0.01041773       0.48636800 </v>
   <v>      -0.50428182       0.00323945       0.82376476 </v>
   <v>       0.32152884       0.01402896       0.89811595 </v>
   <v>      -0.00344751      -0.12582268       0.01278395 </v>
   <v>      -0.48180163      -0.01035657      -0.78694335 </v>
   <v>      -0.31255468       0.01400050      -0.89270467 </v>
   <v>       0.51524672       0.00289009      -0.81652975 </v>
   <v>      -1.17648135      -0.00376243       1.04727216 </v>
   <v>      -0.01936362       0.21986972       0.03523446 </v>
   <v>       1.12875663      -0.00507082      -0.97699854 </v>
   <v>       0.32076457       1.13995565       0.48121237 </v>
   <v>      -0.10481053      -0.07718407       0.65910294 </v>
   <v>      -0.13024468      -1.97001587       0.30891483 </v>
   <v>      -0.32066716       0.97905601       0.22364866 </v>
   <v>      -0.40555864       1.14648060       0.79751244 </v>
   <v>       0.17571416      -2.10993364       0.60450566 </v>
   <v>       0.15875892       0.06372350       0.42897047 </v>
   <v>       0.33226761       0.99927925       0.51037378 </v>
   <v>       0.12618195      -1.96116688      -0.32462421 </v>
   <v>      -0.32987984       0.99137839      -0.52449510 </v>
   <v>      -0.31993671       1.14588438      -0.48115387 </v>
   <v>      -0.17770780      -2.12786320      -0.60499084 </v>
   <v>      -0.15855355       0.06560527      -0.44107057 </v>
   <v>       0.32150728       0.99073634      -0.23782472 </v>
   <v>       0.40187804       1.17101177      -0.80311751 </v>
   <v>       0.11246328      -0.10748421      -0.66543388 </v>
   <v>       0.12808590       0.06931626      -0.46553865 </v>
   <v>      -0.28581378      -0.10181663      -0.26113297 </v>
   <v>       0.29555598       0.19911576      -0.25728089 </v>
   <v>       0.06956271      -0.22998946      -0.27775926 </v>
   <v>      -0.07329947      -0.05039940      -0.29136133 </v>
   <v>       0.22790643       0.07895184      -0.46385291 </v>
   <v>      -0.31253912       0.23492375      -0.50737503 </v>
   <v>      -0.06265350      -0.23864096      -0.45107795 </v>
   <v>       0.31081494       0.23383851       0.50938899 </v>
   <v>      -0.06665176      -0.22924948       0.28155384 </v>
   <v>       0.07488779      -0.05479423       0.28801688 </v>
   <v>       0.28494470      -0.10033313       0.25445142 </v>
   <v>      -0.29465497       0.19911589       0.26106772 </v>
   <v>       0.06070983      -0.23723832       0.45292411 </v>
   <v>      -0.13202499       0.06432399       0.45999509 </v>
   <v>      -0.22599731       0.08488097       0.46187013 </v>
   <v>       0.82373432      -1.12950849      -1.88858097 </v>
   <v>       0.00874742       0.12875433      -1.45886569 </v>
   <v>       0.02367870       1.74066063      -0.17302273 </v>
   <v>      -0.76731385      -0.84081914      -0.93141067 </v>
   <v>      -0.75163733      -0.92765343      -0.71922478 </v>
   <v>      -0.07795931       1.74421953      -1.17083076 </v>
   <v>      -0.08491244      -0.01210153      -0.40269305 </v>
   <v>       0.79278794      -0.80973926       0.37572314 </v>
   <v>       0.08366135      -0.01351465       0.40216939 </v>
   <v>       0.76299242      -0.83766966       0.93515408 </v>
   <v>       0.74938345      -0.92885531       0.70222610 </v>
   <v>       0.00809616       0.13529525       1.43830197 </v>
   <v>      -0.02081129       1.73602313       0.18416152 </v>
   <v>      -0.79053968      -0.81513209      -0.37129382 </v>
   <v>      -0.80094393      -1.12846484       1.85758390 </v>
   <v>       0.09684415       1.74175971       1.13509678 </v>
  </varray>
  <varray name="stress" >
   <v>      -0.74241101      -0.09259899      -0.36847657 </v>
   <v>      -0.09259889     -12.91030860       0.01815360 </v>
   <v>      -0.36847689       0.01815356      -8.43280065 </v>
  </varray>
  <energy>
   <i name="e_fr_energy">   -309.80414051 </i>
   <i name="e_wo_entrp">   -309.80414051 </i>
   <i name="e_0_energy">      0.00000000 </i>
  </energy>
  <time name="totalsc"> 1550.12 1551.03</time>
 </calculation>
 <calculation>
  <scstep>
   <time name="dav">   61.14   61.13</time>
   <time name="total">   61.93   61.92</time>
   <energy>
    <i name="alphaZ">   1087.66308001 </i>
    <i name="ewald"> -31015.71843573 </i>
    <i name="hartreedc"> -12984.07894127 </i>
    <i name="XCdc">   1425.98822567 </i>
    <i name="pawpsdc">  43852.48915334 </i>
    <i name="pawaedc"> -43330.77028552 </i>
    <i name="eentropy">      0.00000000 </i>
    <i name="bandstr">  -4120.23450017 </i>
    <i name="atom">  44791.06186932 </i>
    <i name="e_fr_energy">   -293.59983436 </i>
    <i name="e_wo_entrp">   -293.59983436 </i>
    <i name="e_0_energy">   -293.59983436 </i>
   </energy>
  </scstep>
  <scstep>
   <time name="dav">   70.90   70.89</time>
   <time name="total">   71.69   71.68</time>
   <energy>
    <i name="e_fr_energy">   -297.11350513 </i>
    <i name="e_wo_entrp">   -297.11350513 </i>
    <i name="e_0_energy">   -297.11350513 </i>
   </energy>
  </scstep>
  <scstep>
   <time name="dav">   89.79   89.79</time>
   <time name="total">   90.58   90.58</time>
   <energy>
    <i name="e_fr_energy">   -296.90304100 </i>
    <i name="e_wo_entrp">   -296.90304100 </i>
    <i name="e_0_energy">   -296.90304100 </i>
   </energy>
  </scstep>
  <scstep>
   <time name="dav">   75.12   75.12</time>
   <time name="total">   75.91   75.92</time>
   <energy>
    <i name="e_fr_energy">   -296.75108034 </i>
    <i name="e_wo_entrp">   -296.75108034 </i>
    <i name="e_0_energy">   -296.75108034 </i>
   </energy>
  </scstep>
  <scstep>
   <time name="dav">   77.11   77.11</time>
   <time name="total">   77.90   77.90</time>
   <energy>
    <i name="e_fr_energy">   -296.74308743 </i>
    <i name="e_wo_entrp">   -296.74308743 </i>
    <i name="e_0_energy">   -296.74308743 </i>
   </energy>
  </scstep>
  <scstep>
   <time name="dav">   82.67   82.67</time>
   <time name="total">   83.45   83.46</time>
   <energy>
    <i name="e_fr_energy">   -296.74086922 </i>
    <i name="e_wo_entrp">   -296.74086922 </i>
    <i name="e_0_energy">   -296.74086922 </i>
   </energy>
  </scstep>
  <scstep>
   <time name="dav">   72.26   72.29</time>
   <time name="total">   73.05   73.09</time>
   <energy>
    <i name="e_fr_energy">   -296.73934166 </i>
    <i name="e_wo_entrp">   -296.73934166 </i>
    <i name="e_0_energy">   -296.73934166 </i>
   </energy>
  </scstep>
  <scstep>
   <time name="dav">   91.01   91.04</time>
   <time name="total">   91.80   91.84</time>
   <energy>
    <i name="e_fr_energy">   -296.73927686 </i>
    <i name="e_wo_entrp">   -296.73927686 </i>
    <i name="e_0_energy">   -296.73927686 </i>
   </energy>
  </scstep>
  <scstep>
   <time name="dav">   69.98   70.01</time>
   <time name="total">   70.77   70.81</time>
   <energy>
    <i name="e_fr_energy">   -296.73930692 </i>
    <i name="e_wo_entrp">   -296.73930692 </i>
    <i name="e_0_energy">   -296.73930692 </i>
   </energy>
  </scstep>
  <scstep>
   <time name="dav">   84.71   84.78</time>
   <time name="total">   85.50   85.58</time>
   <energy>
    <i name="e_fr_energy">   -296.73931227 </i>
    <i name="e_wo_entrp">   -296.73931227 </i>
    <i name="e_0_energy">   -296.73931227 </i>
   </energy>
  </scstep>
  <scstep>
   <time name="dav">   71.74   71.76</time>
   <time name="total">   72.53   72.55</time>
   <energy>
    <i name="e_fr_energy">   -296.73931389 </i>
    <i name="e_wo_entrp">   -296.73931389 </i>
    <i name="e_0_energy">   -296.73931389 </i>
   </energy>
  </scstep>
  <scstep>
   <time name="dav">   64.63   64.69</time>
   <time name="total">   64.71   64.76</time>
   <energy>
    <i name="alphaZ">   1087.66308001 </i>
    <i name="ewald"> -31015.71843573 </i>
    <i name="hartreedc"> -12869.02534984 </i>
    <i name="XCdc">   1420.95406498 </i>
    <i name="pawpsdc">  44199.96020179 </i>
    <i name="pawaedc"> -43681.38947344 </i>
    <i name="eentropy">      0.00000000 </i>
    <i name="bandstr">  -4230.24527085 </i>
    <i name="atom">  44791.06186932 </i>
    <i name="e_fr_energy">   -296.73931377 </i>
    <i name="e_wo_entrp">   -296.73931377 </i>
    <i name="e_0_energy">   -296.73931377 </i>
   </energy>
  </scstep>
  <structure>
   <crystal>
    <varray name="basis" >
     <v>      11.17359705      -0.00061153      -0.00243346 </v>
     <v>      -0.00052379       9.50157237       0.00010269 </v>
     <v>      -0.00243431       0.00011993      11.12668953 </v>
    </varray>
    <i name="volume">   1181.28430447 </i>
    <varray name="rec_basis" >
     <v>       0.08949670       0.00000493       0.00001958 </v>
     <v>       0.00000576       0.10524574      -0.00000113 </v>
     <v>       0.00001957      -0.00000097       0.08987400 </v>
    </varray>
   </crystal>
   <varray name="positions" >
    <v>       0.37302219       0.00011926       0.43481634 </v>
    <v>       0.12676615       0.99977961       0.19030238 </v>
    <v>       0.62537003       0.99922899       0.43691376 </v>
    <v>       0.87767407       0.00011751       0.43896827 </v>
    <v>       0.62243369       0.99985632       0.19042385 </v>
    <v>       0.87599761       0.00024069       0.19074462 </v>
    <v>       0.12537512       0.99920603       0.93692515 </v>
    <v>       0.12253071       0.99978782       0.68347500 </v>
    <v>       0.37326112       0.00024054       0.68301873 </v>
    <v>       0.62683363       0.99985456       0.68334736 </v>
    <v>       0.37031270       0.00015104       0.94138810 </v>
    <v>       0.62530643       0.00094784       0.93702201 </v>
    <v>       0.88026133       0.00014445       0.93265507 </v>
    <v>       0.00151431       0.30093379       0.06488603 </v>
    <v>       0.24967767       0.70442110       0.06565348 </v>
    <v>       0.24930791       0.28526386       0.31415271 </v>
    <v>       0.49848611       0.70974308       0.31378486 </v>
    <v>       0.49837975       0.30096667       0.06625060 </v>
    <v>       0.75088832       0.69417887       0.06541793 </v>
    <v>       0.75055515       0.29551108       0.31467065 </v>
    <v>       0.00130396       0.70984498       0.31502183 </v>
    <v>       0.00067456       0.28530845       0.56140952 </v>
    <v>       0.24870635       0.70980517       0.56054724 </v>
    <v>       0.24848926       0.30096366       0.81074423 </v>
    <v>       0.49910307       0.69408853       0.81020997 </v>
    <v>       0.49944574       0.29552056       0.56090715 </v>
    <v>       0.75151752       0.70980193       0.56178399 </v>
    <v>       0.75160437       0.30109027       0.80935522 </v>
    <v>       0.00035535       0.70426843       0.80994921 </v>
    <v>       0.25060278       0.32711926       0.06085159 </v>
    <v>      -0.00118348       0.67271699       0.06173343 </v>
    <v>       0.50122552       0.32777327       0.31175005 </v>
    <v>       0.25025021       0.67207117       0.31166170 </v>
    <v>       0.74973366       0.32651606       0.06160302 </v>
    <v>       0.50103357       0.67362781       0.06085886 </v>
    <v>       0.99860119       0.32795369       0.31067110 </v>
    <v>       0.74967961       0.67202758       0.31091398 </v>
    <v>       0.25139137       0.32794822       0.56505759 </v>
    <v>      -0.00023765       0.67207490       0.56407467 </v>
    <v>       0.50027319       0.32649391       0.81410255 </v>
    <v>       0.25117973       0.67272446       0.81395774 </v>
    <v>       0.74877837       0.32777327       0.56398629 </v>
    <v>       0.50031200       0.67203465       0.56481399 </v>
    <v>       0.99938022       0.32709410       0.81484449 </v>
    <v>       0.74897467       0.67365768       0.81485258 </v>
    <v>       0.50342496       0.07228885       0.05431236 </v>
    <v>       0.24990775       0.92266874       0.05616622 </v>
    <v>       0.25023219       0.08675051       0.31171355 </v>
    <v>      -0.00318147       0.91778344       0.30844175 </v>
    <v>       0.99662619       0.07330592       0.05935715 </v>
    <v>       0.74953355       0.93080844       0.05740885 </v>
    <v>       0.74976355       0.07791903       0.31072272 </v>
    <v>       0.50355141       0.91794004       0.31408093 </v>
    <v>       0.50023105       0.07791190       0.56419502 </v>
    <v>       0.25316282       0.91779931       0.56649440 </v>
    <v>       0.25336409       0.07329986       0.81548952 </v>
    <v>       0.00016494       0.92270170       0.81866506 </v>
    <v>       0.99978019       0.08672714       0.56325450 </v>
    <v>       0.74645830       0.91791287       0.56085818 </v>
    <v>       0.74667339       0.07229411       0.82047391 </v>
    <v>       0.50054795       0.93079604       0.81735699 </v>
   </varray>
  </structure>
  <varray name="forces" >
   <v>      -0.34867032      -0.01224487      -0.32456576 </v>
   <v>       0.31299398      -0.01368436       0.41574574 </v>
   <v>      -0.00327622      -0.06297123       0.00854802 </v>
   <v>       0.33532299      -0.01050830       0.33190292 </v>
   <v>      -0.28372370       0.01184679       0.28910637 </v>
   <v>       0.09607243       0.01460043       0.32538550 </v>
   <v>      -0.00691346      -0.06810233       0.00932538 </v>
   <v>      -0.30197714      -0.01842477      -0.40895011 </v>
   <v>      -0.08204086       0.02090629      -0.31308972 </v>
   <v>       0.29549990       0.01090282      -0.27627597 </v>
   <v>      -0.07432136       0.04055500       0.34690372 </v>
   <v>      -0.03395049      -0.02255669       0.03585407 </v>
   <v>       0.02724991       0.06120572      -0.28948829 </v>
   <v>       0.01231562      -0.07022564       0.20247463 </v>
   <v>      -0.01643279      -0.17870524       0.23107260 </v>
   <v>      -0.08806860       2.70131583       0.16357980 </v>
   <v>      -0.12040103      -1.00793353       0.01519507 </v>
   <v>      -0.09613425      -0.24995579       0.24343023 </v>
   <v>       0.07205497       0.13516947       0.20269221 </v>
   <v>       0.08453681       0.26531921       0.05316350 </v>
   <v>       0.14255944      -1.05224043       0.19170934 </v>
   <v>       0.08378983       2.69083550      -0.15804744 </v>
   <v>      -0.14073989      -1.05082178      -0.19477556 </v>
   <v>      -0.01355827      -0.06880443      -0.21248007 </v>
   <v>      -0.07125664       0.13308827      -0.21378262 </v>
   <v>      -0.08503002       0.26404722      -0.05984512 </v>
   <v>       0.12249510      -1.01129289      -0.01703007 </v>
   <v>       0.09616030      -0.24526361      -0.25333187 </v>
   <v>       0.02122104      -0.17755377      -0.23782405 </v>
   <v>       0.08240605       0.09712153      -0.19488935 </v>
   <v>      -0.11315655      -0.22271717      -0.09982751 </v>
   <v>       0.14823548       0.12902466      -0.12750748 </v>
   <v>       0.01957004      -0.07556559      -0.14957944 </v>
   <v>      -0.03397003       0.23618261      -0.10456860 </v>
   <v>       0.05996265      -0.10984307      -0.16566222 </v>
   <v>      -0.17202662       0.15887098      -0.28119314 </v>
   <v>      -0.01611066      -0.23218542      -0.20699542 </v>
   <v>       0.17081333       0.15820976       0.28042064 </v>
   <v>      -0.01743684      -0.07537171       0.14819814 </v>
   <v>       0.03323939       0.23507786       0.10452936 </v>
   <v>       0.11386153      -0.22275003       0.09819127 </v>
   <v>      -0.14817158       0.12939732       0.12585449 </v>
   <v>       0.01539375      -0.23151181       0.20534213 </v>
   <v>      -0.08346460       0.09507699       0.19228264 </v>
   <v>      -0.05897404      -0.10818796       0.16598531 </v>
   <v>       0.25935009       0.63217436      -0.68812416 </v>
   <v>      -0.38849142      -0.04209839      -0.56422045 </v>
   <v>       0.02145673      -2.92525228      -0.09167314 </v>
   <v>      -0.52675559       1.16756572      -0.56077266 </v>
   <v>      -0.16092672       0.40145154      -0.21540172 </v>
   <v>       0.16260659      -0.65612014      -0.42280544 </v>
   <v>      -0.02155498      -0.20579025      -0.02548578 </v>
   <v>       0.52401802       1.12759351       0.45953538 </v>
   <v>       0.01903023      -0.20113539       0.01846709 </v>
   <v>       0.51537816       1.15831985       0.54929888 </v>
   <v>       0.16271134       0.40738587       0.21275344 </v>
   <v>       0.41989687      -0.07303477       0.53389326 </v>
   <v>      -0.01884448      -2.90866174       0.08255037 </v>
   <v>      -0.52410384       1.13746254      -0.46560083 </v>
   <v>      -0.22457537       0.65472468       0.66283274 </v>
   <v>      -0.15514424      -0.66391696       0.41756978 </v>
  </varray>
  <varray name="stress" >
   <v>       4.13119715      -0.06992449      -1.12168661 </v>
   <v>      -0.06992447      13.08340808       0.01146870 </v>
   <v>      -1.12168627       0.01146875       8.34779467 </v>
  </varray>
  <energy>
   <i name="e_fr_energy">   -311.58832242 </i>
   <i name="e_wo_entrp">   -311.58832242 </i>
   <i name="e_0_energy">      0.00000000 </i>
  </energy>
  <time name="totalsc"> 1024.04 1024.42</time>
 </calculation>
 <calculation>
  <scstep>
   <time name="dav">   63.62   63.72</time>
   <time name="total">   64.41   64.51</time>
   <energy>
    <i name="alphaZ">   1085.27873071 </i>
    <i name="ewald"> -30999.60421868 </i>
    <i name="hartreedc"> -12855.78572780 </i>
    <i name="XCdc">   1419.58018137 </i>
    <i name="pawpsdc">  44200.22840681 </i>
    <i name="pawaedc"> -43681.65967399 </i>
    <i name="eentropy">      0.00000000 </i>
    <i name="bandstr">  -4255.86159181 </i>
    <i name="atom">  44791.06186932 </i>
    <i name="e_fr_energy">   -296.76202407 </i>
    <i name="e_wo_entrp">   -296.76202407 </i>
    <i name="e_0_energy">   -296.76202407 </i>
   </energy>
  </scstep>
  <scstep>
   <time name="dav">   68.88   68.92</time>
   <time name="total">   69.67   69.71</time>
   <energy>
    <i name="e_fr_energy">   -296.85567128 </i>
    <i name="e_wo_entrp">   -296.85567128 </i>
    <i name="e_0_energy">   -296.85567128 </i>
   </energy>
  </scstep>
  <scstep>
   <time name="dav">   79.37   79.49</time>
   <time name="total">   80.17   80.28</time>
   <energy>
    <i name="e_fr_energy">   -296.85122606 </i>
    <i name="e_wo_entrp">   -296.85122606 </i>
    <i name="e_0_energy">   -296.85122606 </i>
   </energy>
  </scstep>
  <scstep>
   <time name="dav">   73.16   73.18</time>
   <time name="total">   73.96   73.98</time>
   <energy>
    <i name="e_fr_energy">   -296.84656694 </i>
    <i name="e_wo_entrp">   -296.84656694 </i>
    <i name="e_0_energy">   -296.84656694 </i>
   </energy>
  </scstep>
  <scstep>
   <time name="dav">   86.46   86.64</time>
   <time name="total">   87.26   87.43</time>
   <energy>
    <i name="e_fr_energy">   -296.84621589 </i>
    <i name="e_wo_entrp">   -296.84621589 </i>
    <i name="e_0_energy">   -296.84621589 </i>
   </energy>
  </scstep>
  <scstep>
   <time name="dav">   71.11   71.16</time>
   <time name="total">   71.90   71.95</time>
   <energy>
    <i name="e_fr_energy">   -296.84617059 </i>
    <i name="e_wo_entrp">   -296.84617059 </i>
    <i name="e_0_energy">   -296.84617059 </i>
   </energy>
  </scstep>
  <scstep>
   <time name="dav">   89.72   89.83</time>
   <time name="total">   90.51   90.62</time>
   <energy>
    <i name="e_fr_energy">   -296.84611878 </i>
    <i name="e_wo_entrp">   -296.84611878 </i>
    <i name="e_0_energy">   -296.84611878 </i>
   </energy>
  </scstep>
  <scstep>
   <time name="dav">   67.55   67.75</time>
   <time name="total">   68.33   68.54</time>
   <energy>
    <i name="e_fr_energy">   -296.84610399 </i>
    <i name="e_wo_entrp">   -296.84610399 </i>
    <i name="e_0_energy">   -296.84610399 </i>
   </energy>
  </scstep>
  <scstep>
   <time name="dav">   74.05   74.14</time>
   <time name="total">   74.84   74.94</time>
   <energy>
    <i name="e_fr_energy">   -296.84610279 </i>
    <i name="e_wo_entrp">   -296.84610279 </i>
    <i name="e_0_energy">   -296.84610279 </i>
   </energy>
  </scstep>
  <scstep>
   <time name="dav">   61.43   61.49</time>
   <time name="total">   62.22   62.28</time>
   <energy>
    <i name="e_fr_energy">   -296.84610471 </i>
    <i name="e_wo_entrp">   -296.84610471 </i>
    <i name="e_0_energy">   -296.84610471 </i>
   </energy>
  </scstep>
  <scstep>
   <time name="dav">   53.23   53.29</time>
   <time name="total">   53.30   53.37</time>
   <energy>
    <i name="alphaZ">   1085.27873071 </i>
    <i name="ewald"> -30999.60421868 </i>
    <i name="hartreedc"> -12875.37176661 </i>
    <i name="XCdc">   1420.44482796 </i>
    <i name="pawpsdc">  44123.68635586 </i>
    <i name="pawaedc"> -43604.28665104 </i>
    <i name="eentropy">      0.00000000 </i>
    <i name="bandstr">  -4238.05525290 </i>
    <i name="atom">  44791.06186932 </i>
    <i name="e_fr_energy">   -296.84610539 </i>
    <i name="e_wo_entrp">   -296.84610539 </i>
    <i name="e_0_energy">   -296.84610539 </i>
   </energy>
  </scstep>
  <structure>
   <crystal>
    <varray name="basis" >
     <v>      11.17441687      -0.00050928      -0.00202655 </v>
     <v>      -0.00043621       9.51378340       0.00008552 </v>
     <v>      -0.00202726       0.00009988      11.13600494 </v>
    </varray>
    <i name="volume">   1183.87957729 </i>
    <varray name="rec_basis" >
     <v>       0.08949013       0.00000410       0.00001629 </v>
     <v>       0.00000479       0.10511065      -0.00000094 </v>
     <v>       0.00001629      -0.00000081       0.08979881 </v>
    </varray>
   </crystal>
   <varray name="positions" >
    <v>       0.37341836       0.00012783       0.43516154 </v>
    <v>       0.12640533       0.99978977       0.18972549 </v>
    <v>       0.62537338       0.99933194       0.43690641 </v>
    <v>       0.87729191       0.00012633       0.43861557 </v>
    <v>       0.62279762       0.99985360       0.18982671 </v>
    <v>       0.87576534       0.00022877       0.19009344 </v>
    <v>       0.12537761       0.99931285       0.93691588 </v>
    <v>       0.12287866       0.99979663       0.68404560 </v>
    <v>       0.37348691       0.00022866       0.68366598 </v>
    <v>       0.62646178       0.99985208       0.68393925 </v>
    <v>       0.37116189       0.00015430       0.94062903 </v>
    <v>       0.62532040       0.00076117       0.93699647 </v>
    <v>       0.87944659       0.00014869       0.93336321 </v>
    <v>       0.00128262       0.29996597       0.06453711 </v>
    <v>       0.24975324       0.70448664       0.06517565 </v>
    <v>       0.24940197       0.28693639       0.31392875 </v>
    <v>       0.49871754       0.70891189       0.31362277 </v>
    <v>       0.49867236       0.29999335       0.06567248 </v>
    <v>       0.75076146       0.69597018       0.06497963 </v>
    <v>       0.75044046       0.29545697       0.31435962 </v>
    <v>       0.00106396       0.70899659       0.31465177 </v>
    <v>       0.00058359       0.28697345       0.56164483 </v>
    <v>       0.24894455       0.70896351       0.56092756 </v>
    <v>       0.24872027       0.29999083       0.81109312 </v>
    <v>       0.49923155       0.69589506       0.81064860 </v>
    <v>       0.49956027       0.29546486       0.56122695 </v>
    <v>       0.75128541       0.70896079       0.56195636 </v>
    <v>       0.75131432       0.30009607       0.80993742 </v>
    <v>       0.00027427       0.70435967       0.81043163 </v>
    <v>       0.25051038       0.32706040       0.06118908 </v>
    <v>      -0.00097709       0.67280344       0.06192279 </v>
    <v>       0.50101218       0.32760420       0.31193653 </v>
    <v>       0.25020004       0.67226643       0.31186306 </v>
    <v>       0.74978663       0.32655885       0.06181427 </v>
    <v>       0.50086910       0.67356076       0.06119512 </v>
    <v>       0.99882689       0.32775425       0.31103900 </v>
    <v>       0.74972492       0.67223018       0.31124101 </v>
    <v>       0.25116689       0.32774968       0.56468824 </v>
    <v>      -0.00018956       0.67226954       0.56387055 </v>
    <v>       0.50021908       0.32654043       0.81389373 </v>
    <v>       0.25097398       0.67280963       0.81377322 </v>
    <v>       0.74899104       0.32760424       0.56379706 </v>
    <v>       0.50026811       0.67223606       0.56448561 </v>
    <v>       0.99947546       0.32703950       0.81451102 </v>
    <v>       0.74913775       0.67358563       0.81451777 </v>
    <v>       0.50283061       0.07324773       0.05568142 </v>
    <v>       0.24990166       0.92255942       0.05722388 </v>
    <v>       0.25021505       0.08527271       0.31183900 </v>
    <v>      -0.00262733       0.91849731       0.30911712 </v>
    <v>       0.99716898       0.07409351       0.05987869 </v>
    <v>       0.74958995       0.92932761       0.05825771 </v>
    <v>       0.74982491       0.07792930       0.31101468 </v>
    <v>       0.50297903       0.91862747       0.31380840 </v>
    <v>       0.50017059       0.07792338       0.56390344 </v>
    <v>       0.25261187       0.91851045       0.56581630 </v>
    <v>       0.25282300       0.07408842       0.81498028 </v>
    <v>       0.00015886       0.92258685       0.81762231 </v>
    <v>       0.99979511       0.08525328       0.56312100 </v>
    <v>       0.74702911       0.91860494       0.56112748 </v>
    <v>       0.74725138       0.07325221       0.81912731 </v>
    <v>       0.50047778       0.92931732       0.81653406 </v>
   </varray>
  </structure>
  <varray name="forces" >
   <v>      -0.38463318      -0.00997959      -0.35117100 </v>
   <v>       0.34501099      -0.01034629       0.48111109 </v>
   <v>      -0.00352063      -0.07436445       0.00884996 </v>
   <v>       0.37014939      -0.00860729       0.35907528 </v>
   <v>      -0.32124819       0.00836176       0.37927690 </v>
   <v>       0.13558520       0.01115560       0.42286031 </v>
   <v>      -0.00634364      -0.07852060       0.01000803 </v>
   <v>      -0.33292919      -0.01417005      -0.47403182 </v>
   <v>      -0.12259521       0.01639109      -0.41184434 </v>
   <v>       0.33305154       0.00748626      -0.36737259 </v>
   <v>      -0.28171653       0.02081611       0.47676485 </v>
   <v>      -0.03199604       0.02944268       0.03674760 </v>
   <v>       0.23411418       0.03841745      -0.41609323 </v>
   <v>       0.06354292       0.09867079       0.25540984 </v>
   <v>      -0.03109824      -0.16232784       0.30780950 </v>
   <v>      -0.09195793       1.57468829       0.17835180 </v>
   <v>      -0.14797771      -0.60195880       0.05215763 </v>
   <v>      -0.14982290      -0.05919709       0.34473365 </v>
   <v>       0.09101029      -0.13187224       0.27607353 </v>
   <v>       0.09741146       0.22851323       0.11610004 </v>
   <v>       0.16807522      -0.63545691       0.23723666 </v>
   <v>       0.08797123       1.57002185      -0.17782027 </v>
   <v>      -0.16646054      -0.63596050      -0.24273257 </v>
   <v>      -0.06473203       0.10042867      -0.26395577 </v>
   <v>      -0.09088794      -0.13629634      -0.28574622 </v>
   <v>      -0.09782119       0.22787182      -0.12393750 </v>
   <v>       0.14972266      -0.60158039      -0.05589238 </v>
   <v>       0.14936983      -0.05179475      -0.35443960 </v>
   <v>       0.03635914      -0.16658842      -0.31482032 </v>
   <v>       0.09015201       0.09460919      -0.24231489 </v>
   <v>      -0.14357945      -0.20311216      -0.12725564 </v>
   <v>       0.17305620       0.14249276      -0.15337517 </v>
   <v>       0.02815490      -0.10413765      -0.17429931 </v>
   <v>      -0.04032358       0.19187443      -0.13677642 </v>
   <v>       0.08827736      -0.08145546      -0.21712442 </v>
   <v>      -0.19667281       0.17551118      -0.32524904 </v>
   <v>      -0.02383102      -0.23411682      -0.25437756 </v>
   <v>       0.19536019       0.17482945       0.32511999 </v>
   <v>      -0.02592935      -0.10384267       0.17397639 </v>
   <v>       0.03992778       0.19030770       0.13615561 </v>
   <v>       0.14397918      -0.20288307       0.12479239 </v>
   <v>      -0.17287957       0.14280816       0.15284245 </v>
   <v>       0.02287479      -0.23337223       0.25341493 </v>
   <v>      -0.09175369       0.09206703       0.23915814 </v>
   <v>      -0.08716974      -0.07917876       0.21703001 </v>
   <v>       0.37750811       0.36598430      -0.92089636 </v>
   <v>      -0.30229618       0.00222907      -0.73698388 </v>
   <v>       0.01874924      -1.80842115      -0.09551780 </v>
   <v>      -0.56405167       0.76200727      -0.61757852 </v>
   <v>      -0.26782881       0.20613102      -0.31102867 </v>
   <v>       0.11350526      -0.35109063      -0.56466827 </v>
   <v>      -0.03236561      -0.17070583      -0.08939812 </v>
   <v>       0.56298411       0.73311862       0.44531564 </v>
   <v>       0.03001814      -0.16698247       0.08362692 </v>
   <v>       0.55422989       0.75543020       0.60922690 </v>
   <v>       0.26936319       0.21099597       0.30646407 </v>
   <v>       0.33171773      -0.02237636       0.70768241 </v>
   <v>      -0.01647107      -1.79778116       0.09030362 </v>
   <v>      -0.56226218       0.73920095      -0.44906670 </v>
   <v>      -0.34395402       0.38589100       0.89414437 </v>
   <v>      -0.10412228      -0.35927592       0.55394787 </v>
  </varray>
  <varray name="stress" >
   <v>       2.99738760      -0.07215410      -0.97025190 </v>
   <v>      -0.07215413       5.73132200       0.01286456 </v>
   <v>      -0.97025223       0.01286473       5.14413113 </v>
  </varray>
  <energy>
   <i name="e_fr_energy">   -311.67008946 </i>
   <i name="e_wo_entrp">   -311.67008946 </i>
   <i name="e_0_energy">      0.00000000 </i>
  </energy>
  <time name="totalsc">  900.79  902.18</time>
 </calculation>
 <calculation>
  <scstep>
   <time name="dav">   63.83   63.99</time>
   <time name="total">   64.62   64.78</time>
   <energy>
    <i name="alphaZ">   1080.96991970 </i>
    <i name="ewald"> -31076.25349958 </i>
    <i name="hartreedc"> -12749.12988931 </i>
    <i name="XCdc">   1417.45011783 </i>
    <i name="pawpsdc">  44123.69978347 </i>
    <i name="pawaedc"> -43604.29843013 </i>
    <i name="eentropy">      0.00000000 </i>
    <i name="bandstr">  -4279.87444532 </i>
    <i name="atom">  44791.06186932 </i>
    <i name="e_fr_energy">   -296.37457403 </i>
    <i name="e_wo_entrp">   -296.37457403 </i>
    <i name="e_0_energy">   -296.37457403 </i>
   </energy>
  </scstep>
  <scstep>
   <time name="dav">   69.66   69.77</time>
   <time name="total">   70.45   70.57</time>
   <energy>
    <i name="e_fr_energy">   -297.53364270 </i>
    <i name="e_wo_entrp">   -297.53364270 </i>
    <i name="e_0_energy">   -297.53364270 </i>
   </energy>
  </scstep>
  <scstep>
   <time name="dav">   80.75   80.90</time>
   <time name="total">   81.54   81.70</time>
   <energy>
    <i name="e_fr_energy">   -297.51428533 </i>
    <i name="e_wo_entrp">   -297.51428533 </i>
    <i name="e_0_energy">   -297.51428533 </i>
   </energy>
  </scstep>
  <scstep>
   <time name="dav">   75.30   75.42</time>
   <time name="total">   76.09   76.22</time>
   <energy>
    <i name="e_fr_energy">   -297.49240392 </i>
    <i name="e_wo_entrp">   -297.49240392 </i>
    <i name="e_0_energy">   -297.49240392 </i>
   </energy>
  </scstep>
  <scstep>
   <time name="dav">   71.11   71.23</time>
   <time name="total">   71.90   72.03</time>
   <energy>
    <i name="e_fr_energy">   -297.47952479 </i>
    <i name="e_wo_entrp">   -297.47952479 </i>
    <i name="e_0_energy">   -297.47952479 </i>
   </energy>
  </scstep>
  <scstep>
   <time name="dav">   75.70   75.82</time>
   <time name="total">   76.50   76.62</time>
   <energy>
    <i name="e_fr_energy">   -297.47906930 </i>
    <i name="e_wo_entrp">   -297.47906930 </i>
    <i name="e_0_energy">   -297.47906930 </i>
   </energy>
  </scstep>
  <scstep>
   <time name="dav">   75.11   75.30</time>
   <time name="total">   75.91   76.12</time>
   <energy>
    <i name="e_fr_energy">   -297.47917949 </i>
    <i name="e_wo_entrp">   -297.47917949 </i>
    <i name="e_0_energy">   -297.47917949 </i>
   </energy>
  </scstep>
  <scstep>
   <time name="dav">   75.03   75.02</time>
   <time name="total">   75.82   75.81</time>
   <energy>
    <i name="e_fr_energy">   -297.47908982 </i>
    <i name="e_wo_entrp">   -297.47908982 </i>
    <i name="e_0_energy">   -297.47908982 </i>
   </energy>
  </scstep>
  <scstep>
   <time name="dav">   85.48   85.47</time>
   <time name="total">   86.27   86.26</time>
   <energy>
    <i name="e_fr_energy">   -297.47907169 </i>
    <i name="e_wo_entrp">   -297.47907169 </i>
    <i name="e_0_energy">   -297.47907169 </i>
   </energy>
  </scstep>
  <scstep>
   <time name="dav">   64.14   64.12</time>
   <time name="total">   64.93   64.92</time>
   <energy>
    <i name="e_fr_energy">   -297.47907451 </i>
    <i name="e_wo_entrp">   -297.47907451 </i>
    <i name="e_0_energy">   -297.47907451 </i>
   </energy>
  </scstep>
  <scstep>
   <time name="dav">   74.98   75.13</time>
   <time name="total">   75.78   75.93</time>
   <energy>
    <i name="e_fr_energy">   -297.47907610 </i>
    <i name="e_wo_entrp">   -297.47907610 </i>
    <i name="e_0_energy">   -297.47907610 </i>
   </energy>
  </scstep>
  <scstep>
   <time name="dav">   57.26   57.37</time>
   <time name="total">   58.05   58.16</time>
   <energy>
    <i name="e_fr_energy">   -297.47907756 </i>
    <i name="e_wo_entrp">   -297.47907756 </i>
    <i name="e_0_energy">   -297.47907756 </i>
   </energy>
  </scstep>
  <scstep>
   <time name="dav">   46.86   46.93</time>
   <time name="total">   46.93   47.01</time>
   <energy>
    <i name="alphaZ">   1080.96991970 </i>
    <i name="ewald"> -31076.25349958 </i>
    <i name="hartreedc"> -12781.32380974 </i>
    <i name="XCdc">   1418.98593666 </i>
    <i name="pawpsdc">  43874.03130133 </i>
    <i name="pawaedc"> -43350.94299158 </i>
    <i name="eentropy">      0.00000000 </i>
    <i name="bandstr">  -4254.00780444 </i>
    <i name="atom">  44791.06186932 </i>
    <i name="e_fr_energy">   -297.47907832 </i>
    <i name="e_wo_entrp">   -297.47907832 </i>
    <i name="e_0_energy">   -297.47907832 </i>
   </energy>
  </scstep>
  <structure>
   <crystal>
    <varray name="basis" >
     <v>      11.19188901      -0.00114582      -0.00887212 </v>
     <v>      -0.00097844       9.52314481       0.00018518 </v>
     <v>      -0.00884957       0.00021629      11.15197293 </v>
    </varray>
    <i name="volume">   1188.59859238 </i>
    <varray name="rec_basis" >
     <v>       0.08935048       0.00000918       0.00007090 </v>
     <v>       0.00001075       0.10500733      -0.00000203 </v>
     <v>       0.00007108      -0.00000174       0.08967029 </v>
    </varray>
   </crystal>
   <varray name="positions" >
    <v>       0.37111319       0.00006373       0.43308143 </v>
    <v>       0.12848279       0.99972119       0.19275866 </v>
    <v>       0.62535277       0.99878580       0.43695645 </v>
    <v>       0.87951190       0.00006864       0.44074199 </v>
    <v>       0.62081440       0.99989931       0.19246877 </v>
    <v>       0.87674174       0.00030448       0.19301369 </v>
    <v>       0.12534673       0.99873951       0.93697415 </v>
    <v>       0.12087434       0.99971158       0.68105318 </v>
    <v>       0.37257617       0.00032995       0.68079880 </v>
    <v>       0.62850826       0.99989324       0.68135632 </v>
    <v>       0.36848640       0.00025051       0.94396521 </v>
    <v>       0.62516224       0.00123485       0.93719540 </v>
    <v>       0.88186264       0.00032955       0.93037096 </v>
    <v>       0.00195728       0.30215733       0.06622256 </v>
    <v>       0.24949014       0.70357537       0.06730803 </v>
    <v>       0.24885251       0.29170305       0.31507078 </v>
    <v>       0.49769109       0.70742818       0.31412723 </v>
    <v>       0.49753041       0.30142062       0.06813644 </v>
    <v>       0.75136554       0.69216303       0.06690943 </v>
    <v>       0.75104967       0.29667246       0.31539488 </v>
    <v>       0.00218933       0.70737909       0.31629856 </v>
    <v>       0.00111160       0.29173058       0.56048485 </v>
    <v>       0.24782882       0.70733163       0.55923971 </v>
    <v>       0.24804186       0.30219965       0.80937193 </v>
    <v>       0.49862512       0.69203935       0.80867773 </v>
    <v>       0.49894970       0.29667998       0.56014337 </v>
    <v>       0.75232009       0.70749655       0.56141815 </v>
    <v>       0.75244979       0.30159655       0.80742562 </v>
[...]
       <r>    8.8311    0.0000 </r>
       <r>    8.8591    0.0000 </r>
       <r>    8.9286    0.0000 </r>
       <r>    8.9424    0.0000 </r>
       <r>    8.9743    0.0000 </r>
      </set>
     </set>
    </set>
   </array>
  </eigenvalues>
  <separator name="orbital magnetization" >
   <v name="MAGDIPOLOUT">      0.00000000      0.00000000      0.00000000</v>
  </separator>
  <dos>
   <i name="efermi">      4.36802482 </i>
   <total>
    <array>
     <dimension dim="1">gridpoints</dimension>
     <dimension dim="2">spin</dimension>
     <field>energy</field>
     <field>total</field>
     <field>integrated</field>
     <set>
      <set comment="spin 1">
       <r>   -42.4597     0.0000     0.0000 </r>
       <r>   -42.2784     0.0000     0.0000 </r>
       <r>   -42.0971     0.0000     0.0000 </r>
       <r>   -41.9158     0.0000     0.0000 </r>
       <r>   -41.7344     0.0000     0.0000 </r>
       <r>   -41.5531     0.0000     0.0000 </r>
       <r>   -41.3718     0.0000     0.0000 </r>
       <r>   -41.1904     0.0000     0.0000 </r>
       <r>   -41.0091     0.0000     0.0000 </r>
       <r>   -40.8278     0.0000     0.0000 </r>
       <r>   -40.6465     0.0000     0.0000 </r>
       <r>   -40.4651     0.0000     0.0000 </r>
       <r>   -40.2838     0.0000     0.0000 </r>
       <r>   -40.1025     0.0000     0.0000 </r>
       <r>   -39.9212     0.0000     2.0000 </r>
       <r>   -39.7398     0.0000     4.0000 </r>
       <r>   -39.5585     0.0000    10.0000 </r>
       <r>   -39.3772     0.0000    14.0000 </r>
       <r>   -39.1958     0.0000    18.0000 </r>
       <r>   -39.0145     0.0000    20.0000 </r>
       <r>   -38.8332     0.0000    20.0000 </r>
       <r>   -38.6519     0.0000    20.0000 </r>
       <r>   -38.4705     0.0000    20.0000 </r>
       <r>   -38.2892     0.0000    20.0000 </r>
       <r>   -38.1079     0.0000    20.0000 </r>
       <r>   -37.9266     0.0000    20.0000 </r>
       <r>   -37.7452     0.0000    20.0000 </r>
       <r>   -37.5639     0.0000    20.0000 </r>
       <r>   -37.3826     0.0000    20.0000 </r>
       <r>   -37.2012     0.0000    20.0000 </r>
       <r>   -37.0199     0.0000    20.0000 </r>
       <r>   -36.8386     0.0000    20.0000 </r>
       <r>   -36.6573     0.0000    20.0000 </r>
       <r>   -36.4759     0.0000    20.0000 </r>
       <r>   -36.2946     0.0000    20.0000 </r>
       <r>   -36.1133     0.0000    20.0000 </r>
       <r>   -35.9320     0.0000    20.0000 </r>
       <r>   -35.7506     0.0000    20.0000 </r>
       <r>   -35.5693     0.0000    20.0000 </r>
       <r>   -35.3880     0.0000    20.0000 </r>
       <r>   -35.2066     0.0000    20.0000 </r>
       <r>   -35.0253     0.0000    20.0000 </r>
       <r>   -34.8440     0.0000    20.0000 </r>
       <r>   -34.6627     0.0000    20.0000 </r>
       <r>   -34.4813     0.0000    20.0000 </r>
       <r>   -34.3000     0.0000    20.0000 </r>
       <r>   -34.1187     0.0000    20.0000 </r>
       <r>   -33.9374     0.0000    20.0000 </r>
       <r>   -33.7560     0.0000    20.0000 </r>
       <r>   -33.5747     0.0000    20.0000 </r>
       <r>   -33.3934     0.0000    20.0000 </r>
       <r>   -33.2120     0.0000    20.0000 </r>
       <r>   -33.0307     0.0000    20.0000 </r>
       <r>   -32.8494     0.0000    20.0000 </r>
       <r>   -32.6681     0.0000    20.0000 </r>
       <r>   -32.4867     0.0000    20.0000 </r>
       <r>   -32.3054     0.0000    20.0000 </r>
       <r>   -32.1241     0.0000    20.0000 </r>
       <r>   -31.9428     0.0000    20.0000 </r>
       <r>   -31.7614     0.0000    20.0000 </r>
       <r>   -31.5801     0.0000    20.0000 </r>
       <r>   -31.3988     0.0000    20.0000 </r>
       <r>   -31.2174     0.0000    20.0000 </r>
       <r>   -31.0361     0.0000    20.0000 </r>
       <r>   -30.8548     0.0000    20.0000 </r>
       <r>   -30.6735     0.0000    20.0000 </r>
       <r>   -30.4921     0.0000    20.0000 </r>
       <r>   -30.3108     0.0000    20.0000 </r>
       <r>   -30.1295     0.0000    20.0000 </r>
       <r>   -29.9482     0.0000    20.0000 </r>
       <r>   -29.7668     0.0000    20.0000 </r>
       <r>   -29.5855     0.0000    20.0000 </r>
       <r>   -29.4042     0.0000    20.0000 </r>
       <r>   -29.2228     0.0000    20.0000 </r>
       <r>   -29.0415     0.0000    20.0000 </r>
       <r>   -28.8602     0.0000    20.0000 </r>
       <r>   -28.6789     0.0000    20.0000 </r>
       <r>   -28.4975     0.0000    20.0000 </r>
       <r>   -28.3162     0.0000    20.0000 </r>
       <r>   -28.1349     0.0000    20.0000 </r>
       <r>   -27.9536     0.0000    20.0000 </r>
       <r>   -27.7722     0.0000    20.0000 </r>
       <r>   -27.5909     0.0000    20.0000 </r>
       <r>   -27.4096     0.0000    20.0000 </r>
       <r>   -27.2282     0.0000    20.0000 </r>
       <r>   -27.0469     0.0000    20.0000 </r>
       <r>   -26.8656     0.0000    20.0000 </r>
       <r>   -26.6843     0.0000    20.0000 </r>
       <r>   -26.5029     0.0000    20.0000 </r>
       <r>   -26.3216     0.0000    20.0000 </r>
       <r>   -26.1403     0.0000    20.0000 </r>
       <r>   -25.9590     0.0000    20.0000 </r>
       <r>   -25.7776     0.0000    20.0000 </r>
       <r>   -25.5963     0.0000    20.0000 </r>
       <r>   -25.4150     0.0000    20.0000 </r>
       <r>   -25.2336     0.0000    20.0000 </r>
       <r>   -25.0523     0.0000    20.0000 </r>
       <r>   -24.8710     0.0000    20.0000 </r>
       <r>   -24.6897     0.0000    20.0000 </r>
       <r>   -24.5083     0.0000    20.0000 </r>
       <r>   -24.3270     0.0000    20.0000 </r>
       <r>   -24.1457     0.0000    20.0000 </r>
       <r>   -23.9644     0.0000    20.0000 </r>
       <r>   -23.7830     0.0000    20.0000 </r>
       <r>   -23.6017     0.0000    20.0000 </r>
       <r>   -23.4204     0.0000    20.0000 </r>
       <r>   -23.2390     0.0000    20.0000 </r>
       <r>   -23.0577     0.0000    20.0000 </r>
       <r>   -22.8764     0.0000    20.0000 </r>
       <r>   -22.6951     0.0000    20.0000 </r>
       <r>   -22.5137     0.0000    20.0000 </r>
       <r>   -22.3324     0.0000    20.0000 </r>
       <r>   -22.1511     0.0000    20.0000 </r>
       <r>   -21.9698     0.0000    20.0000 </r>
       <r>   -21.7884     0.0000    20.0000 </r>
       <r>   -21.6071     0.0000    20.0000 </r>
       <r>   -21.4258     0.0000    20.0000 </r>
       <r>   -21.2444     0.0000    20.0000 </r>
       <r>   -21.0631     0.0000    20.0000 </r>
       <r>   -20.8818     0.0000    20.0000 </r>
       <r>   -20.7005     0.0000    20.0000 </r>
       <r>   -20.5191     0.0000    20.0000 </r>
       <r>   -20.3378     0.0000    20.0000 </r>
       <r>   -20.1565     0.0000    20.0000 </r>
       <r>   -19.9752     0.0000    20.0000 </r>
       <r>   -19.7938     0.0000    20.0000 </r>
       <r>   -19.6125     0.0000    20.0000 </r>
       <r>   -19.4312     0.0000    20.0000 </r>
       <r>   -19.2498     0.0000    20.0000 </r>
       <r>   -19.0685     0.0000    20.0000 </r>
       <r>   -18.8872     0.0000    20.0000 </r>
       <r>   -18.7059     0.0000    44.0000 </r>
       <r>   -18.5245     0.0000   102.0000 </r>
       <r>   -18.3432     0.0000   162.0000 </r>
       <r>   -18.1619     0.0000   180.0000 </r>
       <r>   -17.9806     0.0000   180.0000 </r>
       <r>   -17.7992     0.0000   180.0000 </r>
       <r>   -17.6179     0.0000   180.0000 </r>
       <r>   -17.4366     0.0000   180.0000 </r>
       <r>   -17.2552     0.0000   180.0000 </r>
       <r>   -17.0739     0.0000   180.0000 </r>
       <r>   -16.8926     0.0000   180.0000 </r>
       <r>   -16.7113     0.0000   180.0000 </r>
       <r>   -16.5299     0.0000   180.0000 </r>
       <r>   -16.3486     0.0000   180.0000 </r>
       <r>   -16.1673     0.0000   180.0000 </r>
       <r>   -15.9860     0.0000   180.0000 </r>
       <r>   -15.8046     0.0000   180.0000 </r>
       <r>   -15.6233     0.0000   180.0000 </r>
       <r>   -15.4420     0.0000   180.0000 </r>
       <r>   -15.2606     0.0000   180.0000 </r>
       <r>   -15.0793     0.0000   180.0000 </r>
       <r>   -14.8980     0.0000   180.0000 </r>
       <r>   -14.7167     0.0000   180.0000 </r>
       <r>   -14.5353     0.0000   180.0000 </r>
       <r>   -14.3540     0.0000   180.0000 </r>
       <r>   -14.1727     0.0000   180.0000 </r>
       <r>   -13.9914     0.0000   180.0000 </r>
       <r>   -13.8100     0.0000   180.0000 </r>
       <r>   -13.6287     0.0000   180.0000 </r>
       <r>   -13.4474     0.0000   180.0000 </r>
       <r>   -13.2660     0.0000   182.0000 </r>
       <r>   -13.0847     0.0000   184.0000 </r>
       <r>   -12.9034     0.0000   188.0000 </r>
       <r>   -12.7221     0.0000   192.0000 </r>
       <r>   -12.5407     0.0000   200.0000 </r>
       <r>   -12.3594     0.0000   206.0000 </r>
       <r>   -12.1781     0.0000   212.0000 </r>
       <r>   -11.9968     0.0000   212.0000 </r>
       <r>   -11.8154     0.0000   212.0000 </r>
       <r>   -11.6341     0.0000   212.0000 </r>
       <r>   -11.4528     0.0000   212.0000 </r>
       <r>   -11.2714     0.0000   212.0000 </r>
       <r>   -11.0901     0.0000   212.0000 </r>
       <r>   -10.9088     0.0000   212.0000 </r>
       <r>   -10.7275     0.0000   212.0000 </r>
       <r>   -10.5461     0.0000   212.0000 </r>
       <r>   -10.3648     0.0000   212.0000 </r>
       <r>   -10.1835     0.0000   212.0000 </r>
       <r>   -10.0022     0.0000   212.0000 </r>
       <r>    -9.8208     0.0000   212.0000 </r>
       <r>    -9.6395     0.0000   212.0000 </r>
       <r>    -9.4582     0.0000   212.0000 </r>
       <r>    -9.2768    14.0341   213.0576 </r>
       <r>    -9.0955     2.7228   214.0154 </r>
       <r>    -8.9142     4.7375   215.8779 </r>
       <r>    -8.7329    14.5619   216.9507 </r>
       <r>    -8.5515    10.6533   220.0528 </r>
       <r>    -8.3702    11.9436   224.3505 </r>
       <r>    -8.1889     9.0128   227.7449 </r>
       <r>    -8.0076    41.0287   230.0410 </r>
       <r>    -7.8262    27.1444   236.9862 </r>
       <r>    -7.6449     3.5574   240.0324 </r>
       <r>    -7.4636    15.3586   243.3967 </r>
       <r>    -7.2822     0.0000   244.0000 </r>
       <r>    -7.1009     0.0000   244.0000 </r>
       <r>    -6.9196     0.0000   244.0000 </r>
       <r>    -6.7383     0.0000   244.0000 </r>
       <r>    -6.5569     0.0000   244.0000 </r>
       <r>    -6.3756     0.0000   244.0000 </r>
       <r>    -6.1943    17.1411   244.8416 </r>
       <r>    -6.0130    12.0065   249.3527 </r>
       <r>    -5.8316    16.7647   252.2191 </r>
       <r>    -5.6503    25.5418   255.6640 </r>
       <r>    -5.4690    25.1755   260.6356 </r>
       <r>    -5.2877    18.5973   264.5165 </r>
       <r>    -5.1063    11.0611   267.0587 </r>
       <r>    -4.9250     4.2675   268.1431 </r>
       <r>    -4.7437    13.2091   269.9020 </r>
       <r>    -4.5623     7.3430   271.6232 </r>
       <r>    -4.3810     4.9890   272.7190 </r>
       <r>    -4.1997     8.7414   273.9252 </r>
       <r>    -4.0184     4.0224   275.3018 </r>
       <r>    -3.8370     1.8294   275.7717 </r>
       <r>    -3.6557     0.4843   275.9814 </r>
       <r>    -3.4744     0.0000   276.0000 </r>
       <r>    -3.2931     0.0000   276.0000 </r>
       <r>    -3.1117     0.0000   276.0000 </r>
       <r>    -2.9304     0.0000   276.0000 </r>
       <r>    -2.7491     0.0000   276.0000 </r>
       <r>    -2.5677     0.0000   276.0000 </r>
       <r>    -2.3864     0.0000   276.0000 </r>
       <r>    -2.2051     0.0000   276.0000 </r>
       <r>    -2.0238     0.0000   276.0000 </r>
       <r>    -1.8424     0.0000   276.0000 </r>
       <r>    -1.6611     0.0000   276.0000 </r>
       <r>    -1.4798     0.0000   276.0000 </r>
       <r>    -1.2985     1.7151   276.0383 </r>
       <r>    -1.1171     6.8888   277.0924 </r>
       <r>    -0.9358     6.0629   278.3826 </r>
       <r>    -0.7545    12.7193   279.9297 </r>
       <r>    -0.5731    11.0576   282.3967 </r>
       <r>    -0.3918    20.4994   284.5764 </r>
       <r>    -0.2105    26.1885   289.4197 </r>
       <r>    -0.0292    29.7834   294.1331 </r>
       <r>     0.1522    37.7591   300.5852 </r>
       <r>     0.3335    39.4247   307.3203 </r>
       <r>     0.5148    30.6041   314.0202 </r>
       <r>     0.6961    43.9580   320.7384 </r>
       <r>     0.8775    32.5466   327.1745 </r>
       <r>     1.0588    35.2537   333.5174 </r>
       <r>     1.2401    35.7895   342.1615 </r>
       <r>     1.4215    51.1029   350.1332 </r>
       <r>     1.6028    50.3684   358.8431 </r>
       <r>     1.7841    37.5793   367.3122 </r>
       <r>     1.9654    42.1186   374.7363 </r>
       <r>     2.1468    52.0325   383.3427 </r>
       <r>     2.3281    56.8549   392.9018 </r>
       <r>     2.5094    69.7370   403.6470 </r>
       <r>     2.6907    59.4618   415.3846 </r>
       <r>     2.8721    59.0459   426.0879 </r>
       <r>     3.0534    70.3962   438.6008 </r>
       <r>     3.2347    43.9604   448.0232 </r>
       <r>     3.4161    27.3580   454.0654 </r>
       <r>     3.5974    21.4127   461.3713 </r>
       <r>     3.7787    14.9079   464.8376 </r>
       <r>     3.9600     8.4447   466.9547 </r>
       <r>     4.1414     2.0666   467.9014 </r>
       <r>     4.3227     0.0000   468.0000 </r>
       <r>     4.5040     0.0000   468.0000 </r>
       <r>     4.6853     0.0000   468.0000 </r>
       <r>     4.8667     0.0000   468.0000 </r>
       <r>     5.0480     0.0000   468.0000 </r>
       <r>     5.2293     0.5603   468.0150 </r>
       <r>     5.4107     6.0259   468.5792 </r>
       <r>     5.5920    10.6916   470.1765 </r>
       <r>     5.7733    10.8370   471.9716 </r>
       <r>     5.9546    20.7656   475.8691 </r>
       <r>     6.1360    13.1701   478.5906 </r>
       <r>     6.3173    12.5185   480.9077 </r>
       <r>     6.4986    13.8083   483.2787 </r>
       <r>     6.6799    15.4318   485.9283 </r>
       <r>     6.8613    17.1006   488.8697 </r>
       <r>     7.0426    20.0333   492.2245 </r>
       <r>     7.2239    23.1629   496.2143 </r>
       <r>     7.4053    26.0272   500.5793 </r>
       <r>     7.5866    32.1885   506.7513 </r>
       <r>     7.7679    31.2549   511.9371 </r>
       <r>     7.9492    32.7036   518.4151 </r>
       <r>     8.1306    34.8703   524.4720 </r>
       <r>     8.3119    29.7392   530.4901 </r>
       <r>     8.4932    25.6705   535.2466 </r>
       <r>     8.6745    30.6666   540.3877 </r>
       <r>     8.8559    39.5662   546.1141 </r>
       <r>     9.0372    38.9913   553.2642 </r>
       <r>     9.2185    15.6613   558.0029 </r>
       <r>     9.3999     3.7647   559.9140 </r>
       <r>     9.5812     0.0000   560.0000 </r>
       <r>     9.7625     0.0000   560.0000 </r>
       <r>     9.9438     0.0000   560.0000 </r>
       <r>    10.1252     0.0000   560.0000 </r>
       <r>    10.3065     0.0000   560.0000 </r>
       <r>    10.4878     0.0000   560.0000 </r>
       <r>    10.6691     0.0000   560.0000 </r>
       <r>    10.8505     0.0000   560.0000 </r>
       <r>    11.0318     0.0000   560.0000 </r>
       <r>    11.2131     0.0000   560.0000 </r>
       <r>    11.3945     0.0000   560.0000 </r>
       <r>    11.5758     0.0000   560.0000 </r>
       <r>    11.7571     0.0000   560.0000 </r>
       <r>    11.9384     0.0000   560.0000 </r>
      </set>
     </set>
    </array>
   </total>
  </dos>
 </calculation>
 <structure name="finalpos" >
  <crystal>
   <varray name="basis" >
    <v>      11.20869201      -0.04094347       0.01306931 </v>
    <v>      -0.03457768       9.48290892      -0.02099160 </v>
    <v>       0.01310036      -0.02493615      11.21870492 </v>
   </varray>
   <i name="volume">   1192.42407541 </i>
   <varray name="rec_basis" >
    <v>       0.08921778       0.00032509      -0.00010346 </v>
    <v>       0.00038494       0.10545480       0.00023395 </v>
    <v>      -0.00010321       0.00019694       0.08913741 </v>
   </varray>
  </crystal>
  <varray name="positions" >
   <v>       0.35500210      -0.02078723       0.42327498 </v>
   <v>       0.14968994       0.97300493       0.21794654 </v>
   <v>       0.62341223      -0.00361444       0.44001729 </v>
   <v>       0.87551408      -0.00165115       0.43317108 </v>
   <v>       0.57222276       0.03611936       0.22111512 </v>
   <v>       0.87566616       0.00632955       0.18620980 </v>
   <v>       0.12664484      -0.00884588       0.93669507 </v>
   <v>       0.10829236       0.97355718       0.58012181 </v>
   <v>       0.38072200       0.00057361       0.69043227 </v>
   <v>       0.67369342       0.03205460       0.65915582 </v>
   <v>       0.37008405       0.00037453       0.96287589 </v>
   <v>       0.62413010       0.00390651       0.93986691 </v>
   <v>       0.87982977       0.00655822       0.92083468 </v>
   <v>      -0.00199236       0.30927352       0.06216101 </v>
   <v>       0.24655530       0.68780725       0.06662626 </v>
   <v>       0.24834903       0.28799996       0.31891044 </v>
   <v>       0.49984181       0.70143160       0.32147176 </v>
   <v>       0.49839585       0.32049529       0.06796482 </v>
   <v>       0.75273805       0.69194635       0.05906742 </v>
   <v>       0.75037843       0.30185490       0.31337493 </v>
   <v>      -0.00334435       0.69929789       0.31127051 </v>
   <v>      -0.00142082       0.29984338       0.55729267 </v>
   <v>       0.25709024       0.69312498       0.56489893 </v>
   <v>       0.25109756       0.30135301       0.81685986 </v>
   <v>       0.49726301       0.68756292       0.81922300 </v>
   <v>       0.50210098       0.30071573       0.56815528 </v>
   <v>       0.75323247       0.70463011       0.55599292 </v>
   <v>       0.75145280       0.32007081       0.81249099 </v>
   <v>       0.00202687       0.68981673       0.81198700 </v>
   <v>       0.25128472       0.33755470       0.06513595 </v>
   <v>      -0.00020116       0.64236313       0.06181802 </v>
   <v>       0.50091634       0.32696030       0.31200765 </v>
   <v>       0.24976759       0.68015315       0.31372844 </v>
   <v>       0.74851978       0.35527439       0.06233702 </v>
   <v>       0.50159294       0.65808016       0.06542236 </v>
   <v>       0.99895637       0.34394916       0.30913698 </v>
   <v>       0.74826672       0.65091999       0.31232463 </v>
   <v>       0.25145111       0.32952827       0.56787996 </v>
   <v>       0.00685167       0.70989724       0.56374070 </v>
   <v>       0.49920540       0.35598132       0.81631136 </v>
   <v>       0.25209576       0.64632241       0.81580383 </v>
   <v>       0.74954059       0.34511017       0.56542266 </v>
   <v>       0.50528782       0.64983900       0.56646729 </v>
   <v>       0.99668107       0.32683790       0.81265328 </v>
   <v>       0.75009888       0.65640474       0.81437373 </v>
   <v>       0.50826216       0.09240194       0.05335205 </v>
   <v>       0.23908938       0.90781160       0.05357934 </v>
   <v>       0.25103699       0.07722107       0.31813850 </v>
   <v>      -0.01380586       0.91259390       0.28792172 </v>
   <v>       0.98030807       0.08993942       0.04905667 </v>
   <v>       0.75697372       0.91471598       0.03190941 </v>
   <v>       0.74107949       0.08355323       0.30278969 </v>
   <v>       0.50384884       0.91648474       0.33749964 </v>
   <v>       0.51865711       0.08547193       0.58597433 </v>
   <v>       0.27301409       0.90976492       0.57295805 </v>
   <v>       0.27155666       0.08473614       0.83636670 </v>
   <v>       0.00493996       0.90322948       0.84034595 </v>
   <v>       0.98677565       0.09044230       0.54044596 </v>
   <v>       0.74325925       0.91816080       0.53897107 </v>
   <v>       0.74047952       0.09255333       0.82701806 </v>
   <v>       0.49093072       0.91083899       0.84911394 </v>
  </varray>
 </structure>
</modeling>
