<?xml version="1.0" encoding="ISO-8859-1"?>
<modeling>
 <generator>
  <i name="program" type="string">vasp </i>
  <i name="version" type="string">5.4.4.18Apr17-6-g9f103f2a35  </i>
  <i name="subversion" type="string">(build Jul 31 2017 11:33:29) complex            parallel </i>
  <i name="platform" type="string">LinuxIFC </i>
  <i name="date" type="string">2021 09 29 </i>
  <i name="time" type="string">03:33:28 </i>
 </generator>
 <incar>
  <i type="string" name="SYSTEM"> La2O2S</i>
  <i type="string" name="PREC">normal</i>
  <i type="int" name="NELMIN">     4</i>
  <i type="int" name="IBRION">     2</i>
  <i type="int" name="NFREE">    10</i>
  <i name="EDIFF">      0.00000100</i>
  <i name="EDIFFG">     -0.01000000</i>
  <i type="int" name="NSW">     1</i>
  <i type="int" name="ISIF">     2</i>
  <i name="ENCUT">    600.00000000</i>
  <i name="ENAUG">    900.00000000</i>
  <i type="int" name="ISMEAR">    -5</i>
  <i type="logical" name="LWAVE"> F  </i>
  <i type="logical" name="LCHARG"> F  </i>
  <v type="int" name="KPOINT_BSE">    -1     0     0     0</v>
 </incar>
 <structure name="primitive_cell" >
  <crystal>
   <varray name="basis" >
    <v>      11.17850000       0.00000000       0.00000000 </v>
    <v>       0.00000000       9.57460000       0.00000000 </v>
    <v>       0.00000000       0.00000000      11.18240000 </v>
   </varray>
   <i name="volume">   1196.84853820 </i>
   <varray name="rec_basis" >
    <v>       0.08945744       0.00000000       0.00000000 </v>
    <v>       0.00000000       0.10444301       0.00000000 </v>
    <v>       0.00000000       0.00000000       0.08942624 </v>
   </varray>
  </crystal>
  <varray name="positions" >
   <v>       0.37539000       0.00017000       0.43687000 </v>
   <v>      -0.49987000      -0.07798000       0.31246000 </v>
   <v>       0.25013000       0.07798000       0.31246000 </v>
   <v>       0.49987000       0.07798000      -0.43754000 </v>
   <v>       0.24987000      -0.07798000      -0.43754000 </v>
   <v>       0.37461000       0.00017000       0.18687000 </v>
   <v>       0.37461000       0.00017000      -0.31313000 </v>
   <v>       0.49987000      -0.29519000       0.31282000 </v>
   <v>       0.24987000       0.29519000       0.31282000 </v>
   <v>      -0.49987000       0.29519000      -0.43719000 </v>
   <v>       0.25013000      -0.29519000      -0.43719000 </v>
   <v>       0.49995000       0.32677000       0.31286000 </v>
   <v>       0.24995000      -0.32677000       0.31286000 </v>
   <v>      -0.49995000      -0.32677000      -0.43714000 </v>
   <v>       0.25005000       0.32677000      -0.43714000 </v>
   <v>      -0.37539000      -0.00016000      -0.31313000 </v>
   <v>      -0.37539000      -0.00016000       0.18687000 </v>
   <v>       0.12461000      -0.00016000       0.18687000 </v>
   <v>       0.12461000      -0.00016000      -0.31313000 </v>
   <v>       0.49987000       0.07798000       0.06246000 </v>
   <v>      -0.24987000       0.07798000       0.31246000 </v>
   <v>      -0.25013000      -0.07798000      -0.43754000 </v>
   <v>       0.24987000      -0.07798000       0.06246000 </v>
   <v>       0.00013000      -0.07798000       0.31246000 </v>
   <v>      -0.49987000      -0.07798000      -0.18754000 </v>
   <v>      -0.00013000       0.07798000      -0.43754000 </v>
   <v>       0.25013000       0.07798000      -0.18754000 </v>
   <v>      -0.49987000       0.29519000       0.06281000 </v>
   <v>      -0.25013000       0.29519000       0.31282000 </v>
   <v>       0.25013000      -0.29519000       0.06281000 </v>
   <v>      -0.24987000      -0.29519000      -0.43719000 </v>
   <v>      -0.00013000      -0.29519000       0.31282000 </v>
   <v>       0.00013000       0.29519000      -0.43719000 </v>
   <v>       0.49987000      -0.29519000      -0.18718000 </v>
   <v>       0.24987000       0.29519000      -0.18718000 </v>
   <v>      -0.49995000      -0.32677000       0.06286000 </v>
   <v>       0.25005000       0.32677000       0.06286000 </v>
   <v>      -0.25005000      -0.32677000       0.31286000 </v>
   <v>      -0.24995000       0.32677000      -0.43714000 </v>
   <v>      -0.00005000       0.32677000       0.31286000 </v>
   <v>       0.00005000      -0.32677000      -0.43714000 </v>
   <v>       0.49995000       0.32677000      -0.18714000 </v>
   <v>       0.24995000      -0.32677000      -0.18714000 </v>
   <v>      -0.12461000       0.00017000       0.43687000 </v>
   <v>       0.37539000       0.00017000      -0.06313000 </v>
   <v>      -0.25013000      -0.07798000       0.06246000 </v>
   <v>      -0.00013000       0.07798000       0.06246000 </v>
   <v>      -0.24987000       0.07798000      -0.18754000 </v>
   <v>       0.00013000      -0.07798000      -0.18754000 </v>
   <v>      -0.12539000       0.00017000       0.18687000 </v>
   <v>      -0.12539000       0.00017000      -0.31313000 </v>
   <v>      -0.37461000      -0.00016000      -0.06313000 </v>
   <v>      -0.24987000      -0.29519000       0.06281000 </v>
   <v>       0.00013000       0.29519000       0.06281000 </v>
   <v>      -0.25013000       0.29519000      -0.18718000 </v>
   <v>      -0.00013000      -0.29519000      -0.18718000 </v>
   <v>      -0.24995000       0.32677000       0.06286000 </v>
   <v>       0.00005000      -0.32677000       0.06286000 </v>
   <v>      -0.25005000      -0.32677000      -0.18714000 </v>
   <v>      -0.00005000       0.32677000      -0.18714000 </v>
   <v>      -0.12461000       0.00017000      -0.06313000 </v>
  </varray>
 </structure>
 <varray name="primitive_index" >
  <v type="int" >        1 </v>
  <v type="int" >       53 </v>
  <v type="int" >       48 </v>
  <v type="int" >       54 </v>
  <v type="int" >       55 </v>
  <v type="int" >        2 </v>
  <v type="int" >        6 </v>
  <v type="int" >       17 </v>
  <v type="int" >       16 </v>
  <v type="int" >       26 </v>
  <v type="int" >       23 </v>
  <v type="int" >       32 </v>
  <v type="int" >       33 </v>
  <v type="int" >       43 </v>
  <v type="int" >       38 </v>
  <v type="int" >        9 </v>
  <v type="int" >       12 </v>
  <v type="int" >       11 </v>
  <v type="int" >       13 </v>
  <v type="int" >       46 </v>
  <v type="int" >       52 </v>
  <v type="int" >       59 </v>
  <v type="int" >       47 </v>
  <v type="int" >       49 </v>
  <v type="int" >       61 </v>
  <v type="int" >       58 </v>
  <v type="int" >       56 </v>
  <v type="int" >       18 </v>
  <v type="int" >       20 </v>
  <v type="int" >       15 </v>
  <v type="int" >       27 </v>
  <v type="int" >       21 </v>
  <v type="int" >       22 </v>
  <v type="int" >       25 </v>
  <v type="int" >       24 </v>
  <v type="int" >       35 </v>
  <v type="int" >       30 </v>
  <v type="int" >       37 </v>
  <v type="int" >       42 </v>
  <v type="int" >       36 </v>
  <v type="int" >       39 </v>
  <v type="int" >       40 </v>
  <v type="int" >       41 </v>
  <v type="int" >        3 </v>
  <v type="int" >        5 </v>
  <v type="int" >       51 </v>
  <v type="int" >       50 </v>
  <v type="int" >       60 </v>
  <v type="int" >       57 </v>
  <v type="int" >        4 </v>
  <v type="int" >       10 </v>
  <v type="int" >        7 </v>
  <v type="int" >       19 </v>
  <v type="int" >       14 </v>
  <v type="int" >       28 </v>
  <v type="int" >       29 </v>
  <v type="int" >       34 </v>
  <v type="int" >       31 </v>
  <v type="int" >       45 </v>
  <v type="int" >       44 </v>
  <v type="int" >        8 </v>
 </varray>
 <kpoints>
  <generation param="Gamma">
   <v type="int" name="divisions">       2        2        2 </v>
   <v name="usershift">      0.00000000       0.00000000       0.00000000 </v>
   <v name="genvec1">      0.50000000       0.00000000       0.00000000 </v>
   <v name="genvec2">      0.00000000       0.50000000       0.00000000 </v>
   <v name="genvec3">      0.00000000       0.00000000       0.50000000 </v>
   <v name="shift">      0.00000000       0.00000000       0.00000000 </v>
  </generation>
  <varray name="kpointlist" >
   <v>       0.00000000       0.00000000       0.00000000 </v>
   <v>       0.50000000       0.00000000       0.00000000 </v>
   <v>       0.00000000       0.50000000       0.00000000 </v>
   <v>       0.50000000       0.50000000       0.00000000 </v>
   <v>       0.00000000       0.00000000       0.50000000 </v>
   <v>       0.50000000       0.00000000       0.50000000 </v>
   <v>       0.00000000       0.50000000       0.50000000 </v>
   <v>       0.50000000       0.50000000       0.50000000 </v>
  </varray>
  <varray name="weights" >
   <v>       0.12500000 </v>
   <v>       0.12500000 </v>
   <v>       0.12500000 </v>
   <v>       0.12500000 </v>
   <v>       0.12500000 </v>
   <v>       0.12500000 </v>
   <v>       0.12500000 </v>
   <v>       0.12500000 </v>
  </varray>
  <varray name="tetrahedronlist"  type="int" >
   <v type="int" >        2        1        2        4        5 </v>
   <v type="int" >        2        1        3        4        5 </v>
   <v type="int" >        2        3        4        5        7 </v>
   <v type="int" >        2        2        4        5        6 </v>
   <v type="int" >        2        4        5        6        8 </v>
   <v type="int" >        2        4        5        7        8 </v>
   <v type="int" >        2        1        2        3        6 </v>
   <v type="int" >        2        2        3        4        6 </v>
   <v type="int" >        2        3        4        6        8 </v>
   <v type="int" >        2        1        3        5        6 </v>
   <v type="int" >        2        3        5        6        7 </v>
   <v type="int" >        2        3        6        7        8 </v>
   <v type="int" >        2        2        3        4        7 </v>
   <v type="int" >        2        1        2        3        7 </v>
   <v type="int" >        2        1        2        5        7 </v>
   <v type="int" >        2        2        4        7        8 </v>
   <v type="int" >        2        2        6        7        8 </v>
   <v type="int" >        2        2        5        6        7 </v>
   <v type="int" >        2        1        3        4        8 </v>
   <v type="int" >        2        1        2        4        8 </v>
   <v type="int" >        2        1        2        6        8 </v>
   <v type="int" >        2        1        3        7        8 </v>
   <v type="int" >        2        1        5        7        8 </v>
   <v type="int" >        2        1        5        6        8 </v>
  </varray>
  <i name="volumeweight">      0.02083333 </i>
 </kpoints>
 <parameters>
  <separator name="general" >
   <i type="string" name="SYSTEM">La2O2S</i>
   <i type="logical" name="LCOMPAT"> F  </i>
  </separator>
  <separator name="electronic" >
   <i type="string" name="PREC">normal</i>
   <i name="ENMAX">    600.00000000</i>
   <i name="ENAUG">    900.00000000</i>
   <i name="EDIFF">      0.00000100</i>
   <i type="int" name="IALGO">    38</i>
   <i type="int" name="IWAVPR">    11</i>
   <i type="int" name="NBANDS">   280</i>
   <i name="NELECT">    468.00000000</i>
   <i type="int" name="TURBO">     0</i>
   <i type="int" name="IRESTART">     0</i>
   <i type="int" name="NREBOOT">     0</i>
   <i type="int" name="NMIN">     0</i>
   <i name="EREF">      0.00000000</i>
   <separator name="electronic smearing" >
    <i type="int" name="ISMEAR">    -5</i>
    <i name="SIGMA">      0.20000000</i>
    <i name="KSPACING">      0.50000000</i>
    <i type="logical" name="KGAMMA"> T  </i>
   </separator>
   <separator name="electronic projectors" >
    <i type="logical" name="LREAL"> F  </i>
    <v name="ROPT">      0.00000000      0.00000000      0.00000000      0.00000000      0.00000000</v>
    <i type="int" name="LMAXPAW">  -100</i>
    <i type="int" name="LMAXMIX">     2</i>
    <i type="logical" name="NLSPLINE"> F  </i>
   </separator>
   <separator name="electronic startup" >
    <i type="int" name="ISTART">     0</i>
    <i type="int" name="ICHARG">     2</i>
    <i type="int" name="INIWAV">     1</i>
   </separator>
   <separator name="electronic spin" >
    <i type="int" name="ISPIN">     1</i>
    <i type="logical" name="LNONCOLLINEAR"> F  </i>
    <v name="MAGMOM">      1.00000000      1.00000000      1.00000000      1.00000000      1.00000000      1.00000000      1.00000000      1.00000000      1.00000000      1.00000000      1.00000000      1.00000000      1.00000000      1.00000000      1.00000000      1.00000000      1.00000000      1.00000000      1.00000000      1.00000000
      1.00000000      1.00000000      1.00000000      1.00000000      1.00000000      1.00000000      1.00000000      1.00000000      1.00000000      1.00000000      1.00000000      1.00000000      1.00000000      1.00000000      1.00000000      1.00000000      1.00000000      1.00000000      1.00000000      1.00000000
      1.00000000      1.00000000      1.00000000      1.00000000      1.00000000      1.00000000      1.00000000      1.00000000      1.00000000      1.00000000      1.00000000      1.00000000      1.00000000      1.00000000      1.00000000      1.00000000      1.00000000      1.00000000      1.00000000      1.00000000
      1.00000000</v>
    <i name="NUPDOWN">     -1.00000000</i>
    <i type="logical" name="LSORBIT"> F  </i>
    <v name="SAXIS">      0.00000000      0.00000000      1.00000000</v>
    <i type="logical" name="LSPIRAL"> F  </i>
    <v name="QSPIRAL">      0.00000000      0.00000000      0.00000000</v>
    <i type="logical" name="LZEROZ"> F  </i>
   </separator>
   <separator name="electronic exchange-correlation" >
    <i type="logical" name="LASPH"> F  </i>
    <i type="logical" name="LMETAGGA"> F  </i>
   </separator>
   <separator name="electronic convergence" >
    <i type="int" name="NELM">    60</i>
    <i type="int" name="NELMDL">    -5</i>
    <i type="int" name="NELMIN">     4</i>
    <i name="ENINI">    600.00000000</i>
    <separator name="electronic convergence detail" >
     <i type="logical" name="LDIAG"> T  </i>
     <i type="logical" name="LSUBROT"> F  </i>
     <i name="WEIMIN">      0.00100000</i>
     <i name="EBREAK">      0.00000000</i>
     <i name="DEPER">      0.30000000</i>
     <i type="int" name="NRMM">     4</i>
     <i name="TIME">      0.40000000</i>
    </separator>
   </separator>
   <separator name="electronic mixer" >
    <i name="AMIX">      0.40000000</i>
    <i name="BMIX">      1.00000000</i>
    <i name="AMIN">      0.10000000</i>
    <i name="AMIX_MAG">      1.60000000</i>
    <i name="BMIX_MAG">      1.00000000</i>
    <separator name="electronic mixer details" >
     <i type="int" name="IMIX">     4</i>
     <i type="logical" name="MIXFIRST"> F  </i>
     <i type="int" name="MAXMIX">   -45</i>
     <i name="WC">    100.00000000</i>
     <i type="int" name="INIMIX">     1</i>
     <i type="int" name="MIXPRE">     1</i>
     <i type="int" name="MREMOVE">     5</i>
    </separator>
   </separator>
   <separator name="electronic dipolcorrection" >
    <i type="logical" name="LDIPOL"> F  </i>
    <i type="logical" name="LMONO"> F  </i>
    <i type="int" name="IDIPOL">     0</i>
    <i name="EPSILON">      1.00000000</i>
    <v name="DIPOL">   -100.00000000   -100.00000000   -100.00000000</v>
    <i name="EFIELD">      0.00000000</i>
   </separator>
  </separator>
  <separator name="grids" >
   <i type="int" name="NGX">    70</i>
   <i type="int" name="NGY">    60</i>
   <i type="int" name="NGZ">    70</i>
   <i type="int" name="NGXF">   140</i>
   <i type="int" name="NGYF">   120</i>
   <i type="int" name="NGZF">   140</i>
   <i type="logical" name="ADDGRID"> F  </i>
  </separator>
  <separator name="ionic" >
   <i type="int" name="NSW">     1</i>
   <i type="int" name="IBRION">     2</i>
   <i type="int" name="MDALGO">     0</i>
   <i type="int" name="ISIF">     2</i>
   <i name="PSTRESS">      0.00000000</i>
   <i name="EDIFFG">     -0.01000000</i>
   <i type="int" name="NFREE">    10</i>
   <i name="POTIM">      0.50000000</i>
   <i name="SMASS">     -3.00000000</i>
   <i name="SCALEE">      1.00000000</i>
  </separator>
  <separator name="ionic md" >
   <i name="TEBEG">      0.00010000</i>
   <i name="TEEND">      0.00010000</i>
   <i type="int" name="NBLOCK">     1</i>
   <i type="int" name="KBLOCK">     1</i>
   <i type="int" name="NPACO">   256</i>
   <i name="APACO">     16.00000000</i>
  </separator>
  <separator name="symmetry" >
   <i type="int" name="ISYM">     2</i>
   <i name="SYMPREC">      0.00001000</i>
  </separator>
  <separator name="dos" >
   <i type="int" name="LORBIT">     0</i>
   <v name="RWIGS">     -1.00000000     -1.00000000     -1.00000000     -1.00000000     -1.00000000</v>
   <i type="int" name="NEDOS">   301</i>
   <i name="EMIN">     10.00000000</i>
   <i name="EMAX">    -10.00000000</i>
   <i name="EFERMI">      0.00000000</i>
  </separator>
  <separator name="writing" >
   <i type="int" name="NWRITE">     2</i>
   <i type="logical" name="LWAVE"> F  </i>
   <i type="logical" name="LDOWNSAMPLE"> F  </i>
   <i type="logical" name="LCHARG"> F  </i>
   <i type="logical" name="LPARD"> F  </i>
   <i type="logical" name="LVTOT"> F  </i>
   <i type="logical" name="LVHAR"> F  </i>
   <i type="logical" name="LELF"> F  </i>
   <i type="logical" name="LOPTICS"> F  </i>
   <v name="STM">      0.00000000      0.00000000      0.00000000      0.00000000      0.00000000      0.00000000      0.00000000</v>
  </separator>
  <separator name="performance" >
   <i type="int" name="NPAR">    28</i>
   <i type="int" name="NSIM">     4</i>
   <i type="int" name="NBLK">    -1</i>
   <i type="logical" name="LPLANE"> T  </i>
   <i type="logical" name="LSCALAPACK"> T  </i>
   <i type="logical" name="LSCAAWARE"> F  </i>
   <i type="logical" name="LSCALU"> F  </i>
   <i type="logical" name="LASYNC"> F  </i>
   <i type="logical" name="LORBITALREAL"> F  </i>
  </separator>
  <separator name="miscellaneous" >
   <i type="int" name="IDIOT">     3</i>
   <i type="int" name="ISPECIAL">     0</i>
   <i type="logical" name="LMUSIC"> F  </i>
   <v name="POMASS">      7.01000000     24.30500000    208.98000000     32.06600000     16.00000000</v>
   <v name="DARWINR">      0.00000000      0.00000000      0.00000000      0.00000000      0.00000000</v>
   <v name="DARWINV">      1.00000000      1.00000000      1.00000000      1.00000000      1.00000000</v>
   <i type="logical" name="LCORR"> T  </i>
  </separator>
  <i type="logical" name="GGA_COMPAT"> T  </i>
  <i type="logical" name="LBERRY"> F  </i>
  <i type="int" name="ICORELEVEL">     0</i>
  <i type="logical" name="LDAU"> F  </i>
  <i type="int" name="I_CONSTRAINED_M">     0</i>
  <separator name="electronic exchange-correlation" >
   <i type="string" name="GGA">--</i>
   <i type="int" name="VOSKOWN">     0</i>
   <i type="logical" name="LHFCALC"> F  </i>
   <i type="string" name="PRECFOCK"></i>
   <i type="logical" name="LSYMGRAD"> F  </i>
   <i type="logical" name="LHFONE"> F  </i>
   <i type="logical" name="LRHFCALC"> F  </i>
   <i type="logical" name="LTHOMAS"> F  </i>
   <i type="logical" name="LMODELHF"> F  </i>
   <i name="ENCUT4O">     -1.00000000</i>
   <i type="int" name="EXXOEP">     0</i>
   <i type="int" name="FOURORBIT">     0</i>
   <i name="AEXX">      0.00000000</i>
   <i name="HFALPHA">      0.00000000</i>
   <i name="MCALPHA">      0.00000000</i>
   <i name="ALDAX">      1.00000000</i>
   <i name="AGGAX">      1.00000000</i>
   <i name="ALDAC">      1.00000000</i>
   <i name="AGGAC">      1.00000000</i>
   <i type="int" name="NKREDX">     1</i>
   <i type="int" name="NKREDY">     1</i>
   <i type="int" name="NKREDZ">     1</i>
   <i type="logical" name="SHIFTRED"> F  </i>
   <i type="logical" name="ODDONLY"> F  </i>
   <i type="logical" name="EVENONLY"> F  </i>
   <i type="int" name="LMAXFOCK">     0</i>
   <i type="int" name="NMAXFOCKAE">     0</i>
   <i type="logical" name="LFOCKAEDFT"> F  </i>
   <i name="HFSCREEN">      0.00000000</i>
   <i name="HFSCREENC">      0.00000000</i>
   <i type="int" name="NBANDSGWLOW">     0</i>
  </separator>
  <separator name="vdW DFT" >
   <i type="logical" name="LUSE_VDW"> F  </i>
   <i name="Zab_VDW">     -0.84910000</i>
   <i name="PARAM1">      0.12340000</i>
   <i name="PARAM2">      1.00000000</i>
   <i name="PARAM3">      0.00000000</i>
  </separator>
  <separator name="model GW" >
   <i type="int" name="MODEL_GW">     0</i>
   <i name="MODEL_EPS0">     11.77228070</i>
   <i name="MODEL_ALPHA">      1.00000000</i>
  </separator>
  <separator name="linear response parameters" >
   <i type="logical" name="LEPSILON"> F  </i>
   <i type="logical" name="LRPA"> F  </i>
   <i type="logical" name="LNABLA"> F  </i>
   <i type="logical" name="LVEL"> F  </i>
   <i type="int" name="KINTER">     0</i>
   <i name="CSHIFT">      0.10000000</i>
   <i name="OMEGAMAX">     -1.00000000</i>
   <i name="DEG_THRESHOLD">      0.00200000</i>
   <i name="RTIME">     -0.10000000</i>
   <i name="WPLASMAI">      0.00000000</i>
   <v name="DFIELD">      0.00000000      0.00000000      0.00000000</v>
   <v name="WPLASMA">      0.00000000      0.00000000      0.00000000      0.00000000      0.00000000      0.00000000      0.00000000      0.00000000      0.00000000</v>
  </separator>
  <separator name="orbital magnetization" >
   <i type="logical" name="NUCIND"> F  </i>
   <v name="MAGPOS">      0.00000000      0.00000000      0.00000000</v>
   <i type="logical" name="LNICSALL"> T  </i>
   <i type="logical" name="ORBITALMAG"> F  </i>
   <i type="logical" name="LMAGBLOCH"> F  </i>
   <i type="logical" name="LCHIMAG"> F  </i>
   <i type="logical" name="LGAUGE"> T  </i>
   <i type="int" name="MAGATOM">     0</i>
   <v name="MAGDIPOL">      0.00000000      0.00000000      0.00000000</v>
   <v name="AVECCONST">      0.00000000      0.00000000      0.00000000</v>
  </separator>
  <separator name="response functions" >
   <i type="logical" name="LADDER"> F  </i>
   <i type="logical" name="LRPAFORCE"> F  </i>
   <i type="logical" name="LFXC"> F  </i>
   <i type="logical" name="LHARTREE"> T  </i>
   <i type="int" name="IBSE">     0</i>
   <v type="int" name="KPOINT">    -1     0     0     0</v>
   <i type="logical" name="LTCTE"> F  </i>
   <i type="logical" name="LTETE"> F  </i>
   <i type="logical" name="LTRIPLET"> F  </i>
   <i type="logical" name="LFXCEPS"> F  </i>
   <i type="logical" name="LFXHEG"> F  </i>
   <i type="int" name="NATURALO">     2</i>
   <i type="logical" name="L2ORDER"> F  </i>
   <i type="logical" name="LMP2LT"> F  </i>
   <i type="logical" name="LUSEW"> F  </i>
   <i name="ENCUTGW">     -2.00000000</i>
   <i name="ENCUTGWSOFT">     -2.00000000</i>
   <i name="ENCUTLF">     -1.00000000</i>
   <i type="int" name="LMAXMP2">    -1</i>
   <i name="SCISSOR">      0.00000000</i>
   <i type="int" name="NOMEGA">     0</i>
   <i type="int" name="NOMEGAR">     0</i>
   <i type="int" name="NBANDSGW">    -1</i>
   <i type="int" name="NBANDSO">    -1</i>
   <i type="int" name="NBANDSV">    -1</i>
   <i type="int" name="NELM">     1</i>
   <i type="int" name="NELMHF">     1</i>
   <i type="int" name="DIM">     3</i>
   <i type="int" name="ANTIRES">     0</i>
   <i name="OMEGAMAX">    -30.00000000</i>
   <i name="OMEGAMIN">    -30.00000000</i>
   <i name="OMEGATL">   -200.00000000</i>
   <i type="int" name="OMEGAGRID">   140</i>
   <i name="CSHIFT">     -0.10000000</i>
   <i type="logical" name="SELFENERGY"> F  </i>
   <i type="logical" name="LSPECTRAL"> F  </i>
   <i type="logical" name="LSPECTRALGW"> F  </i>
   <i type="logical" name="LSINGLES"> F  </i>
   <i type="logical" name="LFERMIGW"> F  </i>
   <i type="logical" name="ODDONLYGW"> F  </i>
   <i type="logical" name="EVENONLYGW"> F  </i>
   <i type="int" name="NKREDLFX">     1</i>
   <i type="int" name="NKREDLFY">     1</i>
   <i type="int" name="NKREDLFZ">     1</i>
   <i type="int" name="MAXMEM">  2800</i>
   <i type="int" name="TELESCOPE">     0</i>
   <i type="int" name="TAUPAR">     1</i>
   <i type="int" name="OMEGAPAR">    -1</i>
   <i name="LAMBDA">      1.00000000</i>
  </separator>
  <separator name="External order field" >
   <i name="OFIELD_KAPPA">      0.00000000</i>
   <v name="OFIELD_K">      0.00000000      0.00000000      0.00000000</v>
   <i name="OFIELD_Q6_NEAR">      0.00000000</i>
   <i name="OFIELD_Q6_FAR">      0.00000000</i>
   <i name="OFIELD_A">      0.00000000</i>
  </separator>
 </parameters>
 <atominfo>
  <atoms>      61 </atoms>
  <types>       5 </types>
  <array name="atoms" >
   <dimension dim="1">ion</dimension>
   <field type="string">element</field>
   <field type="int">atomtype</field>
   <set>
    <rc><c>Li</c><c>   1</c></rc>
    <rc><c>Li</c><c>   1</c></rc>
    <rc><c>Li</c><c>   1</c></rc>
    <rc><c>Li</c><c>   1</c></rc>
    <rc><c>Li</c><c>   1</c></rc>
    <rc><c>Li</c><c>   1</c></rc>
    <rc><c>Li</c><c>   1</c></rc>
    <rc><c>Li</c><c>   1</c></rc>
    <rc><c>Li</c><c>   1</c></rc>
    <rc><c>Li</c><c>   1</c></rc>
    <rc><c>Mg</c><c>   2</c></rc>
    <rc><c>Mg</c><c>   2</c></rc>
    <rc><c>Mg</c><c>   2</c></rc>
    <rc><c>Bi</c><c>   3</c></rc>
    <rc><c>Bi</c><c>   3</c></rc>
    <rc><c>Bi</c><c>   3</c></rc>
    <rc><c>Bi</c><c>   3</c></rc>
    <rc><c>Bi</c><c>   3</c></rc>
    <rc><c>Bi</c><c>   3</c></rc>
    <rc><c>Bi</c><c>   3</c></rc>
    <rc><c>Bi</c><c>   3</c></rc>
    <rc><c>Bi</c><c>   3</c></rc>
    <rc><c>Bi</c><c>   3</c></rc>
    <rc><c>Bi</c><c>   3</c></rc>
    <rc><c>Bi</c><c>   3</c></rc>
    <rc><c>Bi</c><c>   3</c></rc>
    <rc><c>Bi</c><c>   3</c></rc>
    <rc><c>Bi</c><c>   3</c></rc>
    <rc><c>Bi</c><c>   3</c></rc>
    <rc><c>S </c><c>   4</c></rc>
    <rc><c>S </c><c>   4</c></rc>
    <rc><c>S </c><c>   4</c></rc>
    <rc><c>S </c><c>   4</c></rc>
    <rc><c>S </c><c>   4</c></rc>
    <rc><c>S </c><c>   4</c></rc>
    <rc><c>S </c><c>   4</c></rc>
    <rc><c>S </c><c>   4</c></rc>
    <rc><c>S </c><c>   4</c></rc>
    <rc><c>S </c><c>   4</c></rc>
    <rc><c>S </c><c>   4</c></rc>
    <rc><c>S </c><c>   4</c></rc>
    <rc><c>S </c><c>   4</c></rc>
    <rc><c>S </c><c>   4</c></rc>
    <rc><c>S </c><c>   4</c></rc>
    <rc><c>S </c><c>   4</c></rc>
    <rc><c>O </c><c>   5</c></rc>
    <rc><c>O </c><c>   5</c></rc>
    <rc><c>O </c><c>   5</c></rc>
    <rc><c>O </c><c>   5</c></rc>
    <rc><c>O </c><c>   5</c></rc>
    <rc><c>O </c><c>   5</c></rc>
    <rc><c>O </c><c>   5</c></rc>
    <rc><c>O </c><c>   5</c></rc>
    <rc><c>O </c><c>   5</c></rc>
    <rc><c>O </c><c>   5</c></rc>
    <rc><c>O </c><c>   5</c></rc>
    <rc><c>O </c><c>   5</c></rc>
    <rc><c>O </c><c>   5</c></rc>
    <rc><c>O </c><c>   5</c></rc>
    <rc><c>O </c><c>   5</c></rc>
    <rc><c>O </c><c>   5</c></rc>
   </set>
  </array>
  <array name="atomtypes" >
   <dimension dim="1">type</dimension>
   <field type="int">atomspertype</field>
   <field type="string">element</field>
   <field>mass</field>
   <field>valence</field>
   <field type="string">pseudopotential</field>
   <set>
    <rc><c>  10</c><c>Li</c><c>      7.01000000</c><c>      3.00000000</c><c>  PAW_PBE Li_sv 10Sep2004               </c></rc>
    <rc><c>   3</c><c>Mg</c><c>     24.30500000</c><c>      2.00000000</c><c>  PAW_PBE Mg 13Apr2007                  </c></rc>
    <rc><c>  16</c><c>Bi</c><c>    208.98000000</c><c>     15.00000000</c><c>  PAW_PBE Bi_d 06Sep2000                </c></rc>
    <rc><c>  16</c><c>S </c><c>     32.06600000</c><c>      6.00000000</c><c>  PAW_PBE S 06Sep2000                   </c></rc>
    <rc><c>  16</c><c>O </c><c>     16.00000000</c><c>      6.00000000</c><c>  PAW_PBE O 08Apr2002                   </c></rc>
   </set>
  </array>
 </atominfo>
 <structure name="initialpos" >
  <crystal>
   <varray name="basis" >
    <v>      11.17850000       0.00000000       0.00000000 </v>
    <v>       0.00000000       9.57460000       0.00000000 </v>
    <v>       0.00000000       0.00000000      11.18240000 </v>
   </varray>
   <i name="volume">   1196.84853820 </i>
   <varray name="rec_basis" >
    <v>       0.08945744       0.00000000       0.00000000 </v>
    <v>       0.00000000       0.10444301       0.00000000 </v>
    <v>       0.00000000       0.00000000       0.08942624 </v>
   </varray>
  </crystal>
  <varray name="positions" >
   <v>       0.37539000       0.00017000       0.43687000 </v>
   <v>       0.37461000       0.00017000       0.18687000 </v>
   <v>       0.87539000       0.00017000       0.43687000 </v>
   <v>       0.87461000       0.00017000       0.18687000 </v>
   <v>       0.37539000       0.00017000       0.93687000 </v>
   <v>       0.37461000       0.00017000       0.68687000 </v>
   <v>       0.62539000       0.99984000       0.93687000 </v>
   <v>       0.87539000       0.00017000       0.93687000 </v>
   <v>       0.62461000       0.99984000       0.68687000 </v>
   <v>       0.87461000       0.00017000       0.68687000 </v>
   <v>       0.12461000       0.99984000       0.18687000 </v>
   <v>       0.62461000       0.99984000       0.18687000 </v>
   <v>       0.12461000       0.99984000       0.68687000 </v>
   <v>       0.00013000       0.29519000       0.06281000 </v>
   <v>       0.25013000       0.70481000       0.06281000 </v>
   <v>       0.24987000       0.29519000       0.31282000 </v>
   <v>       0.49987000       0.70481000       0.31282000 </v>
   <v>       0.50013000       0.29519000       0.06281000 </v>
   <v>       0.75013000       0.70481000       0.06281000 </v>
   <v>       0.74987000       0.29519000       0.31282000 </v>
   <v>       0.99987000       0.70481000       0.31282000 </v>
   <v>       0.00013000       0.29519000       0.56281000 </v>
   <v>       0.25013000       0.70481000       0.56281000 </v>
   <v>       0.24987000       0.29519000       0.81282000 </v>
   <v>       0.49987000       0.70481000       0.81282000 </v>
   <v>       0.50013000       0.29519000       0.56281000 </v>
   <v>       0.75013000       0.70481000       0.56281000 </v>
   <v>       0.74987000       0.29519000       0.81282000 </v>
   <v>       0.99987000       0.70481000       0.81282000 </v>
   <v>       0.25005000       0.32677000       0.06286000 </v>
   <v>       0.00005000       0.67323000       0.06286000 </v>
   <v>       0.49995000       0.32677000       0.31286000 </v>
   <v>       0.24995000       0.67323000       0.31286000 </v>
   <v>       0.75005000       0.32677000       0.06286000 </v>
   <v>       0.50005000       0.67323000       0.06286000 </v>
   <v>       0.99995000       0.32677000       0.31286000 </v>
   <v>       0.74995000       0.67323000       0.31286000 </v>
   <v>       0.25005000       0.32677000       0.56286000 </v>
   <v>       0.00005000       0.67323000       0.56286000 </v>
   <v>       0.49995000       0.32677000       0.81286000 </v>
   <v>       0.24995000       0.67323000       0.81286000 </v>
   <v>       0.75005000       0.32677000       0.56286000 </v>
   <v>       0.50005000       0.67323000       0.56286000 </v>
   <v>       0.99995000       0.32677000       0.81286000 </v>
   <v>       0.74995000       0.67323000       0.81286000 </v>
   <v>       0.49987000       0.07798000       0.06246000 </v>
   <v>       0.24987000       0.92202000       0.06246000 </v>
   <v>       0.25013000       0.07798000       0.31246000 </v>
   <v>       0.00013000       0.92202000       0.31246000 </v>
   <v>       0.99987000       0.07798000       0.06246000 </v>
   <v>       0.74987000       0.92202000       0.06246000 </v>
   <v>       0.75013000       0.07798000       0.31246000 </v>
   <v>       0.50013000       0.92202000       0.31246000 </v>
   <v>       0.49987000       0.07798000       0.56246000 </v>
   <v>       0.24987000       0.92202000       0.56246000 </v>
   <v>       0.25013000       0.07798000       0.81246000 </v>
   <v>       0.00013000       0.92202000       0.81246000 </v>
   <v>       0.99987000       0.07798000       0.56246000 </v>
   <v>       0.74987000       0.92202000       0.56246000 </v>
   <v>       0.75013000       0.07798000       0.81246000 </v>
   <v>       0.50013000       0.92202000       0.81246000 </v>
  </varray>
 </structure>
 <calculation>
  <scstep>
   <time name="dav">   59.36   59.34</time>
   <time name="total">   59.44   59.43</time>
   <energy>
    <i name="alphaZ">   1073.51873187 </i>
    <i name="ewald"> -30886.38488844 </i>
    <i name="hartreedc"> -12703.06710032 </i>
    <i name="XCdc">   1394.96300041 </i>
    <i name="pawpsdc">  36823.70205594 </i>
    <i name="pawaedc"> -36326.52930246 </i>
    <i name="eentropy">      0.00000000 </i>
    <i name="bandstr">   1807.77417755 </i>
    <i name="atom">  44791.06186932 </i>
    <i name="e_fr_energy">   5975.03854388 </i>
    <i name="e_wo_entrp">   5975.03854388 </i>
    <i name="e_0_energy">   5975.03854388 </i>
   </energy>
  </scstep>
  <scstep>
   <time name="dav">   60.09   60.07</time>
   <time name="total">   60.10   60.08</time>
   <energy>
    <i name="e_fr_energy">    799.78646597 </i>
    <i name="e_wo_entrp">    799.78646597 </i>
    <i name="e_0_energy">    799.78646597 </i>
   </energy>
  </scstep>
  <scstep>
   <time name="dav">   70.25   70.24</time>
   <time name="total">   70.25   70.24</time>
   <energy>
    <i name="e_fr_energy">   -246.08553742 </i>
    <i name="e_wo_entrp">   -246.08553742 </i>
    <i name="e_0_energy">   -246.08553742 </i>
   </energy>
  </scstep>
  <scstep>
   <time name="dav">   73.14   73.13</time>
   <time name="total">   73.14   73.13</time>
   <energy>
    <i name="e_fr_energy">   -346.28442196 </i>
    <i name="e_wo_entrp">   -346.28442196 </i>
    <i name="e_0_energy">   -346.28442196 </i>
   </energy>
  </scstep>
  <scstep>
   <time name="dav">   95.94   95.93</time>
   <time name="total">   96.67   96.66</time>
   <energy>
    <i name="e_fr_energy">   -355.08350108 </i>
    <i name="e_wo_entrp">   -355.08350108 </i>
    <i name="e_0_energy">   -355.08350108 </i>
   </energy>
  </scstep>
  <scstep>
   <time name="dav">   84.05   84.02</time>
   <time name="total">   84.85   84.82</time>
   <energy>
    <i name="e_fr_energy">   -296.56532595 </i>
    <i name="e_wo_entrp">   -296.56532595 </i>
    <i name="e_0_energy">   -296.56532595 </i>
   </energy>
  </scstep>
  <scstep>
   <time name="dav">   65.00   64.99</time>
   <time name="total">   65.80   65.78</time>
   <energy>
    <i name="e_fr_energy">   -299.38664086 </i>
    <i name="e_wo_entrp">   -299.38664086 </i>
    <i name="e_0_energy">   -299.38664086 </i>
   </energy>
  </scstep>
  <scstep>
   <time name="dav">   80.88   80.85</time>
   <time name="total">   81.67   81.65</time>
   <energy>
    <i name="e_fr_energy">   -298.15493624 </i>
    <i name="e_wo_entrp">   -298.15493624 </i>
    <i name="e_0_energy">   -298.15493624 </i>
   </energy>
  </scstep>
  <scstep>
   <time name="dav">   83.20   83.17</time>
   <time name="total">   84.00   83.97</time>
   <energy>
    <i name="e_fr_energy">   -297.52737787 </i>
    <i name="e_wo_entrp">   -297.52737787 </i>
    <i name="e_0_energy">   -297.52737787 </i>
   </energy>
  </scstep>
  <scstep>
   <time name="dav">   71.62   71.62</time>
   <time name="total">   72.42   72.42</time>
   <energy>
    <i name="e_fr_energy">   -297.52545944 </i>
    <i name="e_wo_entrp">   -297.52545944 </i>
    <i name="e_0_energy">   -297.52545944 </i>
   </energy>
  </scstep>
  <scstep>
   <time name="dav">   75.07   75.05</time>
   <time name="total">   75.86   75.85</time>
   <energy>
    <i name="e_fr_energy">   -297.53686389 </i>
    <i name="e_wo_entrp">   -297.53686389 </i>
    <i name="e_0_energy">   -297.53686389 </i>
   </energy>
  </scstep>
  <scstep>
   <time name="dav">   84.84   84.82</time>
   <time name="total">   85.63   85.62</time>
   <energy>
    <i name="e_fr_energy">   -297.54026753 </i>
    <i name="e_wo_entrp">   -297.54026753 </i>
    <i name="e_0_energy">   -297.54026753 </i>
   </energy>
  </scstep>
  <scstep>
   <time name="dav">   72.17   72.15</time>
   <time name="total">   72.97   72.96</time>
   <energy>
    <i name="e_fr_energy">   -297.54150867 </i>
    <i name="e_wo_entrp">   -297.54150867 </i>
    <i name="e_0_energy">   -297.54150867 </i>
   </energy>
  </scstep>
  <scstep>
   <time name="dav">   69.54   69.52</time>
   <time name="total">   70.35   70.33</time>
   <energy>
    <i name="e_fr_energy">   -297.54175500 </i>
    <i name="e_wo_entrp">   -297.54175500 </i>
    <i name="e_0_energy">   -297.54175500 </i>
   </energy>
  </scstep>
  <scstep>
   <time name="dav">   83.61   83.70</time>
   <time name="total">   84.41   84.50</time>
   <energy>
    <i name="e_fr_energy">   -297.54178980 </i>
    <i name="e_wo_entrp">   -297.54178980 </i>
    <i name="e_0_energy">   -297.54178980 </i>
   </energy>
  </scstep>
  <scstep>
   <time name="dav">   63.77   63.80</time>
   <time name="total">   64.57   64.60</time>
   <energy>
    <i name="e_fr_energy">   -297.54180963 </i>
    <i name="e_wo_entrp">   -297.54180963 </i>
    <i name="e_0_energy">   -297.54180963 </i>
   </energy>
  </scstep>
  <scstep>
   <time name="dav">   65.59   65.63</time>
   <time name="total">   66.39   66.43</time>
   <energy>
    <i name="e_fr_energy">   -297.54181113 </i>
    <i name="e_wo_entrp">   -297.54181113 </i>
    <i name="e_0_energy">   -297.54181113 </i>
   </energy>
  </scstep>
  <scstep>
   <time name="dav">   64.07   64.14</time>
   <time name="total">   64.15   64.21</time>
   <energy>
    <i name="alphaZ">   1073.51873187 </i>
    <i name="ewald"> -30886.38488844 </i>
    <i name="hartreedc"> -12939.93181704 </i>
    <i name="XCdc">   1418.55997517 </i>
    <i name="pawpsdc">  43848.17937866 </i>
    <i name="pawaedc"> -43325.62666421 </i>
    <i name="eentropy">      0.00000000 </i>
    <i name="bandstr">  -4276.91839697 </i>
    <i name="atom">  44791.06186932 </i>
    <i name="e_fr_energy">   -297.54181164 </i>
    <i name="e_wo_entrp">   -297.54181164 </i>
    <i name="e_0_energy">   -297.54181164 </i>
   </energy>
  </scstep>
  <structure>
   <crystal>
    <varray name="basis" >
     <v>      11.17850000       0.00000000       0.00000000 </v>
     <v>       0.00000000       9.57460000       0.00000000 </v>
     <v>       0.00000000       0.00000000      11.18240000 </v>
    </varray>
    <i name="volume">   1196.84853820 </i>
    <varray name="rec_basis" >
     <v>       0.08945744       0.00000000       0.00000000 </v>
     <v>       0.00000000       0.10444301       0.00000000 </v>
     <v>       0.00000000       0.00000000       0.08942624 </v>
    </varray>
   </crystal>
   <varray name="positions" >
    <v>       0.37539000       0.00017000       0.43687000 </v>
    <v>       0.37461000       0.00017000       0.18687000 </v>
    <v>       0.87539000       0.00017000       0.43687000 </v>
    <v>       0.87461000       0.00017000       0.18687000 </v>
    <v>       0.37539000       0.00017000       0.93687000 </v>
    <v>       0.37461000       0.00017000       0.68687000 </v>
    <v>       0.62539000       0.99984000       0.93687000 </v>
    <v>       0.87539000       0.00017000       0.93687000 </v>
    <v>       0.62461000       0.99984000       0.68687000 </v>
    <v>       0.87461000       0.00017000       0.68687000 </v>
    <v>       0.12461000       0.99984000       0.18687000 </v>
    <v>       0.62461000       0.99984000       0.18687000 </v>
    <v>       0.12461000       0.99984000       0.68687000 </v>
    <v>       0.00013000       0.29519000       0.06281000 </v>
    <v>       0.25013000       0.70481000       0.06281000 </v>
    <v>       0.24987000       0.29519000       0.31282000 </v>
    <v>       0.49987000       0.70481000       0.31282000 </v>
    <v>       0.50013000       0.29519000       0.06281000 </v>
    <v>       0.75013000       0.70481000       0.06281000 </v>
    <v>       0.74987000       0.29519000       0.31282000 </v>
    <v>       0.99987000       0.70481000       0.31282000 </v>
    <v>       0.00013000       0.29519000       0.56281000 </v>
    <v>       0.25013000       0.70481000       0.56281000 </v>
    <v>       0.24987000       0.29519000       0.81282000 </v>
    <v>       0.49987000       0.70481000       0.81282000 </v>
    <v>       0.50013000       0.29519000       0.56281000 </v>
    <v>       0.75013000       0.70481000       0.56281000 </v>
    <v>       0.74987000       0.29519000       0.81282000 </v>
    <v>       0.99987000       0.70481000       0.81282000 </v>
    <v>       0.25005000       0.32677000       0.06286000 </v>
    <v>       0.00005000       0.67323000       0.06286000 </v>
    <v>       0.49995000       0.32677000       0.31286000 </v>
    <v>       0.24995000       0.67323000       0.31286000 </v>
    <v>       0.75005000       0.32677000       0.06286000 </v>
    <v>       0.50005000       0.67323000       0.06286000 </v>
    <v>       0.99995000       0.32677000       0.31286000 </v>
    <v>       0.74995000       0.67323000       0.31286000 </v>
    <v>       0.25005000       0.32677000       0.56286000 </v>
    <v>       0.00005000       0.67323000       0.56286000 </v>
    <v>       0.49995000       0.32677000       0.81286000 </v>
    <v>       0.24995000       0.67323000       0.81286000 </v>
    <v>       0.75005000       0.32677000       0.56286000 </v>
    <v>       0.50005000       0.67323000       0.56286000 </v>
    <v>       0.99995000       0.32677000       0.81286000 </v>
    <v>       0.74995000       0.67323000       0.81286000 </v>
    <v>       0.49987000       0.07798000       0.06246000 </v>
    <v>       0.24987000       0.92202000       0.06246000 </v>
    <v>       0.25013000       0.07798000       0.31246000 </v>
    <v>       0.00013000       0.92202000       0.31246000 </v>
    <v>       0.99987000       0.07798000       0.06246000 </v>
    <v>       0.74987000       0.92202000       0.06246000 </v>
    <v>       0.75013000       0.07798000       0.31246000 </v>
    <v>       0.50013000       0.92202000       0.31246000 </v>
    <v>       0.49987000       0.07798000       0.56246000 </v>
    <v>       0.24987000       0.92202000       0.56246000 </v>
    <v>       0.25013000       0.07798000       0.81246000 </v>
    <v>       0.00013000       0.92202000       0.81246000 </v>
    <v>       0.99987000       0.07798000       0.56246000 </v>
    <v>       0.74987000       0.92202000       0.56246000 </v>
    <v>       0.75013000       0.07798000       0.81246000 </v>
    <v>       0.50013000       0.92202000       0.81246000 </v>
   </varray>
  </structure>
  <varray name="forces" >
   <v>       0.07174823       0.06453412       0.12365493 </v>
   <v>      -0.16856823      -0.06463934       0.20664621 </v>
   <v>      -0.08517679      -0.06708990       0.12444308 </v>
   <v>       0.17380200       0.06457197       0.21094550 </v>
   <v>      -0.44153668      -0.06777165      -0.12154692 </v>
   <v>       0.30350183       0.06189486      -0.18503618 </v>
   <v>      -0.00712959       0.00015553      -0.52394561 </v>
   <v>       0.42869686       0.06590630      -0.12227152 </v>
   <v>       0.00970401       0.00005941      -0.52316718 </v>
   <v>      -0.29805230      -0.06348250      -0.18908830 </v>
   <v>       0.02790319       0.00373844       0.09191545 </v>
   <v>       0.02377842       0.00386864       1.10651042 </v>
   <v>       0.02772317       0.00349130      -0.02804502 </v>
   <v>       0.07989844       0.01738551      -0.19424406 </v>
   <v>      -0.09101353      -0.00779795      -0.19402079 </v>
   <v>      -0.03974309      -0.02021504       0.32140818 </v>
   <v>       0.05904965       0.00468205       0.42630648 </v>
   <v>      -0.13370140       1.06368650      -0.09781831 </v>
   <v>       0.12221288      -1.06181794      -0.09659997 </v>
   <v>      -0.04838096      -0.01324839       0.42557746 </v>
   <v>       0.05248926       0.01140811       0.32214754 </v>
   <v>      -0.02305512      -0.01635283      -0.17296683 </v>
   <v>       0.01212658       0.02591866      -0.17197888 </v>
   <v>      -0.01816035      -0.04883424       0.02482834 </v>
   <v>       0.02096404      -0.02549208      -0.26940530 </v>
   <v>       0.15956866      -1.01352484      -0.07715374 </v>
   <v>      -0.17500640       1.01889149      -0.07772812 </v>
   <v>      -0.01039289       0.02707462      -0.26896274 </v>
   <v>       0.03164746       0.03933945       0.02456113 </v>
   <v>       0.05396324       0.10632838       0.05598620 </v>
   <v>      -0.05623228      -0.10498001       0.05657300 </v>
   <v>       0.04261047       0.12073619      -0.31690207 </v>
   <v>      -0.02831379      -0.14469726      -0.13480236 </v>
   <v>      -0.13678665       0.10609536       0.03304027 </v>
   <v>       0.13713405      -0.10519891       0.03478048 </v>
   <v>       0.02934740       0.14348737      -0.13448208 </v>
   <v>      -0.04056139      -0.12125140      -0.31807002 </v>
   <v>      -0.13107234       0.18129591       0.05393407 </v>
   <v>       0.12960942      -0.18049491       0.05460545 </v>
   <v>       0.01553541       0.19050762       0.26744885 </v>
   <v>      -0.01807052      -0.14379111       0.02194875 </v>
   <v>       0.10639871       0.19956629       0.01790961 </v>
   <v>      -0.10684873      -0.19975374       0.01671238 </v>
   <v>       0.01819005       0.14239261       0.02204981 </v>
   <v>      -0.01276916      -0.19089409       0.26819410 </v>
   <v>       0.56648051      -0.84820986       0.45867562 </v>
   <v>       0.22599213       0.00552567       1.08096435 </v>
   <v>       0.12274335       0.04429014      -1.19316551 </v>
   <v>      -0.14815340      -0.04356233      -1.18440681 </v>
   <v>      -0.22472177      -0.00910196       1.07783484 </v>
   <v>      -0.56081258       0.84900535       0.46068568 </v>
   <v>       0.08656884      -0.00211350      -1.33582648 </v>
   <v>      -0.11113452       0.00200810      -1.32708109 </v>
   <v>      -0.65064490       0.83797124       0.61249376 </v>
   <v>       0.07523780      -0.10604982       1.10710955 </v>
   <v>       0.13317533       0.06636258      -1.02386313 </v>
   <v>      -0.15963658      -0.06482682      -1.01503084 </v>
   <v>      -0.07329636       0.10317437       1.10461241 </v>
   <v>       0.66048036      -0.83967741       0.61305484 </v>
   <v>      -0.01299927      -0.02619381       0.23498909 </v>
   <v>       0.00368983       0.02570951       0.23506205 </v>
  </varray>
  <varray name="stress" >
   <v>      -5.65034136      -0.35346516      -0.07386395 </v>
   <v>      -0.35346527     -14.23353678      -0.05046783 </v>
   <v>      -0.07386422      -0.05046794     -13.40419815 </v>
  </varray>
  <energy>
   <i name="e_fr_energy">   -312.09300261 </i>
   <i name="e_wo_entrp">   -312.09300261 </i>
   <i name="e_0_energy">      0.00000000 </i>
  </energy>
  <time name="totalsc"> 1439.83 1440.08</time>
  <eigenvalues>
   <array>
    <dimension dim="1">band</dimension>
    <dimension dim="2">kpoint</dimension>
    <dimension dim="3">spin</dimension>
    <field>eigene</field>
    <field>occ</field>
    <set>
     <set comment="spin 1">
      <set comment="kpoint 1">
       <r>  -40.2261    1.0000 </r>
       <r>  -40.0980    1.0000 </r>
       <r>  -40.0955    1.0000 </r>
       <r>  -39.9692    1.0000 </r>
       <r>  -39.9672    1.0000 </r>
       <r>  -39.6337    1.0000 </r>
       <r>  -39.6310    1.0000 </r>
       <r>  -39.5245    1.0000 </r>
       <r>  -39.5219    1.0000 </r>
       <r>  -39.4010    1.0000 </r>
       <r>  -18.9279    1.0000 </r>
       <r>  -18.9268    1.0000 </r>
       <r>  -18.8565    1.0000 </r>
       <r>  -18.8558    1.0000 </r>
       <r>  -18.8495    1.0000 </r>
       <r>  -18.8488    1.0000 </r>
       <r>  -18.7538    1.0000 </r>
       <r>  -18.7524    1.0000 </r>
       <r>  -18.7405    1.0000 </r>
       <r>  -18.7396    1.0000 </r>
       <r>  -18.7128    1.0000 </r>
       <r>  -18.7098    1.0000 </r>
       <r>  -18.7029    1.0000 </r>
       <r>  -18.6999    1.0000 </r>
       <r>  -18.6960    1.0000 </r>
       <r>  -18.6922    1.0000 </r>
       <r>  -18.6466    1.0000 </r>
       <r>  -18.6451    1.0000 </r>
       <r>  -18.6405    1.0000 </r>
       <r>  -18.6385    1.0000 </r>
       <r>  -18.6381    1.0000 </r>
       <r>  -18.6366    1.0000 </r>
       <r>  -18.6357    1.0000 </r>
       <r>  -18.6355    1.0000 </r>
       <r>  -18.6310    1.0000 </r>
       <r>  -18.6299    1.0000 </r>
       <r>  -18.6293    1.0000 </r>
       <r>  -18.6286    1.0000 </r>
       <r>  -18.6277    1.0000 </r>
       <r>  -18.6271    1.0000 </r>
       <r>  -18.6257    1.0000 </r>
       <r>  -18.6255    1.0000 </r>
       <r>  -18.6235    1.0000 </r>
       <r>  -18.6225    1.0000 </r>
       <r>  -18.6207    1.0000 </r>
       <r>  -18.6199    1.0000 </r>
       <r>  -18.6162    1.0000 </r>
       <r>  -18.6156    1.0000 </r>
       <r>  -18.6114    1.0000 </r>
       <r>  -18.6081    1.0000 </r>
       <r>  -18.5637    1.0000 </r>
       <r>  -18.5604    1.0000 </r>
       <r>  -18.5569    1.0000 </r>
       <r>  -18.5531    1.0000 </r>
       <r>  -18.5505    1.0000 </r>
       <r>  -18.5475    1.0000 </r>
       <r>  -18.5408    1.0000 </r>
       <r>  -18.5390    1.0000 </r>
       <r>  -18.5369    1.0000 </r>
       <r>  -18.5353    1.0000 </r>
       <r>  -18.4919    1.0000 </r>
       <r>  -18.4895    1.0000 </r>
       <r>  -18.4841    1.0000 </r>
       <r>  -18.4808    1.0000 </r>
       <r>  -18.4767    1.0000 </r>
       <r>  -18.4744    1.0000 </r>
       <r>  -18.4740    1.0000 </r>
       <r>  -18.4709    1.0000 </r>
       <r>  -18.4707    1.0000 </r>
       <r>  -18.4705    1.0000 </r>
       <r>  -18.4703    1.0000 </r>
       <r>  -18.4701    1.0000 </r>
       <r>  -18.4691    1.0000 </r>
       <r>  -18.4669    1.0000 </r>
       <r>  -18.4588    1.0000 </r>
       <r>  -18.4555    1.0000 </r>
       <r>  -18.4073    1.0000 </r>
       <r>  -18.4034    1.0000 </r>
       <r>  -18.3930    1.0000 </r>
       <r>  -18.3910    1.0000 </r>
       <r>  -18.3892    1.0000 </r>
       <r>  -18.3853    1.0000 </r>
       <r>  -18.3800    1.0000 </r>
       <r>  -18.3780    1.0000 </r>
       <r>  -18.3015    1.0000 </r>
       <r>  -18.2991    1.0000 </r>
       <r>  -18.1865    1.0000 </r>
       <r>  -18.1841    1.0000 </r>
       <r>  -18.1726    1.0000 </r>
       <r>  -18.1701    1.0000 </r>
       <r>  -13.5661    1.0000 </r>
       <r>  -13.4580    1.0000 </r>
       <r>  -12.9152    1.0000 </r>
       <r>  -12.7774    1.0000 </r>
       <r>  -12.7727    1.0000 </r>
       <r>  -12.7666    1.0000 </r>
       <r>  -12.7069    1.0000 </r>
       <r>  -12.6921    1.0000 </r>
       <r>  -12.6732    1.0000 </r>
       <r>  -12.6615    1.0000 </r>
       <r>  -12.6424    1.0000 </r>
       <r>  -12.6025    1.0000 </r>
       <r>  -12.5886    1.0000 </r>
       <r>  -12.5594    1.0000 </r>
       <r>  -11.9617    1.0000 </r>
       <r>  -11.9086    1.0000 </r>
       <r>   -9.3190    1.0000 </r>
       <r>   -9.0244    1.0000 </r>
       <r>   -8.5265    1.0000 </r>
       <r>   -8.4908    1.0000 </r>
       <r>   -8.4769    1.0000 </r>
       <r>   -8.4354    1.0000 </r>
       <r>   -8.3042    1.0000 </r>
       <r>   -8.2705    1.0000 </r>
       <r>   -8.2504    1.0000 </r>
       <r>   -8.2117    1.0000 </r>
       <r>   -8.0195    1.0000 </r>
       <r>   -8.0180    1.0000 </r>
       <r>   -7.9847    1.0000 </r>
       <r>   -7.9840    1.0000 </r>
       <r>   -7.3480    1.0000 </r>
       <r>   -7.3472    1.0000 </r>
       <r>   -6.3671    1.0000 </r>
       <r>   -6.3618    1.0000 </r>
       <r>   -6.3318    1.0000 </r>
       <r>   -6.3296    1.0000 </r>
       <r>   -5.5212    1.0000 </r>
       <r>   -5.4849    1.0000 </r>
       <r>   -5.3557    1.0000 </r>
       <r>   -5.3287    1.0000 </r>
       <r>   -5.3280    1.0000 </r>
       <r>   -5.2420    1.0000 </r>
       <r>   -5.2047    1.0000 </r>
       <r>   -5.1579    1.0000 </r>
       <r>   -5.1135    1.0000 </r>
       <r>   -5.0515    1.0000 </r>
       <r>   -3.7987    1.0000 </r>
       <r>   -3.6458    1.0000 </r>
       <r>   -1.4282    1.0000 </r>
       <r>   -1.3033    1.0000 </r>
       <r>   -1.0899    1.0000 </r>
       <r>   -0.9949    1.0000 </r>
       <r>   -0.5675    1.0000 </r>
       <r>   -0.4826    1.0000 </r>
       <r>   -0.4620    1.0000 </r>
       <r>   -0.4459    1.0000 </r>
       <r>   -0.1823    1.0000 </r>
       <r>   -0.1522    1.0000 </r>
       <r>   -0.1438    1.0000 </r>
       <r>   -0.1259    1.0000 </r>
       <r>    0.0154    1.0000 </r>
       <r>    0.2715    1.0000 </r>
       <r>    0.3103    1.0000 </r>
       <r>    0.4864    1.0000 </r>
       <r>    0.4974    1.0000 </r>
       <r>    0.5852    1.0000 </r>
       <r>    0.6131    1.0000 </r>
       <r>    0.7058    1.0000 </r>
       <r>    0.7200    1.0000 </r>
       <r>    0.7325    1.0000 </r>
       <r>    0.7411    1.0000 </r>
       <r>    0.7919    1.0000 </r>
       <r>    0.8039    1.0000 </r>
       <r>    0.8914    1.0000 </r>
       <r>    0.9416    1.0000 </r>
       <r>    0.9852    1.0000 </r>
       <r>    1.0032    1.0000 </r>
       <r>    1.0074    1.0000 </r>
       <r>    1.0435    1.0000 </r>
       <r>    1.0661    1.0000 </r>
       <r>    1.1345    1.0000 </r>
       <r>    1.1774    1.0000 </r>
       <r>    1.2457    1.0000 </r>
       <r>    1.2721    1.0000 </r>
       <r>    1.3300    1.0000 </r>
       <r>    1.3638    1.0000 </r>
       <r>    1.4331    1.0000 </r>
       <r>    1.4719    1.0000 </r>
       <r>    1.5227    1.0000 </r>
       <r>    1.5232    1.0000 </r>
       <r>    1.6675    1.0000 </r>
       <r>    1.6942    1.0000 </r>
       <r>    1.7278    1.0000 </r>
       <r>    1.7495    1.0000 </r>
       <r>    1.7676    1.0000 </r>
       <r>    1.8226    1.0000 </r>
       <r>    1.8580    1.0000 </r>
       <r>    1.9003    1.0000 </r>
       <r>    1.9487    1.0000 </r>
       <r>    1.9515    1.0000 </r>
       <r>    2.0324    1.0000 </r>
       <r>    2.1400    1.0000 </r>
       <r>    2.2140    1.0000 </r>
       <r>    2.2676    1.0000 </r>
       <r>    2.3674    1.0000 </r>
       <r>    2.3852    1.0000 </r>
       <r>    2.5650    1.0000 </r>
       <r>    2.5753    1.0000 </r>
       <r>    2.5791    1.0000 </r>
       <r>    2.5878    1.0000 </r>
       <r>    2.6096    1.0000 </r>
       <r>    2.6285    1.0000 </r>
       <r>    2.6353    1.0000 </r>
       <r>    2.6579    1.0000 </r>
       <r>    2.6929    1.0000 </r>
       <r>    2.6962    1.0000 </r>
       <r>    2.7437    1.0000 </r>
       <r>    2.7810    1.0000 </r>
       <r>    2.8257    1.0000 </r>
       <r>    2.8375    1.0000 </r>
       <r>    2.8580    1.0000 </r>
       <r>    2.9226    1.0000 </r>
       <r>    2.9314    1.0000 </r>
       <r>    2.9752    1.0000 </r>
       <r>    2.9759    1.0000 </r>
       <r>    2.9854    1.0000 </r>
       <r>    3.0675    1.0000 </r>
       <r>    3.1138    1.0000 </r>
       <r>    3.1354    1.0000 </r>
       <r>    3.1497    1.0000 </r>
       <r>    3.1556    1.0000 </r>
       <r>    3.1867    1.0000 </r>
       <r>    3.1977    1.0000 </r>
       <r>    3.2305    1.0000 </r>
       <r>    3.3045    1.0000 </r>
       <r>    3.3146    1.0000 </r>
       <r>    3.4244    1.0000 </r>
       <r>    3.4450    1.0000 </r>
       <r>    3.4487    1.0000 </r>
       <r>    3.5865    1.0000 </r>
       <r>    4.1925    1.0000 </r>
       <r>    4.2003    1.0000 </r>
       <r>    4.2302    1.0000 </r>
       <r>    4.2409    1.0000 </r>
       <r>    5.0610    0.0000 </r>
       <r>    5.0634    0.0000 </r>
       <r>    5.1657    0.0000 </r>
       <r>    5.1877    0.0000 </r>
       <r>    5.7500    0.0000 </r>
       <r>    5.7548    0.0000 </r>
       <r>    5.8200    0.0000 </r>
       <r>    5.8307    0.0000 </r>
       <r>    6.1036    0.0000 </r>
       <r>    6.1208    0.0000 </r>
       <r>    6.1492    0.0000 </r>
       <r>    6.1554    0.0000 </r>
       <r>    6.2411    0.0000 </r>
       <r>    6.2501    0.0000 </r>
       <r>    6.2725    0.0000 </r>
       <r>    6.2800    0.0000 </r>
       <r>    7.0802    0.0000 </r>
       <r>    7.2044    0.0000 </r>
       <r>    7.3166    0.0000 </r>
       <r>    7.3344    0.0000 </r>
       <r>    7.8141    0.0000 </r>
       <r>    7.8412    0.0000 </r>
       <r>    7.9353    0.0000 </r>
       <r>    7.9641    0.0000 </r>
       <r>    7.9953    0.0000 </r>
       <r>    8.0553    0.0000 </r>
       <r>    8.1394    0.0000 </r>
       <r>    8.1893    0.0000 </r>
       <r>    8.3918    0.0000 </r>
       <r>    8.6480    0.0000 </r>
       <r>    8.6803    0.0000 </r>
       <r>    8.7854    0.0000 </r>
       <r>    8.7911    0.0000 </r>
       <r>    8.9106    0.0000 </r>
       <r>    8.9483    0.0000 </r>
       <r>    9.0220    0.0000 </r>
       <r>    9.0413    0.0000 </r>
       <r>    9.0600    0.0000 </r>
       <r>    9.0720    0.0000 </r>
       <r>    9.1118    0.0000 </r>
       <r>    9.1419    0.0000 </r>
       <r>    9.1899    0.0000 </r>
       <r>    9.2047    0.0000 </r>
       <r>    9.2651    0.0000 </r>
       <r>    9.4650    0.0000 </r>
       <r>    9.5276    0.0000 </r>
      </set>
      <set comment="kpoint 2">
       <r>  -40.2261    1.0000 </r>
       <r>  -40.0980    1.0000 </r>
       <r>  -40.0955    1.0000 </r>
       <r>  -39.9692    1.0000 </r>
       <r>  -39.9672    1.0000 </r>
       <r>  -39.6337    1.0000 </r>
       <r>  -39.6310    1.0000 </r>
       <r>  -39.5245    1.0000 </r>
       <r>  -39.5219    1.0000 </r>
       <r>  -39.4010    1.0000 </r>
       <r>  -18.9279    1.0000 </r>
       <r>  -18.9267    1.0000 </r>
       <r>  -18.8565    1.0000 </r>
       <r>  -18.8557    1.0000 </r>
       <r>  -18.8495    1.0000 </r>
       <r>  -18.8488    1.0000 </r>
       <r>  -18.7538    1.0000 </r>
       <r>  -18.7524    1.0000 </r>
       <r>  -18.7405    1.0000 </r>
       <r>  -18.7396    1.0000 </r>
       <r>  -18.7129    1.0000 </r>
       <r>  -18.7099    1.0000 </r>
       <r>  -18.7028    1.0000 </r>
       <r>  -18.6999    1.0000 </r>
       <r>  -18.6959    1.0000 </r>
       <r>  -18.6922    1.0000 </r>
       <r>  -18.6461    1.0000 </r>
       <r>  -18.6446    1.0000 </r>
       <r>  -18.6405    1.0000 </r>
       <r>  -18.6390    1.0000 </r>
       <r>  -18.6381    1.0000 </r>
       <r>  -18.6371    1.0000 </r>
       <r>  -18.6349    1.0000 </r>
       <r>  -18.6347    1.0000 </r>
       <r>  -18.6314    1.0000 </r>
       <r>  -18.6304    1.0000 </r>
       <r>  -18.6298    1.0000 </r>
       <r>  -18.6289    1.0000 </r>
       <r>  -18.6280    1.0000 </r>
       <r>  -18.6276    1.0000 </r>
       <r>  -18.6264    1.0000 </r>
       <r>  -18.6260    1.0000 </r>
       <r>  -18.6229    1.0000 </r>
       <r>  -18.6222    1.0000 </r>
       <r>  -18.6203    1.0000 </r>
       <r>  -18.6198    1.0000 </r>
       <r>  -18.6157    1.0000 </r>
       <r>  -18.6155    1.0000 </r>
       <r>  -18.6114    1.0000 </r>
       <r>  -18.6081    1.0000 </r>
       <r>  -18.5636    1.0000 </r>
       <r>  -18.5603    1.0000 </r>
       <r>  -18.5569    1.0000 </r>
       <r>  -18.5531    1.0000 </r>
       <r>  -18.5506    1.0000 </r>
       <r>  -18.5475    1.0000 </r>
       <r>  -18.5408    1.0000 </r>
       <r>  -18.5390    1.0000 </r>
       <r>  -18.5369    1.0000 </r>
       <r>  -18.5353    1.0000 </r>
       <r>  -18.4919    1.0000 </r>
       <r>  -18.4895    1.0000 </r>
       <r>  -18.4841    1.0000 </r>
       <r>  -18.4808    1.0000 </r>
       <r>  -18.4767    1.0000 </r>
       <r>  -18.4744    1.0000 </r>
       <r>  -18.4740    1.0000 </r>
       <r>  -18.4710    1.0000 </r>
       <r>  -18.4707    1.0000 </r>
       <r>  -18.4704    1.0000 </r>
       <r>  -18.4703    1.0000 </r>
       <r>  -18.4701    1.0000 </r>
       <r>  -18.4692    1.0000 </r>
       <r>  -18.4669    1.0000 </r>
       <r>  -18.4588    1.0000 </r>
       <r>  -18.4555    1.0000 </r>
       <r>  -18.4073    1.0000 </r>
       <r>  -18.4034    1.0000 </r>
       <r>  -18.3930    1.0000 </r>
       <r>  -18.3911    1.0000 </r>
       <r>  -18.3892    1.0000 </r>
       <r>  -18.3853    1.0000 </r>
       <r>  -18.3800    1.0000 </r>
       <r>  -18.3781    1.0000 </r>
       <r>  -18.3015    1.0000 </r>
       <r>  -18.2991    1.0000 </r>
       <r>  -18.1865    1.0000 </r>
       <r>  -18.1841    1.0000 </r>
       <r>  -18.1726    1.0000 </r>
       <r>  -18.1701    1.0000 </r>
       <r>  -13.5653    1.0000 </r>
       <r>  -13.4588    1.0000 </r>
       <r>  -12.9129    1.0000 </r>
       <r>  -12.7872    1.0000 </r>
       <r>  -12.7646    1.0000 </r>
       <r>  -12.7507    1.0000 </r>
       <r>  -12.7310    1.0000 </r>
       <r>  -12.7075    1.0000 </r>
       <r>  -12.6672    1.0000 </r>
       <r>  -12.6500    1.0000 </r>
       <r>  -12.6215    1.0000 </r>
       <r>  -12.6165    1.0000 </r>
       <r>  -12.5886    1.0000 </r>
       <r>  -12.5608    1.0000 </r>
       <r>  -11.9621    1.0000 </r>
       <r>  -11.9082    1.0000 </r>
       <r>   -9.1142    1.0000 </r>
       <r>   -9.0979    1.0000 </r>
       <r>   -8.8407    1.0000 </r>
       <r>   -8.8211    1.0000 </r>
       <r>   -8.3166    1.0000 </r>
       <r>   -8.3132    1.0000 </r>
       <r>   -8.3038    1.0000 </r>
       <r>   -8.3014    1.0000 </r>
       <r>   -8.1280    1.0000 </r>
       <r>   -8.1253    1.0000 </r>
       <r>   -8.1179    1.0000 </r>
       <r>   -8.1165    1.0000 </r>
       <r>   -7.6808    1.0000 </r>
       <r>   -7.6802    1.0000 </r>
       <r>   -7.5712    1.0000 </r>
       <r>   -7.5698    1.0000 </r>
       <r>   -5.9750    1.0000 </r>
       <r>   -5.9369    1.0000 </r>
       <r>   -5.8807    1.0000 </r>
       <r>   -5.8761    1.0000 </r>
       <r>   -5.8426    1.0000 </r>
       <r>   -5.7661    1.0000 </r>
       <r>   -5.7296    1.0000 </r>
       <r>   -5.7273    1.0000 </r>
       <r>   -5.6299    1.0000 </r>
       <r>   -5.5815    1.0000 </r>
       <r>   -5.4940    1.0000 </r>
       <r>   -5.4804    1.0000 </r>
       <r>   -4.4214    1.0000 </r>
       <r>   -4.4074    1.0000 </r>
       <r>   -4.2553    1.0000 </r>
       <r>   -4.2376    1.0000 </r>
       <r>   -1.1316    1.0000 </r>
       <r>   -1.1220    1.0000 </r>
       <r>   -0.8033    1.0000 </r>
       <r>   -0.7912    1.0000 </r>
       <r>   -0.4346    1.0000 </r>
       <r>   -0.3204    1.0000 </r>
       <r>    0.0182    1.0000 </r>
       <r>    0.0654    1.0000 </r>
       <r>    0.0748    1.0000 </r>
       <r>    0.1239    1.0000 </r>
       <r>    0.1693    1.0000 </r>
       <r>    0.2154    1.0000 </r>
       <r>    0.2639    1.0000 </r>
       <r>    0.2653    1.0000 </r>
       <r>    0.3353    1.0000 </r>
       <r>    0.3391    1.0000 </r>
       <r>    0.5335    1.0000 </r>
       <r>    0.5630    1.0000 </r>
       <r>    0.5822    1.0000 </r>
       <r>    0.5957    1.0000 </r>
       <r>    0.6242    1.0000 </r>
       <r>    0.6338    1.0000 </r>
       <r>    0.6964    1.0000 </r>
       <r>    0.7258    1.0000 </r>
       <r>    0.7851    1.0000 </r>
       <r>    0.8348    1.0000 </r>
       <r>    0.8846    1.0000 </r>
       <r>    0.8976    1.0000 </r>
       <r>    0.9818    1.0000 </r>
       <r>    0.9881    1.0000 </r>
       <r>    1.0727    1.0000 </r>
       <r>    1.1598    1.0000 </r>
       <r>    1.1864    1.0000 </r>
       <r>    1.2156    1.0000 </r>
       <r>    1.2747    1.0000 </r>
       <r>    1.2902    1.0000 </r>
       <r>    1.3253    1.0000 </r>
       <r>    1.3456    1.0000 </r>
       <r>    1.3846    1.0000 </r>
       <r>    1.3965    1.0000 </r>
       <r>    1.4731    1.0000 </r>
       <r>    1.4823    1.0000 </r>
       <r>    1.5258    1.0000 </r>
       <r>    1.6045    1.0000 </r>
       <r>    1.6239    1.0000 </r>
       <r>    1.6951    1.0000 </r>
       <r>    1.7880    1.0000 </r>
       <r>    1.7916    1.0000 </r>
       <r>    1.8511    1.0000 </r>
       <r>    1.9110    1.0000 </r>
       <r>    1.9128    1.0000 </r>
       <r>    1.9622    1.0000 </r>
       <r>    1.9892    1.0000 </r>
       <r>    2.0205    1.0000 </r>
       <r>    2.0466    1.0000 </r>
       <r>    2.0528    1.0000 </r>
       <r>    2.1295    1.0000 </r>
       <r>    2.1518    1.0000 </r>
       <r>    2.2000    1.0000 </r>
       <r>    2.2538    1.0000 </r>
       <r>    2.3353    1.0000 </r>
       <r>    2.3378    1.0000 </r>
       <r>    2.4312    1.0000 </r>
       <r>    2.4810    1.0000 </r>
       <r>    2.5014    1.0000 </r>
       <r>    2.5514    1.0000 </r>
       <r>    2.6035    1.0000 </r>
       <r>    2.6441    1.0000 </r>
       <r>    2.6499    1.0000 </r>
       <r>    2.6862    1.0000 </r>
       <r>    2.6897    1.0000 </r>
       <r>    2.7461    1.0000 </r>
       <r>    2.7797    1.0000 </r>
       <r>    2.7829    1.0000 </r>
       <r>    2.8280    1.0000 </r>
       <r>    2.8839    1.0000 </r>
       <r>    2.9007    1.0000 </r>
       <r>    2.9337    1.0000 </r>
       <r>    2.9515    1.0000 </r>
       <r>    2.9756    1.0000 </r>
       <r>    3.0593    1.0000 </r>
       <r>    3.1037    1.0000 </r>
       <r>    3.1200    1.0000 </r>
       <r>    3.1464    1.0000 </r>
       <r>    3.1728    1.0000 </r>
       <r>    3.1886    1.0000 </r>
       <r>    3.2835    1.0000 </r>
       <r>    3.2968    1.0000 </r>
       <r>    3.4856    1.0000 </r>
       <r>    3.5131    1.0000 </r>
       <r>    3.5332    1.0000 </r>
       <r>    3.5640    1.0000 </r>
       <r>    3.5829    1.0000 </r>
       <r>    3.6022    1.0000 </r>
       <r>    3.6370    1.0000 </r>
       <r>    3.7759    1.0000 </r>
       <r>    5.6790    0.0000 </r>
       <r>    5.6907    0.0000 </r>
       <r>    5.6972    0.0000 </r>
       <r>    5.7017    0.0000 </r>
       <r>    5.7822    0.0000 </r>
       <r>    5.7845    0.0000 </r>
       <r>    5.7959    0.0000 </r>
       <r>    5.8017    0.0000 </r>
       <r>    7.2341    0.0000 </r>
       <r>    7.2499    0.0000 </r>
       <r>    7.3022    0.0000 </r>
       <r>    7.3410    0.0000 </r>
       <r>    7.3906    0.0000 </r>
       <r>    7.4173    0.0000 </r>
       <r>    7.4427    0.0000 </r>
       <r>    7.4777    0.0000 </r>
       <r>    7.4884    0.0000 </r>
       <r>    7.4960    0.0000 </r>
       <r>    7.5393    0.0000 </r>
       <r>    7.5405    0.0000 </r>
       <r>    7.8585    0.0000 </r>
       <r>    7.8671    0.0000 </r>
       <r>    7.8689    0.0000 </r>
       <r>    7.8803    0.0000 </r>
       <r>    7.8805    0.0000 </r>
       <r>    7.9028    0.0000 </r>
       <r>    7.9570    0.0000 </r>
       <r>    7.9917    0.0000 </r>
       <r>    8.0181    0.0000 </r>
       <r>    8.0208    0.0000 </r>
       <r>    8.0647    0.0000 </r>
       <r>    8.1335    0.0000 </r>
       <r>    8.3203    0.0000 </r>
       <r>    8.3422    0.0000 </r>
       <r>    8.4337    0.0000 </r>
       <r>    8.5498    0.0000 </r>
       <r>    8.6939    0.0000 </r>
       <r>    8.6960    0.0000 </r>
       <r>    8.7729    0.0000 </r>
       <r>    8.7853    0.0000 </r>
       <r>    8.8267    0.0000 </r>
       <r>    8.8404    0.0000 </r>
       <r>    8.9358    0.0000 </r>
       <r>    8.9374    0.0000 </r>
       <r>    9.2002    0.0000 </r>
       <r>    9.2014    0.0000 </r>
      </set>
      <set comment="kpoint 3">
       <r>  -40.2261    1.0000 </r>
       <r>  -40.0980    1.0000 </r>
       <r>  -40.0955    1.0000 </r>
       <r>  -39.9692    1.0000 </r>
       <r>  -39.9672    1.0000 </r>
       <r>  -39.6337    1.0000 </r>
       <r>  -39.6310    1.0000 </r>
       <r>  -39.5245    1.0000 </r>
       <r>  -39.5219    1.0000 </r>
       <r>  -39.4010    1.0000 </r>
       <r>  -18.9283    1.0000 </r>
       <r>  -18.9263    1.0000 </r>
       <r>  -18.8565    1.0000 </r>
       <r>  -18.8558    1.0000 </r>
       <r>  -18.8495    1.0000 </r>
       <r>  -18.8488    1.0000 </r>
       <r>  -18.7538    1.0000 </r>
       <r>  -18.7524    1.0000 </r>
       <r>  -18.7405    1.0000 </r>
       <r>  -18.7396    1.0000 </r>
       <r>  -18.7128    1.0000 </r>
       <r>  -18.7098    1.0000 </r>
       <r>  -18.7028    1.0000 </r>
       <r>  -18.6999    1.0000 </r>
       <r>  -18.6959    1.0000 </r>
       <r>  -18.6923    1.0000 </r>
       <r>  -18.6466    1.0000 </r>
       <r>  -18.6451    1.0000 </r>
       <r>  -18.6405    1.0000 </r>
       <r>  -18.6385    1.0000 </r>
       <r>  -18.6381    1.0000 </r>
       <r>  -18.6366    1.0000 </r>
       <r>  -18.6357    1.0000 </r>
       <r>  -18.6355    1.0000 </r>
       <r>  -18.6310    1.0000 </r>
       <r>  -18.6300    1.0000 </r>
       <r>  -18.6294    1.0000 </r>
       <r>  -18.6285    1.0000 </r>
       <r>  -18.6277    1.0000 </r>
       <r>  -18.6271    1.0000 </r>
       <r>  -18.6257    1.0000 </r>
       <r>  -18.6256    1.0000 </r>
       <r>  -18.6235    1.0000 </r>
       <r>  -18.6225    1.0000 </r>
       <r>  -18.6206    1.0000 </r>
       <r>  -18.6199    1.0000 </r>
       <r>  -18.6164    1.0000 </r>
       <r>  -18.6154    1.0000 </r>
       <r>  -18.6114    1.0000 </r>
       <r>  -18.6081    1.0000 </r>
       <r>  -18.5637    1.0000 </r>
       <r>  -18.5604    1.0000 </r>
       <r>  -18.5569    1.0000 </r>
       <r>  -18.5531    1.0000 </r>
       <r>  -18.5505    1.0000 </r>
       <r>  -18.5475    1.0000 </r>
       <r>  -18.5409    1.0000 </r>
       <r>  -18.5390    1.0000 </r>
       <r>  -18.5368    1.0000 </r>
       <r>  -18.5353    1.0000 </r>
       <r>  -18.4919    1.0000 </r>
       <r>  -18.4895    1.0000 </r>
       <r>  -18.4841    1.0000 </r>
       <r>  -18.4808    1.0000 </r>
       <r>  -18.4767    1.0000 </r>
       <r>  -18.4744    1.0000 </r>
       <r>  -18.4740    1.0000 </r>
       <r>  -18.4709    1.0000 </r>
       <r>  -18.4707    1.0000 </r>
       <r>  -18.4704    1.0000 </r>
       <r>  -18.4703    1.0000 </r>
       <r>  -18.4701    1.0000 </r>
       <r>  -18.4692    1.0000 </r>
       <r>  -18.4669    1.0000 </r>
       <r>  -18.4588    1.0000 </r>
       <r>  -18.4555    1.0000 </r>
       <r>  -18.4073    1.0000 </r>
       <r>  -18.4034    1.0000 </r>
       <r>  -18.3930    1.0000 </r>
       <r>  -18.3911    1.0000 </r>
       <r>  -18.3892    1.0000 </r>
       <r>  -18.3853    1.0000 </r>
       <r>  -18.3800    1.0000 </r>
       <r>  -18.3780    1.0000 </r>
       <r>  -18.3015    1.0000 </r>
       <r>  -18.2990    1.0000 </r>
       <r>  -18.1865    1.0000 </r>
       <r>  -18.1841    1.0000 </r>
       <r>  -18.1726    1.0000 </r>
       <r>  -18.1701    1.0000 </r>
       <r>  -13.5658    1.0000 </r>
       <r>  -13.4582    1.0000 </r>
       <r>  -12.9137    1.0000 </r>
       <r>  -12.7769    1.0000 </r>
       <r>  -12.7721    1.0000 </r>
       <r>  -12.7668    1.0000 </r>
       <r>  -12.7069    1.0000 </r>
       <r>  -12.6922    1.0000 </r>
       <r>  -12.6730    1.0000 </r>
       <r>  -12.6615    1.0000 </r>
       <r>  -12.6440    1.0000 </r>
       <r>  -12.6035    1.0000 </r>
       <r>  -12.5888    1.0000 </r>
       <r>  -12.5602    1.0000 </r>
       <r>  -11.9608    1.0000 </r>
       <r>  -11.9102    1.0000 </r>
       <r>   -9.3092    1.0000 </r>
       <r>   -9.0312    1.0000 </r>
       <r>   -8.5447    1.0000 </r>
       <r>   -8.5086    1.0000 </r>
       <r>   -8.4949    1.0000 </r>
       <r>   -8.4529    1.0000 </r>
       <r>   -8.2838    1.0000 </r>
       <r>   -8.2512    1.0000 </r>
       <r>   -8.2298    1.0000 </r>
       <r>   -8.1922    1.0000 </r>
       <r>   -8.0234    1.0000 </r>
       <r>   -8.0221    1.0000 </r>
       <r>   -7.9879    1.0000 </r>
       <r>   -7.9867    1.0000 </r>
       <r>   -7.3507    1.0000 </r>
       <r>   -7.3501    1.0000 </r>
       <r>   -6.3587    1.0000 </r>
       <r>   -6.3516    1.0000 </r>
       <r>   -6.3221    1.0000 </r>
       <r>   -6.3190    1.0000 </r>
       <r>   -5.5370    1.0000 </r>
       <r>   -5.4706    1.0000 </r>
       <r>   -5.3947    1.0000 </r>
       <r>   -5.3741    1.0000 </r>
       <r>   -5.3686    1.0000 </r>
       <r>   -5.2628    1.0000 </r>
       <r>   -5.1474    1.0000 </r>
       <r>   -5.1020    1.0000 </r>
       <r>   -5.0726    1.0000 </r>
       <r>   -5.0031    1.0000 </r>
       <r>   -3.8718    1.0000 </r>
       <r>   -3.5610    1.0000 </r>
       <r>   -1.3472    1.0000 </r>
       <r>   -1.2634    1.0000 </r>
       <r>   -1.1989    1.0000 </r>
       <r>   -1.0480    1.0000 </r>
       <r>   -0.4239    1.0000 </r>
       <r>   -0.4196    1.0000 </r>
       <r>   -0.3895    1.0000 </r>
       <r>   -0.3864    1.0000 </r>
       <r>   -0.3742    1.0000 </r>
       <r>   -0.2753    1.0000 </r>
       <r>   -0.2449    1.0000 </r>
       <r>   -0.2298    1.0000 </r>
       <r>   -0.1031    1.0000 </r>
       <r>   -0.0710    1.0000 </r>
       <r>    0.1879    1.0000 </r>
       <r>    0.2628    1.0000 </r>
       <r>    0.2852    1.0000 </r>
       <r>    0.3909    1.0000 </r>
       <r>    0.4479    1.0000 </r>
       <r>    0.4855    1.0000 </r>
       <r>    0.5321    1.0000 </r>
       <r>    0.5488    1.0000 </r>
       <r>    0.7157    1.0000 </r>
       <r>    0.7464    1.0000 </r>
       <r>    0.8140    1.0000 </r>
       <r>    0.8202    1.0000 </r>
       <r>    0.8264    1.0000 </r>
       <r>    0.8782    1.0000 </r>
       <r>    1.0158    1.0000 </r>
       <r>    1.0752    1.0000 </r>
       <r>    1.1537    1.0000 </r>
       <r>    1.2138    1.0000 </r>
       <r>    1.2626    1.0000 </r>
       <r>    1.3022    1.0000 </r>
       <r>    1.4015    1.0000 </r>
       <r>    1.4241    1.0000 </r>
       <r>    1.4641    1.0000 </r>
       <r>    1.5499    1.0000 </r>
       <r>    1.5804    1.0000 </r>
       <r>    1.6426    1.0000 </r>
       <r>    1.6496    1.0000 </r>
       <r>    1.7250    1.0000 </r>
       <r>    1.7985    1.0000 </r>
       <r>    1.8018    1.0000 </r>
       <r>    1.8272    1.0000 </r>
       <r>    1.8530    1.0000 </r>
       <r>    1.9256    1.0000 </r>
       <r>    1.9261    1.0000 </r>
       <r>    1.9568    1.0000 </r>
       <r>    1.9824    1.0000 </r>
       <r>    2.0178    1.0000 </r>
       <r>    2.0933    1.0000 </r>
       <r>    2.1566    1.0000 </r>
       <r>    2.2134    1.0000 </r>
       <r>    2.2402    1.0000 </r>
       <r>    2.3750    1.0000 </r>
       <r>    2.4248    1.0000 </r>
       <r>    2.4593    1.0000 </r>
       <r>    2.5342    1.0000 </r>
       <r>    2.5414    1.0000 </r>
       <r>    2.5648    1.0000 </r>
       <r>    2.5661    1.0000 </r>
       <r>    2.5811    1.0000 </r>
       <r>    2.5874    1.0000 </r>
       <r>    2.6021    1.0000 </r>
       <r>    2.6029    1.0000 </r>
       <r>    2.6542    1.0000 </r>
       <r>    2.7448    1.0000 </r>
       <r>    2.7791    1.0000 </r>
       <r>    2.7911    1.0000 </r>
       <r>    2.8108    1.0000 </r>
       <r>    2.8422    1.0000 </r>
       <r>    2.8613    1.0000 </r>
       <r>    2.8677    1.0000 </r>
       <r>    2.9031    1.0000 </r>
       <r>    2.9096    1.0000 </r>
       <r>    2.9665    1.0000 </r>
       <r>    2.9792    1.0000 </r>
       <r>    3.0305    1.0000 </r>
       <r>    3.0453    1.0000 </r>
       <r>    3.0621    1.0000 </r>
       <r>    3.0635    1.0000 </r>
       <r>    3.1638    1.0000 </r>
       <r>    3.2912    1.0000 </r>
       <r>    3.3431    1.0000 </r>
       <r>    3.3881    1.0000 </r>
       <r>    3.4007    1.0000 </r>
       <r>    3.4573    1.0000 </r>
       <r>    3.4580    1.0000 </r>
       <r>    3.4763    1.0000 </r>
       <r>    3.5022    1.0000 </r>
       <r>    3.5999    1.0000 </r>
       <r>    4.2406    1.0000 </r>
       <r>    4.2499    1.0000 </r>
       <r>    4.2846    1.0000 </r>
       <r>    4.2891    1.0000 </r>
       <r>    5.1306    0.0000 </r>
       <r>    5.1396    0.0000 </r>
       <r>    5.2361    0.0000 </r>
       <r>    5.2422    0.0000 </r>
       <r>    5.7567    0.0000 </r>
       <r>    5.7643    0.0000 </r>
       <r>    5.8272    0.0000 </r>
       <r>    5.8388    0.0000 </r>
       <r>    6.1622    0.0000 </r>
       <r>    6.1797    0.0000 </r>
       <r>    6.1993    0.0000 </r>
       <r>    6.2007    0.0000 </r>
       <r>    6.2535    0.0000 </r>
       <r>    6.2584    0.0000 </r>
       <r>    6.2848    0.0000 </r>
       <r>    6.2947    0.0000 </r>
       <r>    6.7456    0.0000 </r>
       <r>    6.9696    0.0000 </r>
       <r>    7.0287    0.0000 </r>
       <r>    7.0678    0.0000 </r>
       <r>    7.1807    0.0000 </r>
       <r>    7.3643    0.0000 </r>
       <r>    7.4700    0.0000 </r>
       <r>    7.5152    0.0000 </r>
       <r>    7.7655    0.0000 </r>
       <r>    7.8276    0.0000 </r>
       <r>    7.9472    0.0000 </r>
       <r>    8.0008    0.0000 </r>
       <r>    8.0137    0.0000 </r>
       <r>    8.3147    0.0000 </r>
       <r>    8.3434    0.0000 </r>
       <r>    8.4460    0.0000 </r>
       <r>    8.6997    0.0000 </r>
       <r>    8.8405    0.0000 </r>
       <r>    8.9287    0.0000 </r>
       <r>    8.9954    0.0000 </r>
       <r>    9.0138    0.0000 </r>
       <r>    9.0522    0.0000 </r>
       <r>    9.0560    0.0000 </r>
       <r>    9.0980    0.0000 </r>
       <r>    9.1393    0.0000 </r>
       <r>    9.1548    0.0000 </r>
       <r>    9.1579    0.0000 </r>
       <r>    9.2265    0.0000 </r>
       <r>    9.5534    0.0000 </r>
       <r>    9.8014    0.0000 </r>
      </set>
      <set comment="kpoint 4">
       <r>  -40.2261    1.0000 </r>
       <r>  -40.0980    1.0000 </r>
       <r>  -40.0955    1.0000 </r>
       <r>  -39.9692    1.0000 </r>
       <r>  -39.9672    1.0000 </r>
       <r>  -39.6337    1.0000 </r>
       <r>  -39.6310    1.0000 </r>
       <r>  -39.5245    1.0000 </r>
       <r>  -39.5219    1.0000 </r>
       <r>  -39.4010    1.0000 </r>
       <r>  -18.9283    1.0000 </r>
       <r>  -18.9263    1.0000 </r>
       <r>  -18.8564    1.0000 </r>
       <r>  -18.8557    1.0000 </r>
       <r>  -18.8495    1.0000 </r>
       <r>  -18.8488    1.0000 </r>
       <r>  -18.7538    1.0000 </r>
       <r>  -18.7524    1.0000 </r>
       <r>  -18.7405    1.0000 </r>
       <r>  -18.7396    1.0000 </r>
       <r>  -18.7129    1.0000 </r>
       <r>  -18.7099    1.0000 </r>
       <r>  -18.7028    1.0000 </r>
       <r>  -18.6999    1.0000 </r>
       <r>  -18.6959    1.0000 </r>
       <r>  -18.6922    1.0000 </r>
       <r>  -18.6461    1.0000 </r>
       <r>  -18.6446    1.0000 </r>
       <r>  -18.6405    1.0000 </r>
       <r>  -18.6390    1.0000 </r>
       <r>  -18.6381    1.0000 </r>
       <r>  -18.6372    1.0000 </r>
       <r>  -18.6349    1.0000 </r>
       <r>  -18.6347    1.0000 </r>
       <r>  -18.6314    1.0000 </r>
       <r>  -18.6304    1.0000 </r>
       <r>  -18.6299    1.0000 </r>
       <r>  -18.6289    1.0000 </r>
       <r>  -18.6280    1.0000 </r>
       <r>  -18.6276    1.0000 </r>
       <r>  -18.6265    1.0000 </r>
       <r>  -18.6259    1.0000 </r>
       <r>  -18.6230    1.0000 </r>
       <r>  -18.6223    1.0000 </r>
       <r>  -18.6202    1.0000 </r>
       <r>  -18.6199    1.0000 </r>
       <r>  -18.6160    1.0000 </r>
       <r>  -18.6153    1.0000 </r>
       <r>  -18.6114    1.0000 </r>
       <r>  -18.6080    1.0000 </r>
       <r>  -18.5636    1.0000 </r>
       <r>  -18.5604    1.0000 </r>
       <r>  -18.5569    1.0000 </r>
       <r>  -18.5531    1.0000 </r>
       <r>  -18.5506    1.0000 </r>
       <r>  -18.5475    1.0000 </r>
       <r>  -18.5409    1.0000 </r>
       <r>  -18.5390    1.0000 </r>
       <r>  -18.5368    1.0000 </r>
       <r>  -18.5353    1.0000 </r>
       <r>  -18.4919    1.0000 </r>
       <r>  -18.4895    1.0000 </r>
       <r>  -18.4841    1.0000 </r>
       <r>  -18.4808    1.0000 </r>
       <r>  -18.4767    1.0000 </r>
       <r>  -18.4744    1.0000 </r>
       <r>  -18.4740    1.0000 </r>
       <r>  -18.4710    1.0000 </r>
       <r>  -18.4707    1.0000 </r>
       <r>  -18.4704    1.0000 </r>
[...]
       <r>    8.8565    0.0000 </r>
       <r>    8.8860    0.0000 </r>
       <r>    8.8990    0.0000 </r>
       <r>    8.9098    0.0000 </r>
       <r>    8.9317    0.0000 </r>
      </set>
     </set>
    </set>
   </array>
  </eigenvalues>
  <separator name="orbital magnetization" >
   <v name="MAGDIPOLOUT">      0.00000000      0.00000000      0.00000000</v>
  </separator>
  <dos>
   <i name="efermi">      4.43800313 </i>
   <total>
    <array>
     <dimension dim="1">gridpoints</dimension>
     <dimension dim="2">spin</dimension>
     <field>energy</field>
     <field>total</field>
     <field>integrated</field>
     <set>
      <set comment="spin 1">
       <r>   -42.7275     0.0000     0.0000 </r>
       <r>   -42.5441     0.0000     0.0000 </r>
       <r>   -42.3606     0.0000     0.0000 </r>
       <r>   -42.1772     0.0000     0.0000 </r>
       <r>   -41.9938     0.0000     0.0000 </r>
       <r>   -41.8103     0.0000     0.0000 </r>
       <r>   -41.6269     0.0000     0.0000 </r>
       <r>   -41.4435     0.0000     0.0000 </r>
       <r>   -41.2600     0.0000     0.0000 </r>
       <r>   -41.0766     0.0000     0.0000 </r>
       <r>   -40.8932     0.0000     0.0000 </r>
       <r>   -40.7097     0.0000     0.0000 </r>
       <r>   -40.5263     0.0000     0.0000 </r>
       <r>   -40.3429     0.0000     0.0000 </r>
       <r>   -40.1594     0.0000     2.0000 </r>
       <r>   -39.9760     0.0000     6.0000 </r>
       <r>   -39.7926     0.0000    10.0000 </r>
       <r>   -39.6091     0.0000    14.0000 </r>
       <r>   -39.4257     0.0000    18.0000 </r>
       <r>   -39.2423     0.0000    20.0000 </r>
       <r>   -39.0588     0.0000    20.0000 </r>
       <r>   -38.8754     0.0000    20.0000 </r>
       <r>   -38.6920     0.0000    20.0000 </r>
       <r>   -38.5085     0.0000    20.0000 </r>
       <r>   -38.3251     0.0000    20.0000 </r>
       <r>   -38.1417     0.0000    20.0000 </r>
       <r>   -37.9582     0.0000    20.0000 </r>
       <r>   -37.7748     0.0000    20.0000 </r>
       <r>   -37.5913     0.0000    20.0000 </r>
       <r>   -37.4079     0.0000    20.0000 </r>
       <r>   -37.2245     0.0000    20.0000 </r>
       <r>   -37.0410     0.0000    20.0000 </r>
       <r>   -36.8576     0.0000    20.0000 </r>
       <r>   -36.6742     0.0000    20.0000 </r>
       <r>   -36.4907     0.0000    20.0000 </r>
       <r>   -36.3073     0.0000    20.0000 </r>
       <r>   -36.1239     0.0000    20.0000 </r>
       <r>   -35.9404     0.0000    20.0000 </r>
       <r>   -35.7570     0.0000    20.0000 </r>
       <r>   -35.5736     0.0000    20.0000 </r>
       <r>   -35.3901     0.0000    20.0000 </r>
       <r>   -35.2067     0.0000    20.0000 </r>
       <r>   -35.0233     0.0000    20.0000 </r>
       <r>   -34.8398     0.0000    20.0000 </r>
       <r>   -34.6564     0.0000    20.0000 </r>
       <r>   -34.4730     0.0000    20.0000 </r>
       <r>   -34.2895     0.0000    20.0000 </r>
       <r>   -34.1061     0.0000    20.0000 </r>
       <r>   -33.9227     0.0000    20.0000 </r>
       <r>   -33.7392     0.0000    20.0000 </r>
       <r>   -33.5558     0.0000    20.0000 </r>
       <r>   -33.3724     0.0000    20.0000 </r>
       <r>   -33.1889     0.0000    20.0000 </r>
       <r>   -33.0055     0.0000    20.0000 </r>
       <r>   -32.8221     0.0000    20.0000 </r>
       <r>   -32.6386     0.0000    20.0000 </r>
       <r>   -32.4552     0.0000    20.0000 </r>
       <r>   -32.2718     0.0000    20.0000 </r>
       <r>   -32.0883     0.0000    20.0000 </r>
       <r>   -31.9049     0.0000    20.0000 </r>
       <r>   -31.7215     0.0000    20.0000 </r>
       <r>   -31.5380     0.0000    20.0000 </r>
       <r>   -31.3546     0.0000    20.0000 </r>
       <r>   -31.1712     0.0000    20.0000 </r>
       <r>   -30.9877     0.0000    20.0000 </r>
       <r>   -30.8043     0.0000    20.0000 </r>
       <r>   -30.6209     0.0000    20.0000 </r>
       <r>   -30.4374     0.0000    20.0000 </r>
       <r>   -30.2540     0.0000    20.0000 </r>
       <r>   -30.0705     0.0000    20.0000 </r>
       <r>   -29.8871     0.0000    20.0000 </r>
       <r>   -29.7037     0.0000    20.0000 </r>
       <r>   -29.5202     0.0000    20.0000 </r>
       <r>   -29.3368     0.0000    20.0000 </r>
       <r>   -29.1534     0.0000    20.0000 </r>
       <r>   -28.9699     0.0000    20.0000 </r>
       <r>   -28.7865     0.0000    20.0000 </r>
       <r>   -28.6031     0.0000    20.0000 </r>
       <r>   -28.4196     0.0000    20.0000 </r>
       <r>   -28.2362     0.0000    20.0000 </r>
       <r>   -28.0528     0.0000    20.0000 </r>
       <r>   -27.8693     0.0000    20.0000 </r>
       <r>   -27.6859     0.0000    20.0000 </r>
       <r>   -27.5025     0.0000    20.0000 </r>
       <r>   -27.3190     0.0000    20.0000 </r>
       <r>   -27.1356     0.0000    20.0000 </r>
       <r>   -26.9522     0.0000    20.0000 </r>
       <r>   -26.7687     0.0000    20.0000 </r>
       <r>   -26.5853     0.0000    20.0000 </r>
       <r>   -26.4019     0.0000    20.0000 </r>
       <r>   -26.2184     0.0000    20.0000 </r>
       <r>   -26.0350     0.0000    20.0000 </r>
       <r>   -25.8516     0.0000    20.0000 </r>
       <r>   -25.6681     0.0000    20.0000 </r>
       <r>   -25.4847     0.0000    20.0000 </r>
       <r>   -25.3013     0.0000    20.0000 </r>
       <r>   -25.1178     0.0000    20.0000 </r>
       <r>   -24.9344     0.0000    20.0000 </r>
       <r>   -24.7510     0.0000    20.0000 </r>
       <r>   -24.5675     0.0000    20.0000 </r>
       <r>   -24.3841     0.0000    20.0000 </r>
       <r>   -24.2007     0.0000    20.0000 </r>
       <r>   -24.0172     0.0000    20.0000 </r>
       <r>   -23.8338     0.0000    20.0000 </r>
       <r>   -23.6504     0.0000    20.0000 </r>
       <r>   -23.4669     0.0000    20.0000 </r>
       <r>   -23.2835     0.0000    20.0000 </r>
       <r>   -23.1001     0.0000    20.0000 </r>
       <r>   -22.9166     0.0000    20.0000 </r>
       <r>   -22.7332     0.0000    20.0000 </r>
       <r>   -22.5497     0.0000    20.0000 </r>
       <r>   -22.3663     0.0000    20.0000 </r>
       <r>   -22.1829     0.0000    20.0000 </r>
       <r>   -21.9994     0.0000    20.0000 </r>
       <r>   -21.8160     0.0000    20.0000 </r>
       <r>   -21.6326     0.0000    20.0000 </r>
       <r>   -21.4491     0.0000    20.0000 </r>
       <r>   -21.2657     0.0000    20.0000 </r>
       <r>   -21.0823     0.0000    20.0000 </r>
       <r>   -20.8988     0.0000    20.0000 </r>
       <r>   -20.7154     0.0000    20.0000 </r>
       <r>   -20.5320     0.0000    20.0000 </r>
       <r>   -20.3485     0.0000    20.0000 </r>
       <r>   -20.1651     0.0000    20.0000 </r>
       <r>   -19.9817     0.0000    20.0000 </r>
       <r>   -19.7982     0.0000    20.0000 </r>
       <r>   -19.6148     0.0000    20.0000 </r>
       <r>   -19.4314     0.0000    20.0000 </r>
       <r>   -19.2479     0.0000    20.0000 </r>
       <r>   -19.0645     0.0000    20.0000 </r>
       <r>   -18.8811     0.0000    24.0000 </r>
       <r>   -18.6976     0.0000    48.0000 </r>
       <r>   -18.5142     0.0000   120.0000 </r>
       <r>   -18.3308     0.0000   168.0000 </r>
       <r>   -18.1473     0.0000   180.0000 </r>
       <r>   -17.9639     0.0000   180.0000 </r>
       <r>   -17.7805     0.0000   180.0000 </r>
       <r>   -17.5970     0.0000   180.0000 </r>
       <r>   -17.4136     0.0000   180.0000 </r>
       <r>   -17.2302     0.0000   180.0000 </r>
       <r>   -17.0467     0.0000   180.0000 </r>
       <r>   -16.8633     0.0000   180.0000 </r>
       <r>   -16.6799     0.0000   180.0000 </r>
       <r>   -16.4964     0.0000   180.0000 </r>
       <r>   -16.3130     0.0000   180.0000 </r>
       <r>   -16.1296     0.0000   180.0000 </r>
       <r>   -15.9461     0.0000   180.0000 </r>
       <r>   -15.7627     0.0000   180.0000 </r>
       <r>   -15.5793     0.0000   180.0000 </r>
       <r>   -15.3958     0.0000   180.0000 </r>
       <r>   -15.2124     0.0000   180.0000 </r>
       <r>   -15.0289     0.0000   180.0000 </r>
       <r>   -14.8455     0.0000   180.0000 </r>
       <r>   -14.6621     0.0000   180.0000 </r>
       <r>   -14.4786     0.0000   180.0000 </r>
       <r>   -14.2952     0.0000   180.0000 </r>
       <r>   -14.1118     0.0000   180.0000 </r>
       <r>   -13.9283     0.0000   180.0000 </r>
       <r>   -13.7449     0.0000   180.0000 </r>
       <r>   -13.5615     0.0000   182.0000 </r>
       <r>   -13.3780     0.0000   184.0000 </r>
       <r>   -13.1946     0.0000   184.0000 </r>
       <r>   -13.0112     0.0000   184.0000 </r>
       <r>   -12.8277     0.0000   186.0000 </r>
       <r>   -12.6443     0.0000   200.0000 </r>
       <r>   -12.4609     0.0000   208.0000 </r>
       <r>   -12.2774     0.0000   208.0000 </r>
       <r>   -12.0940     0.0000   208.0000 </r>
       <r>   -11.9106     0.0000   210.0000 </r>
       <r>   -11.7271     0.0000   212.0000 </r>
       <r>   -11.5437     0.0000   212.0000 </r>
       <r>   -11.3603     0.0000   212.0000 </r>
       <r>   -11.1768     0.0000   212.0000 </r>
       <r>   -10.9934     0.0000   212.0000 </r>
       <r>   -10.8100     0.0000   212.0000 </r>
       <r>   -10.6265     0.0000   212.0000 </r>
       <r>   -10.4431     0.0000   212.0000 </r>
       <r>   -10.2597     0.0000   212.0000 </r>
       <r>   -10.0762     0.0000   212.0000 </r>
       <r>    -9.8928     0.0000   212.0000 </r>
       <r>    -9.7094     0.0000   212.0000 </r>
       <r>    -9.5259     0.0000   212.0000 </r>
       <r>    -9.3425     0.0000   212.0000 </r>
       <r>    -9.1591    10.5251   212.8984 </r>
       <r>    -8.9756    10.4569   215.8300 </r>
       <r>    -8.7922    23.0502   217.2756 </r>
       <r>    -8.6088    12.4752   220.0047 </r>
       <r>    -8.4253    30.1055   223.2506 </r>
       <r>    -8.2419     0.3221   228.0009 </r>
       <r>    -8.0584    35.1047   231.0531 </r>
       <r>    -7.8750    19.2917   235.7806 </r>
       <r>    -7.6916    24.6773   239.0949 </r>
       <r>    -7.5081    17.9853   242.5651 </r>
       <r>    -7.3247     0.0000   244.0000 </r>
       <r>    -7.1413     0.0000   244.0000 </r>
       <r>    -6.9578     0.0000   244.0000 </r>
       <r>    -6.7744     0.0000   244.0000 </r>
       <r>    -6.5910     0.0000   244.0000 </r>
       <r>    -6.4075     0.0000   244.0000 </r>
       <r>    -6.2241    12.2223   244.7669 </r>
       <r>    -6.0407    29.4606   248.6503 </r>
       <r>    -5.8572    18.1035   252.4162 </r>
       <r>    -5.6738    24.5481   256.9533 </r>
       <r>    -5.4904    20.6373   260.9868 </r>
       <r>    -5.3069    18.6014   264.8228 </r>
       <r>    -5.1235     8.2074   267.4290 </r>
       <r>    -4.9401     5.1020   268.3264 </r>
       <r>    -4.7566     7.6985   269.6372 </r>
       <r>    -4.5732    10.1724   271.2444 </r>
       <r>    -4.3898     6.3771   272.8756 </r>
       <r>    -4.2063     7.3803   274.0837 </r>
       <r>    -4.0229     4.7651   275.2339 </r>
       <r>    -3.8395     1.6547   275.8156 </r>
       <r>    -3.6560     0.3414   275.9891 </r>
       <r>    -3.4726     0.0000   276.0000 </r>
       <r>    -3.2892     0.0000   276.0000 </r>
       <r>    -3.1057     0.0000   276.0000 </r>
       <r>    -2.9223     0.0000   276.0000 </r>
       <r>    -2.7389     0.0000   276.0000 </r>
       <r>    -2.5554     0.0000   276.0000 </r>
       <r>    -2.3720     0.0000   276.0000 </r>
       <r>    -2.1886     0.0000   276.0000 </r>
       <r>    -2.0051     0.0000   276.0000 </r>
       <r>    -1.8217     0.0000   276.0000 </r>
       <r>    -1.6383     0.0000   276.0000 </r>
       <r>    -1.4548     0.0000   276.0000 </r>
       <r>    -1.2714     3.4201   276.1886 </r>
       <r>    -1.0880    10.0767   277.5559 </r>
       <r>    -0.9045    13.4854   279.6326 </r>
       <r>    -0.7211     9.5834   281.8526 </r>
       <r>    -0.5376     5.6359   283.2202 </r>
       <r>    -0.3542    19.6302   285.3333 </r>
       <r>    -0.1708    25.5552   289.4766 </r>
       <r>     0.0127    42.2692   296.0784 </r>
       <r>     0.1961    26.8136   302.3913 </r>
       <r>     0.3795    34.3267   308.7902 </r>
       <r>     0.5630    41.0662   316.1335 </r>
       <r>     0.7464    32.8438   323.0316 </r>
       <r>     0.9298    38.9803   329.5985 </r>
       <r>     1.1133    41.8830   337.7997 </r>
       <r>     1.2967    57.7095   345.9421 </r>
       <r>     1.4801    45.3260   354.8752 </r>
       <r>     1.6636    47.7098   363.8698 </r>
       <r>     1.8470    52.2446   373.0406 </r>
       <r>     2.0304    46.3950   381.3763 </r>
       <r>     2.2139    40.7479   389.2337 </r>
       <r>     2.3973    48.0905   397.2036 </r>
       <r>     2.5807    60.3052   408.2141 </r>
       <r>     2.7642    72.3983   419.0923 </r>
       <r>     2.9476    90.1403   431.6754 </r>
       <r>     3.1310    56.5124   444.0130 </r>
       <r>     3.3145    39.5295   451.3392 </r>
       <r>     3.4979    40.5324   458.3871 </r>
       <r>     3.6813    16.2470   463.0392 </r>
       <r>     3.8648    11.3415   465.8380 </r>
       <r>     4.0482     5.8630   467.4161 </r>
       <r>     4.2316     0.5391   467.9902 </r>
       <r>     4.4151     0.0000   468.0000 </r>
       <r>     4.5985     0.0000   468.0000 </r>
       <r>     4.7819     0.0000   468.0000 </r>
       <r>     4.9654     0.0000   468.0000 </r>
       <r>     5.1488     0.5293   468.0157 </r>
       <r>     5.3322     3.8639   468.3793 </r>
       <r>     5.5157     7.8726   469.4556 </r>
       <r>     5.6991     9.3375   471.1301 </r>
       <r>     5.8825    21.5966   474.8438 </r>
       <r>     6.0660    12.7166   477.5689 </r>
       <r>     6.2494    11.5259   479.7438 </r>
       <r>     6.4328    13.0773   481.9874 </r>
       <r>     6.6163    14.7823   484.5430 </r>
       <r>     6.7997    16.4994   487.4101 </r>
       <r>     6.9832    18.8565   490.6347 </r>
       <r>     7.1666    25.9972   494.5992 </r>
       <r>     7.3500    37.7313   500.5552 </r>
       <r>     7.5335    32.0470   508.0491 </r>
       <r>     7.7169    34.4790   512.9416 </r>
       <r>     7.9003    49.1024   521.1561 </r>
       <r>     8.0838    29.1533   529.2256 </r>
       <r>     8.2672    18.9108   533.2993 </r>
       <r>     8.4506    20.0273   536.7458 </r>
       <r>     8.6341    25.7920   540.9352 </r>
       <r>     8.8175    43.0720   546.1447 </r>
       <r>     9.0009    31.8282   554.1391 </r>
       <r>     9.1844    11.0294   557.9448 </r>
       <r>     9.3678     5.3071   559.3720 </r>
       <r>     9.5512     1.1205   559.9066 </r>
       <r>     9.7347     0.0797   559.9982 </r>
       <r>     9.9181     0.0000   560.0000 </r>
       <r>    10.1015     0.0000   560.0000 </r>
       <r>    10.2850     0.0000   560.0000 </r>
       <r>    10.4684     0.0000   560.0000 </r>
       <r>    10.6518     0.0000   560.0000 </r>
       <r>    10.8353     0.0000   560.0000 </r>
       <r>    11.0187     0.0000   560.0000 </r>
       <r>    11.2021     0.0000   560.0000 </r>
       <r>    11.3856     0.0000   560.0000 </r>
       <r>    11.5690     0.0000   560.0000 </r>
       <r>    11.7524     0.0000   560.0000 </r>
       <r>    11.9359     0.0000   560.0000 </r>
       <r>    12.1193     0.0000   560.0000 </r>
       <r>    12.3027     0.0000   560.0000 </r>
      </set>
     </set>
    </array>
   </total>
  </dos>
 </calculation>
 <structure name="finalpos" >
  <crystal>
   <varray name="basis" >
    <v>      11.17850000       0.00000000       0.00000000 </v>
    <v>       0.00000000       9.57460000       0.00000000 </v>
    <v>       0.00000000       0.00000000      11.18240000 </v>
   </varray>
   <i name="volume">   1196.84853820 </i>
   <varray name="rec_basis" >
    <v>       0.08945744       0.00000000       0.00000000 </v>
    <v>       0.00000000       0.10444301       0.00000000 </v>
    <v>       0.00000000       0.00000000       0.08942624 </v>
   </varray>
  </crystal>
  <varray name="positions" >
   <v>       0.37539000       0.00017000       0.43687000 </v>
   <v>       0.37461000       0.00017000       0.18687000 </v>
   <v>       0.87539000       0.00017000       0.43687000 </v>
   <v>       0.87461000       0.00017000       0.18687000 </v>
   <v>       0.37539000       0.00017000       0.93687000 </v>
   <v>       0.37461000       0.00017000       0.68687000 </v>
   <v>       0.62539000       0.99984000       0.93687000 </v>
   <v>       0.87539000       0.00017000       0.93687000 </v>
   <v>       0.62461000       0.99984000       0.68687000 </v>
   <v>       0.87461000       0.00017000       0.68687000 </v>
   <v>       0.12461000       0.99984000       0.18687000 </v>
   <v>       0.62461000       0.99984000       0.18687000 </v>
   <v>       0.12461000       0.99984000       0.68687000 </v>
   <v>       0.00013000       0.29519000       0.06281000 </v>
   <v>       0.25013000       0.70481000       0.06281000 </v>
   <v>       0.24987000       0.29519000       0.31282000 </v>
   <v>       0.49987000       0.70481000       0.31282000 </v>
   <v>       0.50013000       0.29519000       0.06281000 </v>
   <v>       0.75013000       0.70481000       0.06281000 </v>
   <v>       0.74987000       0.29519000       0.31282000 </v>
   <v>       0.99987000       0.70481000       0.31282000 </v>
   <v>       0.00013000       0.29519000       0.56281000 </v>
   <v>       0.25013000       0.70481000       0.56281000 </v>
   <v>       0.24987000       0.29519000       0.81282000 </v>
   <v>       0.49987000       0.70481000       0.81282000 </v>
   <v>       0.50013000       0.29519000       0.56281000 </v>
   <v>       0.75013000       0.70481000       0.56281000 </v>
   <v>       0.74987000       0.29519000       0.81282000 </v>
   <v>       0.99987000       0.70481000       0.81282000 </v>
   <v>       0.25005000       0.32677000       0.06286000 </v>
   <v>       0.00005000       0.67323000       0.06286000 </v>
   <v>       0.49995000       0.32677000       0.31286000 </v>
   <v>       0.24995000       0.67323000       0.31286000 </v>
   <v>       0.75005000       0.32677000       0.06286000 </v>
   <v>       0.50005000       0.67323000       0.06286000 </v>
   <v>       0.99995000       0.32677000       0.31286000 </v>
   <v>       0.74995000       0.67323000       0.31286000 </v>
   <v>       0.25005000       0.32677000       0.56286000 </v>
   <v>       0.00005000       0.67323000       0.56286000 </v>
   <v>       0.49995000       0.32677000       0.81286000 </v>
   <v>       0.24995000       0.67323000       0.81286000 </v>
   <v>       0.75005000       0.32677000       0.56286000 </v>
   <v>       0.50005000       0.67323000       0.56286000 </v>
   <v>       0.99995000       0.32677000       0.81286000 </v>
   <v>       0.74995000       0.67323000       0.81286000 </v>
   <v>       0.49987000       0.07798000       0.06246000 </v>
   <v>       0.24987000       0.92202000       0.06246000 </v>
   <v>       0.25013000       0.07798000       0.31246000 </v>
   <v>       0.00013000       0.92202000       0.31246000 </v>
   <v>       0.99987000       0.07798000       0.06246000 </v>
   <v>       0.74987000       0.92202000       0.06246000 </v>
   <v>       0.75013000       0.07798000       0.31246000 </v>
   <v>       0.50013000       0.92202000       0.31246000 </v>
   <v>       0.49987000       0.07798000       0.56246000 </v>
   <v>       0.24987000       0.92202000       0.56246000 </v>
   <v>       0.25013000       0.07798000       0.81246000 </v>
   <v>       0.00013000       0.92202000       0.81246000 </v>
   <v>       0.99987000       0.07798000       0.56246000 </v>
   <v>       0.74987000       0.92202000       0.56246000 </v>
   <v>       0.75013000       0.07798000       0.81246000 </v>
   <v>       0.50013000       0.92202000       0.81246000 </v>
  </varray>
 </structure>
</modeling>
