<?xml version="1.0" encoding="ISO-8859-1"?>
<modeling>
 <generator>
  <i name="program" type="string">vasp </i>
  <i name="version" type="string">5.4.4.18Apr17-6-g9f103f2a35  </i>
  <i name="subversion" type="string">(build Jul 31 2017 11:33:29) complex            parallel </i>
  <i name="platform" type="string">LinuxIFC </i>
  <i name="date" type="string">2021 09 23 </i>
  <i name="time" type="string">07:45:36 </i>
 </generator>
 <incar>
  <i type="string" name="SYSTEM"> La2O2S</i>
  <i type="string" name="PREC">normal</i>
  <i type="int" name="NELMIN">     4</i>
  <i type="int" name="IBRION">     2</i>
  <i type="int" name="NFREE">    10</i>
  <i name="EDIFF">      0.00000100</i>
  <i name="EDIFFG">     -0.01000000</i>
  <i type="int" name="NSW">   200</i>
  <i type="int" name="ISIF">     3</i>
  <i name="ENCUT">    600.00000000</i>
  <i name="ENAUG">    900.00000000</i>
  <i type="int" name="ISMEAR">    -5</i>
  <i type="logical" name="LWAVE"> F  </i>
  <i type="logical" name="LCHARG"> F  </i>
  <v type="int" name="KPOINT_BSE">    -1     0     0     0</v>
 </incar>
 <structure name="primitive_cell" >
  <crystal>
   <varray name="basis" >
    <v>      11.17850000       0.00000000       0.00000000 </v>
    <v>       0.00000000       9.57460000       0.00000000 </v>
    <v>       0.00000000       0.00000000      11.18240000 </v>
   </varray>
   <i name="volume">   1196.84853820 </i>
   <varray name="rec_basis" >
    <v>       0.08945744       0.00000000       0.00000000 </v>
    <v>       0.00000000       0.10444301       0.00000000 </v>
    <v>       0.00000000       0.00000000       0.08942624 </v>
   </varray>
  </crystal>
  <varray name="positions" >
   <v>       0.37539000       0.00017000       0.43687000 </v>
   <v>      -0.49987000      -0.07798000       0.31246000 </v>
   <v>       0.25013000       0.07798000       0.31246000 </v>
   <v>       0.49987000       0.07798000      -0.43754000 </v>
   <v>       0.24987000      -0.07798000      -0.43754000 </v>
   <v>      -0.37461000      -0.00016000       0.43687000 </v>
   <v>       0.37461000       0.00017000      -0.31313000 </v>
   <v>       0.49987000      -0.29519000       0.31282000 </v>
   <v>       0.24987000       0.29519000       0.31282000 </v>
   <v>      -0.49987000       0.29519000      -0.43719000 </v>
   <v>       0.25013000      -0.29519000      -0.43719000 </v>
   <v>       0.49995000       0.32677000       0.31286000 </v>
   <v>       0.24995000      -0.32677000       0.31286000 </v>
   <v>      -0.49995000      -0.32677000      -0.43714000 </v>
   <v>       0.25005000       0.32677000      -0.43714000 </v>
   <v>      -0.37539000      -0.00016000       0.18687000 </v>
   <v>       0.12461000      -0.00016000      -0.31313000 </v>
   <v>       0.12461000      -0.00016000       0.18687000 </v>
   <v>       0.49987000       0.07798000       0.06246000 </v>
   <v>      -0.24987000       0.07798000       0.31246000 </v>
   <v>      -0.25013000      -0.07798000      -0.43754000 </v>
   <v>       0.24987000      -0.07798000       0.06246000 </v>
   <v>       0.00013000      -0.07798000       0.31246000 </v>
   <v>      -0.49987000      -0.07798000      -0.18754000 </v>
   <v>      -0.00013000       0.07798000      -0.43754000 </v>
   <v>       0.25013000       0.07798000      -0.18754000 </v>
   <v>      -0.49987000       0.29519000       0.06281000 </v>
   <v>      -0.25013000       0.29519000       0.31282000 </v>
   <v>       0.25013000      -0.29519000       0.06281000 </v>
   <v>      -0.24987000      -0.29519000      -0.43719000 </v>
   <v>      -0.00013000      -0.29519000       0.31282000 </v>
   <v>       0.00013000       0.29519000      -0.43719000 </v>
   <v>       0.49987000      -0.29519000      -0.18718000 </v>
   <v>       0.24987000       0.29519000      -0.18718000 </v>
   <v>      -0.49995000      -0.32677000       0.06286000 </v>
   <v>       0.25005000       0.32677000       0.06286000 </v>
   <v>      -0.25005000      -0.32677000       0.31286000 </v>
   <v>      -0.24995000       0.32677000      -0.43714000 </v>
   <v>      -0.00005000       0.32677000       0.31286000 </v>
   <v>       0.00005000      -0.32677000      -0.43714000 </v>
   <v>       0.49995000       0.32677000      -0.18714000 </v>
   <v>       0.24995000      -0.32677000      -0.18714000 </v>
   <v>      -0.12461000       0.00017000       0.43687000 </v>
   <v>       0.37539000       0.00017000      -0.06313000 </v>
   <v>      -0.25013000      -0.07798000       0.06246000 </v>
   <v>      -0.00013000       0.07798000       0.06246000 </v>
   <v>      -0.24987000       0.07798000      -0.18754000 </v>
   <v>       0.00013000      -0.07798000      -0.18754000 </v>
   <v>      -0.12539000       0.00017000      -0.31313000 </v>
   <v>       0.12539000      -0.00016000      -0.06313000 </v>
   <v>      -0.37461000      -0.00016000      -0.06313000 </v>
   <v>      -0.24987000      -0.29519000       0.06281000 </v>
   <v>       0.00013000       0.29519000       0.06281000 </v>
   <v>      -0.25013000       0.29519000      -0.18718000 </v>
   <v>      -0.00013000      -0.29519000      -0.18718000 </v>
   <v>      -0.24995000       0.32677000       0.06286000 </v>
   <v>       0.00005000      -0.32677000       0.06286000 </v>
   <v>      -0.25005000      -0.32677000      -0.18714000 </v>
   <v>      -0.00005000       0.32677000      -0.18714000 </v>
   <v>      -0.12461000       0.00017000      -0.06313000 </v>
  </varray>
 </structure>
 <varray name="primitive_index" >
  <v type="int" >        1 </v>
  <v type="int" >       52 </v>
  <v type="int" >       47 </v>
  <v type="int" >       53 </v>
  <v type="int" >       54 </v>
  <v type="int" >        2 </v>
  <v type="int" >       10 </v>
  <v type="int" >       16 </v>
  <v type="int" >       15 </v>
  <v type="int" >       25 </v>
  <v type="int" >       22 </v>
  <v type="int" >       31 </v>
  <v type="int" >       32 </v>
  <v type="int" >       42 </v>
  <v type="int" >       37 </v>
  <v type="int" >        4 </v>
  <v type="int" >        7 </v>
  <v type="int" >        9 </v>
  <v type="int" >       45 </v>
  <v type="int" >       51 </v>
  <v type="int" >       58 </v>
  <v type="int" >       46 </v>
  <v type="int" >       48 </v>
  <v type="int" >       60 </v>
  <v type="int" >       57 </v>
  <v type="int" >       55 </v>
  <v type="int" >       17 </v>
  <v type="int" >       19 </v>
  <v type="int" >       14 </v>
  <v type="int" >       26 </v>
  <v type="int" >       20 </v>
  <v type="int" >       21 </v>
  <v type="int" >       24 </v>
  <v type="int" >       23 </v>
  <v type="int" >       34 </v>
  <v type="int" >       29 </v>
  <v type="int" >       36 </v>
  <v type="int" >       41 </v>
  <v type="int" >       35 </v>
  <v type="int" >       38 </v>
  <v type="int" >       39 </v>
  <v type="int" >       40 </v>
  <v type="int" >        3 </v>
  <v type="int" >        6 </v>
  <v type="int" >       50 </v>
  <v type="int" >       49 </v>
  <v type="int" >       59 </v>
  <v type="int" >       56 </v>
  <v type="int" >        8 </v>
  <v type="int" >        5 </v>
  <v type="int" >       11 </v>
  <v type="int" >       18 </v>
  <v type="int" >       13 </v>
  <v type="int" >       27 </v>
  <v type="int" >       28 </v>
  <v type="int" >       33 </v>
  <v type="int" >       30 </v>
  <v type="int" >       44 </v>
  <v type="int" >       43 </v>
  <v type="int" >       12 </v>
 </varray>
 <kpoints>
  <generation param="Gamma">
   <v type="int" name="divisions">       2        2        2 </v>
   <v name="usershift">      0.00000000       0.00000000       0.00000000 </v>
   <v name="genvec1">      0.50000000       0.00000000       0.00000000 </v>
   <v name="genvec2">      0.00000000       0.50000000       0.00000000 </v>
   <v name="genvec3">      0.00000000       0.00000000       0.50000000 </v>
   <v name="shift">      0.00000000       0.00000000       0.00000000 </v>
  </generation>
  <varray name="kpointlist" >
   <v>       0.00000000       0.00000000       0.00000000 </v>
   <v>       0.50000000       0.00000000       0.00000000 </v>
   <v>       0.00000000       0.50000000       0.00000000 </v>
   <v>       0.50000000       0.50000000       0.00000000 </v>
   <v>       0.00000000       0.00000000       0.50000000 </v>
   <v>       0.50000000       0.00000000       0.50000000 </v>
   <v>       0.00000000       0.50000000       0.50000000 </v>
   <v>       0.50000000       0.50000000       0.50000000 </v>
  </varray>
  <varray name="weights" >
   <v>       0.12500000 </v>
   <v>       0.12500000 </v>
   <v>       0.12500000 </v>
   <v>       0.12500000 </v>
   <v>       0.12500000 </v>
   <v>       0.12500000 </v>
   <v>       0.12500000 </v>
   <v>       0.12500000 </v>
  </varray>
  <varray name="tetrahedronlist"  type="int" >
   <v type="int" >        2        1        2        4        5 </v>
   <v type="int" >        2        1        3        4        5 </v>
   <v type="int" >        2        3        4        5        7 </v>
   <v type="int" >        2        2        4        5        6 </v>
   <v type="int" >        2        4        5        6        8 </v>
   <v type="int" >        2        4        5        7        8 </v>
   <v type="int" >        2        1        2        3        6 </v>
   <v type="int" >        2        2        3        4        6 </v>
   <v type="int" >        2        3        4        6        8 </v>
   <v type="int" >        2        1        3        5        6 </v>
   <v type="int" >        2        3        5        6        7 </v>
   <v type="int" >        2        3        6        7        8 </v>
   <v type="int" >        2        2        3        4        7 </v>
   <v type="int" >        2        1        2        3        7 </v>
   <v type="int" >        2        1        2        5        7 </v>
   <v type="int" >        2        2        4        7        8 </v>
   <v type="int" >        2        2        6        7        8 </v>
   <v type="int" >        2        2        5        6        7 </v>
   <v type="int" >        2        1        3        4        8 </v>
   <v type="int" >        2        1        2        4        8 </v>
   <v type="int" >        2        1        2        6        8 </v>
   <v type="int" >        2        1        3        7        8 </v>
   <v type="int" >        2        1        5        7        8 </v>
   <v type="int" >        2        1        5        6        8 </v>
  </varray>
  <i name="volumeweight">      0.02083333 </i>
 </kpoints>
 <parameters>
  <separator name="general" >
   <i type="string" name="SYSTEM">La2O2S</i>
   <i type="logical" name="LCOMPAT"> F  </i>
  </separator>
  <separator name="electronic" >
   <i type="string" name="PREC">normal</i>
   <i name="ENMAX">    600.00000000</i>
   <i name="ENAUG">    900.00000000</i>
   <i name="EDIFF">      0.00000100</i>
   <i type="int" name="IALGO">    38</i>
   <i type="int" name="IWAVPR">    11</i>
   <i type="int" name="NBANDS">   280</i>
   <i name="NELECT">    464.00000000</i>
   <i type="int" name="TURBO">     0</i>
   <i type="int" name="IRESTART">     0</i>
   <i type="int" name="NREBOOT">     0</i>
   <i type="int" name="NMIN">     0</i>
   <i name="EREF">      0.00000000</i>
   <separator name="electronic smearing" >
    <i type="int" name="ISMEAR">    -5</i>
    <i name="SIGMA">      0.20000000</i>
    <i name="KSPACING">      0.50000000</i>
    <i type="logical" name="KGAMMA"> T  </i>
   </separator>
   <separator name="electronic projectors" >
    <i type="logical" name="LREAL"> F  </i>
    <v name="ROPT">      0.00000000      0.00000000      0.00000000      0.00000000      0.00000000</v>
    <i type="int" name="LMAXPAW">  -100</i>
    <i type="int" name="LMAXMIX">     2</i>
    <i type="logical" name="NLSPLINE"> F  </i>
   </separator>
   <separator name="electronic startup" >
    <i type="int" name="ISTART">     0</i>
    <i type="int" name="ICHARG">     2</i>
    <i type="int" name="INIWAV">     1</i>
   </separator>
   <separator name="electronic spin" >
    <i type="int" name="ISPIN">     1</i>
    <i type="logical" name="LNONCOLLINEAR"> F  </i>
    <v name="MAGMOM">      1.00000000      1.00000000      1.00000000      1.00000000      1.00000000      1.00000000      1.00000000      1.00000000      1.00000000      1.00000000      1.00000000      1.00000000      1.00000000      1.00000000      1.00000000      1.00000000      1.00000000      1.00000000      1.00000000      1.00000000
      1.00000000      1.00000000      1.00000000      1.00000000      1.00000000      1.00000000      1.00000000      1.00000000      1.00000000      1.00000000      1.00000000      1.00000000      1.00000000      1.00000000      1.00000000      1.00000000      1.00000000      1.00000000      1.00000000      1.00000000
      1.00000000      1.00000000      1.00000000      1.00000000      1.00000000      1.00000000      1.00000000      1.00000000      1.00000000      1.00000000      1.00000000      1.00000000      1.00000000      1.00000000      1.00000000      1.00000000      1.00000000      1.00000000      1.00000000      1.00000000
</v>
    <i name="NUPDOWN">     -1.00000000</i>
    <i type="logical" name="LSORBIT"> F  </i>
    <v name="SAXIS">      0.00000000      0.00000000      1.00000000</v>
    <i type="logical" name="LSPIRAL"> F  </i>
    <v name="QSPIRAL">      0.00000000      0.00000000      0.00000000</v>
    <i type="logical" name="LZEROZ"> F  </i>
   </separator>
   <separator name="electronic exchange-correlation" >
    <i type="logical" name="LASPH"> F  </i>
    <i type="logical" name="LMETAGGA"> F  </i>
   </separator>
   <separator name="electronic convergence" >
    <i type="int" name="NELM">    60</i>
    <i type="int" name="NELMDL">    -5</i>
    <i type="int" name="NELMIN">     4</i>
    <i name="ENINI">    600.00000000</i>
    <separator name="electronic convergence detail" >
     <i type="logical" name="LDIAG"> T  </i>
     <i type="logical" name="LSUBROT"> F  </i>
     <i name="WEIMIN">      0.00100000</i>
     <i name="EBREAK">      0.00000000</i>
     <i name="DEPER">      0.30000000</i>
     <i type="int" name="NRMM">     4</i>
     <i name="TIME">      0.40000000</i>
    </separator>
   </separator>
   <separator name="electronic mixer" >
    <i name="AMIX">      0.40000000</i>
    <i name="BMIX">      1.00000000</i>
    <i name="AMIN">      0.10000000</i>
    <i name="AMIX_MAG">      1.60000000</i>
    <i name="BMIX_MAG">      1.00000000</i>
    <separator name="electronic mixer details" >
     <i type="int" name="IMIX">     4</i>
     <i type="logical" name="MIXFIRST"> F  </i>
     <i type="int" name="MAXMIX">   -45</i>
     <i name="WC">    100.00000000</i>
     <i type="int" name="INIMIX">     1</i>
     <i type="int" name="MIXPRE">     1</i>
     <i type="int" name="MREMOVE">     5</i>
    </separator>
   </separator>
   <separator name="electronic dipolcorrection" >
    <i type="logical" name="LDIPOL"> F  </i>
    <i type="logical" name="LMONO"> F  </i>
    <i type="int" name="IDIPOL">     0</i>
    <i name="EPSILON">      1.00000000</i>
    <v name="DIPOL">   -100.00000000   -100.00000000   -100.00000000</v>
    <i name="EFIELD">      0.00000000</i>
   </separator>
  </separator>
  <separator name="grids" >
   <i type="int" name="NGX">    70</i>
   <i type="int" name="NGY">    60</i>
   <i type="int" name="NGZ">    70</i>
   <i type="int" name="NGXF">   140</i>
   <i type="int" name="NGYF">   120</i>
   <i type="int" name="NGZF">   140</i>
   <i type="logical" name="ADDGRID"> F  </i>
  </separator>
  <separator name="ionic" >
   <i type="int" name="NSW">   200</i>
   <i type="int" name="IBRION">     2</i>
   <i type="int" name="MDALGO">     0</i>
   <i type="int" name="ISIF">     3</i>
   <i name="PSTRESS">      0.00000000</i>
   <i name="EDIFFG">     -0.01000000</i>
   <i type="int" name="NFREE">    10</i>
   <i name="POTIM">      0.50000000</i>
   <i name="SMASS">     -3.00000000</i>
   <i name="SCALEE">      1.00000000</i>
  </separator>
  <separator name="ionic md" >
   <i name="TEBEG">      0.00010000</i>
   <i name="TEEND">      0.00010000</i>
   <i type="int" name="NBLOCK">     1</i>
   <i type="int" name="KBLOCK">   200</i>
   <i type="int" name="NPACO">   256</i>
   <i name="APACO">     16.00000000</i>
  </separator>
  <separator name="symmetry" >
   <i type="int" name="ISYM">     2</i>
   <i name="SYMPREC">      0.00001000</i>
  </separator>
  <separator name="dos" >
   <i type="int" name="LORBIT">     0</i>
   <v name="RWIGS">     -1.00000000     -1.00000000     -1.00000000     -1.00000000     -1.00000000</v>
   <i type="int" name="NEDOS">   301</i>
   <i name="EMIN">     10.00000000</i>
   <i name="EMAX">    -10.00000000</i>
   <i name="EFERMI">      0.00000000</i>
  </separator>
  <separator name="writing" >
   <i type="int" name="NWRITE">     2</i>
   <i type="logical" name="LWAVE"> F  </i>
   <i type="logical" name="LDOWNSAMPLE"> F  </i>
   <i type="logical" name="LCHARG"> F  </i>
   <i type="logical" name="LPARD"> F  </i>
   <i type="logical" name="LVTOT"> F  </i>
   <i type="logical" name="LVHAR"> F  </i>
   <i type="logical" name="LELF"> F  </i>
   <i type="logical" name="LOPTICS"> F  </i>
   <v name="STM">      0.00000000      0.00000000      0.00000000      0.00000000      0.00000000      0.00000000      0.00000000</v>
  </separator>
  <separator name="performance" >
   <i type="int" name="NPAR">    28</i>
   <i type="int" name="NSIM">     4</i>
   <i type="int" name="NBLK">    -1</i>
   <i type="logical" name="LPLANE"> T  </i>
   <i type="logical" name="LSCALAPACK"> T  </i>
   <i type="logical" name="LSCAAWARE"> F  </i>
   <i type="logical" name="LSCALU"> F  </i>
   <i type="logical" name="LASYNC"> F  </i>
   <i type="logical" name="LORBITALREAL"> F  </i>
  </separator>
  <separator name="miscellaneous" >
   <i type="int" name="IDIOT">     3</i>
   <i type="int" name="ISPECIAL">     0</i>
   <i type="logical" name="LMUSIC"> F  </i>
   <v name="POMASS">      7.01000000     24.30500000    208.98000000     32.06600000     16.00000000</v>
   <v name="DARWINR">      0.00000000      0.00000000      0.00000000      0.00000000      0.00000000</v>
   <v name="DARWINV">      1.00000000      1.00000000      1.00000000      1.00000000      1.00000000</v>
   <i type="logical" name="LCORR"> T  </i>
  </separator>
  <i type="logical" name="GGA_COMPAT"> T  </i>
  <i type="logical" name="LBERRY"> F  </i>
  <i type="int" name="ICORELEVEL">     0</i>
  <i type="logical" name="LDAU"> F  </i>
  <i type="int" name="I_CONSTRAINED_M">     0</i>
  <separator name="electronic exchange-correlation" >
   <i type="string" name="GGA">--</i>
   <i type="int" name="VOSKOWN">     0</i>
   <i type="logical" name="LHFCALC"> F  </i>
   <i type="string" name="PRECFOCK"></i>
   <i type="logical" name="LSYMGRAD"> F  </i>
   <i type="logical" name="LHFONE"> F  </i>
   <i type="logical" name="LRHFCALC"> F  </i>
   <i type="logical" name="LTHOMAS"> F  </i>
   <i type="logical" name="LMODELHF"> F  </i>
   <i name="ENCUT4O">     -1.00000000</i>
   <i type="int" name="EXXOEP">     0</i>
   <i type="int" name="FOURORBIT">     0</i>
   <i name="AEXX">      0.00000000</i>
   <i name="HFALPHA">      0.00000000</i>
   <i name="MCALPHA">      0.00000000</i>
   <i name="ALDAX">      1.00000000</i>
   <i name="AGGAX">      1.00000000</i>
   <i name="ALDAC">      1.00000000</i>
   <i name="AGGAC">      1.00000000</i>
   <i type="int" name="NKREDX">     1</i>
   <i type="int" name="NKREDY">     1</i>
   <i type="int" name="NKREDZ">     1</i>
   <i type="logical" name="SHIFTRED"> F  </i>
   <i type="logical" name="ODDONLY"> F  </i>
   <i type="logical" name="EVENONLY"> F  </i>
   <i type="int" name="LMAXFOCK">     0</i>
   <i type="int" name="NMAXFOCKAE">     0</i>
   <i type="logical" name="LFOCKAEDFT"> F  </i>
   <i name="HFSCREEN">      0.00000000</i>
   <i name="HFSCREENC">      0.00000000</i>
   <i type="int" name="NBANDSGWLOW">     0</i>
  </separator>
  <separator name="vdW DFT" >
   <i type="logical" name="LUSE_VDW"> F  </i>
   <i name="Zab_VDW">     -0.84910000</i>
   <i name="PARAM1">      0.12340000</i>
   <i name="PARAM2">      1.00000000</i>
   <i name="PARAM3">      0.00000000</i>
  </separator>
  <separator name="model GW" >
   <i type="int" name="MODEL_GW">     0</i>
   <i name="MODEL_EPS0">     11.96848538</i>
   <i name="MODEL_ALPHA">      1.00000000</i>
  </separator>
  <separator name="linear response parameters" >
   <i type="logical" name="LEPSILON"> F  </i>
   <i type="logical" name="LRPA"> F  </i>
   <i type="logical" name="LNABLA"> F  </i>
   <i type="logical" name="LVEL"> F  </i>
   <i type="int" name="KINTER">     0</i>
   <i name="CSHIFT">      0.10000000</i>
   <i name="OMEGAMAX">     -1.00000000</i>
   <i name="DEG_THRESHOLD">      0.00200000</i>
   <i name="RTIME">     -0.10000000</i>
   <i name="WPLASMAI">      0.00000000</i>
   <v name="DFIELD">      0.00000000      0.00000000      0.00000000</v>
   <v name="WPLASMA">      0.00000000      0.00000000      0.00000000      0.00000000      0.00000000      0.00000000      0.00000000      0.00000000      0.00000000</v>
  </separator>
  <separator name="orbital magnetization" >
   <i type="logical" name="NUCIND"> F  </i>
   <v name="MAGPOS">      0.00000000      0.00000000      0.00000000</v>
   <i type="logical" name="LNICSALL"> T  </i>
   <i type="logical" name="ORBITALMAG"> F  </i>
   <i type="logical" name="LMAGBLOCH"> F  </i>
   <i type="logical" name="LCHIMAG"> F  </i>
   <i type="logical" name="LGAUGE"> T  </i>
   <i type="int" name="MAGATOM">     0</i>
   <v name="MAGDIPOL">      0.00000000      0.00000000      0.00000000</v>
   <v name="AVECCONST">      0.00000000      0.00000000      0.00000000</v>
  </separator>
  <separator name="response functions" >
   <i type="logical" name="LADDER"> F  </i>
   <i type="logical" name="LRPAFORCE"> F  </i>
   <i type="logical" name="LFXC"> F  </i>
   <i type="logical" name="LHARTREE"> T  </i>
   <i type="int" name="IBSE">     0</i>
   <v type="int" name="KPOINT">    -1     0     0     0</v>
   <i type="logical" name="LTCTE"> F  </i>
   <i type="logical" name="LTETE"> F  </i>
   <i type="logical" name="LTRIPLET"> F  </i>
   <i type="logical" name="LFXCEPS"> F  </i>
   <i type="logical" name="LFXHEG"> F  </i>
   <i type="int" name="NATURALO">     2</i>
   <i type="logical" name="L2ORDER"> F  </i>
   <i type="logical" name="LMP2LT"> F  </i>
   <i type="logical" name="LUSEW"> F  </i>
   <i name="ENCUTGW">     -2.00000000</i>
   <i name="ENCUTGWSOFT">     -2.00000000</i>
   <i name="ENCUTLF">     -1.00000000</i>
   <i type="int" name="LMAXMP2">    -1</i>
   <i name="SCISSOR">      0.00000000</i>
   <i type="int" name="NOMEGA">     0</i>
   <i type="int" name="NOMEGAR">     0</i>
   <i type="int" name="NBANDSGW">    -1</i>
   <i type="int" name="NBANDSO">    -1</i>
   <i type="int" name="NBANDSV">    -1</i>
   <i type="int" name="NELM">     1</i>
   <i type="int" name="NELMHF">     1</i>
   <i type="int" name="DIM">     3</i>
   <i type="int" name="ANTIRES">     0</i>
   <i name="OMEGAMAX">    -30.00000000</i>
   <i name="OMEGAMIN">    -30.00000000</i>
   <i name="OMEGATL">   -200.00000000</i>
   <i type="int" name="OMEGAGRID">   140</i>
   <i name="CSHIFT">     -0.10000000</i>
   <i type="logical" name="SELFENERGY"> F  </i>
   <i type="logical" name="LSPECTRAL"> F  </i>
   <i type="logical" name="LSPECTRALGW"> F  </i>
   <i type="logical" name="LSINGLES"> F  </i>
   <i type="logical" name="LFERMIGW"> F  </i>
   <i type="logical" name="ODDONLYGW"> F  </i>
   <i type="logical" name="EVENONLYGW"> F  </i>
   <i type="int" name="NKREDLFX">     1</i>
   <i type="int" name="NKREDLFY">     1</i>
   <i type="int" name="NKREDLFZ">     1</i>
   <i type="int" name="MAXMEM">  2800</i>
   <i type="int" name="TELESCOPE">     0</i>
   <i type="int" name="TAUPAR">     1</i>
   <i type="int" name="OMEGAPAR">    -1</i>
   <i name="LAMBDA">      1.00000000</i>
  </separator>
  <separator name="External order field" >
   <i name="OFIELD_KAPPA">      0.00000000</i>
   <v name="OFIELD_K">      0.00000000      0.00000000      0.00000000</v>
   <i name="OFIELD_Q6_NEAR">      0.00000000</i>
   <i name="OFIELD_Q6_FAR">      0.00000000</i>
   <i name="OFIELD_A">      0.00000000</i>
  </separator>
 </parameters>
 <atominfo>
  <atoms>      60 </atoms>
  <types>       5 </types>
  <array name="atoms" >
   <dimension dim="1">ion</dimension>
   <field type="string">element</field>
   <field type="int">atomtype</field>
   <set>
    <rc><c>Li</c><c>   1</c></rc>
    <rc><c>Li</c><c>   1</c></rc>
    <rc><c>Li</c><c>   1</c></rc>
    <rc><c>Li</c><c>   1</c></rc>
    <rc><c>Li</c><c>   1</c></rc>
    <rc><c>Li</c><c>   1</c></rc>
    <rc><c>Li</c><c>   1</c></rc>
    <rc><c>Li</c><c>   1</c></rc>
    <rc><c>Mg</c><c>   2</c></rc>
    <rc><c>Mg</c><c>   2</c></rc>
    <rc><c>Mg</c><c>   2</c></rc>
    <rc><c>Mg</c><c>   2</c></rc>
    <rc><c>Bi</c><c>   3</c></rc>
    <rc><c>Bi</c><c>   3</c></rc>
    <rc><c>Bi</c><c>   3</c></rc>
    <rc><c>Bi</c><c>   3</c></rc>
    <rc><c>Bi</c><c>   3</c></rc>
    <rc><c>Bi</c><c>   3</c></rc>
    <rc><c>Bi</c><c>   3</c></rc>
    <rc><c>Bi</c><c>   3</c></rc>
    <rc><c>Bi</c><c>   3</c></rc>
    <rc><c>Bi</c><c>   3</c></rc>
    <rc><c>Bi</c><c>   3</c></rc>
    <rc><c>Bi</c><c>   3</c></rc>
    <rc><c>Bi</c><c>   3</c></rc>
    <rc><c>Bi</c><c>   3</c></rc>
    <rc><c>Bi</c><c>   3</c></rc>
    <rc><c>Bi</c><c>   3</c></rc>
    <rc><c>S </c><c>   4</c></rc>
    <rc><c>S </c><c>   4</c></rc>
    <rc><c>S </c><c>   4</c></rc>
    <rc><c>S </c><c>   4</c></rc>
    <rc><c>S </c><c>   4</c></rc>
    <rc><c>S </c><c>   4</c></rc>
    <rc><c>S </c><c>   4</c></rc>
    <rc><c>S </c><c>   4</c></rc>
    <rc><c>S </c><c>   4</c></rc>
    <rc><c>S </c><c>   4</c></rc>
    <rc><c>S </c><c>   4</c></rc>
    <rc><c>S </c><c>   4</c></rc>
    <rc><c>S </c><c>   4</c></rc>
    <rc><c>S </c><c>   4</c></rc>
    <rc><c>S </c><c>   4</c></rc>
    <rc><c>S </c><c>   4</c></rc>
    <rc><c>O </c><c>   5</c></rc>
    <rc><c>O </c><c>   5</c></rc>
    <rc><c>O </c><c>   5</c></rc>
    <rc><c>O </c><c>   5</c></rc>
    <rc><c>O </c><c>   5</c></rc>
    <rc><c>O </c><c>   5</c></rc>
    <rc><c>O </c><c>   5</c></rc>
    <rc><c>O </c><c>   5</c></rc>
    <rc><c>O </c><c>   5</c></rc>
    <rc><c>O </c><c>   5</c></rc>
    <rc><c>O </c><c>   5</c></rc>
    <rc><c>O </c><c>   5</c></rc>
    <rc><c>O </c><c>   5</c></rc>
    <rc><c>O </c><c>   5</c></rc>
    <rc><c>O </c><c>   5</c></rc>
    <rc><c>O </c><c>   5</c></rc>
   </set>
  </array>
  <array name="atomtypes" >
   <dimension dim="1">type</dimension>
   <field type="int">atomspertype</field>
   <field type="string">element</field>
   <field>mass</field>
   <field>valence</field>
   <field type="string">pseudopotential</field>
   <set>
    <rc><c>   8</c><c>Li</c><c>      7.01000000</c><c>      3.00000000</c><c>  PAW_PBE Li_sv 10Sep2004               </c></rc>
    <rc><c>   4</c><c>Mg</c><c>     24.30500000</c><c>      2.00000000</c><c>  PAW_PBE Mg 13Apr2007                  </c></rc>
    <rc><c>  16</c><c>Bi</c><c>    208.98000000</c><c>     15.00000000</c><c>  PAW_PBE Bi_d 06Sep2000                </c></rc>
    <rc><c>  16</c><c>S </c><c>     32.06600000</c><c>      6.00000000</c><c>  PAW_PBE S 06Sep2000                   </c></rc>
    <rc><c>  16</c><c>O </c><c>     16.00000000</c><c>      6.00000000</c><c>  PAW_PBE O 08Apr2002                   </c></rc>
   </set>
  </array>
 </atominfo>
 <structure name="initialpos" >
  <crystal>
   <varray name="basis" >
    <v>      11.17850000       0.00000000       0.00000000 </v>
    <v>       0.00000000       9.57460000       0.00000000 </v>
    <v>       0.00000000       0.00000000      11.18240000 </v>
   </varray>
   <i name="volume">   1196.84853820 </i>
   <varray name="rec_basis" >
    <v>       0.08945744       0.00000000       0.00000000 </v>
    <v>       0.00000000       0.10444301       0.00000000 </v>
    <v>       0.00000000       0.00000000       0.08942624 </v>
   </varray>
  </crystal>
  <varray name="positions" >
   <v>       0.37539000       0.00017000       0.43687000 </v>
   <v>       0.62539000       0.99984000       0.43687000 </v>
   <v>       0.87539000       0.00017000       0.43687000 </v>
   <v>       0.62461000       0.99984000       0.18687000 </v>
   <v>       0.12539000       0.99984000       0.93687000 </v>
   <v>       0.37539000       0.00017000       0.93687000 </v>
   <v>       0.12461000       0.99984000       0.68687000 </v>
   <v>       0.87461000       0.00017000       0.68687000 </v>
   <v>       0.12461000       0.99984000       0.18687000 </v>
   <v>       0.37461000       0.00017000       0.68687000 </v>
   <v>       0.62539000       0.99984000       0.93687000 </v>
   <v>       0.87539000       0.00017000       0.93687000 </v>
   <v>       0.00013000       0.29519000       0.06281000 </v>
   <v>       0.25013000       0.70481000       0.06281000 </v>
   <v>       0.24987000       0.29519000       0.31282000 </v>
   <v>       0.49987000       0.70481000       0.31282000 </v>
   <v>       0.50013000       0.29519000       0.06281000 </v>
   <v>       0.75013000       0.70481000       0.06281000 </v>
   <v>       0.74987000       0.29519000       0.31282000 </v>
   <v>       0.99987000       0.70481000       0.31282000 </v>
   <v>       0.00013000       0.29519000       0.56281000 </v>
   <v>       0.25013000       0.70481000       0.56281000 </v>
   <v>       0.24987000       0.29519000       0.81282000 </v>
   <v>       0.49987000       0.70481000       0.81282000 </v>
   <v>       0.50013000       0.29519000       0.56281000 </v>
   <v>       0.75013000       0.70481000       0.56281000 </v>
   <v>       0.74987000       0.29519000       0.81282000 </v>
   <v>       0.99987000       0.70481000       0.81282000 </v>
   <v>       0.25005000       0.32677000       0.06286000 </v>
   <v>       0.00005000       0.67323000       0.06286000 </v>
   <v>       0.49995000       0.32677000       0.31286000 </v>
   <v>       0.24995000       0.67323000       0.31286000 </v>
   <v>       0.75005000       0.32677000       0.06286000 </v>
   <v>       0.50005000       0.67323000       0.06286000 </v>
   <v>       0.99995000       0.32677000       0.31286000 </v>
   <v>       0.74995000       0.67323000       0.31286000 </v>
   <v>       0.25005000       0.32677000       0.56286000 </v>
   <v>       0.00005000       0.67323000       0.56286000 </v>
   <v>       0.49995000       0.32677000       0.81286000 </v>
   <v>       0.24995000       0.67323000       0.81286000 </v>
   <v>       0.75005000       0.32677000       0.56286000 </v>
   <v>       0.50005000       0.67323000       0.56286000 </v>
   <v>       0.99995000       0.32677000       0.81286000 </v>
   <v>       0.74995000       0.67323000       0.81286000 </v>
   <v>       0.49987000       0.07798000       0.06246000 </v>
   <v>       0.24987000       0.92202000       0.06246000 </v>
   <v>       0.25013000       0.07798000       0.31246000 </v>
   <v>       0.00013000       0.92202000       0.31246000 </v>
   <v>       0.99987000       0.07798000       0.06246000 </v>
   <v>       0.74987000       0.92202000       0.06246000 </v>
   <v>       0.75013000       0.07798000       0.31246000 </v>
   <v>       0.50013000       0.92202000       0.31246000 </v>
   <v>       0.49987000       0.07798000       0.56246000 </v>
   <v>       0.24987000       0.92202000       0.56246000 </v>
   <v>       0.25013000       0.07798000       0.81246000 </v>
   <v>       0.00013000       0.92202000       0.81246000 </v>
   <v>       0.99987000       0.07798000       0.56246000 </v>
   <v>       0.74987000       0.92202000       0.56246000 </v>
   <v>       0.75013000       0.07798000       0.81246000 </v>
   <v>       0.50013000       0.92202000       0.81246000 </v>
  </varray>
 </structure>
 <calculation>
  <scstep>
   <time name="dav">   59.90   60.07</time>
   <time name="total">   59.98   60.15</time>
   <energy>
    <i name="alphaZ">   1067.11773629 </i>
    <i name="ewald"> -30661.23665900 </i>
    <i name="hartreedc"> -12693.11631526 </i>
    <i name="XCdc">   1321.08291966 </i>
    <i name="pawpsdc">  36729.48549953 </i>
    <i name="pawaedc"> -36149.63912807 </i>
    <i name="eentropy">      0.00000000 </i>
    <i name="bandstr">   1841.12858435 </i>
    <i name="atom">  44408.54722957 </i>
    <i name="e_fr_energy">   5863.36986706 </i>
    <i name="e_wo_entrp">   5863.36986706 </i>
    <i name="e_0_energy">   5863.36986706 </i>
   </energy>
  </scstep>
  <scstep>
   <time name="dav">   61.34   61.44</time>
   <time name="total">   61.35   61.45</time>
   <energy>
    <i name="e_fr_energy">    767.81989048 </i>
    <i name="e_wo_entrp">    767.81989048 </i>
    <i name="e_0_energy">    767.81989048 </i>
   </energy>
  </scstep>
  <scstep>
   <time name="dav">   70.74   70.87</time>
   <time name="total">   70.75   70.87</time>
   <energy>
    <i name="e_fr_energy">   -247.21652040 </i>
    <i name="e_wo_entrp">   -247.21652040 </i>
    <i name="e_0_energy">   -247.21652040 </i>
   </energy>
  </scstep>
  <scstep>
   <time name="dav">   72.02   72.91</time>
   <time name="total">   72.02   72.91</time>
   <energy>
    <i name="e_fr_energy">   -340.79101822 </i>
    <i name="e_wo_entrp">   -340.79101822 </i>
    <i name="e_0_energy">   -340.79101822 </i>
   </energy>
  </scstep>
  <scstep>
   <time name="dav">   95.90   96.48</time>
   <time name="total">   96.62   97.19</time>
   <energy>
    <i name="e_fr_energy">   -348.94192702 </i>
    <i name="e_wo_entrp">   -348.94192702 </i>
    <i name="e_0_energy">   -348.94192702 </i>
   </energy>
  </scstep>
  <scstep>
   <time name="dav">   85.03   85.86</time>
   <time name="total">   85.81   86.72</time>
   <energy>
    <i name="e_fr_energy">   -291.60089859 </i>
    <i name="e_wo_entrp">   -291.60089859 </i>
    <i name="e_0_energy">   -291.60089859 </i>
   </energy>
  </scstep>
  <scstep>
   <time name="dav">   64.92   65.17</time>
   <time name="total">   65.72   65.97</time>
   <energy>
    <i name="e_fr_energy">   -294.11818000 </i>
    <i name="e_wo_entrp">   -294.11818000 </i>
    <i name="e_0_energy">   -294.11818000 </i>
   </energy>
  </scstep>
  <scstep>
   <time name="dav">   75.93   76.23</time>
   <time name="total">   76.72   77.05</time>
   <energy>
    <i name="e_fr_energy">   -292.93806718 </i>
    <i name="e_wo_entrp">   -292.93806718 </i>
    <i name="e_0_energy">   -292.93806718 </i>
   </energy>
  </scstep>
  <scstep>
   <time name="dav">   74.59   75.03</time>
   <time name="total">   75.42   75.87</time>
   <energy>
    <i name="e_fr_energy">   -292.33395636 </i>
    <i name="e_wo_entrp">   -292.33395636 </i>
    <i name="e_0_energy">   -292.33395636 </i>
   </energy>
  </scstep>
  <scstep>
   <time name="dav">   75.24   75.59</time>
   <time name="total">   76.02   76.38</time>
   <energy>
    <i name="e_fr_energy">   -292.36655770 </i>
    <i name="e_wo_entrp">   -292.36655770 </i>
    <i name="e_0_energy">   -292.36655770 </i>
   </energy>
  </scstep>
  <scstep>
   <time name="dav">   80.59   81.51</time>
   <time name="total">   81.37   82.29</time>
   <energy>
    <i name="e_fr_energy">   -292.37011037 </i>
    <i name="e_wo_entrp">   -292.37011037 </i>
    <i name="e_0_energy">   -292.37011037 </i>
   </energy>
  </scstep>
  <scstep>
   <time name="dav">   73.13   73.61</time>
   <time name="total">   73.92   74.40</time>
   <energy>
    <i name="e_fr_energy">   -292.37426025 </i>
    <i name="e_wo_entrp">   -292.37426025 </i>
    <i name="e_0_energy">   -292.37426025 </i>
   </energy>
  </scstep>
  <scstep>
   <time name="dav">   69.83   69.94</time>
   <time name="total">   70.62   70.73</time>
   <energy>
    <i name="e_fr_energy">   -292.37491697 </i>
    <i name="e_wo_entrp">   -292.37491697 </i>
    <i name="e_0_energy">   -292.37491697 </i>
   </energy>
  </scstep>
  <scstep>
   <time name="dav">   73.60   73.65</time>
   <time name="total">   74.39   74.44</time>
   <energy>
    <i name="e_fr_energy">   -292.37528427 </i>
    <i name="e_wo_entrp">   -292.37528427 </i>
    <i name="e_0_energy">   -292.37528427 </i>
   </energy>
  </scstep>
  <scstep>
   <time name="dav">   89.35   89.50</time>
   <time name="total">   90.13   90.29</time>
   <energy>
    <i name="e_fr_energy">   -292.37531607 </i>
    <i name="e_wo_entrp">   -292.37531607 </i>
    <i name="e_0_energy">   -292.37531607 </i>
   </energy>
  </scstep>
  <scstep>
   <time name="dav">   68.34   68.47</time>
   <time name="total">   69.12   69.26</time>
   <energy>
    <i name="e_fr_energy">   -292.37533274 </i>
    <i name="e_wo_entrp">   -292.37533274 </i>
    <i name="e_0_energy">   -292.37533274 </i>
   </energy>
  </scstep>
  <scstep>
   <time name="dav">   67.65   67.86</time>
   <time name="total">   68.43   68.65</time>
   <energy>
    <i name="e_fr_energy">   -292.37533611 </i>
    <i name="e_wo_entrp">   -292.37533611 </i>
    <i name="e_0_energy">   -292.37533611 </i>
   </energy>
  </scstep>
  <scstep>
   <time name="dav">   61.45   61.59</time>
   <time name="total">   61.52   61.66</time>
   <energy>
    <i name="alphaZ">   1067.11773629 </i>
    <i name="ewald"> -30661.23665900 </i>
    <i name="hartreedc"> -12927.95606550 </i>
    <i name="XCdc">   1345.09936629 </i>
    <i name="pawpsdc">  43750.32113887 </i>
    <i name="pawaedc"> -43144.63480552 </i>
    <i name="eentropy">      0.00000000 </i>
    <i name="bandstr">  -4129.63327759 </i>
    <i name="atom">  44408.54722957 </i>
    <i name="e_fr_energy">   -292.37533659 </i>
    <i name="e_wo_entrp">   -292.37533659 </i>
    <i name="e_0_energy">   -292.37533659 </i>
   </energy>
  </scstep>
  <structure>
   <crystal>
    <varray name="basis" >
     <v>      11.17850000       0.00000000       0.00000000 </v>
     <v>       0.00000000       9.57460000       0.00000000 </v>
     <v>       0.00000000       0.00000000      11.18240000 </v>
    </varray>
    <i name="volume">   1196.84853820 </i>
    <varray name="rec_basis" >
     <v>       0.08945744       0.00000000       0.00000000 </v>
     <v>       0.00000000       0.10444301       0.00000000 </v>
     <v>       0.00000000       0.00000000       0.08942624 </v>
    </varray>
   </crystal>
   <varray name="positions" >
    <v>       0.37539000       0.00017000       0.43687000 </v>
    <v>       0.62539000       0.99984000       0.43687000 </v>
    <v>       0.87539000       0.00017000       0.43687000 </v>
    <v>       0.62461000       0.99984000       0.18687000 </v>
    <v>       0.12539000       0.99984000       0.93687000 </v>
    <v>       0.37539000       0.00017000       0.93687000 </v>
    <v>       0.12461000       0.99984000       0.68687000 </v>
    <v>       0.87461000       0.00017000       0.68687000 </v>
    <v>       0.12461000       0.99984000       0.18687000 </v>
    <v>       0.37461000       0.00017000       0.68687000 </v>
    <v>       0.62539000       0.99984000       0.93687000 </v>
    <v>       0.87539000       0.00017000       0.93687000 </v>
    <v>       0.00013000       0.29519000       0.06281000 </v>
    <v>       0.25013000       0.70481000       0.06281000 </v>
    <v>       0.24987000       0.29519000       0.31282000 </v>
    <v>       0.49987000       0.70481000       0.31282000 </v>
    <v>       0.50013000       0.29519000       0.06281000 </v>
    <v>       0.75013000       0.70481000       0.06281000 </v>
    <v>       0.74987000       0.29519000       0.31282000 </v>
    <v>       0.99987000       0.70481000       0.31282000 </v>
    <v>       0.00013000       0.29519000       0.56281000 </v>
    <v>       0.25013000       0.70481000       0.56281000 </v>
    <v>       0.24987000       0.29519000       0.81282000 </v>
    <v>       0.49987000       0.70481000       0.81282000 </v>
    <v>       0.50013000       0.29519000       0.56281000 </v>
    <v>       0.75013000       0.70481000       0.56281000 </v>
    <v>       0.74987000       0.29519000       0.81282000 </v>
    <v>       0.99987000       0.70481000       0.81282000 </v>
    <v>       0.25005000       0.32677000       0.06286000 </v>
    <v>       0.00005000       0.67323000       0.06286000 </v>
    <v>       0.49995000       0.32677000       0.31286000 </v>
    <v>       0.24995000       0.67323000       0.31286000 </v>
    <v>       0.75005000       0.32677000       0.06286000 </v>
    <v>       0.50005000       0.67323000       0.06286000 </v>
    <v>       0.99995000       0.32677000       0.31286000 </v>
    <v>       0.74995000       0.67323000       0.31286000 </v>
    <v>       0.25005000       0.32677000       0.56286000 </v>
    <v>       0.00005000       0.67323000       0.56286000 </v>
    <v>       0.49995000       0.32677000       0.81286000 </v>
    <v>       0.24995000       0.67323000       0.81286000 </v>
    <v>       0.75005000       0.32677000       0.56286000 </v>
    <v>       0.50005000       0.67323000       0.56286000 </v>
    <v>       0.99995000       0.32677000       0.81286000 </v>
    <v>       0.74995000       0.67323000       0.81286000 </v>
    <v>       0.49987000       0.07798000       0.06246000 </v>
    <v>       0.24987000       0.92202000       0.06246000 </v>
    <v>       0.25013000       0.07798000       0.31246000 </v>
    <v>       0.00013000       0.92202000       0.31246000 </v>
    <v>       0.99987000       0.07798000       0.06246000 </v>
    <v>       0.74987000       0.92202000       0.06246000 </v>
    <v>       0.75013000       0.07798000       0.31246000 </v>
    <v>       0.50013000       0.92202000       0.31246000 </v>
    <v>       0.49987000       0.07798000       0.56246000 </v>
    <v>       0.24987000       0.92202000       0.56246000 </v>
    <v>       0.25013000       0.07798000       0.81246000 </v>
    <v>       0.00013000       0.92202000       0.81246000 </v>
    <v>       0.99987000       0.07798000       0.56246000 </v>
    <v>       0.74987000       0.92202000       0.56246000 </v>
    <v>       0.75013000       0.07798000       0.81246000 </v>
    <v>       0.50013000       0.92202000       0.81246000 </v>
   </varray>
  </structure>
  <varray name="forces" >
   <v>      -0.25901199      -0.00138416      -0.74862142 </v>
   <v>       0.07093229      -0.06493199       0.06500379 </v>
   <v>       0.24424264       0.00156679      -0.28404901 </v>
   <v>      -0.07530901       0.06913963       0.68034294 </v>
   <v>       0.40025880      -0.06247326      -0.01227138 </v>
   <v>      -0.23333157      -0.00340809       0.77319397 </v>
   <v>      -0.38609406       0.06716022      -0.69506675 </v>
   <v>      -0.26038700      -0.00620710      -0.83650946 </v>
   <v>       0.21118741      -0.11508467       1.40199884 </v>
   <v>       0.63051844      -0.00161382      -0.58581908 </v>
   <v>      -0.83399431       0.11147569      -0.28507997 </v>
   <v>       0.56105697      -0.00057699       0.70346568 </v>
   <v>      -0.06842441       1.00868667       0.53387637 </v>
   <v>       0.24381619      -0.03181027       0.43469591 </v>
   <v>       0.08182528      -1.07473487       0.18823910 </v>
   <v>      -0.07930097       0.99989318       0.02248764 </v>
   <v>      -0.26470491       0.08557588       0.61618477 </v>
   <v>       0.06792495      -1.07709886       0.74012823 </v>
   <v>       0.10314759      -1.00471472       0.13888903 </v>
   <v>      -0.07928514       1.05642136       0.30731484 </v>
   <v>       0.03881258      -0.97614713      -0.47390251 </v>
   <v>      -0.26102395      -0.05561793      -0.56901385 </v>
   <v>      -0.08838079       1.10283046      -0.08122329 </v>
   <v>       0.10551990      -1.00124204      -0.30301018 </v>
   <v>       0.26259552      -0.01806588      -0.36206154 </v>
   <v>      -0.06857359       1.01463377      -0.28815954 </v>
   <v>      -0.10090754       1.11373657      -0.59872151 </v>
   <v>       0.10266465      -1.13446813      -0.37595261 </v>
   <v>      -0.13050260       0.10284324      -0.30546613 </v>
   <v>      -0.07455670      -0.05661595      -0.34533300 </v>
   <v>       0.01900586       0.24807287      -0.07981389 </v>
   <v>      -0.03016892      -0.18873223      -0.13697063 </v>
   <v>       0.05581057       0.03922031      -0.41301250 </v>
   <v>       0.14781923      -0.08159902      -0.36741205 </v>
   <v>       0.03402738       0.17968384      -0.32314434 </v>
   <v>      -0.02103489      -0.25649189      -0.26908646 </v>
   <v>       0.14692214       0.14755520       0.42835344 </v>
   <v>       0.09811556      -0.20146972       0.39078294 </v>
   <v>      -0.01804593       0.01971920       0.07977347 </v>
   <v>       0.03537207      -0.08029811       0.01714455 </v>
   <v>      -0.08044750       0.22505928       0.34225117 </v>
   <v>      -0.16612235      -0.17130826       0.37581278 </v>
   <v>      -0.05041734       0.06544588       0.27003958 </v>
   <v>       0.03174990       0.01165573       0.32722795 </v>
   <v>       1.15312315      -0.19295588      -1.36632928 </v>
   <v>      -1.14234164       0.04763893      -0.45741255 </v>
   <v>      -0.49705199       1.03132445      -0.56915686 </v>
   <v>       0.48946754      -1.01105649      -0.68358043 </v>
   <v>       0.49931104      -0.72629688      -0.97540386 </v>
   <v>      -0.47425519       0.91120984      -1.82681973 </v>
   <v>      -0.61148602       0.90592780       0.40947402 </v>
   <v>       0.58354903      -0.88840830       0.53319454 </v>
   <v>      -1.17552767       0.08424758       0.17134961 </v>
   <v>       1.08463104       0.07583465       1.36399652 </v>
   <v>       0.47105599      -0.91015555      -0.37915539 </v>
   <v>      -0.49808474       0.94766417       0.70339054 </v>
   <v>      -0.49682525       0.80487550       0.91372276 </v>
   <v>       0.56973890      -0.87495281      -0.31909004 </v>
   <v>       0.61708114      -0.97221798       1.69912183 </v>
   <v>      -0.63568580       0.76304029       0.68519240 </v>
  </varray>
  <varray name="stress" >
   <v>      -5.25271378      -0.51669191       0.21736368 </v>
   <v>      -0.51669182     -13.40754480      -0.08783789 </v>
   <v>       0.21736353      -0.08783787      -8.36287404 </v>
  </varray>
  <energy>
   <i name="e_fr_energy">   -305.97200850 </i>
   <i name="e_wo_entrp">   -305.97200850 </i>
   <i name="e_0_energy">      0.00000000 </i>
  </energy>
  <time name="totalsc"> 1448.24 1454.89</time>
 </calculation>
 <calculation>
  <scstep>
   <time name="dav">   61.38   61.59</time>
   <time name="total">   62.17   62.38</time>
   <energy>
    <i name="alphaZ">   1084.63403374 </i>
    <i name="ewald"> -30808.96673722 </i>
    <i name="hartreedc"> -13006.22727634 </i>
    <i name="XCdc">   1354.62980878 </i>
    <i name="pawpsdc">  43750.06807746 </i>
    <i name="pawaedc"> -43144.38237054 </i>
    <i name="eentropy">      0.00000000 </i>
    <i name="bandstr">  -3930.15524898 </i>
    <i name="atom">  44408.54722957 </i>
    <i name="e_fr_energy">   -291.85248353 </i>
    <i name="e_wo_entrp">   -291.85248353 </i>
    <i name="e_0_energy">   -291.85248353 </i>
   </energy>
  </scstep>
  <scstep>
   <time name="dav">   71.26   71.41</time>
   <time name="total">   72.04   72.21</time>
   <energy>
    <i name="e_fr_energy">   -294.08204350 </i>
    <i name="e_wo_entrp">   -294.08204350 </i>
    <i name="e_0_energy">   -294.08204350 </i>
   </energy>
  </scstep>
  <scstep>
   <time name="dav">   88.92   89.24</time>
   <time name="total">   89.70   90.04</time>
   <energy>
    <i name="e_fr_energy">   -293.84051784 </i>
    <i name="e_wo_entrp">   -293.84051784 </i>
    <i name="e_0_energy">   -293.84051784 </i>
   </energy>
  </scstep>
  <scstep>
   <time name="dav">   78.04   78.29</time>
   <time name="total">   78.83   79.08</time>
   <energy>
    <i name="e_fr_energy">   -293.70662642 </i>
    <i name="e_wo_entrp">   -293.70662642 </i>
    <i name="e_0_energy">   -293.70662642 </i>
   </energy>
  </scstep>
  <scstep>
   <time name="dav">   73.73   73.91</time>
   <time name="total">   74.51   74.70</time>
   <energy>
    <i name="e_fr_energy">   -293.70922642 </i>
    <i name="e_wo_entrp">   -293.70922642 </i>
    <i name="e_0_energy">   -293.70922642 </i>
   </energy>
  </scstep>
  <scstep>
   <time name="dav">   80.24   80.28</time>
   <time name="total">   81.02   81.06</time>
   <energy>
    <i name="e_fr_energy">   -293.70752350 </i>
    <i name="e_wo_entrp">   -293.70752350 </i>
    <i name="e_0_energy">   -293.70752350 </i>
   </energy>
  </scstep>
  <scstep>
   <time name="dav">   70.19   70.37</time>
   <time name="total">   70.98   71.16</time>
   <energy>
    <i name="e_fr_energy">   -293.70641910 </i>
    <i name="e_wo_entrp">   -293.70641910 </i>
    <i name="e_0_energy">   -293.70641910 </i>
   </energy>
  </scstep>
  <scstep>
   <time name="dav">   96.97   97.17</time>
   <time name="total">   97.76   97.96</time>
   <energy>
    <i name="e_fr_energy">   -293.70630768 </i>
    <i name="e_wo_entrp">   -293.70630768 </i>
    <i name="e_0_energy">   -293.70630768 </i>
   </energy>
  </scstep>
  <scstep>
   <time name="dav">   70.59   70.87</time>
   <time name="total">   71.37   71.67</time>
   <energy>
    <i name="e_fr_energy">   -293.70637034 </i>
    <i name="e_wo_entrp">   -293.70637034 </i>
    <i name="e_0_energy">   -293.70637034 </i>
   </energy>
  </scstep>
  <scstep>
   <time name="dav">   89.44   89.63</time>
   <time name="total">   90.23   90.42</time>
   <energy>
    <i name="e_fr_energy">   -293.70637143 </i>
    <i name="e_wo_entrp">   -293.70637143 </i>
    <i name="e_0_energy">   -293.70637143 </i>
   </energy>
  </scstep>
  <scstep>
   <time name="dav">   67.15   67.39</time>
   <time name="total">   67.94   68.18</time>
   <energy>
    <i name="e_fr_energy">   -293.70637054 </i>
    <i name="e_wo_entrp">   -293.70637054 </i>
    <i name="e_0_energy">   -293.70637054 </i>
   </energy>
  </scstep>
  <scstep>
   <time name="dav">   65.18   65.38</time>
   <time name="total">   66.03   66.24</time>
   <energy>
    <i name="e_fr_energy">   -293.70636946 </i>
    <i name="e_wo_entrp">   -293.70636946 </i>
    <i name="e_0_energy">   -293.70636946 </i>
   </energy>
  </scstep>
  <scstep>
   <time name="dav">   44.46   44.57</time>
   <time name="total">   44.53   44.64</time>
   <energy>
    <i name="alphaZ">   1084.63403374 </i>
    <i name="ewald"> -30808.96673722 </i>
    <i name="hartreedc"> -12859.31291359 </i>
    <i name="XCdc">   1348.08966324 </i>
    <i name="pawpsdc">  44127.06833462 </i>
    <i name="pawaedc"> -43524.34273342 </i>
    <i name="eentropy">      0.00000000 </i>
    <i name="bandstr">  -4069.42324646 </i>
    <i name="atom">  44408.54722957 </i>
    <i name="e_fr_energy">   -293.70636951 </i>
    <i name="e_wo_entrp">   -293.70636951 </i>
    <i name="e_0_energy">   -293.70636951 </i>
   </energy>
  </scstep>
  <structure>
   <crystal>
    <varray name="basis" >
     <v>      11.14323241      -0.00346916       0.00145942 </v>
     <v>      -0.00297140       9.49749573      -0.00050514 </v>
     <v>       0.00145992      -0.00058996      11.12623068 </v>
    </varray>
    <i name="volume">   1177.52003259 </i>
    <varray name="rec_basis" >
     <v>       0.08974058       0.00002808      -0.00001177 </v>
     <v>       0.00003278       0.10529092       0.00000558 </v>
     <v>      -0.00001177       0.00000478       0.08987770 </v>
    </varray>
   </crystal>
   <varray name="positions" >
    <v>       0.37427219       0.00016303       0.43364033 </v>
    <v>       0.62569612       0.99951283       0.43715044 </v>
    <v>       0.87644407       0.00017789       0.43564457 </v>
    <v>       0.62428499       0.00018837       0.18980511 </v>
    <v>       0.12711738       0.99952522       0.93681706 </v>
    <v>       0.37438302       0.00015283       0.94020568 </v>
    <v>       0.12294375       0.00017839       0.68387137 </v>
    <v>       0.87348626       0.00013872       0.68326116 </v>
    <v>       0.12552141       0.99926013       0.19291845 </v>
    <v>       0.37733111       0.00016187       0.68434268 </v>
    <v>       0.62179076       0.00040168       0.93564012 </v>
    <v>       0.87781133       0.00016709       0.93990486 </v>
    <v>      -0.00016530       0.30027238       0.06511323 </v>
    <v>       0.25118223       0.70464972       0.06468535 </v>
    <v>       0.25022313       0.28977483       0.31363209 </v>
    <v>       0.49952776       0.70984807       0.31291702 </v>
    <v>       0.49898762       0.29562118       0.06546832 </v>
    <v>       0.75042314       0.69938292       0.06600303 </v>
    <v>       0.75031515       0.29012764       0.31341919 </v>
    <v>       0.99952783       0.71013289       0.31414581 </v>
    <v>       0.00029750       0.29027158       0.56076551 </v>
    <v>       0.24900351       0.70452976       0.56035518 </v>
    <v>       0.24948858       0.30074673       0.81246959 </v>
    <v>       0.50032539       0.69976513       0.81151277 </v>
    <v>       0.50126327       0.29509897       0.56124801 </v>
    <v>       0.74983406       0.70992234       0.56156683 </v>
    <v>       0.74943452       0.30080168       0.81023702 </v>
    <v>       0.00031307       0.69909386       0.81119808 </v>
    <v>       0.24948679       0.32728819       0.06154217 </v>
    <v>      -0.00027176       0.67294473       0.06137018 </v>
    <v>       0.50003202       0.32801994       0.31251567 </v>
    <v>       0.24981980       0.67227905       0.31226909 </v>
    <v>       0.75029086       0.32696762       0.06107820 </v>
    <v>       0.50068794       0.67281885       0.06127493 </v>
    <v>       0.00009685       0.32767536       0.31146590 </v>
    <v>       0.74985922       0.67193764       0.31169912 </v>
    <v>       0.25068407       0.32751347       0.56470798 </v>
    <v>       0.00047343       0.67221487       0.56454590 </v>
    <v>       0.49987212       0.32686936       0.81320416 </v>
    <v>       0.25010265       0.67282541       0.81293396 </v>
    <v>       0.74970282       0.32790399       0.56433653 </v>
    <v>       0.49933307       0.67236684       0.56448132 </v>
    <v>       0.99973242       0.32709976       0.81402499 </v>
    <v>       0.75008702       0.67328873       0.81427171 </v>
    <v>       0.50484649       0.07700777       0.05656544 </v>
    <v>       0.24494004       0.92226003       0.06048665 </v>
    <v>       0.24798489       0.08317644       0.31000457 </v>
    <v>       0.00224238       0.91692568       0.30951093 </v>
    <v>       0.00202486       0.07432047       0.05825195 </v>
    <v>       0.74782327       0.92661123       0.05457881 </v>
    <v>       0.74749103       0.08254461       0.31422654 </v>
    <v>       0.50264840       0.91754366       0.31476029 </v>
    <v>       0.49479682       0.07840449       0.56319923 </v>
    <v>       0.25455090       0.92240210       0.56834450 </v>
    <v>       0.25216292       0.07339408       0.81082426 </v>
    <v>      -0.00201957       0.92679491       0.81549454 </v>
    <v>       0.99772587       0.08203545       0.56640195 </v>
    <v>       0.75232880       0.91761146       0.56108339 </v>
    <v>       0.75279312       0.07308137       0.81979028 </v>
    <v>       0.49738659       0.92586466       0.81541603 </v>
   </varray>
  </structure>
  <varray name="forces" >
   <v>      -0.24883919      -0.00577053      -0.51387465 </v>
   <v>       0.00089404      -0.03363579       0.14816628 </v>
   <v>       0.21291671       0.00102358      -0.26048580 </v>
   <v>       0.02001637       0.03591805       0.26201927 </v>
   <v>       0.26571434      -0.03157831      -0.08424536 </v>
   <v>      -0.25905334       0.00182522       0.49278228 </v>
   <v>      -0.19547760       0.02930429      -0.34042594 </v>
   <v>      -0.24534185       0.00302365      -0.28271685 </v>
   <v>       0.02043044      -0.02777571       0.37528874 </v>
   <v>       0.43032892      -0.00360764       0.20938196 </v>
   <v>      -0.16811174       0.00426156      -0.51467200 </v>
   <v>       0.23377965      -0.01885203       0.46071133 </v>
   <v>      -0.08507377       0.00433012       0.15367713 </v>
   <v>       0.10416627      -0.17456268       0.11036824 </v>
   <v>       0.07897701       1.41308406       0.12970283 </v>
   <v>      -0.06163618      -1.17439331      -0.04872737 </v>
   <v>      -0.11010310       0.07132118       0.24541437 </v>
   <v>       0.06747906       0.14301457       0.24335042 </v>
   <v>       0.08577327       1.18833990      -0.05913427 </v>
   <v>      -0.08906165      -1.35236036       0.11932206 </v>
   <v>       0.10639128       1.02333979      -0.17071615 </v>
   <v>      -0.13067082      -0.18977802      -0.18517249 </v>
   <v>      -0.04948258      -0.10756628      -0.05804572 </v>
   <v>       0.06020321      -0.02434640      -0.13919245 </v>
   <v>       0.11253522       0.37894194      -0.08681090 </v>
   <v>      -0.10411009      -1.13139716      -0.00510421 </v>
   <v>      -0.01697841      -0.20367334      -0.18507060 </v>
   <v>       0.03112470       0.10221048      -0.09411051 </v>
   <v>      -0.05911326       0.12829732      -0.09524713 </v>
   <v>      -0.03282113      -0.17118035      -0.12310282 </v>
   <v>       0.01759294       0.15428707      -0.03453619 </v>
   <v>      -0.03941837      -0.08656017      -0.08873407 </v>
   <v>       0.00243130       0.18844975      -0.16837377 </v>
   <v>       0.08759494      -0.11856265      -0.15861101 </v>
   <v>       0.04680919       0.08048195      -0.17347297 </v>
   <v>      -0.02596179      -0.17338405      -0.11825508 </v>
   <v>       0.08871727       0.16766584       0.21272315 </v>
   <v>       0.04775198      -0.13159594       0.19176622 </v>
   <v>      -0.00785755       0.13621010       0.02417427 </v>
   <v>       0.02905611      -0.21321133      -0.01769149 </v>
   <v>      -0.02503125       0.15204536       0.13733480 </v>
   <v>      -0.11141122      -0.15938878       0.17493705 </v>
   <v>      -0.03422023       0.20946565       0.09157279 </v>
   <v>       0.01338130      -0.15998585       0.12720924 </v>
   <v>       0.56960234       0.06806418      -0.60361496 </v>
   <v>      -0.81156793       0.11579177      -0.09048978 </v>
   <v>      -0.29669534      -1.34577857      -0.30836327 </v>
   <v>       0.29603240       1.29085599      -0.32476021 </v>
   <v>       0.65719881       0.36730316      -0.23966321 </v>
   <v>      -0.43642517      -0.52407587      -0.82402838 </v>
   <v>      -0.50375370      -1.27992815       0.47870048 </v>
   <v>       0.49188166       1.26976564       0.49687605 </v>
   <v>      -0.64803738      -0.16975694      -0.27730271 </v>
   <v>       0.64574058       0.03226071       0.63165389 </v>
   <v>       0.31231948       0.35860485      -0.29005172 </v>
   <v>      -0.18891007      -0.41133702       0.20187079 </v>
   <v>      -0.49274214      -1.13507827       0.52684974 </v>
   <v>       0.50026627       1.24191432      -0.47353567 </v>
   <v>       0.39434115       0.55018828       0.83912896 </v>
   <v>      -0.55354138      -0.35246885       0.35335735 </v>
  </varray>
  <varray name="stress" >
   <v>       5.72899847       0.83303392       0.17954995 </v>
   <v>       0.83303403      10.59321321       0.10083657 </v>
   <v>       0.17955029       0.10083620       7.56073914 </v>
  </varray>
  <energy>
   <i name="e_fr_energy">   -307.46051237 </i>
   <i name="e_wo_entrp">   -307.46051237 </i>
   <i name="e_0_energy">      0.00000000 </i>
  </energy>
  <time name="totalsc"> 1073.15 1076.24</time>
 </calculation>
 <calculation>
  <scstep>
   <time name="dav">   65.91   66.51</time>
   <time name="total">   66.70   67.30</time>
   <energy>
    <i name="alphaZ">   1084.28537998 </i>
    <i name="ewald"> -30806.38753096 </i>
    <i name="hartreedc"> -12857.48437692 </i>
    <i name="XCdc">   1347.89661470 </i>
    <i name="pawpsdc">  44126.99321042 </i>
    <i name="pawaedc"> -43524.27019876 </i>
    <i name="eentropy">      0.00000000 </i>
    <i name="bandstr">  -4073.29052188 </i>
    <i name="atom">  44408.54722957 </i>
    <i name="e_fr_energy">   -293.71019384 </i>
    <i name="e_wo_entrp">   -293.71019384 </i>
    <i name="e_0_energy">   -293.71019384 </i>
   </energy>
  </scstep>
  <scstep>
   <time name="dav">   67.97   68.48</time>
   <time name="total">   68.75   69.26</time>
   <energy>
    <i name="e_fr_energy">   -293.71085175 </i>
    <i name="e_wo_entrp">   -293.71085175 </i>
    <i name="e_0_energy">   -293.71085175 </i>
   </energy>
  </scstep>
  <scstep>
   <time name="dav">   88.40   89.01</time>
   <time name="total">   89.18   89.79</time>
   <energy>
    <i name="e_fr_energy">   -293.71076939 </i>
    <i name="e_wo_entrp">   -293.71076939 </i>
    <i name="e_0_energy">   -293.71076939 </i>
   </energy>
  </scstep>
  <scstep>
   <time name="dav">   74.22   74.74</time>
   <time name="total">   75.00   75.53</time>
   <energy>
    <i name="e_fr_energy">   -293.71072687 </i>
    <i name="e_wo_entrp">   -293.71072687 </i>
    <i name="e_0_energy">   -293.71072687 </i>
   </energy>
  </scstep>
  <scstep>
   <time name="dav">   76.37   76.88</time>
   <time name="total">   77.14   77.67</time>
   <energy>
    <i name="e_fr_energy">   -293.71072313 </i>
    <i name="e_wo_entrp">   -293.71072313 </i>
    <i name="e_0_energy">   -293.71072313 </i>
   </energy>
  </scstep>
  <scstep>
   <time name="dav">   60.52   60.98</time>
   <time name="total">   61.31   61.77</time>
   <energy>
    <i name="e_fr_energy">   -293.71072069 </i>
    <i name="e_wo_entrp">   -293.71072069 </i>
    <i name="e_0_energy">   -293.71072069 </i>
   </energy>
  </scstep>
  <scstep>
   <time name="dav">   48.02   48.45</time>
   <time name="total">   48.80   49.24</time>
   <energy>
    <i name="e_fr_energy">   -293.71071808 </i>
    <i name="e_wo_entrp">   -293.71071808 </i>
    <i name="e_0_energy">   -293.71071808 </i>
   </energy>
  </scstep>
  <scstep>
   <time name="dav">   42.67   43.07</time>
   <time name="total">   42.74   43.15</time>
   <energy>
    <i name="alphaZ">   1084.28537998 </i>
    <i name="ewald"> -30806.38753096 </i>
    <i name="hartreedc"> -12860.40830862 </i>
    <i name="XCdc">   1348.02774122 </i>
    <i name="pawpsdc">  44118.25730186 </i>
    <i name="pawaedc"> -43515.45544339 </i>
    <i name="eentropy">      0.00000000 </i>
    <i name="bandstr">  -4070.57708703 </i>
    <i name="atom">  44408.54722957 </i>
    <i name="e_fr_energy">   -293.71071738 </i>
    <i name="e_wo_entrp">   -293.71071738 </i>
    <i name="e_0_energy">   -293.71071738 </i>
   </energy>
  </scstep>
  <structure>
   <crystal>
    <varray name="basis" >
     <v>      11.14392671      -0.00340086       0.00143068 </v>
     <v>      -0.00291290       9.49901365      -0.00049519 </v>
     <v>       0.00143118      -0.00057835      11.12733647 </v>
    </varray>
    <i name="volume">   1177.89866611 </i>
    <varray name="rec_basis" >
     <v>       0.08973499       0.00002752      -0.00001154 </v>
     <v>       0.00003213       0.10527410       0.00000547 </v>
     <v>      -0.00001154       0.00000468       0.08986877 </v>
    </varray>
   </crystal>
   <varray name="positions" >
    <v>       0.37429426       0.00016318       0.43370423 </v>
    <v>       0.62569008       0.99951932       0.43714489 </v>
    <v>       0.87642325       0.00017773       0.43566882 </v>
    <v>       0.62429142       0.00018145       0.18974703 </v>
    <v>       0.12708327       0.99953146       0.93681811 </v>
    <v>       0.37440291       0.00015317       0.94013968 </v>
    <v>       0.12297664       0.00017169       0.68393070 </v>
    <v>       0.87350844       0.00013936       0.68333257 </v>
    <v>       0.12550343       0.99927163       0.19279877 </v>
    <v>       0.37727736       0.00016201       0.68439270 </v>
    <v>       0.62186184       0.00039056       0.93566444 </v>
    <v>       0.87776352       0.00016713       0.93984482 </v>
    <v>      -0.00015949       0.30017151       0.06506765 </v>
    <v>       0.25116145       0.70465289       0.06464824 </v>
    <v>       0.25021619       0.28988230       0.31361603 </v>
    <v>       0.49953450       0.70974808       0.31291509 </v>
    <v>       0.49901019       0.29561263       0.06541572 </v>
    <v>       0.75041739       0.69949062       0.06593986 </v>
    <v>       0.75030639       0.29022810       0.31340734 </v>
    <v>       0.99953456       0.71002725       0.31411957 </v>
    <v>       0.00029421       0.29036919       0.56080597 </v>
    <v>       0.24902575       0.70453534       0.56040375 </v>
    <v>       0.24949608       0.30063645       0.81247652 </v>
    <v>       0.50031642       0.69986525       0.81153864 </v>
    <v>       0.50124089       0.29510077       0.56127892 </v>
    <v>       0.74983987       0.70982088       0.56159143 </v>
    <v>       0.74944308       0.30069032       0.81028812 </v>
    <v>       0.00030434       0.69920730       0.81123018 </v>
    <v>       0.24949791       0.32727791       0.06156824 </v>
    <v>      -0.00026541       0.67295040       0.06139966 </v>
    <v>       0.50003040       0.32799513       0.31252248 </v>
    <v>       0.24982238       0.67229793       0.31228078 </v>
    <v>       0.75028610       0.32696369       0.06111345 </v>
    <v>       0.50067534       0.67282701       0.06130629 </v>
    <v>       0.00009394       0.32765739       0.31149349 </v>
    <v>       0.74986102       0.67196329       0.31172209 </v>
    <v>       0.25067155       0.32749871       0.56467142 </v>
    <v>       0.00046508       0.67223501       0.56451254 </v>
    <v>       0.49987366       0.32686739       0.81319735 </v>
    <v>       0.25009964       0.67283344       0.81293250 </v>
    <v>       0.74970967       0.32788148       0.56430731 </v>
    <v>       0.49934724       0.67238398       0.56444924 </v>
    <v>       0.99973671       0.32709321       0.81400194 </v>
    <v>       0.75008432       0.67328756       0.81424378 </v>
    <v>       0.50474820       0.07702704       0.05668208 </v>
    <v>       0.24503739       0.92225531       0.06052568 </v>
    <v>       0.24802722       0.08307333       0.31005314 </v>
    <v>       0.00220068       0.91702678       0.30956929 </v>
    <v>       0.00198231       0.07439309       0.05833522 </v>
    <v>       0.74786365       0.92652013       0.05473474 </v>
    <v>       0.74754313       0.08245404       0.31419157 </v>
    <v>       0.50259870       0.91763248       0.31471478 </v>
    <v>       0.49489701       0.07839610       0.56318459 </v>
    <v>       0.25445847       0.92239448       0.56822808 </v>
    <v>       0.25212279       0.07348508       0.81085664 </v>
    <v>      -0.00197713       0.92670016       0.81543449 </v>
    <v>       0.99776820       0.08195498       0.56632394 </v>
    <v>       0.75228026       0.91769893       0.56111064 </v>
    <v>       0.75274057       0.07317857       0.81964526 </v>
    <v>       0.49744076       0.92578837       0.81535753 </v>
   </varray>
  </structure>
  <varray name="forces" >
   <v>      -0.24916764      -0.00565003      -0.51859869 </v>
   <v>       0.00224132      -0.03427059       0.14643202 </v>
   <v>       0.21371409       0.00100094      -0.26116111 </v>
   <v>       0.01828575       0.03648743       0.27023999 </v>
   <v>       0.26859948      -0.03236182      -0.08206538 </v>
   <v>      -0.25850982       0.00169316       0.49836904 </v>
   <v>      -0.19927058       0.03021354      -0.34763844 </v>
   <v>      -0.24558218       0.00288460      -0.29380283 </v>
   <v>       0.02388082      -0.02910304       0.39655964 </v>
   <v>       0.43417105      -0.00334734       0.19112952 </v>
   <v>      -0.18276554       0.00725955      -0.50790369 </v>
   <v>       0.24020596      -0.01828671       0.46572144 </v>
   <v>      -0.08486953       0.02140681       0.16195380 </v>
   <v>       0.10687469      -0.17195033       0.11713587 </v>
   <v>       0.07832379       1.34941026       0.12981450 </v>
   <v>      -0.06128900      -1.11969008      -0.04671939 </v>
   <v>      -0.11320906       0.07220639       0.25326393 </v>
   <v>       0.06767745       0.12272445       0.25432469 </v>
   <v>       0.08538532       1.13290708      -0.05481971 </v>
   <v>      -0.08810417      -1.29099944       0.12181996 </v>
   <v>       0.10447995       0.97385274      -0.17554051 </v>
   <v>      -0.13344013      -0.18761599      -0.19299249 </v>
   <v>      -0.05031761      -0.08749343      -0.05857865 </v>
   <v>       0.06119642      -0.04099409      -0.14299244 </v>
   <v>       0.11554331       0.37089288      -0.09236613 </v>
   <v>      -0.10272744      -1.07697083      -0.01089178 </v>
   <v>      -0.01880789      -0.18185472      -0.19441023 </v>
   <v>       0.03264839       0.08192629      -0.10029233 </v>
   <v>      -0.06052927       0.12811332      -0.09953007 </v>
   <v>      -0.03365141      -0.16923068      -0.12758865 </v>
   <v>       0.01748703       0.15630114      -0.03564562 </v>
   <v>      -0.03910622      -0.08872883      -0.08974403 </v>
   <v>       0.00350371       0.18589966      -0.17333788 </v>
   <v>       0.08878129      -0.11812041      -0.16282240 </v>
   <v>       0.04649217       0.08266308      -0.17692974 </v>
   <v>      -0.02578591      -0.17523152      -0.12199864 </v>
   <v>       0.08991073       0.16746352       0.21726264 </v>
   <v>       0.04898074      -0.13317423       0.19611973 </v>
   <v>      -0.00808880       0.13420432       0.02527451 </v>
   <v>       0.02924789      -0.21092848      -0.01707276 </v>
   <v>      -0.02636009       0.15364055       0.14203802 </v>
   <v>      -0.11250332      -0.15979483       0.17936235 </v>
   <v>      -0.03455370       0.20703428       0.09511201 </v>
   <v>       0.01375183      -0.15712628       0.13125566 </v>
   <v>       0.58360348       0.06074423      -0.62143739 </v>
   <v>      -0.81853536       0.11473978      -0.09799905 </v>
   <v>      -0.30058303      -1.28527516      -0.31297632 </v>
   <v>       0.29970781       1.23247917      -0.33091588 </v>
   <v>       0.65355429       0.34790316      -0.25541332 </v>
   <v>      -0.43739654      -0.49883735      -0.84593146 </v>
   <v>      -0.50516014      -1.22493104       0.47726574 </v>
   <v>       0.49294176       1.21572869       0.49724519 </v>
   <v>      -0.65979243      -0.16565091      -0.26709427 </v>
   <v>       0.65611760       0.03464995       0.64736744 </v>
   <v>       0.31574445       0.33777650      -0.29209771 </v>
   <v>      -0.19586747      -0.38847296       0.21289657 </v>
   <v>      -0.49251496      -1.08731088       0.53323436 </v>
   <v>       0.50094882       1.18845088      -0.47062514 </v>
   <v>       0.39939497       0.52369291       0.85799497 </v>
   <v>      -0.55490710      -0.33294927       0.36074052 </v>
  </varray>
  <varray name="stress" >
   <v>       5.46891139       0.78734881       0.18353005 </v>
   <v>       0.78734923       9.87094179       0.09856585 </v>
   <v>       0.18352992       0.09856582       7.19520250 </v>
  </varray>
  <energy>
   <i name="e_fr_energy">   -307.46160606 </i>
   <i name="e_wo_entrp">   -307.46160606 </i>
   <i name="e_0_energy">      0.00000000 </i>
  </energy>
  <time name="totalsc">  634.66  639.91</time>
 </calculation>
 <calculation>
  <scstep>
   <time name="dav">   64.58   64.74</time>
   <time name="total">   65.36   65.52</time>
   <energy>
    <i name="alphaZ">   1078.79216469 </i>
    <i name="ewald"> -30867.33734583 </i>
    <i name="hartreedc"> -12732.01681262 </i>
    <i name="XCdc">   1344.46026044 </i>
    <i name="pawpsdc">  44118.25420467 </i>
    <i name="pawaedc"> -43515.45280107 </i>
    <i name="eentropy">      0.00000000 </i>
    <i name="bandstr">  -4128.29797502 </i>
    <i name="atom">  44408.54722957 </i>
    <i name="e_fr_energy">   -293.05107516 </i>
    <i name="e_wo_entrp">   -293.05107516 </i>
    <i name="e_0_energy">   -293.05107516 </i>
   </energy>
  </scstep>
  <scstep>
   <time name="dav">   70.10   70.35</time>
   <time name="total">   70.89   71.14</time>
   <energy>
    <i name="e_fr_energy">   -294.56236927 </i>
    <i name="e_wo_entrp">   -294.56236927 </i>
    <i name="e_0_energy">   -294.56236927 </i>
   </energy>
  </scstep>
  <scstep>
   <time name="dav">   88.28   88.58</time>
   <time name="total">   89.15   89.45</time>
   <energy>
    <i name="e_fr_energy">   -294.54266465 </i>
    <i name="e_wo_entrp">   -294.54266465 </i>
    <i name="e_0_energy">   -294.54266465 </i>
   </energy>
  </scstep>
  <scstep>
   <time name="dav">   74.06   74.33</time>
   <time name="total">   74.85   75.12</time>
   <energy>
    <i name="e_fr_energy">   -294.51286346 </i>
    <i name="e_wo_entrp">   -294.51286346 </i>
    <i name="e_0_energy">   -294.51286346 </i>
   </energy>
  </scstep>
  <scstep>
   <time name="dav">   75.71   75.99</time>
   <time name="total">   76.50   76.78</time>
   <energy>
    <i name="e_fr_energy">   -294.49658038 </i>
    <i name="e_wo_entrp">   -294.49658038 </i>
    <i name="e_0_energy">   -294.49658038 </i>
   </energy>
  </scstep>
  <scstep>
   <time name="dav">   75.28   75.56</time>
   <time name="total">   76.06   76.34</time>
   <energy>
    <i name="e_fr_energy">   -294.49675989 </i>
    <i name="e_wo_entrp">   -294.49675989 </i>
    <i name="e_0_energy">   -294.49675989 </i>
   </energy>
  </scstep>
  <scstep>
   <time name="dav">   80.11   80.80</time>
   <time name="total">   80.89   81.58</time>
   <energy>
    <i name="e_fr_energy">   -294.49681146 </i>
    <i name="e_wo_entrp">   -294.49681146 </i>
    <i name="e_0_energy">   -294.49681146 </i>
   </energy>
  </scstep>
  <scstep>
   <time name="dav">   77.02   77.36</time>
   <time name="total">   77.81   78.15</time>
   <energy>
    <i name="e_fr_energy">   -294.49675281 </i>
    <i name="e_wo_entrp">   -294.49675281 </i>
    <i name="e_0_energy">   -294.49675281 </i>
   </energy>
  </scstep>
  <scstep>
   <time name="dav">   80.07   80.50</time>
   <time name="total">   80.87   81.29</time>
   <energy>
    <i name="e_fr_energy">   -294.49674165 </i>
    <i name="e_wo_entrp">   -294.49674165 </i>
    <i name="e_0_energy">   -294.49674165 </i>
   </energy>
  </scstep>
  <scstep>
   <time name="dav">   74.69   74.78</time>
   <time name="total">   75.48   75.58</time>
   <energy>
    <i name="e_fr_energy">   -294.49674554 </i>
    <i name="e_wo_entrp">   -294.49674554 </i>
    <i name="e_0_energy">   -294.49674554 </i>
   </energy>
  </scstep>
  <scstep>
   <time name="dav">   69.78   69.81</time>
   <time name="total">   70.56   70.60</time>
   <energy>
    <i name="e_fr_energy">   -294.49674712 </i>
    <i name="e_wo_entrp">   -294.49674712 </i>
    <i name="e_0_energy">   -294.49674712 </i>
   </energy>
  </scstep>
  <scstep>
   <time name="dav">   62.65   62.74</time>
   <time name="total">   62.73   62.86</time>
   <energy>
    <i name="alphaZ">   1078.79216469 </i>
    <i name="ewald"> -30867.33734583 </i>
    <i name="hartreedc"> -12775.18172946 </i>
    <i name="XCdc">   1346.46414955 </i>
    <i name="pawpsdc">  43836.10791001 </i>
    <i name="pawaedc"> -43229.37833307 </i>
    <i name="eentropy">      0.00000000 </i>
    <i name="bandstr">  -4092.51079328 </i>
    <i name="atom">  44408.54722957 </i>
    <i name="e_fr_energy">   -294.49674781 </i>
    <i name="e_wo_entrp">   -294.49674781 </i>
    <i name="e_0_energy">   -294.49674781 </i>
   </energy>
  </scstep>
  <structure>
   <crystal>
    <varray name="basis" >
     <v>      11.16208023       0.00001538       0.00337093 </v>
     <v>      -0.00000071       9.51564515      -0.00019799 </v>
     <v>       0.00336836      -0.00022919      11.14629185 </v>
    </varray>
    <i name="volume">   1183.89653222 </i>
    <varray name="rec_basis" >
     <v>       0.08958904       0.00000001      -0.00002707 </v>
     <v>      -0.00000015       0.10509009       0.00000216 </v>
     <v>      -0.00002709       0.00000187       0.08971594 </v>
    </varray>
   </crystal>
   <varray name="positions" >
    <v>       0.37265489       0.00013023       0.42982817 </v>
    <v>       0.62585440       0.99917977       0.43791933 </v>
    <v>       0.87787821       0.00018722       0.43391980 </v>
    <v>       0.62420561       0.00054324       0.19240153 </v>
    <v>       0.12911523       0.99920845       0.93643661 </v>
    <v>       0.37277835       0.00015266       0.94398252 </v>
    <v>       0.12127499       0.00049575       0.68091003 </v>
    <v>       0.87188144       0.00013728       0.68023512 </v>
    <v>       0.12606672       0.99883015       0.19757643 </v>
    <v>       0.38052603       0.00014208       0.68393687 </v>
    <v>       0.61925353       0.00071168       0.93284817 </v>
    <v>       0.88002364       0.00007417       0.94339372 </v>
    <v>      -0.00067436       0.30286308       0.06693445 </v>
    <v>       0.25215413       0.70370202       0.06610431 </v>
    <v>       0.25073349       0.29395630       0.31458829 </v>
    <v>       0.49909631       0.70664457       0.31276242 </v>
    <v>       0.49794400       0.29619684       0.06785677 </v>
    <v>       0.75085659       0.69735321       0.06865615 </v>
    <v>       0.75090057       0.29338618       0.31347432 </v>
    <v>       0.99898042       0.70620195       0.31531743 </v>
    <v>       0.00083033       0.29279569       0.55901184 </v>
    <v>       0.24788050       0.70344326       0.55832638 </v>
    <v>       0.24908685       0.30301814       0.81204613 </v>
    <v>       0.50081010       0.69709369       0.81025847 </v>
    <v>       0.50231301       0.29693105       0.56008840 </v>
    <v>       0.74924655       0.70697114       0.56091433 </v>
    <v>       0.74914247       0.30262253       0.80813970 </v>
    <v>       0.00066876       0.69671631       0.80997496 </v>
    <v>       0.24895239       0.32818913       0.06047069 </v>
    <v>      -0.00057337       0.67194912       0.06009366 </v>
    <v>       0.50014771       0.32942118       0.31219410 </v>
    <v>       0.24958773       0.67136558       0.31159375 </v>
    <v>       0.75042353       0.32800450       0.05946195 </v>
    <v>       0.50138085       0.67202065       0.05979974 </v>
    <v>       0.00036912       0.32853576       0.31002293 </v>
    <v>       0.74970365       0.67041982       0.31060689 </v>
    <v>       0.25138006       0.32872413       0.56654614 </v>
    <v>       0.00088995       0.67104560       0.56621375 </v>
    <v>       0.49979954       0.32759678       0.81348094 </v>
    <v>       0.25030265       0.67156083       0.81289617 </v>
    <v>       0.74942056       0.32923508       0.56566906 </v>
    <v>       0.49849894       0.67113668       0.56604550 </v>
    <v>       0.99947784       0.32830812       0.81500316 </v>
    <v>       0.75021256       0.67252268       0.81552598 </v>
    <v>       0.50978273       0.07684160       0.05101055 </v>
    <v>       0.23901441       0.92295551       0.05910323 </v>
    <v>       0.24564533       0.07921182       0.30745734 </v>
    <v>       0.00456289       0.92067277       0.30664558 </v>
    <v>       0.00589086       0.07429411       0.05509918 </v>
    <v>       0.74494319       0.92632886       0.04708798 </v>
    <v>       0.74402856       0.07857657       0.31714814 </v>
    <v>       0.50599878       0.92150860       0.31802758 </v>
    <v>       0.48948565       0.07777190       0.56240645 </v>
    <v>       0.25965484       0.92276619       0.57400518 </v>
    <v>       0.25451274       0.07286352       0.80876594 </v>
    <v>      -0.00390926       0.92716151       0.81789198 </v>
    <v>       0.99455842       0.07851508       0.57062464 </v>
    <v>       0.75568548       0.92147116       0.55838037 </v>
    <v>       0.75580898       0.07333937       0.82706490 </v>
[...]
       <r>    8.7160    0.0000 </r>
       <r>    8.7607    0.0000 </r>
       <r>    8.8235    0.0000 </r>
       <r>    8.8335    0.0000 </r>
       <r>    8.8713    0.0000 </r>
       <r>    8.9210    0.0000 </r>
       <r>    9.0031    0.0000 </r>
      </set>
     </set>
    </set>
   </array>
  </eigenvalues>
  <separator name="orbital magnetization" >
   <v name="MAGDIPOLOUT">      0.00000000      0.00000000      0.00000000</v>
  </separator>
  <dos>
   <i name="efermi">      4.21866366 </i>
   <total>
    <array>
     <dimension dim="1">gridpoints</dimension>
     <dimension dim="2">spin</dimension>
     <field>energy</field>
     <field>total</field>
     <field>integrated</field>
     <set>
      <set comment="spin 1">
       <r>   -42.4128     0.0000     0.0000 </r>
       <r>   -42.2308     0.0000     0.0000 </r>
       <r>   -42.0489     0.0000     0.0000 </r>
       <r>   -41.8669     0.0000     0.0000 </r>
       <r>   -41.6849     0.0000     0.0000 </r>
       <r>   -41.5029     0.0000     0.0000 </r>
       <r>   -41.3210     0.0000     0.0000 </r>
       <r>   -41.1390     0.0000     0.0000 </r>
       <r>   -40.9570     0.0000     0.0000 </r>
       <r>   -40.7750     0.0000     0.0000 </r>
       <r>   -40.5931     0.0000     0.0000 </r>
       <r>   -40.4111     0.0000     0.0000 </r>
       <r>   -40.2291     0.0000     0.0000 </r>
       <r>   -40.0471     0.0000     0.0000 </r>
       <r>   -39.8651     0.0000     2.0000 </r>
       <r>   -39.6832     0.0000     8.0000 </r>
       <r>   -39.5012     0.0000    14.0000 </r>
       <r>   -39.3192     0.0000    14.0000 </r>
       <r>   -39.1372     0.0000    16.0000 </r>
       <r>   -38.9553     0.0000    16.0000 </r>
       <r>   -38.7733     0.0000    16.0000 </r>
       <r>   -38.5913     0.0000    16.0000 </r>
       <r>   -38.4093     0.0000    16.0000 </r>
       <r>   -38.2274     0.0000    16.0000 </r>
       <r>   -38.0454     0.0000    16.0000 </r>
       <r>   -37.8634     0.0000    16.0000 </r>
       <r>   -37.6814     0.0000    16.0000 </r>
       <r>   -37.4995     0.0000    16.0000 </r>
       <r>   -37.3175     0.0000    16.0000 </r>
       <r>   -37.1355     0.0000    16.0000 </r>
       <r>   -36.9535     0.0000    16.0000 </r>
       <r>   -36.7715     0.0000    16.0000 </r>
       <r>   -36.5896     0.0000    16.0000 </r>
       <r>   -36.4076     0.0000    16.0000 </r>
       <r>   -36.2256     0.0000    16.0000 </r>
       <r>   -36.0436     0.0000    16.0000 </r>
       <r>   -35.8617     0.0000    16.0000 </r>
       <r>   -35.6797     0.0000    16.0000 </r>
       <r>   -35.4977     0.0000    16.0000 </r>
       <r>   -35.3157     0.0000    16.0000 </r>
       <r>   -35.1338     0.0000    16.0000 </r>
       <r>   -34.9518     0.0000    16.0000 </r>
       <r>   -34.7698     0.0000    16.0000 </r>
       <r>   -34.5878     0.0000    16.0000 </r>
       <r>   -34.4059     0.0000    16.0000 </r>
       <r>   -34.2239     0.0000    16.0000 </r>
       <r>   -34.0419     0.0000    16.0000 </r>
       <r>   -33.8599     0.0000    16.0000 </r>
       <r>   -33.6779     0.0000    16.0000 </r>
       <r>   -33.4960     0.0000    16.0000 </r>
       <r>   -33.3140     0.0000    16.0000 </r>
       <r>   -33.1320     0.0000    16.0000 </r>
       <r>   -32.9500     0.0000    16.0000 </r>
       <r>   -32.7681     0.0000    16.0000 </r>
       <r>   -32.5861     0.0000    16.0000 </r>
       <r>   -32.4041     0.0000    16.0000 </r>
       <r>   -32.2221     0.0000    16.0000 </r>
       <r>   -32.0402     0.0000    16.0000 </r>
       <r>   -31.8582     0.0000    16.0000 </r>
       <r>   -31.6762     0.0000    16.0000 </r>
       <r>   -31.4942     0.0000    16.0000 </r>
       <r>   -31.3123     0.0000    16.0000 </r>
       <r>   -31.1303     0.0000    16.0000 </r>
       <r>   -30.9483     0.0000    16.0000 </r>
       <r>   -30.7663     0.0000    16.0000 </r>
       <r>   -30.5843     0.0000    16.0000 </r>
       <r>   -30.4024     0.0000    16.0000 </r>
       <r>   -30.2204     0.0000    16.0000 </r>
       <r>   -30.0384     0.0000    16.0000 </r>
       <r>   -29.8564     0.0000    16.0000 </r>
       <r>   -29.6745     0.0000    16.0000 </r>
       <r>   -29.4925     0.0000    16.0000 </r>
       <r>   -29.3105     0.0000    16.0000 </r>
       <r>   -29.1285     0.0000    16.0000 </r>
       <r>   -28.9466     0.0000    16.0000 </r>
       <r>   -28.7646     0.0000    16.0000 </r>
       <r>   -28.5826     0.0000    16.0000 </r>
       <r>   -28.4006     0.0000    16.0000 </r>
       <r>   -28.2186     0.0000    16.0000 </r>
       <r>   -28.0367     0.0000    16.0000 </r>
       <r>   -27.8547     0.0000    16.0000 </r>
       <r>   -27.6727     0.0000    16.0000 </r>
       <r>   -27.4907     0.0000    16.0000 </r>
       <r>   -27.3088     0.0000    16.0000 </r>
       <r>   -27.1268     0.0000    16.0000 </r>
       <r>   -26.9448     0.0000    16.0000 </r>
       <r>   -26.7628     0.0000    16.0000 </r>
       <r>   -26.5809     0.0000    16.0000 </r>
       <r>   -26.3989     0.0000    16.0000 </r>
       <r>   -26.2169     0.0000    16.0000 </r>
       <r>   -26.0349     0.0000    16.0000 </r>
       <r>   -25.8530     0.0000    16.0000 </r>
       <r>   -25.6710     0.0000    16.0000 </r>
       <r>   -25.4890     0.0000    16.0000 </r>
       <r>   -25.3070     0.0000    16.0000 </r>
       <r>   -25.1250     0.0000    16.0000 </r>
       <r>   -24.9431     0.0000    16.0000 </r>
       <r>   -24.7611     0.0000    16.0000 </r>
       <r>   -24.5791     0.0000    16.0000 </r>
       <r>   -24.3971     0.0000    16.0000 </r>
       <r>   -24.2152     0.0000    16.0000 </r>
       <r>   -24.0332     0.0000    16.0000 </r>
       <r>   -23.8512     0.0000    16.0000 </r>
       <r>   -23.6692     0.0000    16.0000 </r>
       <r>   -23.4873     0.0000    16.0000 </r>
       <r>   -23.3053     0.0000    16.0000 </r>
       <r>   -23.1233     0.0000    16.0000 </r>
       <r>   -22.9413     0.0000    16.0000 </r>
       <r>   -22.7594     0.0000    16.0000 </r>
       <r>   -22.5774     0.0000    16.0000 </r>
       <r>   -22.3954     0.0000    16.0000 </r>
       <r>   -22.2134     0.0000    16.0000 </r>
       <r>   -22.0314     0.0000    16.0000 </r>
       <r>   -21.8495     0.0000    16.0000 </r>
       <r>   -21.6675     0.0000    16.0000 </r>
       <r>   -21.4855     0.0000    16.0000 </r>
       <r>   -21.3035     0.0000    16.0000 </r>
       <r>   -21.1216     0.0000    16.0000 </r>
       <r>   -20.9396     0.0000    16.0000 </r>
       <r>   -20.7576     0.0000    16.0000 </r>
       <r>   -20.5756     0.0000    16.0000 </r>
       <r>   -20.3937     0.0000    16.0000 </r>
       <r>   -20.2117     0.0000    16.0000 </r>
       <r>   -20.0297     0.0000    16.0000 </r>
       <r>   -19.8477     0.0000    16.0000 </r>
       <r>   -19.6658     0.0000    16.0000 </r>
       <r>   -19.4838     0.0000    16.0000 </r>
       <r>   -19.3018     0.0000    16.0000 </r>
       <r>   -19.1198     0.0000    16.0000 </r>
       <r>   -18.9378     0.0000    16.0000 </r>
       <r>   -18.7559     0.0000    38.0000 </r>
       <r>   -18.5739     0.0000   130.0000 </r>
       <r>   -18.3919     0.0000   168.0000 </r>
       <r>   -18.2099     0.0000   176.0000 </r>
       <r>   -18.0280     0.0000   176.0000 </r>
       <r>   -17.8460     0.0000   176.0000 </r>
       <r>   -17.6640     0.0000   176.0000 </r>
       <r>   -17.4820     0.0000   176.0000 </r>
       <r>   -17.3001     0.0000   176.0000 </r>
       <r>   -17.1181     0.0000   176.0000 </r>
       <r>   -16.9361     0.0000   176.0000 </r>
       <r>   -16.7541     0.0000   176.0000 </r>
       <r>   -16.5722     0.0000   176.0000 </r>
       <r>   -16.3902     0.0000   176.0000 </r>
       <r>   -16.2082     0.0000   176.0000 </r>
       <r>   -16.0262     0.0000   176.0000 </r>
       <r>   -15.8442     0.0000   176.0000 </r>
       <r>   -15.6623     0.0000   176.0000 </r>
       <r>   -15.4803     0.0000   176.0000 </r>
       <r>   -15.2983     0.0000   176.0000 </r>
       <r>   -15.1163     0.0000   176.0000 </r>
       <r>   -14.9344     0.0000   176.0000 </r>
       <r>   -14.7524     0.0000   176.0000 </r>
       <r>   -14.5704     0.0000   176.0000 </r>
       <r>   -14.3884     0.0000   176.0000 </r>
       <r>   -14.2065     0.0000   176.0000 </r>
       <r>   -14.0245     0.0000   176.0000 </r>
       <r>   -13.8425     0.0000   176.0000 </r>
       <r>   -13.6605     0.0000   176.0000 </r>
       <r>   -13.4786     0.0000   176.0000 </r>
       <r>   -13.2966     0.0000   176.0000 </r>
       <r>   -13.1146     0.0000   180.0000 </r>
       <r>   -12.9326     0.0000   184.0000 </r>
       <r>   -12.7506     0.0000   192.0000 </r>
       <r>   -12.5687     0.0000   202.0000 </r>
       <r>   -12.3867     0.0000   208.0000 </r>
       <r>   -12.2047     0.0000   208.0000 </r>
       <r>   -12.0227     0.0000   208.0000 </r>
       <r>   -11.8408     0.0000   208.0000 </r>
       <r>   -11.6588     0.0000   208.0000 </r>
       <r>   -11.4768     0.0000   208.0000 </r>
       <r>   -11.2948     0.0000   208.0000 </r>
       <r>   -11.1129     0.0000   208.0000 </r>
       <r>   -10.9309     0.0000   208.0000 </r>
       <r>   -10.7489     0.0000   208.0000 </r>
       <r>   -10.5669     0.0000   208.0000 </r>
       <r>   -10.3850     0.0000   208.0000 </r>
       <r>   -10.2030     0.0000   208.0000 </r>
       <r>   -10.0210     0.0000   208.0000 </r>
       <r>    -9.8390     0.0000   208.0000 </r>
       <r>    -9.6570     0.0000   208.0000 </r>
       <r>    -9.4751     0.0000   208.0000 </r>
       <r>    -9.2931    10.8390   209.2237 </r>
       <r>    -9.1111    12.0162   211.0154 </r>
       <r>    -8.9291     0.8336   212.0040 </r>
       <r>    -8.7472    29.3503   214.6375 </r>
       <r>    -8.5652    56.9532   217.4170 </r>
       <r>    -8.3832    21.9822   221.9170 </r>
       <r>    -8.2012     0.0388   224.0000 </r>
       <r>    -8.0193    34.0830   229.5210 </r>
       <r>    -7.8373    25.6497   234.5892 </r>
       <r>    -7.6553    21.0770   237.0021 </r>
       <r>    -7.4733     1.5639   239.9866 </r>
       <r>    -7.2914     0.0000   240.0000 </r>
       <r>    -7.1094     0.0000   240.0000 </r>
       <r>    -6.9274     0.0000   240.0000 </r>
       <r>    -6.7454     0.0000   240.0000 </r>
       <r>    -6.5634     0.0000   240.0000 </r>
       <r>    -6.3815     1.0172   240.0118 </r>
       <r>    -6.1995    22.4946   241.8125 </r>
       <r>    -6.0175    20.0125   246.6292 </r>
       <r>    -5.8355    21.3149   249.4310 </r>
       <r>    -5.6536    22.6976   254.5170 </r>
       <r>    -5.4716    26.0691   259.0943 </r>
       <r>    -5.2896    10.5135   262.4797 </r>
       <r>    -5.1076     2.1397   263.9819 </r>
       <r>    -4.9257     9.5158   264.8097 </r>
       <r>    -4.7437    11.1863   267.0988 </r>
       <r>    -4.5617     4.3192   268.4678 </r>
       <r>    -4.3797     6.7540   269.4379 </r>
       <r>    -4.1978     7.3837   270.9748 </r>
       <r>    -4.0158     2.1498   271.6753 </r>
       <r>    -3.8338     0.8404   271.9472 </r>
       <r>    -3.6518     0.0000   272.0000 </r>
       <r>    -3.4698     0.0000   272.0000 </r>
       <r>    -3.2879     0.0000   272.0000 </r>
       <r>    -3.1059     0.0000   272.0000 </r>
       <r>    -2.9239     0.0000   272.0000 </r>
       <r>    -2.7419     0.0000   272.0000 </r>
       <r>    -2.5600     0.0000   272.0000 </r>
       <r>    -2.3780     0.0000   272.0000 </r>
       <r>    -2.1960     0.0000   272.0000 </r>
       <r>    -2.0140     0.0000   272.0000 </r>
       <r>    -1.8321     0.0000   272.0000 </r>
       <r>    -1.6501     0.0000   272.0000 </r>
       <r>    -1.4681     0.0000   272.0000 </r>
       <r>    -1.2861     4.9865   272.2221 </r>
       <r>    -1.1041     7.7416   273.7191 </r>
       <r>    -0.9222     7.5960   274.8563 </r>
       <r>    -0.7402    14.9286   277.1174 </r>
       <r>    -0.5582     7.5644   279.0998 </r>
       <r>    -0.3762    25.3610   281.9938 </r>
       <r>    -0.1943    26.7436   286.6580 </r>
       <r>    -0.0123    41.0582   293.7526 </r>
       <r>     0.1697    37.8238   300.8757 </r>
       <r>     0.3517    39.8200   308.0705 </r>
       <r>     0.5336    33.5712   314.2728 </r>
       <r>     0.7156    28.4357   320.5188 </r>
       <r>     0.8976    43.0121   327.1158 </r>
       <r>     1.0796    41.4343   335.2578 </r>
       <r>     1.2615    40.5867   344.2931 </r>
       <r>     1.4435    45.0782   352.0747 </r>
       <r>     1.6255    49.1761   360.8895 </r>
       <r>     1.8075    37.2014   368.7523 </r>
       <r>     1.9895    45.9523   376.3163 </r>
       <r>     2.1714    57.9756   385.7849 </r>
       <r>     2.3534    58.2062   395.9342 </r>
       <r>     2.5354    65.5761   408.0154 </r>
       <r>     2.7174    64.3085   418.7788 </r>
       <r>     2.8993    63.4849   430.8317 </r>
       <r>     3.0813    43.7429   442.1805 </r>
       <r>     3.2633    24.5133   448.8802 </r>
       <r>     3.4453    40.5316   455.6938 </r>
       <r>     3.6272    16.8821   460.2652 </r>
       <r>     3.8092     9.6832   462.6283 </r>
       <r>     3.9912     3.1878   463.7956 </r>
       <r>     4.1732     0.0021   464.0000 </r>
       <r>     4.3551     0.0000   464.0000 </r>
       <r>     4.5371     0.0000   464.0000 </r>
       <r>     4.7191     0.0000   464.0000 </r>
       <r>     4.9011     0.0000   464.0000 </r>
       <r>     5.0831     0.0106   464.0000 </r>
       <r>     5.2650     3.0910   464.1964 </r>
       <r>     5.4470     8.6162   465.2616 </r>
       <r>     5.6290    10.3656   467.1328 </r>
       <r>     5.8110    28.5798   470.2820 </r>
       <r>     5.9929    14.1167   473.7703 </r>
       <r>     6.1749    13.0591   476.2190 </r>
       <r>     6.3569    13.7731   478.6241 </r>
       <r>     6.5389    15.1607   481.2556 </r>
       <r>     6.7208    17.2217   484.1905 </r>
       <r>     6.9028    19.6819   487.5449 </r>
       <r>     7.0848    22.3549   491.3847 </r>
       <r>     7.2668    22.1036   495.4600 </r>
       <r>     7.4487    37.1256   501.0881 </r>
       <r>     7.6307    34.6787   507.6580 </r>
       <r>     7.8127    33.8275   513.5358 </r>
       <r>     7.9947    32.8530   519.5435 </r>
       <r>     8.1767    32.2205   525.8950 </r>
       <r>     8.3586    24.3297   530.9113 </r>
       <r>     8.5406    30.1171   535.5614 </r>
       <r>     8.7226    37.5215   541.7684 </r>
       <r>     8.9046    34.4456   548.3804 </r>
       <r>     9.0865    23.6998   553.4270 </r>
       <r>     9.2685    13.9930   556.8712 </r>
       <r>     9.4505     6.5337   558.6743 </r>
       <r>     9.6325     3.8276   559.9156 </r>
       <r>     9.8144     0.0000   560.0000 </r>
       <r>     9.9964     0.0000   560.0000 </r>
       <r>    10.1784     0.0000   560.0000 </r>
       <r>    10.3604     0.0000   560.0000 </r>
       <r>    10.5423     0.0000   560.0000 </r>
       <r>    10.7243     0.0000   560.0000 </r>
       <r>    10.9063     0.0000   560.0000 </r>
       <r>    11.0883     0.0000   560.0000 </r>
       <r>    11.2703     0.0000   560.0000 </r>
       <r>    11.4522     0.0000   560.0000 </r>
       <r>    11.6342     0.0000   560.0000 </r>
       <r>    11.8162     0.0000   560.0000 </r>
       <r>    11.9982     0.0000   560.0000 </r>
       <r>    12.1801     0.0000   560.0000 </r>
      </set>
     </set>
    </array>
   </total>
  </dos>
 </calculation>
 <structure name="finalpos" >
  <crystal>
   <varray name="basis" >
    <v>      11.21432391      -0.10239965       0.04656351 </v>
    <v>      -0.08895898       9.57351521      -0.00764208 </v>
    <v>       0.04685686      -0.00912585      11.21269787 </v>
   </varray>
   <i name="volume">   1203.67711921 </i>
   <varray name="rec_basis" >
    <v>       0.08918078       0.00082839      -0.00037200 </v>
    <v>       0.00095354       0.10446377       0.00008104 </v>
    <v>      -0.00036970       0.00006776       0.08918620 </v>
   </varray>
  </crystal>
  <varray name="positions" >
   <v>       0.35973188      -0.02417894       0.32783594 </v>
   <v>       0.61117788      -0.00282063       0.45385404 </v>
   <v>       0.84422941      -0.02643785       0.36893012 </v>
   <v>       0.61679750       0.00604574       0.20003768 </v>
   <v>       0.13662796      -0.00386012       0.92355125 </v>
   <v>       0.36737474       0.00230116       0.96629866 </v>
   <v>       0.11355021      -0.02277432       0.58121825 </v>
   <v>       0.83254127       0.03163950       0.64802567 </v>
   <v>       0.11160268      -0.00020336       0.18220319 </v>
   <v>       0.38920630      -0.00535654       0.70152792 </v>
   <v>       0.62241924      -0.00013693       0.92514998 </v>
   <v>       0.88397394       0.00587896       0.95386859 </v>
   <v>       0.00523369       0.31773652       0.06994697 </v>
   <v>       0.24822653       0.69731432       0.06805486 </v>
   <v>       0.24625667       0.30037059       0.31471493 </v>
   <v>       0.50549364       0.69336076       0.31871675 </v>
   <v>       0.50532356       0.30304473       0.06857419 </v>
   <v>       0.75007284       0.69380865       0.06267897 </v>
   <v>       0.74673017       0.30192074       0.31974105 </v>
   <v>       0.00314956       0.69471886       0.31648148 </v>
   <v>       0.00104504       0.30405102       0.57107600 </v>
   <v>       0.25668488       0.68827549       0.57325412 </v>
   <v>       0.25806729       0.30018764       0.81852651 </v>
   <v>       0.50124082       0.68246550       0.81813677 </v>
   <v>       0.50286294       0.29796501       0.56877220 </v>
   <v>       0.75438794       0.70684984       0.55880308 </v>
   <v>       0.75798000       0.31557933       0.82018836 </v>
   <v>       0.00205077       0.69463321       0.81997281 </v>
   <v>       0.25070823       0.35585455       0.07115713 </v>
   <v>       0.00808794       0.64015304       0.07061391 </v>
   <v>       0.49639316       0.33902539       0.31778243 </v>
   <v>       0.25753356       0.70781389       0.32022367 </v>
   <v>       0.74984593       0.35391758       0.06931857 </v>
   <v>       0.50910720       0.65387150       0.06890139 </v>
   <v>      -0.00094188       0.33492542       0.31810796 </v>
   <v>       0.75633630       0.65131312       0.31922056 </v>
   <v>       0.25222852       0.32637762       0.57242351 </v>
   <v>       0.01017495       0.70671587       0.57072627 </v>
   <v>       0.50105799       0.35173950       0.81945457 </v>
   <v>       0.25779829       0.64097617       0.82235487 </v>
   <v>       0.75231737       0.33770667       0.57212757 </v>
   <v>       0.50732090       0.65677490       0.57090982 </v>
   <v>      -0.00003816       0.35032796       0.82110481 </v>
   <v>       0.75658223       0.65312565       0.82023032 </v>
   <v>       0.51798283       0.08642449       0.04864151 </v>
   <v>       0.22515714       0.91330774       0.05653810 </v>
   <v>       0.23350768       0.08937336       0.28787223 </v>
   <v>      -0.00966169       0.90571272       0.28730264 </v>
   <v>       0.01362483       0.09515350       0.05395317 </v>
   <v>       0.74214946       0.91243590       0.03554083 </v>
   <v>       0.72270676       0.09065812       0.31582469 </v>
   <v>       0.51629400       0.90802763       0.31881775 </v>
   <v>       0.49846205       0.08465584       0.58153467 </v>
   <v>       0.26678462       0.90056904       0.60159958 </v>
   <v>       0.28187569       0.08445136       0.82998813 </v>
   <v>      -0.00154273       0.90521852       0.85436914 </v>
   <v>       0.98447029       0.09462920       0.58564759 </v>
   <v>       0.75482975       0.91730628       0.53063699 </v>
   <v>       0.76318926       0.09312384       0.83912860 </v>
   <v>       0.49239817       0.90601476       0.83040665 </v>
  </varray>
 </structure>
</modeling>
