<?xml version="1.0" encoding="ISO-8859-1"?>
<modeling>
 <generator>
  <i name="program" type="string">vasp </i>
  <i name="version" type="string">5.4.4.18Apr17-6-g9f103f2a35  </i>
  <i name="subversion" type="string">(build Jul 31 2017 11:33:29) complex            parallel </i>
  <i name="platform" type="string">LinuxIFC </i>
  <i name="date" type="string">2021 09 29 </i>
  <i name="time" type="string">15:58:27 </i>
 </generator>
 <incar>
  <i type="string" name="SYSTEM"> La2O2S</i>
  <i type="string" name="PREC">normal</i>
  <i type="int" name="NELMIN">     4</i>
  <i type="int" name="IBRION">     2</i>
  <i type="int" name="NFREE">    10</i>
  <i name="EDIFF">      0.00000100</i>
  <i name="EDIFFG">     -0.01000000</i>
  <i type="int" name="NSW">     1</i>
  <i type="int" name="ISIF">     2</i>
  <i name="ENCUT">    600.00000000</i>
  <i name="ENAUG">    900.00000000</i>
  <i type="int" name="ISMEAR">    -5</i>
  <i type="logical" name="LWAVE"> F  </i>
  <i type="logical" name="LCHARG"> F  </i>
  <v type="int" name="KPOINT_BSE">    -1     0     0     0</v>
 </incar>
 <structure name="primitive_cell" >
  <crystal>
   <varray name="basis" >
    <v>      11.17850000       0.00000000       0.00000000 </v>
    <v>       0.00000000       9.57460000       0.00000000 </v>
    <v>       0.00000000       0.00000000      11.18240000 </v>
   </varray>
   <i name="volume">   1196.84853820 </i>
   <varray name="rec_basis" >
    <v>       0.08945744       0.00000000       0.00000000 </v>
    <v>       0.00000000       0.10444301       0.00000000 </v>
    <v>       0.00000000       0.00000000       0.08942624 </v>
   </varray>
  </crystal>
  <varray name="positions" >
   <v>       0.37539000       0.00017000       0.43687000 </v>
   <v>      -0.49987000      -0.07798000       0.31246000 </v>
   <v>       0.25013000       0.07798000       0.31246000 </v>
   <v>       0.49987000       0.07798000      -0.43754000 </v>
   <v>       0.24987000      -0.07798000      -0.43754000 </v>
   <v>      -0.37461000      -0.00016000       0.43687000 </v>
   <v>       0.37461000       0.00017000      -0.31313000 </v>
   <v>       0.49987000      -0.29519000       0.31282000 </v>
   <v>       0.24987000       0.29519000       0.31282000 </v>
   <v>      -0.49987000       0.29519000      -0.43719000 </v>
   <v>       0.25013000      -0.29519000      -0.43719000 </v>
   <v>       0.49995000       0.32677000       0.31286000 </v>
   <v>       0.24995000      -0.32677000       0.31286000 </v>
   <v>      -0.49995000      -0.32677000      -0.43714000 </v>
   <v>       0.25005000       0.32677000      -0.43714000 </v>
   <v>      -0.37539000      -0.00016000       0.18687000 </v>
   <v>      -0.37539000      -0.00016000      -0.31313000 </v>
   <v>       0.12461000      -0.00016000       0.18687000 </v>
   <v>       0.12461000      -0.00016000      -0.31313000 </v>
   <v>       0.49987000       0.07798000       0.06246000 </v>
   <v>      -0.24987000       0.07798000       0.31246000 </v>
   <v>      -0.25013000      -0.07798000      -0.43754000 </v>
   <v>       0.24987000      -0.07798000       0.06246000 </v>
   <v>       0.00013000      -0.07798000       0.31246000 </v>
   <v>      -0.49987000      -0.07798000      -0.18754000 </v>
   <v>      -0.00013000       0.07798000      -0.43754000 </v>
   <v>       0.25013000       0.07798000      -0.18754000 </v>
   <v>      -0.49987000       0.29519000       0.06281000 </v>
   <v>      -0.25013000       0.29519000       0.31282000 </v>
   <v>       0.25013000      -0.29519000       0.06281000 </v>
   <v>      -0.24987000      -0.29519000      -0.43719000 </v>
   <v>      -0.00013000      -0.29519000       0.31282000 </v>
   <v>       0.00013000       0.29519000      -0.43719000 </v>
   <v>       0.49987000      -0.29519000      -0.18718000 </v>
   <v>       0.24987000       0.29519000      -0.18718000 </v>
   <v>      -0.49995000      -0.32677000       0.06286000 </v>
   <v>       0.25005000       0.32677000       0.06286000 </v>
   <v>      -0.25005000      -0.32677000       0.31286000 </v>
   <v>      -0.24995000       0.32677000      -0.43714000 </v>
   <v>      -0.00005000       0.32677000       0.31286000 </v>
   <v>       0.00005000      -0.32677000      -0.43714000 </v>
   <v>       0.49995000       0.32677000      -0.18714000 </v>
   <v>       0.24995000      -0.32677000      -0.18714000 </v>
   <v>      -0.12461000       0.00017000       0.43687000 </v>
   <v>       0.37539000       0.00017000      -0.06313000 </v>
   <v>      -0.25013000      -0.07798000       0.06246000 </v>
   <v>      -0.00013000       0.07798000       0.06246000 </v>
   <v>      -0.24987000       0.07798000      -0.18754000 </v>
   <v>       0.00013000      -0.07798000      -0.18754000 </v>
   <v>      -0.37461000      -0.00016000      -0.06313000 </v>
   <v>      -0.24987000      -0.29519000       0.06281000 </v>
   <v>       0.00013000       0.29519000       0.06281000 </v>
   <v>      -0.25013000       0.29519000      -0.18718000 </v>
   <v>      -0.00013000      -0.29519000      -0.18718000 </v>
   <v>      -0.24995000       0.32677000       0.06286000 </v>
   <v>       0.00005000      -0.32677000       0.06286000 </v>
   <v>      -0.25005000      -0.32677000      -0.18714000 </v>
   <v>      -0.00005000       0.32677000      -0.18714000 </v>
   <v>      -0.12461000       0.00017000      -0.06313000 </v>
  </varray>
 </structure>
 <varray name="primitive_index" >
  <v type="int" >        1 </v>
  <v type="int" >       51 </v>
  <v type="int" >       46 </v>
  <v type="int" >       52 </v>
  <v type="int" >       53 </v>
  <v type="int" >        2 </v>
  <v type="int" >        4 </v>
  <v type="int" >       15 </v>
  <v type="int" >       14 </v>
  <v type="int" >       24 </v>
  <v type="int" >       21 </v>
  <v type="int" >       30 </v>
  <v type="int" >       31 </v>
  <v type="int" >       41 </v>
  <v type="int" >       36 </v>
  <v type="int" >        3 </v>
  <v type="int" >        6 </v>
  <v type="int" >        7 </v>
  <v type="int" >       10 </v>
  <v type="int" >       44 </v>
  <v type="int" >       50 </v>
  <v type="int" >       57 </v>
  <v type="int" >       45 </v>
  <v type="int" >       47 </v>
  <v type="int" >       59 </v>
  <v type="int" >       56 </v>
  <v type="int" >       54 </v>
  <v type="int" >       16 </v>
  <v type="int" >       18 </v>
  <v type="int" >       13 </v>
  <v type="int" >       25 </v>
  <v type="int" >       19 </v>
  <v type="int" >       20 </v>
  <v type="int" >       23 </v>
  <v type="int" >       22 </v>
  <v type="int" >       33 </v>
  <v type="int" >       28 </v>
  <v type="int" >       35 </v>
  <v type="int" >       40 </v>
  <v type="int" >       34 </v>
  <v type="int" >       37 </v>
  <v type="int" >       38 </v>
  <v type="int" >       39 </v>
  <v type="int" >        8 </v>
  <v type="int" >        9 </v>
  <v type="int" >       49 </v>
  <v type="int" >       48 </v>
  <v type="int" >       58 </v>
  <v type="int" >       55 </v>
  <v type="int" >        5 </v>
  <v type="int" >       17 </v>
  <v type="int" >       12 </v>
  <v type="int" >       26 </v>
  <v type="int" >       27 </v>
  <v type="int" >       32 </v>
  <v type="int" >       29 </v>
  <v type="int" >       43 </v>
  <v type="int" >       42 </v>
  <v type="int" >       11 </v>
 </varray>
 <kpoints>
  <generation param="Gamma">
   <v type="int" name="divisions">       2        2        2 </v>
   <v name="usershift">      0.00000000       0.00000000       0.00000000 </v>
   <v name="genvec1">      0.50000000       0.00000000       0.00000000 </v>
   <v name="genvec2">      0.00000000       0.50000000       0.00000000 </v>
   <v name="genvec3">      0.00000000       0.00000000       0.50000000 </v>
   <v name="shift">      0.00000000       0.00000000       0.00000000 </v>
  </generation>
  <varray name="kpointlist" >
   <v>       0.00000000       0.00000000       0.00000000 </v>
   <v>       0.50000000       0.00000000       0.00000000 </v>
   <v>       0.00000000       0.50000000       0.00000000 </v>
   <v>       0.50000000       0.50000000       0.00000000 </v>
   <v>       0.00000000       0.00000000       0.50000000 </v>
   <v>       0.50000000       0.00000000       0.50000000 </v>
   <v>       0.00000000       0.50000000       0.50000000 </v>
   <v>       0.50000000       0.50000000       0.50000000 </v>
  </varray>
  <varray name="weights" >
   <v>       0.12500000 </v>
   <v>       0.12500000 </v>
   <v>       0.12500000 </v>
   <v>       0.12500000 </v>
   <v>       0.12500000 </v>
   <v>       0.12500000 </v>
   <v>       0.12500000 </v>
   <v>       0.12500000 </v>
  </varray>
  <varray name="tetrahedronlist"  type="int" >
   <v type="int" >        2        1        2        4        5 </v>
   <v type="int" >        2        1        3        4        5 </v>
   <v type="int" >        2        3        4        5        7 </v>
   <v type="int" >        2        2        4        5        6 </v>
   <v type="int" >        2        4        5        6        8 </v>
   <v type="int" >        2        4        5        7        8 </v>
   <v type="int" >        2        1        2        3        6 </v>
   <v type="int" >        2        2        3        4        6 </v>
   <v type="int" >        2        3        4        6        8 </v>
   <v type="int" >        2        1        3        5        6 </v>
   <v type="int" >        2        3        5        6        7 </v>
   <v type="int" >        2        3        6        7        8 </v>
   <v type="int" >        2        2        3        4        7 </v>
   <v type="int" >        2        1        2        3        7 </v>
   <v type="int" >        2        1        2        5        7 </v>
   <v type="int" >        2        2        4        7        8 </v>
   <v type="int" >        2        2        6        7        8 </v>
   <v type="int" >        2        2        5        6        7 </v>
   <v type="int" >        2        1        3        4        8 </v>
   <v type="int" >        2        1        2        4        8 </v>
   <v type="int" >        2        1        2        6        8 </v>
   <v type="int" >        2        1        3        7        8 </v>
   <v type="int" >        2        1        5        7        8 </v>
   <v type="int" >        2        1        5        6        8 </v>
  </varray>
  <i name="volumeweight">      0.02083333 </i>
 </kpoints>
 <parameters>
  <separator name="general" >
   <i type="string" name="SYSTEM">La2O2S</i>
   <i type="logical" name="LCOMPAT"> F  </i>
  </separator>
  <separator name="electronic" >
   <i type="string" name="PREC">normal</i>
   <i name="ENMAX">    600.00000000</i>
   <i name="ENAUG">    900.00000000</i>
   <i name="EDIFF">      0.00000100</i>
   <i type="int" name="IALGO">    38</i>
   <i type="int" name="IWAVPR">    11</i>
   <i type="int" name="NBANDS">   280</i>
   <i name="NELECT">    460.00000000</i>
   <i type="int" name="TURBO">     0</i>
   <i type="int" name="IRESTART">     0</i>
   <i type="int" name="NREBOOT">     0</i>
   <i type="int" name="NMIN">     0</i>
   <i name="EREF">      0.00000000</i>
   <separator name="electronic smearing" >
    <i type="int" name="ISMEAR">    -5</i>
    <i name="SIGMA">      0.20000000</i>
    <i name="KSPACING">      0.50000000</i>
    <i type="logical" name="KGAMMA"> T  </i>
   </separator>
   <separator name="electronic projectors" >
    <i type="logical" name="LREAL"> F  </i>
    <v name="ROPT">      0.00000000      0.00000000      0.00000000      0.00000000      0.00000000</v>
    <i type="int" name="LMAXPAW">  -100</i>
    <i type="int" name="LMAXMIX">     2</i>
    <i type="logical" name="NLSPLINE"> F  </i>
   </separator>
   <separator name="electronic startup" >
    <i type="int" name="ISTART">     0</i>
    <i type="int" name="ICHARG">     2</i>
    <i type="int" name="INIWAV">     1</i>
   </separator>
   <separator name="electronic spin" >
    <i type="int" name="ISPIN">     1</i>
    <i type="logical" name="LNONCOLLINEAR"> F  </i>
    <v name="MAGMOM">      1.00000000      1.00000000      1.00000000      1.00000000      1.00000000      1.00000000      1.00000000      1.00000000      1.00000000      1.00000000      1.00000000      1.00000000      1.00000000      1.00000000      1.00000000      1.00000000      1.00000000      1.00000000      1.00000000      1.00000000
      1.00000000      1.00000000      1.00000000      1.00000000      1.00000000      1.00000000      1.00000000      1.00000000      1.00000000      1.00000000      1.00000000      1.00000000      1.00000000      1.00000000      1.00000000      1.00000000      1.00000000      1.00000000      1.00000000      1.00000000
      1.00000000      1.00000000      1.00000000      1.00000000      1.00000000      1.00000000      1.00000000      1.00000000      1.00000000      1.00000000      1.00000000      1.00000000      1.00000000      1.00000000      1.00000000      1.00000000      1.00000000      1.00000000      1.00000000</v>
    <i name="NUPDOWN">     -1.00000000</i>
    <i type="logical" name="LSORBIT"> F  </i>
    <v name="SAXIS">      0.00000000      0.00000000      1.00000000</v>
    <i type="logical" name="LSPIRAL"> F  </i>
    <v name="QSPIRAL">      0.00000000      0.00000000      0.00000000</v>
    <i type="logical" name="LZEROZ"> F  </i>
   </separator>
   <separator name="electronic exchange-correlation" >
    <i type="logical" name="LASPH"> F  </i>
    <i type="logical" name="LMETAGGA"> F  </i>
   </separator>
   <separator name="electronic convergence" >
    <i type="int" name="NELM">    60</i>
    <i type="int" name="NELMDL">    -5</i>
    <i type="int" name="NELMIN">     4</i>
    <i name="ENINI">    600.00000000</i>
    <separator name="electronic convergence detail" >
     <i type="logical" name="LDIAG"> T  </i>
     <i type="logical" name="LSUBROT"> F  </i>
     <i name="WEIMIN">      0.00100000</i>
     <i name="EBREAK">      0.00000000</i>
     <i name="DEPER">      0.30000000</i>
     <i type="int" name="NRMM">     4</i>
     <i name="TIME">      0.40000000</i>
    </separator>
   </separator>
   <separator name="electronic mixer" >
    <i name="AMIX">      0.40000000</i>
    <i name="BMIX">      1.00000000</i>
    <i name="AMIN">      0.10000000</i>
    <i name="AMIX_MAG">      1.60000000</i>
    <i name="BMIX_MAG">      1.00000000</i>
    <separator name="electronic mixer details" >
     <i type="int" name="IMIX">     4</i>
     <i type="logical" name="MIXFIRST"> F  </i>
     <i type="int" name="MAXMIX">   -45</i>
     <i name="WC">    100.00000000</i>
     <i type="int" name="INIMIX">     1</i>
     <i type="int" name="MIXPRE">     1</i>
     <i type="int" name="MREMOVE">     5</i>
    </separator>
   </separator>
   <separator name="electronic dipolcorrection" >
    <i type="logical" name="LDIPOL"> F  </i>
    <i type="logical" name="LMONO"> F  </i>
    <i type="int" name="IDIPOL">     0</i>
    <i name="EPSILON">      1.00000000</i>
    <v name="DIPOL">   -100.00000000   -100.00000000   -100.00000000</v>
    <i name="EFIELD">      0.00000000</i>
   </separator>
  </separator>
  <separator name="grids" >
   <i type="int" name="NGX">    70</i>
   <i type="int" name="NGY">    60</i>
   <i type="int" name="NGZ">    70</i>
   <i type="int" name="NGXF">   140</i>
   <i type="int" name="NGYF">   120</i>
   <i type="int" name="NGZF">   140</i>
   <i type="logical" name="ADDGRID"> F  </i>
  </separator>
  <separator name="ionic" >
   <i type="int" name="NSW">     1</i>
   <i type="int" name="IBRION">     2</i>
   <i type="int" name="MDALGO">     0</i>
   <i type="int" name="ISIF">     2</i>
   <i name="PSTRESS">      0.00000000</i>
   <i name="EDIFFG">     -0.01000000</i>
   <i type="int" name="NFREE">    10</i>
   <i name="POTIM">      0.50000000</i>
   <i name="SMASS">     -3.00000000</i>
   <i name="SCALEE">      1.00000000</i>
  </separator>
  <separator name="ionic md" >
   <i name="TEBEG">      0.00010000</i>
   <i name="TEEND">      0.00010000</i>
   <i type="int" name="NBLOCK">     1</i>
   <i type="int" name="KBLOCK">     1</i>
   <i type="int" name="NPACO">   256</i>
   <i name="APACO">     16.00000000</i>
  </separator>
  <separator name="symmetry" >
   <i type="int" name="ISYM">     2</i>
   <i name="SYMPREC">      0.00001000</i>
  </separator>
  <separator name="dos" >
   <i type="int" name="LORBIT">     0</i>
   <v name="RWIGS">     -1.00000000     -1.00000000     -1.00000000     -1.00000000     -1.00000000</v>
   <i type="int" name="NEDOS">   301</i>
   <i name="EMIN">     10.00000000</i>
   <i name="EMAX">    -10.00000000</i>
   <i name="EFERMI">      0.00000000</i>
  </separator>
  <separator name="writing" >
   <i type="int" name="NWRITE">     2</i>
   <i type="logical" name="LWAVE"> F  </i>
   <i type="logical" name="LDOWNSAMPLE"> F  </i>
   <i type="logical" name="LCHARG"> F  </i>
   <i type="logical" name="LPARD"> F  </i>
   <i type="logical" name="LVTOT"> F  </i>
   <i type="logical" name="LVHAR"> F  </i>
   <i type="logical" name="LELF"> F  </i>
   <i type="logical" name="LOPTICS"> F  </i>
   <v name="STM">      0.00000000      0.00000000      0.00000000      0.00000000      0.00000000      0.00000000      0.00000000</v>
  </separator>
  <separator name="performance" >
   <i type="int" name="NPAR">    28</i>
   <i type="int" name="NSIM">     4</i>
   <i type="int" name="NBLK">    -1</i>
   <i type="logical" name="LPLANE"> T  </i>
   <i type="logical" name="LSCALAPACK"> T  </i>
   <i type="logical" name="LSCAAWARE"> F  </i>
   <i type="logical" name="LSCALU"> F  </i>
   <i type="logical" name="LASYNC"> F  </i>
   <i type="logical" name="LORBITALREAL"> F  </i>
  </separator>
  <separator name="miscellaneous" >
   <i type="int" name="IDIOT">     3</i>
   <i type="int" name="ISPECIAL">     0</i>
   <i type="logical" name="LMUSIC"> F  </i>
   <v name="POMASS">      7.01000000     24.30500000    208.98000000     32.06600000     16.00000000</v>
   <v name="DARWINR">      0.00000000      0.00000000      0.00000000      0.00000000      0.00000000</v>
   <v name="DARWINV">      1.00000000      1.00000000      1.00000000      1.00000000      1.00000000</v>
   <i type="logical" name="LCORR"> T  </i>
  </separator>
  <i type="logical" name="GGA_COMPAT"> T  </i>
  <i type="logical" name="LBERRY"> F  </i>
  <i type="int" name="ICORELEVEL">     0</i>
  <i type="logical" name="LDAU"> F  </i>
  <i type="int" name="I_CONSTRAINED_M">     0</i>
  <separator name="electronic exchange-correlation" >
   <i type="string" name="GGA">--</i>
   <i type="int" name="VOSKOWN">     0</i>
   <i type="logical" name="LHFCALC"> F  </i>
   <i type="string" name="PRECFOCK"></i>
   <i type="logical" name="LSYMGRAD"> F  </i>
   <i type="logical" name="LHFONE"> F  </i>
   <i type="logical" name="LRHFCALC"> F  </i>
   <i type="logical" name="LTHOMAS"> F  </i>
   <i type="logical" name="LMODELHF"> F  </i>
   <i name="ENCUT4O">     -1.00000000</i>
   <i type="int" name="EXXOEP">     0</i>
   <i type="int" name="FOURORBIT">     0</i>
   <i name="AEXX">      0.00000000</i>
   <i name="HFALPHA">      0.00000000</i>
   <i name="MCALPHA">      0.00000000</i>
   <i name="ALDAX">      1.00000000</i>
   <i name="AGGAX">      1.00000000</i>
   <i name="ALDAC">      1.00000000</i>
   <i name="AGGAC">      1.00000000</i>
   <i type="int" name="NKREDX">     1</i>
   <i type="int" name="NKREDY">     1</i>
   <i type="int" name="NKREDZ">     1</i>
   <i type="logical" name="SHIFTRED"> F  </i>
   <i type="logical" name="ODDONLY"> F  </i>
   <i type="logical" name="EVENONLY"> F  </i>
   <i type="int" name="LMAXFOCK">     0</i>
   <i type="int" name="NMAXFOCKAE">     0</i>
   <i type="logical" name="LFOCKAEDFT"> F  </i>
   <i name="HFSCREEN">      0.00000000</i>
   <i name="HFSCREENC">      0.00000000</i>
   <i type="int" name="NBANDSGWLOW">     0</i>
  </separator>
  <separator name="vdW DFT" >
   <i type="logical" name="LUSE_VDW"> F  </i>
   <i name="Zab_VDW">     -0.84910000</i>
   <i name="PARAM1">      0.12340000</i>
   <i name="PARAM2">      1.00000000</i>
   <i name="PARAM3">      0.00000000</i>
  </separator>
  <separator name="model GW" >
   <i type="int" name="MODEL_GW">     0</i>
   <i name="MODEL_EPS0">     12.17134107</i>
   <i name="MODEL_ALPHA">      1.00000000</i>
  </separator>
  <separator name="linear response parameters" >
   <i type="logical" name="LEPSILON"> F  </i>
   <i type="logical" name="LRPA"> F  </i>
   <i type="logical" name="LNABLA"> F  </i>
   <i type="logical" name="LVEL"> F  </i>
   <i type="int" name="KINTER">     0</i>
   <i name="CSHIFT">      0.10000000</i>
   <i name="OMEGAMAX">     -1.00000000</i>
   <i name="DEG_THRESHOLD">      0.00200000</i>
   <i name="RTIME">     -0.10000000</i>
   <i name="WPLASMAI">      0.00000000</i>
   <v name="DFIELD">      0.00000000      0.00000000      0.00000000</v>
   <v name="WPLASMA">      0.00000000      0.00000000      0.00000000      0.00000000      0.00000000      0.00000000      0.00000000      0.00000000      0.00000000</v>
  </separator>
  <separator name="orbital magnetization" >
   <i type="logical" name="NUCIND"> F  </i>
   <v name="MAGPOS">      0.00000000      0.00000000      0.00000000</v>
   <i type="logical" name="LNICSALL"> T  </i>
   <i type="logical" name="ORBITALMAG"> F  </i>
   <i type="logical" name="LMAGBLOCH"> F  </i>
   <i type="logical" name="LCHIMAG"> F  </i>
   <i type="logical" name="LGAUGE"> T  </i>
   <i type="int" name="MAGATOM">     0</i>
   <v name="MAGDIPOL">      0.00000000      0.00000000      0.00000000</v>
   <v name="AVECCONST">      0.00000000      0.00000000      0.00000000</v>
  </separator>
  <separator name="response functions" >
   <i type="logical" name="LADDER"> F  </i>
   <i type="logical" name="LRPAFORCE"> F  </i>
   <i type="logical" name="LFXC"> F  </i>
   <i type="logical" name="LHARTREE"> T  </i>
   <i type="int" name="IBSE">     0</i>
   <v type="int" name="KPOINT">    -1     0     0     0</v>
   <i type="logical" name="LTCTE"> F  </i>
   <i type="logical" name="LTETE"> F  </i>
   <i type="logical" name="LTRIPLET"> F  </i>
   <i type="logical" name="LFXCEPS"> F  </i>
   <i type="logical" name="LFXHEG"> F  </i>
   <i type="int" name="NATURALO">     2</i>
   <i type="logical" name="L2ORDER"> F  </i>
   <i type="logical" name="LMP2LT"> F  </i>
   <i type="logical" name="LUSEW"> F  </i>
   <i name="ENCUTGW">     -2.00000000</i>
   <i name="ENCUTGWSOFT">     -2.00000000</i>
   <i name="ENCUTLF">     -1.00000000</i>
   <i type="int" name="LMAXMP2">    -1</i>
   <i name="SCISSOR">      0.00000000</i>
   <i type="int" name="NOMEGA">     0</i>
   <i type="int" name="NOMEGAR">     0</i>
   <i type="int" name="NBANDSGW">    -1</i>
   <i type="int" name="NBANDSO">    -1</i>
   <i type="int" name="NBANDSV">    -1</i>
   <i type="int" name="NELM">     1</i>
   <i type="int" name="NELMHF">     1</i>
   <i type="int" name="DIM">     3</i>
   <i type="int" name="ANTIRES">     0</i>
   <i name="OMEGAMAX">    -30.00000000</i>
   <i name="OMEGAMIN">    -30.00000000</i>
   <i name="OMEGATL">   -200.00000000</i>
   <i type="int" name="OMEGAGRID">   140</i>
   <i name="CSHIFT">     -0.10000000</i>
   <i type="logical" name="SELFENERGY"> F  </i>
   <i type="logical" name="LSPECTRAL"> F  </i>
   <i type="logical" name="LSPECTRALGW"> F  </i>
   <i type="logical" name="LSINGLES"> F  </i>
   <i type="logical" name="LFERMIGW"> F  </i>
   <i type="logical" name="ODDONLYGW"> F  </i>
   <i type="logical" name="EVENONLYGW"> F  </i>
   <i type="int" name="NKREDLFX">     1</i>
   <i type="int" name="NKREDLFY">     1</i>
   <i type="int" name="NKREDLFZ">     1</i>
   <i type="int" name="MAXMEM">  2800</i>
   <i type="int" name="TELESCOPE">     0</i>
   <i type="int" name="TAUPAR">     1</i>
   <i type="int" name="OMEGAPAR">    -1</i>
   <i name="LAMBDA">      1.00000000</i>
  </separator>
  <separator name="External order field" >
   <i name="OFIELD_KAPPA">      0.00000000</i>
   <v name="OFIELD_K">      0.00000000      0.00000000      0.00000000</v>
   <i name="OFIELD_Q6_NEAR">      0.00000000</i>
   <i name="OFIELD_Q6_FAR">      0.00000000</i>
   <i name="OFIELD_A">      0.00000000</i>
  </separator>
 </parameters>
 <atominfo>
  <atoms>      59 </atoms>
  <types>       5 </types>
  <array name="atoms" >
   <dimension dim="1">ion</dimension>
   <field type="string">element</field>
   <field type="int">atomtype</field>
   <set>
    <rc><c>Li</c><c>   1</c></rc>
    <rc><c>Li</c><c>   1</c></rc>
    <rc><c>Li</c><c>   1</c></rc>
    <rc><c>Li</c><c>   1</c></rc>
    <rc><c>Li</c><c>   1</c></rc>
    <rc><c>Li</c><c>   1</c></rc>
    <rc><c>Mg</c><c>   2</c></rc>
    <rc><c>Mg</c><c>   2</c></rc>
    <rc><c>Mg</c><c>   2</c></rc>
    <rc><c>Mg</c><c>   2</c></rc>
    <rc><c>Mg</c><c>   2</c></rc>
    <rc><c>Bi</c><c>   3</c></rc>
    <rc><c>Bi</c><c>   3</c></rc>
    <rc><c>Bi</c><c>   3</c></rc>
    <rc><c>Bi</c><c>   3</c></rc>
    <rc><c>Bi</c><c>   3</c></rc>
    <rc><c>Bi</c><c>   3</c></rc>
    <rc><c>Bi</c><c>   3</c></rc>
    <rc><c>Bi</c><c>   3</c></rc>
    <rc><c>Bi</c><c>   3</c></rc>
    <rc><c>Bi</c><c>   3</c></rc>
    <rc><c>Bi</c><c>   3</c></rc>
    <rc><c>Bi</c><c>   3</c></rc>
    <rc><c>Bi</c><c>   3</c></rc>
    <rc><c>Bi</c><c>   3</c></rc>
    <rc><c>Bi</c><c>   3</c></rc>
    <rc><c>Bi</c><c>   3</c></rc>
    <rc><c>S </c><c>   4</c></rc>
    <rc><c>S </c><c>   4</c></rc>
    <rc><c>S </c><c>   4</c></rc>
    <rc><c>S </c><c>   4</c></rc>
    <rc><c>S </c><c>   4</c></rc>
    <rc><c>S </c><c>   4</c></rc>
    <rc><c>S </c><c>   4</c></rc>
    <rc><c>S </c><c>   4</c></rc>
    <rc><c>S </c><c>   4</c></rc>
    <rc><c>S </c><c>   4</c></rc>
    <rc><c>S </c><c>   4</c></rc>
    <rc><c>S </c><c>   4</c></rc>
    <rc><c>S </c><c>   4</c></rc>
    <rc><c>S </c><c>   4</c></rc>
    <rc><c>S </c><c>   4</c></rc>
    <rc><c>S </c><c>   4</c></rc>
    <rc><c>O </c><c>   5</c></rc>
    <rc><c>O </c><c>   5</c></rc>
    <rc><c>O </c><c>   5</c></rc>
    <rc><c>O </c><c>   5</c></rc>
    <rc><c>O </c><c>   5</c></rc>
    <rc><c>O </c><c>   5</c></rc>
    <rc><c>O </c><c>   5</c></rc>
    <rc><c>O </c><c>   5</c></rc>
    <rc><c>O </c><c>   5</c></rc>
    <rc><c>O </c><c>   5</c></rc>
    <rc><c>O </c><c>   5</c></rc>
    <rc><c>O </c><c>   5</c></rc>
    <rc><c>O </c><c>   5</c></rc>
    <rc><c>O </c><c>   5</c></rc>
    <rc><c>O </c><c>   5</c></rc>
    <rc><c>O </c><c>   5</c></rc>
   </set>
  </array>
  <array name="atomtypes" >
   <dimension dim="1">type</dimension>
   <field type="int">atomspertype</field>
   <field type="string">element</field>
   <field>mass</field>
   <field>valence</field>
   <field type="string">pseudopotential</field>
   <set>
    <rc><c>   6</c><c>Li</c><c>      7.01000000</c><c>      3.00000000</c><c>  PAW_PBE Li_sv 10Sep2004               </c></rc>
    <rc><c>   5</c><c>Mg</c><c>     24.30500000</c><c>      2.00000000</c><c>  PAW_PBE Mg 13Apr2007                  </c></rc>
    <rc><c>  16</c><c>Bi</c><c>    208.98000000</c><c>     15.00000000</c><c>  PAW_PBE Bi_d 06Sep2000                </c></rc>
    <rc><c>  16</c><c>S </c><c>     32.06600000</c><c>      6.00000000</c><c>  PAW_PBE S 06Sep2000                   </c></rc>
    <rc><c>  16</c><c>O </c><c>     16.00000000</c><c>      6.00000000</c><c>  PAW_PBE O 08Apr2002                   </c></rc>
   </set>
  </array>
 </atominfo>
 <structure name="initialpos" >
  <crystal>
   <varray name="basis" >
    <v>      11.17850000       0.00000000       0.00000000 </v>
    <v>       0.00000000       9.57460000       0.00000000 </v>
    <v>       0.00000000       0.00000000      11.18240000 </v>
   </varray>
   <i name="volume">   1196.84853820 </i>
   <varray name="rec_basis" >
    <v>       0.08945744       0.00000000       0.00000000 </v>
    <v>       0.00000000       0.10444301       0.00000000 </v>
    <v>       0.00000000       0.00000000       0.08942624 </v>
   </varray>
  </crystal>
  <varray name="positions" >
   <v>       0.37539000       0.00017000       0.43687000 </v>
   <v>       0.62539000       0.99984000       0.43687000 </v>
   <v>       0.62461000       0.99984000       0.18687000 </v>
   <v>       0.37461000       0.00017000       0.68687000 </v>
   <v>       0.62539000       0.99984000       0.93687000 </v>
   <v>       0.62461000       0.99984000       0.68687000 </v>
   <v>       0.12461000       0.99984000       0.18687000 </v>
   <v>       0.87539000       0.00017000       0.43687000 </v>
   <v>       0.37539000       0.00017000       0.93687000 </v>
   <v>       0.12461000       0.99984000       0.68687000 </v>
   <v>       0.87539000       0.00017000       0.93687000 </v>
   <v>       0.00013000       0.29519000       0.06281000 </v>
   <v>       0.25013000       0.70481000       0.06281000 </v>
   <v>       0.24987000       0.29519000       0.31282000 </v>
   <v>       0.49987000       0.70481000       0.31282000 </v>
   <v>       0.50013000       0.29519000       0.06281000 </v>
   <v>       0.75013000       0.70481000       0.06281000 </v>
   <v>       0.74987000       0.29519000       0.31282000 </v>
   <v>       0.99987000       0.70481000       0.31282000 </v>
   <v>       0.00013000       0.29519000       0.56281000 </v>
   <v>       0.25013000       0.70481000       0.56281000 </v>
   <v>       0.24987000       0.29519000       0.81282000 </v>
   <v>       0.49987000       0.70481000       0.81282000 </v>
   <v>       0.50013000       0.29519000       0.56281000 </v>
   <v>       0.75013000       0.70481000       0.56281000 </v>
   <v>       0.74987000       0.29519000       0.81282000 </v>
   <v>       0.99987000       0.70481000       0.81282000 </v>
   <v>       0.25005000       0.32677000       0.06286000 </v>
   <v>       0.00005000       0.67323000       0.06286000 </v>
   <v>       0.49995000       0.32677000       0.31286000 </v>
   <v>       0.24995000       0.67323000       0.31286000 </v>
   <v>       0.75005000       0.32677000       0.06286000 </v>
   <v>       0.50005000       0.67323000       0.06286000 </v>
   <v>       0.99995000       0.32677000       0.31286000 </v>
   <v>       0.74995000       0.67323000       0.31286000 </v>
   <v>       0.25005000       0.32677000       0.56286000 </v>
   <v>       0.00005000       0.67323000       0.56286000 </v>
   <v>       0.49995000       0.32677000       0.81286000 </v>
   <v>       0.24995000       0.67323000       0.81286000 </v>
   <v>       0.75005000       0.32677000       0.56286000 </v>
   <v>       0.50005000       0.67323000       0.56286000 </v>
   <v>       0.99995000       0.32677000       0.81286000 </v>
   <v>       0.74995000       0.67323000       0.81286000 </v>
   <v>       0.49987000       0.07798000       0.06246000 </v>
   <v>       0.24987000       0.92202000       0.06246000 </v>
   <v>       0.25013000       0.07798000       0.31246000 </v>
   <v>       0.00013000       0.92202000       0.31246000 </v>
   <v>       0.99987000       0.07798000       0.06246000 </v>
   <v>       0.74987000       0.92202000       0.06246000 </v>
   <v>       0.75013000       0.07798000       0.31246000 </v>
   <v>       0.50013000       0.92202000       0.31246000 </v>
   <v>       0.49987000       0.07798000       0.56246000 </v>
   <v>       0.24987000       0.92202000       0.56246000 </v>
   <v>       0.25013000       0.07798000       0.81246000 </v>
   <v>       0.00013000       0.92202000       0.81246000 </v>
   <v>       0.99987000       0.07798000       0.56246000 </v>
   <v>       0.74987000       0.92202000       0.56246000 </v>
   <v>       0.75013000       0.07798000       0.81246000 </v>
   <v>       0.50013000       0.92202000       0.81246000 </v>
  </varray>
 </structure>
 <calculation>
  <scstep>
   <time name="dav">   60.70   60.72</time>
   <time name="total">   60.78   60.81</time>
   <energy>
    <i name="alphaZ">   1060.66890660 </i>
    <i name="ewald"> -30393.96127359 </i>
    <i name="hartreedc"> -12724.76320489 </i>
    <i name="XCdc">   1247.14207502 </i>
    <i name="pawpsdc">  36635.26894311 </i>
    <i name="pawaedc"> -35972.74895369 </i>
    <i name="eentropy">      0.00000000 </i>
    <i name="bandstr">   1865.79184946 </i>
    <i name="atom">  44026.03258983 </i>
    <i name="e_fr_energy">   5743.43093183 </i>
    <i name="e_wo_entrp">   5743.43093183 </i>
    <i name="e_0_energy">   5743.43093183 </i>
   </energy>
  </scstep>
  <scstep>
   <time name="dav">   61.58   61.59</time>
   <time name="total">   61.59   61.60</time>
   <energy>
    <i name="e_fr_energy">    750.30691186 </i>
    <i name="e_wo_entrp">    750.30691186 </i>
    <i name="e_0_energy">    750.30691186 </i>
   </energy>
  </scstep>
  <scstep>
   <time name="dav">   70.31   70.34</time>
   <time name="total">   70.32   70.34</time>
   <energy>
    <i name="e_fr_energy">   -246.70451262 </i>
    <i name="e_wo_entrp">   -246.70451262 </i>
    <i name="e_0_energy">   -246.70451262 </i>
   </energy>
  </scstep>
  <scstep>
   <time name="dav">   72.39   72.52</time>
   <time name="total">   72.40   72.52</time>
   <energy>
    <i name="e_fr_energy">   -337.25283981 </i>
    <i name="e_wo_entrp">   -337.25283981 </i>
    <i name="e_0_energy">   -337.25283981 </i>
   </energy>
  </scstep>
  <scstep>
   <time name="dav">   94.39   94.54</time>
   <time name="total">   95.13   95.27</time>
   <energy>
    <i name="e_fr_energy">   -344.49182302 </i>
    <i name="e_wo_entrp">   -344.49182302 </i>
    <i name="e_0_energy">   -344.49182302 </i>
   </energy>
  </scstep>
  <scstep>
   <time name="dav">   86.07   86.20</time>
   <time name="total">   86.88   87.01</time>
   <energy>
    <i name="e_fr_energy">   -288.88478241 </i>
    <i name="e_wo_entrp">   -288.88478241 </i>
    <i name="e_0_energy">   -288.88478241 </i>
   </energy>
  </scstep>
  <scstep>
   <time name="dav">   65.86   65.98</time>
   <time name="total">   66.66   66.79</time>
   <energy>
    <i name="e_fr_energy">   -291.31697472 </i>
    <i name="e_wo_entrp">   -291.31697472 </i>
    <i name="e_0_energy">   -291.31697472 </i>
   </energy>
  </scstep>
  <scstep>
   <time name="dav">   77.19   77.40</time>
   <time name="total">   77.99   78.21</time>
   <energy>
    <i name="e_fr_energy">   -290.33118435 </i>
    <i name="e_wo_entrp">   -290.33118435 </i>
    <i name="e_0_energy">   -290.33118435 </i>
   </energy>
  </scstep>
  <scstep>
   <time name="dav">   74.43   74.54</time>
   <time name="total">   75.23   75.35</time>
   <energy>
    <i name="e_fr_energy">   -289.81640658 </i>
    <i name="e_wo_entrp">   -289.81640658 </i>
    <i name="e_0_energy">   -289.81640658 </i>
   </energy>
  </scstep>
  <scstep>
   <time name="dav">   72.84   72.99</time>
   <time name="total">   73.64   73.80</time>
   <energy>
    <i name="e_fr_energy">   -289.83490705 </i>
    <i name="e_wo_entrp">   -289.83490705 </i>
    <i name="e_0_energy">   -289.83490705 </i>
   </energy>
  </scstep>
  <scstep>
   <time name="dav">   78.75   78.74</time>
   <time name="total">   79.55   79.55</time>
   <energy>
    <i name="e_fr_energy">   -289.84203234 </i>
    <i name="e_wo_entrp">   -289.84203234 </i>
    <i name="e_0_energy">   -289.84203234 </i>
   </energy>
  </scstep>
  <scstep>
   <time name="dav">   79.25   79.34</time>
   <time name="total">   80.06   80.15</time>
   <energy>
    <i name="e_fr_energy">   -289.84462931 </i>
    <i name="e_wo_entrp">   -289.84462931 </i>
    <i name="e_0_energy">   -289.84462931 </i>
   </energy>
  </scstep>
  <scstep>
   <time name="dav">   73.40   73.47</time>
   <time name="total">   74.21   74.29</time>
   <energy>
    <i name="e_fr_energy">   -289.84606180 </i>
    <i name="e_wo_entrp">   -289.84606180 </i>
    <i name="e_0_energy">   -289.84606180 </i>
   </energy>
  </scstep>
  <scstep>
   <time name="dav">   79.81   79.90</time>
   <time name="total">   80.62   80.71</time>
   <energy>
    <i name="e_fr_energy">   -289.84620934 </i>
    <i name="e_wo_entrp">   -289.84620934 </i>
    <i name="e_0_energy">   -289.84620934 </i>
   </energy>
  </scstep>
  <scstep>
   <time name="dav">   71.29   71.40</time>
   <time name="total">   72.10   72.21</time>
   <energy>
    <i name="e_fr_energy">   -289.84624066 </i>
    <i name="e_wo_entrp">   -289.84624066 </i>
    <i name="e_0_energy">   -289.84624066 </i>
   </energy>
  </scstep>
  <scstep>
   <time name="dav">   66.07   66.22</time>
   <time name="total">   66.88   67.03</time>
   <energy>
    <i name="e_fr_energy">   -289.84625728 </i>
    <i name="e_wo_entrp">   -289.84625728 </i>
    <i name="e_0_energy">   -289.84625728 </i>
   </energy>
  </scstep>
  <scstep>
   <time name="dav">   67.24   67.43</time>
   <time name="total">   68.05   68.24</time>
   <energy>
    <i name="e_fr_energy">   -289.84626108 </i>
    <i name="e_wo_entrp">   -289.84626108 </i>
    <i name="e_0_energy">   -289.84626108 </i>
   </energy>
  </scstep>
  <scstep>
   <time name="dav">   60.26   60.41</time>
   <time name="total">   60.33   60.49</time>
   <energy>
    <i name="alphaZ">   1060.66890660 </i>
    <i name="ewald"> -30393.96127359 </i>
    <i name="hartreedc"> -12967.87710231 </i>
    <i name="XCdc">   1272.05889709 </i>
    <i name="pawpsdc">  43669.94645769 </i>
    <i name="pawaedc"> -42980.75931702 </i>
    <i name="eentropy">      0.00000000 </i>
    <i name="bandstr">  -3975.95541969 </i>
    <i name="atom">  44026.03258983 </i>
    <i name="e_fr_energy">   -289.84626142 </i>
    <i name="e_wo_entrp">   -289.84626142 </i>
    <i name="e_0_energy">   -289.84626142 </i>
   </energy>
  </scstep>
  <structure>
   <crystal>
    <varray name="basis" >
     <v>      11.17850000       0.00000000       0.00000000 </v>
     <v>       0.00000000       9.57460000       0.00000000 </v>
     <v>       0.00000000       0.00000000      11.18240000 </v>
    </varray>
    <i name="volume">   1196.84853820 </i>
    <varray name="rec_basis" >
     <v>       0.08945744       0.00000000       0.00000000 </v>
     <v>       0.00000000       0.10444301       0.00000000 </v>
     <v>       0.00000000       0.00000000       0.08942624 </v>
    </varray>
   </crystal>
   <varray name="positions" >
    <v>       0.37539000       0.00017000       0.43687000 </v>
    <v>       0.62539000       0.99984000       0.43687000 </v>
    <v>       0.62461000       0.99984000       0.18687000 </v>
    <v>       0.37461000       0.00017000       0.68687000 </v>
    <v>       0.62539000       0.99984000       0.93687000 </v>
    <v>       0.62461000       0.99984000       0.68687000 </v>
    <v>       0.12461000       0.99984000       0.18687000 </v>
    <v>       0.87539000       0.00017000       0.43687000 </v>
    <v>       0.37539000       0.00017000       0.93687000 </v>
    <v>       0.12461000       0.99984000       0.68687000 </v>
    <v>       0.87539000       0.00017000       0.93687000 </v>
    <v>       0.00013000       0.29519000       0.06281000 </v>
    <v>       0.25013000       0.70481000       0.06281000 </v>
    <v>       0.24987000       0.29519000       0.31282000 </v>
    <v>       0.49987000       0.70481000       0.31282000 </v>
    <v>       0.50013000       0.29519000       0.06281000 </v>
    <v>       0.75013000       0.70481000       0.06281000 </v>
    <v>       0.74987000       0.29519000       0.31282000 </v>
    <v>       0.99987000       0.70481000       0.31282000 </v>
    <v>       0.00013000       0.29519000       0.56281000 </v>
    <v>       0.25013000       0.70481000       0.56281000 </v>
    <v>       0.24987000       0.29519000       0.81282000 </v>
    <v>       0.49987000       0.70481000       0.81282000 </v>
    <v>       0.50013000       0.29519000       0.56281000 </v>
    <v>       0.75013000       0.70481000       0.56281000 </v>
    <v>       0.74987000       0.29519000       0.81282000 </v>
    <v>       0.99987000       0.70481000       0.81282000 </v>
    <v>       0.25005000       0.32677000       0.06286000 </v>
    <v>       0.00005000       0.67323000       0.06286000 </v>
    <v>       0.49995000       0.32677000       0.31286000 </v>
    <v>       0.24995000       0.67323000       0.31286000 </v>
    <v>       0.75005000       0.32677000       0.06286000 </v>
    <v>       0.50005000       0.67323000       0.06286000 </v>
    <v>       0.99995000       0.32677000       0.31286000 </v>
    <v>       0.74995000       0.67323000       0.31286000 </v>
    <v>       0.25005000       0.32677000       0.56286000 </v>
    <v>       0.00005000       0.67323000       0.56286000 </v>
    <v>       0.49995000       0.32677000       0.81286000 </v>
    <v>       0.24995000       0.67323000       0.81286000 </v>
    <v>       0.75005000       0.32677000       0.56286000 </v>
    <v>       0.50005000       0.67323000       0.56286000 </v>
    <v>       0.99995000       0.32677000       0.81286000 </v>
    <v>       0.74995000       0.67323000       0.81286000 </v>
    <v>       0.49987000       0.07798000       0.06246000 </v>
    <v>       0.24987000       0.92202000       0.06246000 </v>
    <v>       0.25013000       0.07798000       0.31246000 </v>
    <v>       0.00013000       0.92202000       0.31246000 </v>
    <v>       0.99987000       0.07798000       0.06246000 </v>
    <v>       0.74987000       0.92202000       0.06246000 </v>
    <v>       0.75013000       0.07798000       0.31246000 </v>
    <v>       0.50013000       0.92202000       0.31246000 </v>
    <v>       0.49987000       0.07798000       0.56246000 </v>
    <v>       0.24987000       0.92202000       0.56246000 </v>
    <v>       0.25013000       0.07798000       0.81246000 </v>
    <v>       0.00013000       0.92202000       0.81246000 </v>
    <v>       0.99987000       0.07798000       0.56246000 </v>
    <v>       0.74987000       0.92202000       0.56246000 </v>
    <v>       0.75013000       0.07798000       0.81246000 </v>
    <v>       0.50013000       0.92202000       0.81246000 </v>
   </varray>
  </structure>
  <varray name="forces" >
   <v>      -0.33603036      -0.00044510      -0.52772544 </v>
   <v>      -0.30497030      -0.06218258      -0.18679609 </v>
   <v>      -0.07259439      -0.06548584       0.12282120 </v>
   <v>       0.15757879       0.00415648      -0.51310440 </v>
   <v>       0.16743653       0.06408582       0.20756071 </v>
   <v>       0.43955871       0.06788353      -0.11995204 </v>
   <v>       0.19389342       0.12044359       0.26752821 </v>
   <v>       0.59687568      -0.00759927      -0.03717413 </v>
   <v>      -0.66196470      -0.00419779       1.10775325 </v>
   <v>      -0.80487416      -0.11317892      -0.22085606 </v>
   <v>       0.60187118      -0.00515049       0.09506995 </v>
   <v>      -0.02857746      -0.06711732       0.13956370 </v>
   <v>       0.03186070       0.08581858       0.24112568 </v>
   <v>       0.15210144      -1.04372524       0.07627095 </v>
   <v>      -0.13783303       0.99207406      -0.09035322 </v>
   <v>      -0.04379849       0.02021569       0.43414545 </v>
   <v>       0.01577057      -0.00629402       0.32952163 </v>
   <v>      -0.03723161       0.00167556      -0.18347850 </v>
   <v>       0.04747164       0.07847831       0.00302620 </v>
   <v>      -0.01506669      -0.07242065      -0.15690634 </v>
   <v>      -0.00615914      -0.04696691      -0.45034502 </v>
   <v>      -0.14146240       1.00851237       0.11290200 </v>
   <v>       0.15413127      -1.08514615      -0.10190520 </v>
   <v>       0.00664466       0.04369349      -0.25876813 </v>
   <v>      -0.00885782       0.02372155       0.03364002 </v>
   <v>       0.06594367       0.03402557      -0.19925727 </v>
   <v>      -0.05430579       0.04664422      -0.00525865 </v>
   <v>       0.02818129       0.09466022      -0.26321858 </v>
   <v>      -0.01789172      -0.09483199      -0.07721105 </v>
   <v>       0.12271556       0.20380404       0.02265882 </v>
   <v>      -0.12070962      -0.15545319      -0.03428925 </v>
   <v>       0.01183897       0.14831198      -0.13732004 </v>
   <v>      -0.02351636      -0.12417974      -0.31939801 </v>
   <v>      -0.11197062       0.13121194       0.00310239 </v>
   <v>       0.11481537      -0.18559532       0.06029540 </v>
   <v>      -0.01094657       0.12550616       0.32243896 </v>
   <v>       0.00906107      -0.09011873       0.07937947 </v>
   <v>      -0.12183918       0.11052537       0.03418014 </v>
   <v>       0.12204482      -0.06303181      -0.02891069 </v>
   <v>       0.00410352       0.14697945       0.01986423 </v>
   <v>      -0.00685261      -0.19585627       0.26448276 </v>
   <v>       0.07163545       0.05621778      -0.00575352 </v>
   <v>      -0.07153293      -0.11038075       0.05453345 </v>
   <v>       0.11358813      -0.01019531      -1.32968880 </v>
   <v>       0.06866314      -0.27865275      -0.23476010 </v>
   <v>      -0.54706823       0.98278522      -0.50009449 </v>
   <v>      -0.06870851      -0.33155760       0.00775793 </v>
   <v>      -0.02239012       0.28265119      -0.08850849 </v>
   <v>      -0.12111545      -0.03499933      -1.19689888 </v>
   <v>      -0.07276346       0.09680614       1.11266819 </v>
   <v>       0.65684358      -0.83266637       0.61108749 </v>
   <v>       0.00017587      -0.03025532       0.23671759 </v>
   <v>       0.12692193       0.01454700       1.32597760 </v>
   <v>       0.70246758      -0.70904401      -0.63211619 </v>
   <v>       0.07345489      -0.22252247      -0.02277262 </v>
   <v>       0.03021009       0.27966429       0.07944979 </v>
   <v>      -0.12871171      -0.05685927      -1.02740634 </v>
   <v>      -0.22383919      -0.01340702       1.08313876 </v>
   <v>      -0.56427693       0.85441789       0.46156564 </v>
  </varray>
  <varray name="stress" >
   <v>      -7.32236943      -0.46684520       0.08791125 </v>
   <v>      -0.46684544     -13.36455000       0.03906427 </v>
   <v>       0.08791132       0.03906436     -12.94666076 </v>
  </varray>
  <energy>
   <i name="e_fr_energy">   -302.47511243 </i>
   <i name="e_wo_entrp">   -302.47511243 </i>
   <i name="e_0_energy">      0.00000000 </i>
  </energy>
  <time name="totalsc"> 1431.69 1433.79</time>
  <eigenvalues>
   <array>
    <dimension dim="1">band</dimension>
    <dimension dim="2">kpoint</dimension>
    <dimension dim="3">spin</dimension>
    <field>eigene</field>
    <field>occ</field>
    <set>
     <set comment="spin 1">
      <set comment="kpoint 1">
       <r>  -40.3058    1.0000 </r>
       <r>  -40.1387    1.0000 </r>
       <r>  -40.0125    1.0000 </r>
       <r>  -39.6766    1.0000 </r>
       <r>  -39.5653    1.0000 </r>
       <r>  -39.4108    1.0000 </r>
       <r>  -18.9658    1.0000 </r>
       <r>  -18.9554    1.0000 </r>
       <r>  -18.8939    1.0000 </r>
       <r>  -18.8869    1.0000 </r>
       <r>  -18.8853    1.0000 </r>
       <r>  -18.8781    1.0000 </r>
       <r>  -18.7913    1.0000 </r>
       <r>  -18.7860    1.0000 </r>
       <r>  -18.7782    1.0000 </r>
       <r>  -18.7632    1.0000 </r>
       <r>  -18.7501    1.0000 </r>
       <r>  -18.7404    1.0000 </r>
       <r>  -18.7388    1.0000 </r>
       <r>  -18.7330    1.0000 </r>
       <r>  -18.7309    1.0000 </r>
       <r>  -18.7180    1.0000 </r>
       <r>  -18.6839    1.0000 </r>
       <r>  -18.6827    1.0000 </r>
       <r>  -18.6767    1.0000 </r>
       <r>  -18.6759    1.0000 </r>
       <r>  -18.6754    1.0000 </r>
       <r>  -18.6751    1.0000 </r>
       <r>  -18.6718    1.0000 </r>
       <r>  -18.6701    1.0000 </r>
       <r>  -18.6676    1.0000 </r>
       <r>  -18.6665    1.0000 </r>
       <r>  -18.6658    1.0000 </r>
       <r>  -18.6652    1.0000 </r>
       <r>  -18.6640    1.0000 </r>
       <r>  -18.6630    1.0000 </r>
       <r>  -18.6629    1.0000 </r>
       <r>  -18.6596    1.0000 </r>
       <r>  -18.6587    1.0000 </r>
       <r>  -18.6581    1.0000 </r>
       <r>  -18.6573    1.0000 </r>
       <r>  -18.6564    1.0000 </r>
       <r>  -18.6522    1.0000 </r>
       <r>  -18.6455    1.0000 </r>
       <r>  -18.6439    1.0000 </r>
       <r>  -18.6408    1.0000 </r>
       <r>  -18.6004    1.0000 </r>
       <r>  -18.5945    1.0000 </r>
       <r>  -18.5903    1.0000 </r>
       <r>  -18.5875    1.0000 </r>
       <r>  -18.5872    1.0000 </r>
       <r>  -18.5786    1.0000 </r>
       <r>  -18.5771    1.0000 </r>
       <r>  -18.5760    1.0000 </r>
       <r>  -18.5637    1.0000 </r>
       <r>  -18.5569    1.0000 </r>
       <r>  -18.5306    1.0000 </r>
       <r>  -18.5288    1.0000 </r>
       <r>  -18.5193    1.0000 </r>
       <r>  -18.5163    1.0000 </r>
       <r>  -18.5160    1.0000 </r>
       <r>  -18.5152    1.0000 </r>
       <r>  -18.5146    1.0000 </r>
       <r>  -18.5131    1.0000 </r>
       <r>  -18.5126    1.0000 </r>
       <r>  -18.5123    1.0000 </r>
       <r>  -18.5110    1.0000 </r>
       <r>  -18.5046    1.0000 </r>
       <r>  -18.4997    1.0000 </r>
       <r>  -18.4865    1.0000 </r>
       <r>  -18.4863    1.0000 </r>
       <r>  -18.4834    1.0000 </r>
       <r>  -18.4444    1.0000 </r>
       <r>  -18.4387    1.0000 </r>
       <r>  -18.4312    1.0000 </r>
       <r>  -18.4255    1.0000 </r>
       <r>  -18.4231    1.0000 </r>
       <r>  -18.4183    1.0000 </r>
       <r>  -18.4105    1.0000 </r>
       <r>  -18.4076    1.0000 </r>
       <r>  -18.3403    1.0000 </r>
       <r>  -18.3327    1.0000 </r>
       <r>  -18.2255    1.0000 </r>
       <r>  -18.2240    1.0000 </r>
       <r>  -18.2108    1.0000 </r>
       <r>  -18.1964    1.0000 </r>
       <r>  -13.6043    1.0000 </r>
       <r>  -13.4970    1.0000 </r>
       <r>  -12.9536    1.0000 </r>
       <r>  -12.8342    1.0000 </r>
       <r>  -12.8087    1.0000 </r>
       <r>  -12.7910    1.0000 </r>
       <r>  -12.7609    1.0000 </r>
       <r>  -12.7352    1.0000 </r>
       <r>  -12.7172    1.0000 </r>
       <r>  -12.7045    1.0000 </r>
       <r>  -12.6621    1.0000 </r>
       <r>  -12.6490    1.0000 </r>
       <r>  -12.6222    1.0000 </r>
       <r>  -12.5831    1.0000 </r>
       <r>  -12.0096    1.0000 </r>
       <r>  -11.9565    1.0000 </r>
       <r>   -9.3592    1.0000 </r>
       <r>   -9.0636    1.0000 </r>
       <r>   -8.5642    1.0000 </r>
       <r>   -8.5308    1.0000 </r>
       <r>   -8.5161    1.0000 </r>
       <r>   -8.4744    1.0000 </r>
       <r>   -8.3416    1.0000 </r>
       <r>   -8.3102    1.0000 </r>
       <r>   -8.2893    1.0000 </r>
       <r>   -8.2502    1.0000 </r>
       <r>   -8.0608    1.0000 </r>
       <r>   -8.0586    1.0000 </r>
       <r>   -8.0240    1.0000 </r>
       <r>   -8.0221    1.0000 </r>
       <r>   -7.3878    1.0000 </r>
       <r>   -7.3870    1.0000 </r>
       <r>   -6.4036    1.0000 </r>
       <r>   -6.4013    1.0000 </r>
       <r>   -6.3665    1.0000 </r>
       <r>   -6.3655    1.0000 </r>
       <r>   -5.5547    1.0000 </r>
       <r>   -5.5187    1.0000 </r>
       <r>   -5.3906    1.0000 </r>
       <r>   -5.3690    1.0000 </r>
       <r>   -5.3636    1.0000 </r>
       <r>   -5.2790    1.0000 </r>
       <r>   -5.2395    1.0000 </r>
       <r>   -5.1977    1.0000 </r>
       <r>   -5.1541    1.0000 </r>
       <r>   -5.0883    1.0000 </r>
       <r>   -3.8380    1.0000 </r>
       <r>   -3.6877    1.0000 </r>
       <r>   -1.5279    1.0000 </r>
       <r>   -1.3156    1.0000 </r>
       <r>   -1.1617    1.0000 </r>
       <r>   -1.0027    1.0000 </r>
       <r>   -0.6134    1.0000 </r>
       <r>   -0.5410    1.0000 </r>
       <r>   -0.5213    1.0000 </r>
       <r>   -0.5120    1.0000 </r>
       <r>   -0.2242    1.0000 </r>
       <r>   -0.1969    1.0000 </r>
       <r>   -0.1880    1.0000 </r>
       <r>   -0.1751    1.0000 </r>
       <r>   -0.0126    1.0000 </r>
       <r>    0.1314    1.0000 </r>
       <r>    0.2626    1.0000 </r>
       <r>    0.3872    1.0000 </r>
       <r>    0.4578    1.0000 </r>
       <r>    0.5127    1.0000 </r>
       <r>    0.5569    1.0000 </r>
       <r>    0.6040    1.0000 </r>
       <r>    0.6735    1.0000 </r>
       <r>    0.6963    1.0000 </r>
       <r>    0.7205    1.0000 </r>
       <r>    0.7368    1.0000 </r>
       <r>    0.7568    1.0000 </r>
       <r>    0.8031    1.0000 </r>
       <r>    0.8437    1.0000 </r>
       <r>    0.9237    1.0000 </r>
       <r>    0.9395    1.0000 </r>
       <r>    0.9514    1.0000 </r>
       <r>    0.9691    1.0000 </r>
       <r>    1.0165    1.0000 </r>
       <r>    1.0584    1.0000 </r>
       <r>    1.0885    1.0000 </r>
       <r>    1.1590    1.0000 </r>
       <r>    1.2051    1.0000 </r>
       <r>    1.2286    1.0000 </r>
       <r>    1.3286    1.0000 </r>
       <r>    1.3989    1.0000 </r>
       <r>    1.4166    1.0000 </r>
       <r>    1.4752    1.0000 </r>
       <r>    1.4942    1.0000 </r>
       <r>    1.5705    1.0000 </r>
       <r>    1.5833    1.0000 </r>
       <r>    1.6517    1.0000 </r>
       <r>    1.7167    1.0000 </r>
       <r>    1.7516    1.0000 </r>
       <r>    1.7730    1.0000 </r>
       <r>    1.7931    1.0000 </r>
       <r>    1.8568    1.0000 </r>
       <r>    1.8860    1.0000 </r>
       <r>    1.9633    1.0000 </r>
       <r>    1.9802    1.0000 </r>
       <r>    2.1475    1.0000 </r>
       <r>    2.1665    1.0000 </r>
       <r>    2.2235    1.0000 </r>
       <r>    2.3224    1.0000 </r>
       <r>    2.3715    1.0000 </r>
       <r>    2.5301    1.0000 </r>
       <r>    2.5334    1.0000 </r>
       <r>    2.5342    1.0000 </r>
       <r>    2.5623    1.0000 </r>
       <r>    2.5713    1.0000 </r>
       <r>    2.5923    1.0000 </r>
       <r>    2.6081    1.0000 </r>
       <r>    2.6629    1.0000 </r>
       <r>    2.6724    1.0000 </r>
       <r>    2.6786    1.0000 </r>
       <r>    2.7339    1.0000 </r>
       <r>    2.7543    1.0000 </r>
       <r>    2.8175    1.0000 </r>
       <r>    2.8487    1.0000 </r>
       <r>    2.8538    1.0000 </r>
       <r>    2.8763    1.0000 </r>
       <r>    2.9403    1.0000 </r>
       <r>    2.9544    1.0000 </r>
       <r>    2.9772    1.0000 </r>
       <r>    3.0371    1.0000 </r>
       <r>    3.0669    1.0000 </r>
       <r>    3.0975    1.0000 </r>
       <r>    3.1136    1.0000 </r>
       <r>    3.1348    1.0000 </r>
       <r>    3.1446    1.0000 </r>
       <r>    3.1520    1.0000 </r>
       <r>    3.1647    1.0000 </r>
       <r>    3.2019    1.0000 </r>
       <r>    3.2764    1.0000 </r>
       <r>    3.3082    1.0000 </r>
       <r>    3.3909    1.0000 </r>
       <r>    3.4310    1.0000 </r>
       <r>    3.4643    1.0000 </r>
       <r>    3.6925    1.0000 </r>
       <r>    4.1468    1.0000 </r>
       <r>    4.1491    1.0000 </r>
       <r>    4.2049    1.0000 </r>
       <r>    4.2095    1.0000 </r>
       <r>    4.9792    0.0000 </r>
       <r>    4.9803    0.0000 </r>
       <r>    5.1664    0.0000 </r>
       <r>    5.1733    0.0000 </r>
       <r>    5.6991    0.0000 </r>
       <r>    5.7006    0.0000 </r>
       <r>    5.8124    0.0000 </r>
       <r>    5.8195    0.0000 </r>
       <r>    6.0739    0.0000 </r>
       <r>    6.0904    0.0000 </r>
       <r>    6.1171    0.0000 </r>
       <r>    6.1204    0.0000 </r>
       <r>    6.2029    0.0000 </r>
       <r>    6.2092    0.0000 </r>
       <r>    6.2368    0.0000 </r>
       <r>    6.2382    0.0000 </r>
       <r>    7.0124    0.0000 </r>
       <r>    7.0629    0.0000 </r>
       <r>    7.3101    0.0000 </r>
       <r>    7.3200    0.0000 </r>
       <r>    7.7756    0.0000 </r>
       <r>    7.7957    0.0000 </r>
       <r>    7.8997    0.0000 </r>
       <r>    7.9041    0.0000 </r>
       <r>    7.9233    0.0000 </r>
       <r>    7.9783    0.0000 </r>
       <r>    8.0255    0.0000 </r>
       <r>    8.1042    0.0000 </r>
       <r>    8.2934    0.0000 </r>
       <r>    8.6158    0.0000 </r>
       <r>    8.6217    0.0000 </r>
       <r>    8.7590    0.0000 </r>
       <r>    8.7644    0.0000 </r>
       <r>    8.7788    0.0000 </r>
       <r>    8.9113    0.0000 </r>
       <r>    8.9534    0.0000 </r>
       <r>    9.0077    0.0000 </r>
       <r>    9.0286    0.0000 </r>
       <r>    9.0437    0.0000 </r>
       <r>    9.0728    0.0000 </r>
       <r>    9.1046    0.0000 </r>
       <r>    9.1440    0.0000 </r>
       <r>    9.1660    0.0000 </r>
       <r>    9.2381    0.0000 </r>
       <r>    9.3941    0.0000 </r>
       <r>    9.4072    0.0000 </r>
       <r>    9.4657    0.0000 </r>
       <r>    9.4970    0.0000 </r>
       <r>    9.6960    0.0000 </r>
       <r>    9.8145    0.0000 </r>
      </set>
      <set comment="kpoint 2">
       <r>  -40.3058    1.0000 </r>
       <r>  -40.1387    1.0000 </r>
       <r>  -40.0125    1.0000 </r>
       <r>  -39.6766    1.0000 </r>
       <r>  -39.5653    1.0000 </r>
       <r>  -39.4108    1.0000 </r>
       <r>  -18.9658    1.0000 </r>
       <r>  -18.9554    1.0000 </r>
       <r>  -18.8939    1.0000 </r>
       <r>  -18.8869    1.0000 </r>
       <r>  -18.8852    1.0000 </r>
       <r>  -18.8781    1.0000 </r>
       <r>  -18.7913    1.0000 </r>
       <r>  -18.7860    1.0000 </r>
       <r>  -18.7782    1.0000 </r>
       <r>  -18.7632    1.0000 </r>
       <r>  -18.7502    1.0000 </r>
       <r>  -18.7404    1.0000 </r>
       <r>  -18.7389    1.0000 </r>
       <r>  -18.7329    1.0000 </r>
       <r>  -18.7309    1.0000 </r>
       <r>  -18.7179    1.0000 </r>
       <r>  -18.6837    1.0000 </r>
       <r>  -18.6825    1.0000 </r>
       <r>  -18.6765    1.0000 </r>
       <r>  -18.6757    1.0000 </r>
       <r>  -18.6755    1.0000 </r>
       <r>  -18.6750    1.0000 </r>
       <r>  -18.6713    1.0000 </r>
       <r>  -18.6711    1.0000 </r>
       <r>  -18.6675    1.0000 </r>
       <r>  -18.6669    1.0000 </r>
       <r>  -18.6661    1.0000 </r>
       <r>  -18.6650    1.0000 </r>
       <r>  -18.6642    1.0000 </r>
       <r>  -18.6633    1.0000 </r>
       <r>  -18.6631    1.0000 </r>
       <r>  -18.6599    1.0000 </r>
       <r>  -18.6590    1.0000 </r>
       <r>  -18.6587    1.0000 </r>
       <r>  -18.6571    1.0000 </r>
       <r>  -18.6555    1.0000 </r>
       <r>  -18.6522    1.0000 </r>
       <r>  -18.6454    1.0000 </r>
       <r>  -18.6438    1.0000 </r>
       <r>  -18.6406    1.0000 </r>
       <r>  -18.6003    1.0000 </r>
       <r>  -18.5945    1.0000 </r>
       <r>  -18.5902    1.0000 </r>
       <r>  -18.5875    1.0000 </r>
       <r>  -18.5872    1.0000 </r>
       <r>  -18.5787    1.0000 </r>
       <r>  -18.5771    1.0000 </r>
       <r>  -18.5760    1.0000 </r>
       <r>  -18.5637    1.0000 </r>
       <r>  -18.5569    1.0000 </r>
       <r>  -18.5306    1.0000 </r>
       <r>  -18.5288    1.0000 </r>
       <r>  -18.5193    1.0000 </r>
       <r>  -18.5163    1.0000 </r>
       <r>  -18.5160    1.0000 </r>
       <r>  -18.5152    1.0000 </r>
       <r>  -18.5146    1.0000 </r>
       <r>  -18.5131    1.0000 </r>
       <r>  -18.5126    1.0000 </r>
       <r>  -18.5122    1.0000 </r>
       <r>  -18.5110    1.0000 </r>
       <r>  -18.5046    1.0000 </r>
       <r>  -18.4997    1.0000 </r>
       <r>  -18.4865    1.0000 </r>
       <r>  -18.4863    1.0000 </r>
       <r>  -18.4834    1.0000 </r>
       <r>  -18.4444    1.0000 </r>
       <r>  -18.4387    1.0000 </r>
       <r>  -18.4312    1.0000 </r>
       <r>  -18.4255    1.0000 </r>
       <r>  -18.4230    1.0000 </r>
       <r>  -18.4183    1.0000 </r>
       <r>  -18.4105    1.0000 </r>
       <r>  -18.4076    1.0000 </r>
       <r>  -18.3403    1.0000 </r>
       <r>  -18.3327    1.0000 </r>
       <r>  -18.2255    1.0000 </r>
       <r>  -18.2240    1.0000 </r>
       <r>  -18.2108    1.0000 </r>
       <r>  -18.1964    1.0000 </r>
       <r>  -13.6033    1.0000 </r>
       <r>  -13.4980    1.0000 </r>
       <r>  -12.9501    1.0000 </r>
       <r>  -12.8348    1.0000 </r>
       <r>  -12.8026    1.0000 </r>
       <r>  -12.7908    1.0000 </r>
       <r>  -12.7757    1.0000 </r>
       <r>  -12.7589    1.0000 </r>
       <r>  -12.6952    1.0000 </r>
       <r>  -12.6856    1.0000 </r>
       <r>  -12.6648    1.0000 </r>
       <r>  -12.6565    1.0000 </r>
       <r>  -12.6224    1.0000 </r>
       <r>  -12.5846    1.0000 </r>
       <r>  -12.0099    1.0000 </r>
       <r>  -11.9561    1.0000 </r>
       <r>   -9.1538    1.0000 </r>
       <r>   -9.1375    1.0000 </r>
       <r>   -8.8794    1.0000 </r>
       <r>   -8.8601    1.0000 </r>
       <r>   -8.3551    1.0000 </r>
       <r>   -8.3528    1.0000 </r>
       <r>   -8.3450    1.0000 </r>
       <r>   -8.3392    1.0000 </r>
       <r>   -8.1673    1.0000 </r>
       <r>   -8.1647    1.0000 </r>
       <r>   -8.1586    1.0000 </r>
       <r>   -8.1540    1.0000 </r>
       <r>   -7.7209    1.0000 </r>
       <r>   -7.7192    1.0000 </r>
       <r>   -7.6106    1.0000 </r>
       <r>   -7.6093    1.0000 </r>
       <r>   -6.0108    1.0000 </r>
       <r>   -5.9715    1.0000 </r>
       <r>   -5.9201    1.0000 </r>
       <r>   -5.9137    1.0000 </r>
       <r>   -5.8774    1.0000 </r>
       <r>   -5.8011    1.0000 </r>
       <r>   -5.7691    1.0000 </r>
       <r>   -5.7655    1.0000 </r>
       <r>   -5.6647    1.0000 </r>
       <r>   -5.6157    1.0000 </r>
       <r>   -5.5312    1.0000 </r>
       <r>   -5.5158    1.0000 </r>
       <r>   -4.4594    1.0000 </r>
       <r>   -4.4464    1.0000 </r>
       <r>   -4.2955    1.0000 </r>
       <r>   -4.2787    1.0000 </r>
       <r>   -1.2222    1.0000 </r>
       <r>   -1.1658    1.0000 </r>
       <r>   -0.8492    1.0000 </r>
       <r>   -0.8353    1.0000 </r>
       <r>   -0.5006    1.0000 </r>
       <r>   -0.3754    1.0000 </r>
       <r>   -0.0363    1.0000 </r>
       <r>   -0.0193    1.0000 </r>
       <r>    0.0295    1.0000 </r>
       <r>    0.0557    1.0000 </r>
       <r>    0.0769    1.0000 </r>
       <r>    0.1562    1.0000 </r>
       <r>    0.1976    1.0000 </r>
       <r>    0.2246    1.0000 </r>
       <r>    0.2688    1.0000 </r>
       <r>    0.3125    1.0000 </r>
       <r>    0.4963    1.0000 </r>
       <r>    0.5112    1.0000 </r>
       <r>    0.5384    1.0000 </r>
       <r>    0.5487    1.0000 </r>
       <r>    0.5671    1.0000 </r>
       <r>    0.5839    1.0000 </r>
       <r>    0.6310    1.0000 </r>
       <r>    0.6556    1.0000 </r>
       <r>    0.7343    1.0000 </r>
       <r>    0.7733    1.0000 </r>
       <r>    0.8337    1.0000 </r>
       <r>    0.8478    1.0000 </r>
       <r>    0.9155    1.0000 </r>
       <r>    0.9523    1.0000 </r>
       <r>    0.9992    1.0000 </r>
       <r>    1.0725    1.0000 </r>
       <r>    1.1170    1.0000 </r>
       <r>    1.1685    1.0000 </r>
       <r>    1.2286    1.0000 </r>
       <r>    1.2325    1.0000 </r>
       <r>    1.2654    1.0000 </r>
       <r>    1.2798    1.0000 </r>
       <r>    1.3274    1.0000 </r>
       <r>    1.3864    1.0000 </r>
       <r>    1.4116    1.0000 </r>
       <r>    1.4321    1.0000 </r>
       <r>    1.4665    1.0000 </r>
       <r>    1.5104    1.0000 </r>
       <r>    1.5583    1.0000 </r>
       <r>    1.5930    1.0000 </r>
       <r>    1.6740    1.0000 </r>
       <r>    1.7170    1.0000 </r>
       <r>    1.7340    1.0000 </r>
       <r>    1.8563    1.0000 </r>
       <r>    1.8789    1.0000 </r>
       <r>    1.9114    1.0000 </r>
       <r>    1.9563    1.0000 </r>
       <r>    1.9864    1.0000 </r>
       <r>    2.0117    1.0000 </r>
       <r>    2.0460    1.0000 </r>
       <r>    2.0841    1.0000 </r>
       <r>    2.0995    1.0000 </r>
       <r>    2.1744    1.0000 </r>
       <r>    2.2463    1.0000 </r>
       <r>    2.2838    1.0000 </r>
       <r>    2.3223    1.0000 </r>
       <r>    2.4279    1.0000 </r>
       <r>    2.4604    1.0000 </r>
       <r>    2.5063    1.0000 </r>
       <r>    2.5344    1.0000 </r>
       <r>    2.5556    1.0000 </r>
       <r>    2.6163    1.0000 </r>
       <r>    2.6344    1.0000 </r>
       <r>    2.6630    1.0000 </r>
       <r>    2.6775    1.0000 </r>
       <r>    2.7165    1.0000 </r>
       <r>    2.7400    1.0000 </r>
       <r>    2.7697    1.0000 </r>
       <r>    2.8303    1.0000 </r>
       <r>    2.8584    1.0000 </r>
       <r>    2.8897    1.0000 </r>
       <r>    2.9188    1.0000 </r>
       <r>    2.9436    1.0000 </r>
       <r>    2.9818    1.0000 </r>
       <r>    3.0154    1.0000 </r>
       <r>    3.0616    1.0000 </r>
       <r>    3.0875    1.0000 </r>
       <r>    3.1319    1.0000 </r>
       <r>    3.2201    1.0000 </r>
       <r>    3.2467    1.0000 </r>
       <r>    3.2973    1.0000 </r>
       <r>    3.3869    1.0000 </r>
       <r>    3.4334    1.0000 </r>
       <r>    3.4553    1.0000 </r>
       <r>    3.4787    1.0000 </r>
       <r>    3.5243    1.0000 </r>
       <r>    3.5506    1.0000 </r>
       <r>    3.6077    1.0000 </r>
       <r>    3.6364    1.0000 </r>
       <r>    3.8416    1.0000 </r>
       <r>    5.6372    0.0000 </r>
       <r>    5.6420    0.0000 </r>
       <r>    5.6515    0.0000 </r>
       <r>    5.6628    0.0000 </r>
       <r>    5.7376    0.0000 </r>
       <r>    5.7448    0.0000 </r>
       <r>    5.7695    0.0000 </r>
       <r>    5.7754    0.0000 </r>
       <r>    7.1747    0.0000 </r>
       <r>    7.1984    0.0000 </r>
       <r>    7.2409    0.0000 </r>
       <r>    7.2832    0.0000 </r>
       <r>    7.3118    0.0000 </r>
       <r>    7.3678    0.0000 </r>
       <r>    7.3843    0.0000 </r>
       <r>    7.4348    0.0000 </r>
       <r>    7.4626    0.0000 </r>
       <r>    7.4737    0.0000 </r>
       <r>    7.5210    0.0000 </r>
       <r>    7.5336    0.0000 </r>
       <r>    7.8110    0.0000 </r>
       <r>    7.8293    0.0000 </r>
       <r>    7.8324    0.0000 </r>
       <r>    7.8375    0.0000 </r>
       <r>    7.8444    0.0000 </r>
       <r>    7.8724    0.0000 </r>
       <r>    7.9001    0.0000 </r>
       <r>    7.9363    0.0000 </r>
       <r>    7.9692    0.0000 </r>
       <r>    8.0044    0.0000 </r>
       <r>    8.0225    0.0000 </r>
       <r>    8.0352    0.0000 </r>
       <r>    8.1606    0.0000 </r>
       <r>    8.2747    0.0000 </r>
       <r>    8.3424    0.0000 </r>
       <r>    8.4649    0.0000 </r>
       <r>    8.6590    0.0000 </r>
       <r>    8.6947    0.0000 </r>
       <r>    8.7406    0.0000 </r>
       <r>    8.7550    0.0000 </r>
       <r>    8.7590    0.0000 </r>
       <r>    8.8016    0.0000 </r>
       <r>    8.8913    0.0000 </r>
       <r>    8.9020    0.0000 </r>
       <r>    9.1669    0.0000 </r>
       <r>    9.1803    0.0000 </r>
       <r>    9.3339    0.0000 </r>
       <r>    9.4298    0.0000 </r>
       <r>    9.4400    0.0000 </r>
       <r>    9.5382    0.0000 </r>
      </set>
      <set comment="kpoint 3">
       <r>  -40.3058    1.0000 </r>
       <r>  -40.1387    1.0000 </r>
       <r>  -40.0125    1.0000 </r>
       <r>  -39.6766    1.0000 </r>
       <r>  -39.5653    1.0000 </r>
       <r>  -39.4108    1.0000 </r>
       <r>  -18.9658    1.0000 </r>
       <r>  -18.9554    1.0000 </r>
       <r>  -18.8939    1.0000 </r>
       <r>  -18.8869    1.0000 </r>
       <r>  -18.8853    1.0000 </r>
       <r>  -18.8781    1.0000 </r>
       <r>  -18.7913    1.0000 </r>
       <r>  -18.7860    1.0000 </r>
       <r>  -18.7782    1.0000 </r>
       <r>  -18.7632    1.0000 </r>
       <r>  -18.7501    1.0000 </r>
       <r>  -18.7404    1.0000 </r>
       <r>  -18.7388    1.0000 </r>
       <r>  -18.7329    1.0000 </r>
       <r>  -18.7310    1.0000 </r>
       <r>  -18.7180    1.0000 </r>
       <r>  -18.6839    1.0000 </r>
       <r>  -18.6827    1.0000 </r>
       <r>  -18.6767    1.0000 </r>
       <r>  -18.6759    1.0000 </r>
       <r>  -18.6754    1.0000 </r>
       <r>  -18.6752    1.0000 </r>
       <r>  -18.6718    1.0000 </r>
       <r>  -18.6701    1.0000 </r>
       <r>  -18.6676    1.0000 </r>
       <r>  -18.6665    1.0000 </r>
       <r>  -18.6658    1.0000 </r>
       <r>  -18.6652    1.0000 </r>
       <r>  -18.6641    1.0000 </r>
       <r>  -18.6630    1.0000 </r>
       <r>  -18.6629    1.0000 </r>
       <r>  -18.6596    1.0000 </r>
       <r>  -18.6587    1.0000 </r>
       <r>  -18.6581    1.0000 </r>
       <r>  -18.6573    1.0000 </r>
       <r>  -18.6564    1.0000 </r>
       <r>  -18.6522    1.0000 </r>
       <r>  -18.6455    1.0000 </r>
       <r>  -18.6439    1.0000 </r>
       <r>  -18.6408    1.0000 </r>
       <r>  -18.6004    1.0000 </r>
       <r>  -18.5945    1.0000 </r>
       <r>  -18.5903    1.0000 </r>
       <r>  -18.5875    1.0000 </r>
       <r>  -18.5872    1.0000 </r>
       <r>  -18.5787    1.0000 </r>
       <r>  -18.5771    1.0000 </r>
       <r>  -18.5760    1.0000 </r>
       <r>  -18.5637    1.0000 </r>
       <r>  -18.5569    1.0000 </r>
       <r>  -18.5306    1.0000 </r>
       <r>  -18.5288    1.0000 </r>
       <r>  -18.5192    1.0000 </r>
       <r>  -18.5162    1.0000 </r>
       <r>  -18.5160    1.0000 </r>
       <r>  -18.5153    1.0000 </r>
       <r>  -18.5146    1.0000 </r>
       <r>  -18.5131    1.0000 </r>
       <r>  -18.5126    1.0000 </r>
       <r>  -18.5123    1.0000 </r>
       <r>  -18.5110    1.0000 </r>
       <r>  -18.5046    1.0000 </r>
       <r>  -18.4997    1.0000 </r>
       <r>  -18.4865    1.0000 </r>
       <r>  -18.4863    1.0000 </r>
       <r>  -18.4834    1.0000 </r>
       <r>  -18.4444    1.0000 </r>
       <r>  -18.4387    1.0000 </r>
       <r>  -18.4312    1.0000 </r>
       <r>  -18.4255    1.0000 </r>
       <r>  -18.4231    1.0000 </r>
       <r>  -18.4183    1.0000 </r>
       <r>  -18.4105    1.0000 </r>
       <r>  -18.4076    1.0000 </r>
       <r>  -18.3403    1.0000 </r>
       <r>  -18.3327    1.0000 </r>
       <r>  -18.2255    1.0000 </r>
       <r>  -18.2240    1.0000 </r>
       <r>  -18.2108    1.0000 </r>
       <r>  -18.1964    1.0000 </r>
       <r>  -13.6040    1.0000 </r>
       <r>  -13.4971    1.0000 </r>
       <r>  -12.9520    1.0000 </r>
       <r>  -12.8340    1.0000 </r>
       <r>  -12.8082    1.0000 </r>
       <r>  -12.7910    1.0000 </r>
       <r>  -12.7608    1.0000 </r>
       <r>  -12.7353    1.0000 </r>
       <r>  -12.7174    1.0000 </r>
       <r>  -12.7045    1.0000 </r>
       <r>  -12.6639    1.0000 </r>
       <r>  -12.6497    1.0000 </r>
       <r>  -12.6225    1.0000 </r>
       <r>  -12.5838    1.0000 </r>
       <r>  -12.0087    1.0000 </r>
       <r>  -11.9580    1.0000 </r>
       <r>   -9.3484    1.0000 </r>
       <r>   -9.0714    1.0000 </r>
       <r>   -8.5821    1.0000 </r>
       <r>   -8.5484    1.0000 </r>
       <r>   -8.5337    1.0000 </r>
       <r>   -8.4912    1.0000 </r>
       <r>   -8.3216    1.0000 </r>
       <r>   -8.2910    1.0000 </r>
       <r>   -8.2692    1.0000 </r>
       <r>   -8.2315    1.0000 </r>
       <r>   -8.0648    1.0000 </r>
       <r>   -8.0627    1.0000 </r>
       <r>   -8.0269    1.0000 </r>
       <r>   -8.0251    1.0000 </r>
       <r>   -7.3904    1.0000 </r>
       <r>   -7.3899    1.0000 </r>
       <r>   -6.3942    1.0000 </r>
       <r>   -6.3908    1.0000 </r>
       <r>   -6.3574    1.0000 </r>
       <r>   -6.3555    1.0000 </r>
       <r>   -5.5715    1.0000 </r>
       <r>   -5.5044    1.0000 </r>
       <r>   -5.4280    1.0000 </r>
       <r>   -5.4154    1.0000 </r>
       <r>   -5.4076    1.0000 </r>
       <r>   -5.2991    1.0000 </r>
       <r>   -5.1829    1.0000 </r>
       <r>   -5.1403    1.0000 </r>
       <r>   -5.1110    1.0000 </r>
       <r>   -5.0395    1.0000 </r>
       <r>   -3.9133    1.0000 </r>
       <r>   -3.6005    1.0000 </r>
       <r>   -1.4148    1.0000 </r>
       <r>   -1.3131    1.0000 </r>
       <r>   -1.2747    1.0000 </r>
       <r>   -1.0568    1.0000 </r>
       <r>   -0.4815    1.0000 </r>
       <r>   -0.4630    1.0000 </r>
       <r>   -0.4331    1.0000 </r>
       <r>   -0.4230    1.0000 </r>
       <r>   -0.4203    1.0000 </r>
       <r>   -0.3429    1.0000 </r>
       <r>   -0.3098    1.0000 </r>
       <r>   -0.3047    1.0000 </r>
       <r>   -0.1430    1.0000 </r>
       <r>   -0.1117    1.0000 </r>
       <r>    0.1085    1.0000 </r>
       <r>    0.2237    1.0000 </r>
       <r>    0.2412    1.0000 </r>
       <r>    0.3096    1.0000 </r>
       <r>    0.3734    1.0000 </r>
       <r>    0.4379    1.0000 </r>
       <r>    0.4641    1.0000 </r>
       <r>    0.5623    1.0000 </r>
       <r>    0.6465    1.0000 </r>
       <r>    0.6914    1.0000 </r>
       <r>    0.7173    1.0000 </r>
       <r>    0.7746    1.0000 </r>
       <r>    0.7980    1.0000 </r>
       <r>    0.8154    1.0000 </r>
       <r>    0.8557    1.0000 </r>
       <r>    1.0227    1.0000 </r>
       <r>    1.0619    1.0000 </r>
       <r>    1.1718    1.0000 </r>
       <r>    1.1944    1.0000 </r>
       <r>    1.2402    1.0000 </r>
       <r>    1.2947    1.0000 </r>
       <r>    1.3149    1.0000 </r>
       <r>    1.3673    1.0000 </r>
       <r>    1.4634    1.0000 </r>
       <r>    1.5125    1.0000 </r>
       <r>    1.5481    1.0000 </r>
       <r>    1.5869    1.0000 </r>
       <r>    1.5996    1.0000 </r>
       <r>    1.6176    1.0000 </r>
       <r>    1.7183    1.0000 </r>
       <r>    1.7623    1.0000 </r>
       <r>    1.8255    1.0000 </r>
       <r>    1.8964    1.0000 </r>
       <r>    1.9203    1.0000 </r>
       <r>    1.9225    1.0000 </r>
       <r>    1.9867    1.0000 </r>
       <r>    2.0366    1.0000 </r>
       <r>    2.1002    1.0000 </r>
       <r>    2.1184    1.0000 </r>
       <r>    2.2041    1.0000 </r>
       <r>    2.2694    1.0000 </r>
       <r>    2.3679    1.0000 </r>
       <r>    2.4125    1.0000 </r>
       <r>    2.4186    1.0000 </r>
       <r>    2.4706    1.0000 </r>
       <r>    2.4833    1.0000 </r>
       <r>    2.4978    1.0000 </r>
       <r>    2.5333    1.0000 </r>
       <r>    2.5379    1.0000 </r>
       <r>    2.5692    1.0000 </r>
       <r>    2.5693    1.0000 </r>
       <r>    2.6219    1.0000 </r>
       <r>    2.6399    1.0000 </r>
       <r>    2.7033    1.0000 </r>
       <r>    2.7429    1.0000 </r>
       <r>    2.7772    1.0000 </r>
       <r>    2.8033    1.0000 </r>
       <r>    2.8324    1.0000 </r>
       <r>    2.8507    1.0000 </r>
       <r>    2.8880    1.0000 </r>
       <r>    2.8939    1.0000 </r>
       <r>    2.9239    1.0000 </r>
       <r>    2.9736    1.0000 </r>
       <r>    2.9889    1.0000 </r>
       <r>    3.0029    1.0000 </r>
       <r>    3.0190    1.0000 </r>
       <r>    3.0772    1.0000 </r>
       <r>    3.1307    1.0000 </r>
       <r>    3.1704    1.0000 </r>
       <r>    3.2921    1.0000 </r>
       <r>    3.3134    1.0000 </r>
       <r>    3.3535    1.0000 </r>
       <r>    3.3651    1.0000 </r>
       <r>    3.4032    1.0000 </r>
       <r>    3.4273    1.0000 </r>
       <r>    3.4449    1.0000 </r>
       <r>    3.5296    1.0000 </r>
       <r>    3.6437    1.0000 </r>
       <r>    4.1950    1.0000 </r>
       <r>    4.1987    1.0000 </r>
       <r>    4.2570    1.0000 </r>
       <r>    4.2582    1.0000 </r>
       <r>    5.0574    0.0000 </r>
       <r>    5.0608    0.0000 </r>
       <r>    5.2299    0.0000 </r>
       <r>    5.2326    0.0000 </r>
       <r>    5.7062    0.0000 </r>
       <r>    5.7089    0.0000 </r>
       <r>    5.8219    0.0000 </r>
       <r>    5.8263    0.0000 </r>
       <r>    6.1265    0.0000 </r>
       <r>    6.1404    0.0000 </r>
       <r>    6.1590    0.0000 </r>
       <r>    6.1649    0.0000 </r>
       <r>    6.2197    0.0000 </r>
       <r>    6.2243    0.0000 </r>
       <r>    6.2542    0.0000 </r>
       <r>    6.2572    0.0000 </r>
       <r>    6.6960    0.0000 </r>
       <r>    6.8024    0.0000 </r>
       <r>    6.9893    0.0000 </r>
       <r>    7.0481    0.0000 </r>
       <r>    7.1567    0.0000 </r>
       <r>    7.2701    0.0000 </r>
       <r>    7.3581    0.0000 </r>
       <r>    7.4145    0.0000 </r>
       <r>    7.6721    0.0000 </r>
       <r>    7.8094    0.0000 </r>
       <r>    7.9098    0.0000 </r>
       <r>    7.9597    0.0000 </r>
       <r>    7.9719    0.0000 </r>
       <r>    8.2990    0.0000 </r>
       <r>    8.3297    0.0000 </r>
       <r>    8.4083    0.0000 </r>
       <r>    8.6238    0.0000 </r>
       <r>    8.7611    0.0000 </r>
       <r>    8.9159    0.0000 </r>
       <r>    8.9744    0.0000 </r>
       <r>    8.9920    0.0000 </r>
       <r>    8.9936    0.0000 </r>
       <r>    9.0233    0.0000 </r>
       <r>    9.0490    0.0000 </r>
       <r>    9.0808    0.0000 </r>
       <r>    9.1112    0.0000 </r>
       <r>    9.1282    0.0000 </r>
       <r>    9.1872    0.0000 </r>
       <r>    9.4337    0.0000 </r>
       <r>    9.4564    0.0000 </r>
       <r>    9.5693    0.0000 </r>
       <r>    9.6949    0.0000 </r>
       <r>    9.7240    0.0000 </r>
       <r>    9.7852    0.0000 </r>
      </set>
      <set comment="kpoint 4">
       <r>  -40.3058    1.0000 </r>
       <r>  -40.1387    1.0000 </r>
       <r>  -40.0125    1.0000 </r>
       <r>  -39.6766    1.0000 </r>
       <r>  -39.5652    1.0000 </r>
       <r>  -39.4108    1.0000 </r>
       <r>  -18.9658    1.0000 </r>
       <r>  -18.9554    1.0000 </r>
       <r>  -18.8939    1.0000 </r>
       <r>  -18.8869    1.0000 </r>
       <r>  -18.8852    1.0000 </r>
       <r>  -18.8781    1.0000 </r>
       <r>  -18.7913    1.0000 </r>
       <r>  -18.7861    1.0000 </r>
       <r>  -18.7782    1.0000 </r>
       <r>  -18.7632    1.0000 </r>
       <r>  -18.7502    1.0000 </r>
       <r>  -18.7404    1.0000 </r>
       <r>  -18.7389    1.0000 </r>
       <r>  -18.7329    1.0000 </r>
       <r>  -18.7309    1.0000 </r>
       <r>  -18.7179    1.0000 </r>
       <r>  -18.6837    1.0000 </r>
       <r>  -18.6825    1.0000 </r>
       <r>  -18.6764    1.0000 </r>
       <r>  -18.6757    1.0000 </r>
       <r>  -18.6755    1.0000 </r>
       <r>  -18.6750    1.0000 </r>
       <r>  -18.6713    1.0000 </r>
       <r>  -18.6711    1.0000 </r>
       <r>  -18.6674    1.0000 </r>
       <r>  -18.6669    1.0000 </r>
       <r>  -18.6661    1.0000 </r>
       <r>  -18.6650    1.0000 </r>
       <r>  -18.6642    1.0000 </r>
       <r>  -18.6632    1.0000 </r>
       <r>  -18.6631    1.0000 </r>
       <r>  -18.6599    1.0000 </r>
       <r>  -18.6590    1.0000 </r>
       <r>  -18.6588    1.0000 </r>
       <r>  -18.6571    1.0000 </r>
       <r>  -18.6555    1.0000 </r>
       <r>  -18.6522    1.0000 </r>
       <r>  -18.6454    1.0000 </r>
       <r>  -18.6438    1.0000 </r>
       <r>  -18.6406    1.0000 </r>
       <r>  -18.6003    1.0000 </r>
       <r>  -18.5944    1.0000 </r>
       <r>  -18.5902    1.0000 </r>
       <r>  -18.5875    1.0000 </r>
       <r>  -18.5872    1.0000 </r>
       <r>  -18.5787    1.0000 </r>
       <r>  -18.5771    1.0000 </r>
       <r>  -18.5760    1.0000 </r>
       <r>  -18.5637    1.0000 </r>
       <r>  -18.5569    1.0000 </r>
       <r>  -18.5306    1.0000 </r>
       <r>  -18.5288    1.0000 </r>
       <r>  -18.5192    1.0000 </r>
       <r>  -18.5163    1.0000 </r>
       <r>  -18.5160    1.0000 </r>
       <r>  -18.5153    1.0000 </r>
       <r>  -18.5146    1.0000 </r>
       <r>  -18.5131    1.0000 </r>
       <r>  -18.5126    1.0000 </r>
       <r>  -18.5122    1.0000 </r>
       <r>  -18.5110    1.0000 </r>
       <r>  -18.5046    1.0000 </r>
       <r>  -18.4997    1.0000 </r>
       <r>  -18.4865    1.0000 </r>
       <r>  -18.4863    1.0000 </r>
       <r>  -18.4834    1.0000 </r>
       <r>  -18.4444    1.0000 </r>
       <r>  -18.4387    1.0000 </r>
       <r>  -18.4312    1.0000 </r>
       <r>  -18.4255    1.0000 </r>
       <r>  -18.4230    1.0000 </r>
       <r>  -18.4183    1.0000 </r>
       <r>  -18.4105    1.0000 </r>
       <r>  -18.4076    1.0000 </r>
       <r>  -18.3403    1.0000 </r>
       <r>  -18.3327    1.0000 </r>
       <r>  -18.2255    1.0000 </r>
       <r>  -18.2240    1.0000 </r>
       <r>  -18.2108    1.0000 </r>
       <r>  -18.1964    1.0000 </r>
       <r>  -13.6031    1.0000 </r>
       <r>  -13.4982    1.0000 </r>
       <r>  -12.9488    1.0000 </r>
[...]
       <r>    8.7999    0.0000 </r>
       <r>    8.8257    0.0000 </r>
       <r>    8.8451    0.0000 </r>
       <r>    8.8806    0.0000 </r>
       <r>    8.8992    0.0000 </r>
       <r>    8.9208    0.0000 </r>
       <r>    8.9379    0.0000 </r>
       <r>    9.5928    0.0000 </r>
       <r>    9.9102    0.0000 </r>
      </set>
     </set>
    </set>
   </array>
  </eigenvalues>
  <separator name="orbital magnetization" >
   <v name="MAGDIPOLOUT">      0.00000000      0.00000000      0.00000000</v>
  </separator>
  <dos>
   <i name="efermi">      4.33731244 </i>
   <total>
    <array>
     <dimension dim="1">gridpoints</dimension>
     <dimension dim="2">spin</dimension>
     <field>energy</field>
     <field>total</field>
     <field>integrated</field>
     <set>
      <set comment="spin 1">
       <r>   -42.8254     0.0000     0.0000 </r>
       <r>   -42.6406     0.0000     0.0000 </r>
       <r>   -42.4559     0.0000     0.0000 </r>
       <r>   -42.2711     0.0000     0.0000 </r>
       <r>   -42.0863     0.0000     0.0000 </r>
       <r>   -41.9016     0.0000     0.0000 </r>
       <r>   -41.7168     0.0000     0.0000 </r>
       <r>   -41.5320     0.0000     0.0000 </r>
       <r>   -41.3472     0.0000     0.0000 </r>
       <r>   -41.1625     0.0000     0.0000 </r>
       <r>   -40.9777     0.0000     0.0000 </r>
       <r>   -40.7929     0.0000     0.0000 </r>
       <r>   -40.6082     0.0000     0.0000 </r>
       <r>   -40.4234     0.0000     0.0000 </r>
       <r>   -40.2386     0.0000     2.0000 </r>
       <r>   -40.0538     0.0000     4.0000 </r>
       <r>   -39.8691     0.0000     6.0000 </r>
       <r>   -39.6843     0.0000     6.0000 </r>
       <r>   -39.4995     0.0000    10.0000 </r>
       <r>   -39.3148     0.0000    12.0000 </r>
       <r>   -39.1300     0.0000    12.0000 </r>
       <r>   -38.9452     0.0000    12.0000 </r>
       <r>   -38.7605     0.0000    12.0000 </r>
       <r>   -38.5757     0.0000    12.0000 </r>
       <r>   -38.3909     0.0000    12.0000 </r>
       <r>   -38.2061     0.0000    12.0000 </r>
       <r>   -38.0214     0.0000    12.0000 </r>
       <r>   -37.8366     0.0000    12.0000 </r>
       <r>   -37.6518     0.0000    12.0000 </r>
       <r>   -37.4671     0.0000    12.0000 </r>
       <r>   -37.2823     0.0000    12.0000 </r>
       <r>   -37.0975     0.0000    12.0000 </r>
       <r>   -36.9127     0.0000    12.0000 </r>
       <r>   -36.7280     0.0000    12.0000 </r>
       <r>   -36.5432     0.0000    12.0000 </r>
       <r>   -36.3584     0.0000    12.0000 </r>
       <r>   -36.1737     0.0000    12.0000 </r>
       <r>   -35.9889     0.0000    12.0000 </r>
       <r>   -35.8041     0.0000    12.0000 </r>
       <r>   -35.6194     0.0000    12.0000 </r>
       <r>   -35.4346     0.0000    12.0000 </r>
       <r>   -35.2498     0.0000    12.0000 </r>
       <r>   -35.0650     0.0000    12.0000 </r>
       <r>   -34.8803     0.0000    12.0000 </r>
       <r>   -34.6955     0.0000    12.0000 </r>
       <r>   -34.5107     0.0000    12.0000 </r>
       <r>   -34.3260     0.0000    12.0000 </r>
       <r>   -34.1412     0.0000    12.0000 </r>
       <r>   -33.9564     0.0000    12.0000 </r>
       <r>   -33.7716     0.0000    12.0000 </r>
       <r>   -33.5869     0.0000    12.0000 </r>
       <r>   -33.4021     0.0000    12.0000 </r>
       <r>   -33.2173     0.0000    12.0000 </r>
       <r>   -33.0326     0.0000    12.0000 </r>
       <r>   -32.8478     0.0000    12.0000 </r>
       <r>   -32.6630     0.0000    12.0000 </r>
       <r>   -32.4782     0.0000    12.0000 </r>
       <r>   -32.2935     0.0000    12.0000 </r>
       <r>   -32.1087     0.0000    12.0000 </r>
       <r>   -31.9239     0.0000    12.0000 </r>
       <r>   -31.7392     0.0000    12.0000 </r>
       <r>   -31.5544     0.0000    12.0000 </r>
       <r>   -31.3696     0.0000    12.0000 </r>
       <r>   -31.1849     0.0000    12.0000 </r>
       <r>   -31.0001     0.0000    12.0000 </r>
       <r>   -30.8153     0.0000    12.0000 </r>
       <r>   -30.6305     0.0000    12.0000 </r>
       <r>   -30.4458     0.0000    12.0000 </r>
       <r>   -30.2610     0.0000    12.0000 </r>
       <r>   -30.0762     0.0000    12.0000 </r>
       <r>   -29.8915     0.0000    12.0000 </r>
       <r>   -29.7067     0.0000    12.0000 </r>
       <r>   -29.5219     0.0000    12.0000 </r>
       <r>   -29.3371     0.0000    12.0000 </r>
       <r>   -29.1524     0.0000    12.0000 </r>
       <r>   -28.9676     0.0000    12.0000 </r>
       <r>   -28.7828     0.0000    12.0000 </r>
       <r>   -28.5981     0.0000    12.0000 </r>
       <r>   -28.4133     0.0000    12.0000 </r>
       <r>   -28.2285     0.0000    12.0000 </r>
       <r>   -28.0438     0.0000    12.0000 </r>
       <r>   -27.8590     0.0000    12.0000 </r>
       <r>   -27.6742     0.0000    12.0000 </r>
       <r>   -27.4894     0.0000    12.0000 </r>
       <r>   -27.3047     0.0000    12.0000 </r>
       <r>   -27.1199     0.0000    12.0000 </r>
       <r>   -26.9351     0.0000    12.0000 </r>
       <r>   -26.7504     0.0000    12.0000 </r>
       <r>   -26.5656     0.0000    12.0000 </r>
       <r>   -26.3808     0.0000    12.0000 </r>
       <r>   -26.1960     0.0000    12.0000 </r>
       <r>   -26.0113     0.0000    12.0000 </r>
       <r>   -25.8265     0.0000    12.0000 </r>
       <r>   -25.6417     0.0000    12.0000 </r>
       <r>   -25.4570     0.0000    12.0000 </r>
       <r>   -25.2722     0.0000    12.0000 </r>
       <r>   -25.0874     0.0000    12.0000 </r>
       <r>   -24.9027     0.0000    12.0000 </r>
       <r>   -24.7179     0.0000    12.0000 </r>
       <r>   -24.5331     0.0000    12.0000 </r>
       <r>   -24.3483     0.0000    12.0000 </r>
       <r>   -24.1636     0.0000    12.0000 </r>
       <r>   -23.9788     0.0000    12.0000 </r>
       <r>   -23.7940     0.0000    12.0000 </r>
       <r>   -23.6093     0.0000    12.0000 </r>
       <r>   -23.4245     0.0000    12.0000 </r>
       <r>   -23.2397     0.0000    12.0000 </r>
       <r>   -23.0549     0.0000    12.0000 </r>
       <r>   -22.8702     0.0000    12.0000 </r>
       <r>   -22.6854     0.0000    12.0000 </r>
       <r>   -22.5006     0.0000    12.0000 </r>
       <r>   -22.3159     0.0000    12.0000 </r>
       <r>   -22.1311     0.0000    12.0000 </r>
       <r>   -21.9463     0.0000    12.0000 </r>
       <r>   -21.7615     0.0000    12.0000 </r>
       <r>   -21.5768     0.0000    12.0000 </r>
       <r>   -21.3920     0.0000    12.0000 </r>
       <r>   -21.2072     0.0000    12.0000 </r>
       <r>   -21.0225     0.0000    12.0000 </r>
       <r>   -20.8377     0.0000    12.0000 </r>
       <r>   -20.6529     0.0000    12.0000 </r>
       <r>   -20.4682     0.0000    12.0000 </r>
       <r>   -20.2834     0.0000    12.0000 </r>
       <r>   -20.0986     0.0000    12.0000 </r>
       <r>   -19.9138     0.0000    12.0000 </r>
       <r>   -19.7291     0.0000    12.0000 </r>
       <r>   -19.5443     0.0000    12.0000 </r>
       <r>   -19.3595     0.0000    12.0000 </r>
       <r>   -19.1748     0.0000    12.0000 </r>
       <r>   -18.9900     0.0000    12.0000 </r>
       <r>   -18.8052     0.0000    24.0000 </r>
       <r>   -18.6204     0.0000    92.0000 </r>
       <r>   -18.4357     0.0000   148.0000 </r>
       <r>   -18.2509     0.0000   164.0000 </r>
       <r>   -18.0661     0.0000   172.0000 </r>
       <r>   -17.8814     0.0000   172.0000 </r>
       <r>   -17.6966     0.0000   172.0000 </r>
       <r>   -17.5118     0.0000   172.0000 </r>
       <r>   -17.3271     0.0000   172.0000 </r>
       <r>   -17.1423     0.0000   172.0000 </r>
       <r>   -16.9575     0.0000   172.0000 </r>
       <r>   -16.7727     0.0000   172.0000 </r>
       <r>   -16.5880     0.0000   172.0000 </r>
       <r>   -16.4032     0.0000   172.0000 </r>
       <r>   -16.2184     0.0000   172.0000 </r>
       <r>   -16.0337     0.0000   172.0000 </r>
       <r>   -15.8489     0.0000   172.0000 </r>
       <r>   -15.6641     0.0000   172.0000 </r>
       <r>   -15.4793     0.0000   172.0000 </r>
       <r>   -15.2946     0.0000   172.0000 </r>
       <r>   -15.1098     0.0000   172.0000 </r>
       <r>   -14.9250     0.0000   172.0000 </r>
       <r>   -14.7403     0.0000   172.0000 </r>
       <r>   -14.5555     0.0000   172.0000 </r>
       <r>   -14.3707     0.0000   172.0000 </r>
       <r>   -14.1859     0.0000   172.0000 </r>
       <r>   -14.0012     0.0000   172.0000 </r>
       <r>   -13.8164     0.0000   172.0000 </r>
       <r>   -13.6316     0.0000   172.0000 </r>
       <r>   -13.4469     0.0000   176.0000 </r>
       <r>   -13.2621     0.0000   176.0000 </r>
       <r>   -13.0773     0.0000   176.0000 </r>
       <r>   -12.8926     0.0000   178.0000 </r>
       <r>   -12.7078   100.9007   188.7023 </r>
       <r>   -12.5230     0.0000   200.0000 </r>
       <r>   -12.3382     0.0000   200.0000 </r>
       <r>   -12.1535     0.0000   200.0000 </r>
       <r>   -11.9687     0.0000   202.0000 </r>
       <r>   -11.7839     0.0000   204.0000 </r>
       <r>   -11.5992     0.0000   204.0000 </r>
       <r>   -11.4144     0.0000   204.0000 </r>
       <r>   -11.2296     0.0000   204.0000 </r>
       <r>   -11.0448     0.0000   204.0000 </r>
       <r>   -10.8601     0.0000   204.0000 </r>
       <r>   -10.6753     0.0000   204.0000 </r>
       <r>   -10.4905     0.0000   204.0000 </r>
       <r>   -10.3058     0.0000   204.0000 </r>
       <r>   -10.1210     0.0000   204.0000 </r>
       <r>    -9.9362     0.0000   204.0000 </r>
       <r>    -9.7515     0.0000   204.0000 </r>
       <r>    -9.5667     0.0000   204.0000 </r>
       <r>    -9.3819     0.0000   204.0000 </r>
       <r>    -9.1971    10.5020   204.9073 </r>
       <r>    -9.0124     9.5727   207.8545 </r>
       <r>    -8.8276    22.8614   209.3681 </r>
       <r>    -8.6428    12.4549   212.0650 </r>
       <r>    -8.4581    31.3821   215.4436 </r>
       <r>    -8.2733     1.1704   220.0063 </r>
       <r>    -8.0885    40.1603   223.4123 </r>
       <r>    -7.9037    18.8073   227.9846 </r>
       <r>    -7.7190    22.9463   231.3931 </r>
       <r>    -7.5342    16.4884   234.8004 </r>
       <r>    -7.3494     0.0000   236.0000 </r>
       <r>    -7.1647     0.0000   236.0000 </r>
       <r>    -6.9799     0.0000   236.0000 </r>
       <r>    -6.7951     0.0000   236.0000 </r>
       <r>    -6.6104     0.0000   236.0000 </r>
       <r>    -6.4256     0.0000   236.0000 </r>
       <r>    -6.2408    14.1244   237.0270 </r>
       <r>    -6.0560    27.4100   241.2478 </r>
       <r>    -5.8713    17.1665   244.7875 </r>
       <r>    -5.6865    21.6358   249.4933 </r>
       <r>    -5.5017    20.6748   253.5040 </r>
       <r>    -5.3170    17.8637   257.3165 </r>
       <r>    -5.1322     6.3664   259.6446 </r>
       <r>    -4.9474     6.4416   260.5060 </r>
       <r>    -4.7626     7.9643   261.8930 </r>
       <r>    -4.5779    10.4580   263.6037 </r>
       <r>    -4.3931     5.8705   265.0939 </r>
       <r>    -4.2083     7.1317   266.3582 </r>
       <r>    -4.0236     4.0824   267.4083 </r>
       <r>    -3.8388     1.2658   267.8748 </r>
       <r>    -3.6540     0.1068   267.9981 </r>
       <r>    -3.4692     0.0000   268.0000 </r>
       <r>    -3.2845     0.0000   268.0000 </r>
       <r>    -3.0997     0.0000   268.0000 </r>
       <r>    -2.9149     0.0000   268.0000 </r>
       <r>    -2.7302     0.0000   268.0000 </r>
       <r>    -2.5454     0.0000   268.0000 </r>
       <r>    -2.3606     0.0000   268.0000 </r>
       <r>    -2.1759     0.0000   268.0000 </r>
       <r>    -1.9911     0.0000   268.0000 </r>
       <r>    -1.8063     0.0000   268.0000 </r>
       <r>    -1.6215     0.0000   268.0000 </r>
       <r>    -1.4368     0.8522   268.0259 </r>
       <r>    -1.2520     7.0320   268.6367 </r>
       <r>    -1.0672    10.3059   270.4853 </r>
       <r>    -0.8825    13.5349   272.7911 </r>
       <r>    -0.6977     7.3379   274.6736 </r>
       <r>    -0.5129     9.0115   275.8200 </r>
       <r>    -0.3281    21.8798   279.0559 </r>
       <r>    -0.1434    34.9052   283.9134 </r>
       <r>     0.0414    37.4449   291.4226 </r>
       <r>     0.2262    27.2042   296.8764 </r>
       <r>     0.4109    42.0055   303.8678 </r>
       <r>     0.5957    35.8749   311.5795 </r>
       <r>     0.7805    38.6249   318.1609 </r>
       <r>     0.9652    40.3742   325.8823 </r>
       <r>     1.1500    41.8183   334.7754 </r>
       <r>     1.3348    37.5480   343.2538 </r>
       <r>     1.5196    63.4301   352.6794 </r>
       <r>     1.7043    51.4582   361.3398 </r>
       <r>     1.8891    30.2562   368.4617 </r>
       <r>     2.0739    42.9172   376.1389 </r>
       <r>     2.2586    43.2410   384.3605 </r>
       <r>     2.4434    59.9105   393.7900 </r>
       <r>     2.6282    58.6429   403.9910 </r>
       <r>     2.8130    62.7099   415.2841 </r>
       <r>     2.9977    62.9290   428.1626 </r>
       <r>     3.1825    47.6728   438.4484 </r>
       <r>     3.3673    35.6079   445.2821 </r>
       <r>     3.5520    24.8236   452.5098 </r>
       <r>     3.7368    15.0554   455.6584 </r>
       <r>     3.9216    10.6525   458.4509 </r>
       <r>     4.1063     3.7963   459.7860 </r>
       <r>     4.2911     0.0000   460.0000 </r>
       <r>     4.4759     0.0000   460.0000 </r>
       <r>     4.6607     0.0000   460.0000 </r>
       <r>     4.8454     0.0000   460.0000 </r>
       <r>     5.0302     0.1528   460.0026 </r>
       <r>     5.2150     2.0736   460.1878 </r>
       <r>     5.3997     6.1555   460.9455 </r>
       <r>     5.5845     9.5810   462.4505 </r>
       <r>     5.7693    14.8658   465.1661 </r>
       <r>     5.9541    13.7805   468.6283 </r>
       <r>     6.1388    11.6193   470.9551 </r>
       <r>     6.3236    12.5530   473.1435 </r>
       <r>     6.5084    14.4253   475.6364 </r>
       <r>     6.6931    16.2825   478.4728 </r>
       <r>     6.8779    18.6323   481.6772 </r>
       <r>     7.0627    23.5210   485.5025 </r>
       <r>     7.2475    32.6660   490.6710 </r>
       <r>     7.4322    39.8092   497.7144 </r>
       <r>     7.6170    24.7436   503.2513 </r>
       <r>     7.8018    49.5426   510.6501 </r>
       <r>     7.9865    36.0796   519.7785 </r>
       <r>     8.1713    19.4509   524.4941 </r>
       <r>     8.3561    19.1696   527.9013 </r>
       <r>     8.5408    23.4518   531.7959 </r>
       <r>     8.7256    24.8610   536.3964 </r>
       <r>     8.9104    34.9435   544.5653 </r>
       <r>     9.0952    19.8361   549.6221 </r>
       <r>     9.2799    15.0270   552.7362 </r>
       <r>     9.4647    14.0184   555.2810 </r>
       <r>     9.6495    14.5672   557.6371 </r>
       <r>     9.8342     5.9322   559.2664 </r>
       <r>    10.0190     1.0062   559.9763 </r>
       <r>    10.2038     0.0000   560.0000 </r>
       <r>    10.3886     0.0000   560.0000 </r>
       <r>    10.5733     0.0000   560.0000 </r>
       <r>    10.7581     0.0000   560.0000 </r>
       <r>    10.9429     0.0000   560.0000 </r>
       <r>    11.1276     0.0000   560.0000 </r>
       <r>    11.3124     0.0000   560.0000 </r>
       <r>    11.4972     0.0000   560.0000 </r>
       <r>    11.6819     0.0000   560.0000 </r>
       <r>    11.8667     0.0000   560.0000 </r>
       <r>    12.0515     0.0000   560.0000 </r>
       <r>    12.2363     0.0000   560.0000 </r>
       <r>    12.4210     0.0000   560.0000 </r>
       <r>    12.6058     0.0000   560.0000 </r>
      </set>
     </set>
    </array>
   </total>
  </dos>
 </calculation>
 <structure name="finalpos" >
  <crystal>
   <varray name="basis" >
    <v>      11.17850000       0.00000000       0.00000000 </v>
    <v>       0.00000000       9.57460000       0.00000000 </v>
    <v>       0.00000000       0.00000000      11.18240000 </v>
   </varray>
   <i name="volume">   1196.84853820 </i>
   <varray name="rec_basis" >
    <v>       0.08945744       0.00000000       0.00000000 </v>
    <v>       0.00000000       0.10444301       0.00000000 </v>
    <v>       0.00000000       0.00000000       0.08942624 </v>
   </varray>
  </crystal>
  <varray name="positions" >
   <v>       0.37539000       0.00017000       0.43687000 </v>
   <v>       0.62539000       0.99984000       0.43687000 </v>
   <v>       0.62461000       0.99984000       0.18687000 </v>
   <v>       0.37461000       0.00017000       0.68687000 </v>
   <v>       0.62539000       0.99984000       0.93687000 </v>
   <v>       0.62461000       0.99984000       0.68687000 </v>
   <v>       0.12461000       0.99984000       0.18687000 </v>
   <v>       0.87539000       0.00017000       0.43687000 </v>
   <v>       0.37539000       0.00017000       0.93687000 </v>
   <v>       0.12461000       0.99984000       0.68687000 </v>
   <v>       0.87539000       0.00017000       0.93687000 </v>
   <v>       0.00013000       0.29519000       0.06281000 </v>
   <v>       0.25013000       0.70481000       0.06281000 </v>
   <v>       0.24987000       0.29519000       0.31282000 </v>
   <v>       0.49987000       0.70481000       0.31282000 </v>
   <v>       0.50013000       0.29519000       0.06281000 </v>
   <v>       0.75013000       0.70481000       0.06281000 </v>
   <v>       0.74987000       0.29519000       0.31282000 </v>
   <v>       0.99987000       0.70481000       0.31282000 </v>
   <v>       0.00013000       0.29519000       0.56281000 </v>
   <v>       0.25013000       0.70481000       0.56281000 </v>
   <v>       0.24987000       0.29519000       0.81282000 </v>
   <v>       0.49987000       0.70481000       0.81282000 </v>
   <v>       0.50013000       0.29519000       0.56281000 </v>
   <v>       0.75013000       0.70481000       0.56281000 </v>
   <v>       0.74987000       0.29519000       0.81282000 </v>
   <v>       0.99987000       0.70481000       0.81282000 </v>
   <v>       0.25005000       0.32677000       0.06286000 </v>
   <v>       0.00005000       0.67323000       0.06286000 </v>
   <v>       0.49995000       0.32677000       0.31286000 </v>
   <v>       0.24995000       0.67323000       0.31286000 </v>
   <v>       0.75005000       0.32677000       0.06286000 </v>
   <v>       0.50005000       0.67323000       0.06286000 </v>
   <v>       0.99995000       0.32677000       0.31286000 </v>
   <v>       0.74995000       0.67323000       0.31286000 </v>
   <v>       0.25005000       0.32677000       0.56286000 </v>
   <v>       0.00005000       0.67323000       0.56286000 </v>
   <v>       0.49995000       0.32677000       0.81286000 </v>
   <v>       0.24995000       0.67323000       0.81286000 </v>
   <v>       0.75005000       0.32677000       0.56286000 </v>
   <v>       0.50005000       0.67323000       0.56286000 </v>
   <v>       0.99995000       0.32677000       0.81286000 </v>
   <v>       0.74995000       0.67323000       0.81286000 </v>
   <v>       0.49987000       0.07798000       0.06246000 </v>
   <v>       0.24987000       0.92202000       0.06246000 </v>
   <v>       0.25013000       0.07798000       0.31246000 </v>
   <v>       0.00013000       0.92202000       0.31246000 </v>
   <v>       0.99987000       0.07798000       0.06246000 </v>
   <v>       0.74987000       0.92202000       0.06246000 </v>
   <v>       0.75013000       0.07798000       0.31246000 </v>
   <v>       0.50013000       0.92202000       0.31246000 </v>
   <v>       0.49987000       0.07798000       0.56246000 </v>
   <v>       0.24987000       0.92202000       0.56246000 </v>
   <v>       0.25013000       0.07798000       0.81246000 </v>
   <v>       0.00013000       0.92202000       0.81246000 </v>
   <v>       0.99987000       0.07798000       0.56246000 </v>
   <v>       0.74987000       0.92202000       0.56246000 </v>
   <v>       0.75013000       0.07798000       0.81246000 </v>
   <v>       0.50013000       0.92202000       0.81246000 </v>
  </varray>
 </structure>
</modeling>
