<?xml version="1.0" encoding="ISO-8859-1"?>
<modeling>
 <generator>
  <i name="program" type="string">vasp </i>
  <i name="version" type="string">5.4.4.18Apr17-6-g9f103f2a35  </i>
  <i name="subversion" type="string">(build Jul 31 2017 11:33:29) complex            parallel </i>
  <i name="platform" type="string">LinuxIFC </i>
  <i name="date" type="string">2021 09 29 </i>
  <i name="time" type="string">18:10:50 </i>
 </generator>
 <incar>
  <i type="string" name="SYSTEM"> La2O2S</i>
  <i type="string" name="PREC">normal</i>
  <i type="int" name="NELMIN">     4</i>
  <i type="int" name="IBRION">     2</i>
  <i type="int" name="NFREE">    10</i>
  <i name="EDIFF">      0.00000100</i>
  <i name="EDIFFG">     -0.01000000</i>
  <i type="int" name="NSW">     1</i>
  <i type="int" name="ISIF">     2</i>
  <i name="ENCUT">    600.00000000</i>
  <i name="ENAUG">    900.00000000</i>
  <i type="int" name="ISMEAR">    -5</i>
  <i type="logical" name="LWAVE"> F  </i>
  <i type="logical" name="LCHARG"> F  </i>
  <v type="int" name="KPOINT_BSE">    -1     0     0     0</v>
 </incar>
 <structure name="primitive_cell" >
  <crystal>
   <varray name="basis" >
    <v>      11.17850000       0.00000000       0.00000000 </v>
    <v>       0.00000000       9.57460000       0.00000000 </v>
    <v>       0.00000000       0.00000000      11.18240000 </v>
   </varray>
   <i name="volume">   1196.84853820 </i>
   <varray name="rec_basis" >
    <v>       0.08945744       0.00000000       0.00000000 </v>
    <v>       0.00000000       0.10444301       0.00000000 </v>
    <v>       0.00000000       0.00000000       0.08942624 </v>
   </varray>
  </crystal>
  <varray name="positions" >
   <v>       0.37539000       0.00017000       0.43687000 </v>
   <v>      -0.49987000      -0.07798000       0.31246000 </v>
   <v>       0.25013000       0.07798000       0.31246000 </v>
   <v>       0.49987000       0.07798000      -0.43754000 </v>
   <v>       0.24987000      -0.07798000      -0.43754000 </v>
   <v>      -0.37461000      -0.00016000       0.43687000 </v>
   <v>       0.37461000       0.00017000      -0.31313000 </v>
   <v>       0.37461000       0.00017000       0.18687000 </v>
   <v>       0.49987000      -0.29519000       0.31282000 </v>
   <v>       0.24987000       0.29519000       0.31282000 </v>
   <v>      -0.49987000       0.29519000      -0.43719000 </v>
   <v>       0.25013000      -0.29519000      -0.43719000 </v>
   <v>       0.49995000       0.32677000       0.31286000 </v>
   <v>       0.24995000      -0.32677000       0.31286000 </v>
   <v>      -0.49995000      -0.32677000      -0.43714000 </v>
   <v>       0.25005000       0.32677000      -0.43714000 </v>
   <v>      -0.37539000      -0.00016000       0.18687000 </v>
   <v>      -0.37539000      -0.00016000      -0.31313000 </v>
   <v>       0.12461000      -0.00016000       0.18687000 </v>
   <v>       0.12461000      -0.00016000      -0.31313000 </v>
   <v>       0.49987000       0.07798000       0.06246000 </v>
   <v>      -0.24987000       0.07798000       0.31246000 </v>
   <v>      -0.25013000      -0.07798000      -0.43754000 </v>
   <v>       0.24987000      -0.07798000       0.06246000 </v>
   <v>       0.00013000      -0.07798000       0.31246000 </v>
   <v>      -0.49987000      -0.07798000      -0.18754000 </v>
   <v>      -0.00013000       0.07798000      -0.43754000 </v>
   <v>       0.25013000       0.07798000      -0.18754000 </v>
   <v>      -0.49987000       0.29519000       0.06281000 </v>
   <v>      -0.25013000       0.29519000       0.31282000 </v>
   <v>       0.25013000      -0.29519000       0.06281000 </v>
   <v>      -0.24987000      -0.29519000      -0.43719000 </v>
   <v>      -0.00013000      -0.29519000       0.31282000 </v>
   <v>       0.00013000       0.29519000      -0.43719000 </v>
   <v>       0.49987000      -0.29519000      -0.18718000 </v>
   <v>       0.24987000       0.29519000      -0.18718000 </v>
   <v>      -0.49995000      -0.32677000       0.06286000 </v>
   <v>       0.25005000       0.32677000       0.06286000 </v>
   <v>      -0.25005000      -0.32677000       0.31286000 </v>
   <v>      -0.24995000       0.32677000      -0.43714000 </v>
   <v>      -0.00005000       0.32677000       0.31286000 </v>
   <v>       0.00005000      -0.32677000      -0.43714000 </v>
   <v>       0.49995000       0.32677000      -0.18714000 </v>
   <v>       0.24995000      -0.32677000      -0.18714000 </v>
   <v>      -0.12461000       0.00017000       0.43687000 </v>
   <v>       0.37539000       0.00017000      -0.06313000 </v>
   <v>      -0.25013000      -0.07798000       0.06246000 </v>
   <v>      -0.00013000       0.07798000       0.06246000 </v>
   <v>      -0.24987000       0.07798000      -0.18754000 </v>
   <v>       0.00013000      -0.07798000      -0.18754000 </v>
   <v>      -0.12539000       0.00017000       0.18687000 </v>
   <v>      -0.24987000      -0.29519000       0.06281000 </v>
   <v>       0.00013000       0.29519000       0.06281000 </v>
   <v>      -0.25013000       0.29519000      -0.18718000 </v>
   <v>      -0.00013000      -0.29519000      -0.18718000 </v>
   <v>      -0.24995000       0.32677000       0.06286000 </v>
   <v>       0.00005000      -0.32677000       0.06286000 </v>
   <v>      -0.25005000      -0.32677000      -0.18714000 </v>
   <v>      -0.00005000       0.32677000      -0.18714000 </v>
   <v>      -0.12461000       0.00017000      -0.06313000 </v>
  </varray>
 </structure>
 <varray name="primitive_index" >
  <v type="int" >        1 </v>
  <v type="int" >       52 </v>
  <v type="int" >       47 </v>
  <v type="int" >       53 </v>
  <v type="int" >       54 </v>
  <v type="int" >        3 </v>
  <v type="int" >        8 </v>
  <v type="int" >        9 </v>
  <v type="int" >       16 </v>
  <v type="int" >       15 </v>
  <v type="int" >       25 </v>
  <v type="int" >       22 </v>
  <v type="int" >       31 </v>
  <v type="int" >       32 </v>
  <v type="int" >       42 </v>
  <v type="int" >       37 </v>
  <v type="int" >        5 </v>
  <v type="int" >       12 </v>
  <v type="int" >        2 </v>
  <v type="int" >       10 </v>
  <v type="int" >       45 </v>
  <v type="int" >       51 </v>
  <v type="int" >       58 </v>
  <v type="int" >       46 </v>
  <v type="int" >       48 </v>
  <v type="int" >       60 </v>
  <v type="int" >       57 </v>
  <v type="int" >       55 </v>
  <v type="int" >       17 </v>
  <v type="int" >       19 </v>
  <v type="int" >       14 </v>
  <v type="int" >       26 </v>
  <v type="int" >       20 </v>
  <v type="int" >       21 </v>
  <v type="int" >       24 </v>
  <v type="int" >       23 </v>
  <v type="int" >       34 </v>
  <v type="int" >       29 </v>
  <v type="int" >       36 </v>
  <v type="int" >       41 </v>
  <v type="int" >       35 </v>
  <v type="int" >       38 </v>
  <v type="int" >       39 </v>
  <v type="int" >       40 </v>
  <v type="int" >        4 </v>
  <v type="int" >        7 </v>
  <v type="int" >       50 </v>
  <v type="int" >       49 </v>
  <v type="int" >       59 </v>
  <v type="int" >       56 </v>
  <v type="int" >        6 </v>
  <v type="int" >       18 </v>
  <v type="int" >       13 </v>
  <v type="int" >       27 </v>
  <v type="int" >       28 </v>
  <v type="int" >       33 </v>
  <v type="int" >       30 </v>
  <v type="int" >       44 </v>
  <v type="int" >       43 </v>
  <v type="int" >       11 </v>
 </varray>
 <kpoints>
  <generation param="Gamma">
   <v type="int" name="divisions">       2        2        2 </v>
   <v name="usershift">      0.00000000       0.00000000       0.00000000 </v>
   <v name="genvec1">      0.50000000       0.00000000       0.00000000 </v>
   <v name="genvec2">      0.00000000       0.50000000       0.00000000 </v>
   <v name="genvec3">      0.00000000       0.00000000       0.50000000 </v>
   <v name="shift">      0.00000000       0.00000000       0.00000000 </v>
  </generation>
  <varray name="kpointlist" >
   <v>       0.00000000       0.00000000       0.00000000 </v>
   <v>       0.50000000       0.00000000       0.00000000 </v>
   <v>       0.00000000       0.50000000       0.00000000 </v>
   <v>       0.50000000       0.50000000       0.00000000 </v>
   <v>       0.00000000       0.00000000       0.50000000 </v>
   <v>       0.50000000       0.00000000       0.50000000 </v>
   <v>       0.00000000       0.50000000       0.50000000 </v>
   <v>       0.50000000       0.50000000       0.50000000 </v>
  </varray>
  <varray name="weights" >
   <v>       0.12500000 </v>
   <v>       0.12500000 </v>
   <v>       0.12500000 </v>
   <v>       0.12500000 </v>
   <v>       0.12500000 </v>
   <v>       0.12500000 </v>
   <v>       0.12500000 </v>
   <v>       0.12500000 </v>
  </varray>
  <varray name="tetrahedronlist"  type="int" >
   <v type="int" >        2        1        2        4        5 </v>
   <v type="int" >        2        1        3        4        5 </v>
   <v type="int" >        2        3        4        5        7 </v>
   <v type="int" >        2        2        4        5        6 </v>
   <v type="int" >        2        4        5        6        8 </v>
   <v type="int" >        2        4        5        7        8 </v>
   <v type="int" >        2        1        2        3        6 </v>
   <v type="int" >        2        2        3        4        6 </v>
   <v type="int" >        2        3        4        6        8 </v>
   <v type="int" >        2        1        3        5        6 </v>
   <v type="int" >        2        3        5        6        7 </v>
   <v type="int" >        2        3        6        7        8 </v>
   <v type="int" >        2        2        3        4        7 </v>
   <v type="int" >        2        1        2        3        7 </v>
   <v type="int" >        2        1        2        5        7 </v>
   <v type="int" >        2        2        4        7        8 </v>
   <v type="int" >        2        2        6        7        8 </v>
   <v type="int" >        2        2        5        6        7 </v>
   <v type="int" >        2        1        3        4        8 </v>
   <v type="int" >        2        1        2        4        8 </v>
   <v type="int" >        2        1        2        6        8 </v>
   <v type="int" >        2        1        3        7        8 </v>
   <v type="int" >        2        1        5        7        8 </v>
   <v type="int" >        2        1        5        6        8 </v>
  </varray>
  <i name="volumeweight">      0.02083333 </i>
 </kpoints>
 <parameters>
  <separator name="general" >
   <i type="string" name="SYSTEM">La2O2S</i>
   <i type="logical" name="LCOMPAT"> F  </i>
  </separator>
  <separator name="electronic" >
   <i type="string" name="PREC">normal</i>
   <i name="ENMAX">    600.00000000</i>
   <i name="ENAUG">    900.00000000</i>
   <i name="EDIFF">      0.00000100</i>
   <i type="int" name="IALGO">    38</i>
   <i type="int" name="IWAVPR">    11</i>
   <i type="int" name="NBANDS">   280</i>
   <i name="NELECT">    464.00000000</i>
   <i type="int" name="TURBO">     0</i>
   <i type="int" name="IRESTART">     0</i>
   <i type="int" name="NREBOOT">     0</i>
   <i type="int" name="NMIN">     0</i>
   <i name="EREF">      0.00000000</i>
   <separator name="electronic smearing" >
    <i type="int" name="ISMEAR">    -5</i>
    <i name="SIGMA">      0.20000000</i>
    <i name="KSPACING">      0.50000000</i>
    <i type="logical" name="KGAMMA"> T  </i>
   </separator>
   <separator name="electronic projectors" >
    <i type="logical" name="LREAL"> F  </i>
    <v name="ROPT">      0.00000000      0.00000000      0.00000000      0.00000000      0.00000000</v>
    <i type="int" name="LMAXPAW">  -100</i>
    <i type="int" name="LMAXMIX">     2</i>
    <i type="logical" name="NLSPLINE"> F  </i>
   </separator>
   <separator name="electronic startup" >
    <i type="int" name="ISTART">     0</i>
    <i type="int" name="ICHARG">     2</i>
    <i type="int" name="INIWAV">     1</i>
   </separator>
   <separator name="electronic spin" >
    <i type="int" name="ISPIN">     1</i>
    <i type="logical" name="LNONCOLLINEAR"> F  </i>
    <v name="MAGMOM">      1.00000000      1.00000000      1.00000000      1.00000000      1.00000000      1.00000000      1.00000000      1.00000000      1.00000000      1.00000000      1.00000000      1.00000000      1.00000000      1.00000000      1.00000000      1.00000000      1.00000000      1.00000000      1.00000000      1.00000000
      1.00000000      1.00000000      1.00000000      1.00000000      1.00000000      1.00000000      1.00000000      1.00000000      1.00000000      1.00000000      1.00000000      1.00000000      1.00000000      1.00000000      1.00000000      1.00000000      1.00000000      1.00000000      1.00000000      1.00000000
      1.00000000      1.00000000      1.00000000      1.00000000      1.00000000      1.00000000      1.00000000      1.00000000      1.00000000      1.00000000      1.00000000      1.00000000      1.00000000      1.00000000      1.00000000      1.00000000      1.00000000      1.00000000      1.00000000      1.00000000
</v>
    <i name="NUPDOWN">     -1.00000000</i>
    <i type="logical" name="LSORBIT"> F  </i>
    <v name="SAXIS">      0.00000000      0.00000000      1.00000000</v>
    <i type="logical" name="LSPIRAL"> F  </i>
    <v name="QSPIRAL">      0.00000000      0.00000000      0.00000000</v>
    <i type="logical" name="LZEROZ"> F  </i>
   </separator>
   <separator name="electronic exchange-correlation" >
    <i type="logical" name="LASPH"> F  </i>
    <i type="logical" name="LMETAGGA"> F  </i>
   </separator>
   <separator name="electronic convergence" >
    <i type="int" name="NELM">    60</i>
    <i type="int" name="NELMDL">    -5</i>
    <i type="int" name="NELMIN">     4</i>
    <i name="ENINI">    600.00000000</i>
    <separator name="electronic convergence detail" >
     <i type="logical" name="LDIAG"> T  </i>
     <i type="logical" name="LSUBROT"> F  </i>
     <i name="WEIMIN">      0.00100000</i>
     <i name="EBREAK">      0.00000000</i>
     <i name="DEPER">      0.30000000</i>
     <i type="int" name="NRMM">     4</i>
     <i name="TIME">      0.40000000</i>
    </separator>
   </separator>
   <separator name="electronic mixer" >
    <i name="AMIX">      0.40000000</i>
    <i name="BMIX">      1.00000000</i>
    <i name="AMIN">      0.10000000</i>
    <i name="AMIX_MAG">      1.60000000</i>
    <i name="BMIX_MAG">      1.00000000</i>
    <separator name="electronic mixer details" >
     <i type="int" name="IMIX">     4</i>
     <i type="logical" name="MIXFIRST"> F  </i>
     <i type="int" name="MAXMIX">   -45</i>
     <i name="WC">    100.00000000</i>
     <i type="int" name="INIMIX">     1</i>
     <i type="int" name="MIXPRE">     1</i>
     <i type="int" name="MREMOVE">     5</i>
    </separator>
   </separator>
   <separator name="electronic dipolcorrection" >
    <i type="logical" name="LDIPOL"> F  </i>
    <i type="logical" name="LMONO"> F  </i>
    <i type="int" name="IDIPOL">     0</i>
    <i name="EPSILON">      1.00000000</i>
    <v name="DIPOL">   -100.00000000   -100.00000000   -100.00000000</v>
    <i name="EFIELD">      0.00000000</i>
   </separator>
  </separator>
  <separator name="grids" >
   <i type="int" name="NGX">    70</i>
   <i type="int" name="NGY">    60</i>
   <i type="int" name="NGZ">    70</i>
   <i type="int" name="NGXF">   140</i>
   <i type="int" name="NGYF">   120</i>
   <i type="int" name="NGZF">   140</i>
   <i type="logical" name="ADDGRID"> F  </i>
  </separator>
  <separator name="ionic" >
   <i type="int" name="NSW">     1</i>
   <i type="int" name="IBRION">     2</i>
   <i type="int" name="MDALGO">     0</i>
   <i type="int" name="ISIF">     2</i>
   <i name="PSTRESS">      0.00000000</i>
   <i name="EDIFFG">     -0.01000000</i>
   <i type="int" name="NFREE">    10</i>
   <i name="POTIM">      0.50000000</i>
   <i name="SMASS">     -3.00000000</i>
   <i name="SCALEE">      1.00000000</i>
  </separator>
  <separator name="ionic md" >
   <i name="TEBEG">      0.00010000</i>
   <i name="TEEND">      0.00010000</i>
   <i type="int" name="NBLOCK">     1</i>
   <i type="int" name="KBLOCK">     1</i>
   <i type="int" name="NPACO">   256</i>
   <i name="APACO">     16.00000000</i>
  </separator>
  <separator name="symmetry" >
   <i type="int" name="ISYM">     2</i>
   <i name="SYMPREC">      0.00001000</i>
  </separator>
  <separator name="dos" >
   <i type="int" name="LORBIT">     0</i>
   <v name="RWIGS">     -1.00000000     -1.00000000     -1.00000000     -1.00000000     -1.00000000</v>
   <i type="int" name="NEDOS">   301</i>
   <i name="EMIN">     10.00000000</i>
   <i name="EMAX">    -10.00000000</i>
   <i name="EFERMI">      0.00000000</i>
  </separator>
  <separator name="writing" >
   <i type="int" name="NWRITE">     2</i>
   <i type="logical" name="LWAVE"> F  </i>
   <i type="logical" name="LDOWNSAMPLE"> F  </i>
   <i type="logical" name="LCHARG"> F  </i>
   <i type="logical" name="LPARD"> F  </i>
   <i type="logical" name="LVTOT"> F  </i>
   <i type="logical" name="LVHAR"> F  </i>
   <i type="logical" name="LELF"> F  </i>
   <i type="logical" name="LOPTICS"> F  </i>
   <v name="STM">      0.00000000      0.00000000      0.00000000      0.00000000      0.00000000      0.00000000      0.00000000</v>
  </separator>
  <separator name="performance" >
   <i type="int" name="NPAR">    28</i>
   <i type="int" name="NSIM">     4</i>
   <i type="int" name="NBLK">    -1</i>
   <i type="logical" name="LPLANE"> T  </i>
   <i type="logical" name="LSCALAPACK"> T  </i>
   <i type="logical" name="LSCAAWARE"> F  </i>
   <i type="logical" name="LSCALU"> F  </i>
   <i type="logical" name="LASYNC"> F  </i>
   <i type="logical" name="LORBITALREAL"> F  </i>
  </separator>
  <separator name="miscellaneous" >
   <i type="int" name="IDIOT">     3</i>
   <i type="int" name="ISPECIAL">     0</i>
   <i type="logical" name="LMUSIC"> F  </i>
   <v name="POMASS">      7.01000000     24.30500000    208.98000000     32.06600000     16.00000000</v>
   <v name="DARWINR">      0.00000000      0.00000000      0.00000000      0.00000000      0.00000000</v>
   <v name="DARWINV">      1.00000000      1.00000000      1.00000000      1.00000000      1.00000000</v>
   <i type="logical" name="LCORR"> T  </i>
  </separator>
  <i type="logical" name="GGA_COMPAT"> T  </i>
  <i type="logical" name="LBERRY"> F  </i>
  <i type="int" name="ICORELEVEL">     0</i>
  <i type="logical" name="LDAU"> F  </i>
  <i type="int" name="I_CONSTRAINED_M">     0</i>
  <separator name="electronic exchange-correlation" >
   <i type="string" name="GGA">--</i>
   <i type="int" name="VOSKOWN">     0</i>
   <i type="logical" name="LHFCALC"> F  </i>
   <i type="string" name="PRECFOCK"></i>
   <i type="logical" name="LSYMGRAD"> F  </i>
   <i type="logical" name="LHFONE"> F  </i>
   <i type="logical" name="LRHFCALC"> F  </i>
   <i type="logical" name="LTHOMAS"> F  </i>
   <i type="logical" name="LMODELHF"> F  </i>
   <i name="ENCUT4O">     -1.00000000</i>
   <i type="int" name="EXXOEP">     0</i>
   <i type="int" name="FOURORBIT">     0</i>
   <i name="AEXX">      0.00000000</i>
   <i name="HFALPHA">      0.00000000</i>
   <i name="MCALPHA">      0.00000000</i>
   <i name="ALDAX">      1.00000000</i>
   <i name="AGGAX">      1.00000000</i>
   <i name="ALDAC">      1.00000000</i>
   <i name="AGGAC">      1.00000000</i>
   <i type="int" name="NKREDX">     1</i>
   <i type="int" name="NKREDY">     1</i>
   <i type="int" name="NKREDZ">     1</i>
   <i type="logical" name="SHIFTRED"> F  </i>
   <i type="logical" name="ODDONLY"> F  </i>
   <i type="logical" name="EVENONLY"> F  </i>
   <i type="int" name="LMAXFOCK">     0</i>
   <i type="int" name="NMAXFOCKAE">     0</i>
   <i type="logical" name="LFOCKAEDFT"> F  </i>
   <i name="HFSCREEN">      0.00000000</i>
   <i name="HFSCREENC">      0.00000000</i>
   <i type="int" name="NBANDSGWLOW">     0</i>
  </separator>
  <separator name="vdW DFT" >
   <i type="logical" name="LUSE_VDW"> F  </i>
   <i name="Zab_VDW">     -0.84910000</i>
   <i name="PARAM1">      0.12340000</i>
   <i name="PARAM2">      1.00000000</i>
   <i name="PARAM3">      0.00000000</i>
  </separator>
  <separator name="model GW" >
   <i type="int" name="MODEL_GW">     0</i>
   <i name="MODEL_EPS0">     11.96848538</i>
   <i name="MODEL_ALPHA">      1.00000000</i>
  </separator>
  <separator name="linear response parameters" >
   <i type="logical" name="LEPSILON"> F  </i>
   <i type="logical" name="LRPA"> F  </i>
   <i type="logical" name="LNABLA"> F  </i>
   <i type="logical" name="LVEL"> F  </i>
   <i type="int" name="KINTER">     0</i>
   <i name="CSHIFT">      0.10000000</i>
   <i name="OMEGAMAX">     -1.00000000</i>
   <i name="DEG_THRESHOLD">      0.00200000</i>
   <i name="RTIME">     -0.10000000</i>
   <i name="WPLASMAI">      0.00000000</i>
   <v name="DFIELD">      0.00000000      0.00000000      0.00000000</v>
   <v name="WPLASMA">      0.00000000      0.00000000      0.00000000      0.00000000      0.00000000      0.00000000      0.00000000      0.00000000      0.00000000</v>
  </separator>
  <separator name="orbital magnetization" >
   <i type="logical" name="NUCIND"> F  </i>
   <v name="MAGPOS">      0.00000000      0.00000000      0.00000000</v>
   <i type="logical" name="LNICSALL"> T  </i>
   <i type="logical" name="ORBITALMAG"> F  </i>
   <i type="logical" name="LMAGBLOCH"> F  </i>
   <i type="logical" name="LCHIMAG"> F  </i>
   <i type="logical" name="LGAUGE"> T  </i>
   <i type="int" name="MAGATOM">     0</i>
   <v name="MAGDIPOL">      0.00000000      0.00000000      0.00000000</v>
   <v name="AVECCONST">      0.00000000      0.00000000      0.00000000</v>
  </separator>
  <separator name="response functions" >
   <i type="logical" name="LADDER"> F  </i>
   <i type="logical" name="LRPAFORCE"> F  </i>
   <i type="logical" name="LFXC"> F  </i>
   <i type="logical" name="LHARTREE"> T  </i>
   <i type="int" name="IBSE">     0</i>
   <v type="int" name="KPOINT">    -1     0     0     0</v>
   <i type="logical" name="LTCTE"> F  </i>
   <i type="logical" name="LTETE"> F  </i>
   <i type="logical" name="LTRIPLET"> F  </i>
   <i type="logical" name="LFXCEPS"> F  </i>
   <i type="logical" name="LFXHEG"> F  </i>
   <i type="int" name="NATURALO">     2</i>
   <i type="logical" name="L2ORDER"> F  </i>
   <i type="logical" name="LMP2LT"> F  </i>
   <i type="logical" name="LUSEW"> F  </i>
   <i name="ENCUTGW">     -2.00000000</i>
   <i name="ENCUTGWSOFT">     -2.00000000</i>
   <i name="ENCUTLF">     -1.00000000</i>
   <i type="int" name="LMAXMP2">    -1</i>
   <i name="SCISSOR">      0.00000000</i>
   <i type="int" name="NOMEGA">     0</i>
   <i type="int" name="NOMEGAR">     0</i>
   <i type="int" name="NBANDSGW">    -1</i>
   <i type="int" name="NBANDSO">    -1</i>
   <i type="int" name="NBANDSV">    -1</i>
   <i type="int" name="NELM">     1</i>
   <i type="int" name="NELMHF">     1</i>
   <i type="int" name="DIM">     3</i>
   <i type="int" name="ANTIRES">     0</i>
   <i name="OMEGAMAX">    -30.00000000</i>
   <i name="OMEGAMIN">    -30.00000000</i>
   <i name="OMEGATL">   -200.00000000</i>
   <i type="int" name="OMEGAGRID">   140</i>
   <i name="CSHIFT">     -0.10000000</i>
   <i type="logical" name="SELFENERGY"> F  </i>
   <i type="logical" name="LSPECTRAL"> F  </i>
   <i type="logical" name="LSPECTRALGW"> F  </i>
   <i type="logical" name="LSINGLES"> F  </i>
   <i type="logical" name="LFERMIGW"> F  </i>
   <i type="logical" name="ODDONLYGW"> F  </i>
   <i type="logical" name="EVENONLYGW"> F  </i>
   <i type="int" name="NKREDLFX">     1</i>
   <i type="int" name="NKREDLFY">     1</i>
   <i type="int" name="NKREDLFZ">     1</i>
   <i type="int" name="MAXMEM">  2800</i>
   <i type="int" name="TELESCOPE">     0</i>
   <i type="int" name="TAUPAR">     1</i>
   <i type="int" name="OMEGAPAR">    -1</i>
   <i name="LAMBDA">      1.00000000</i>
  </separator>
  <separator name="External order field" >
   <i name="OFIELD_KAPPA">      0.00000000</i>
   <v name="OFIELD_K">      0.00000000      0.00000000      0.00000000</v>
   <i name="OFIELD_Q6_NEAR">      0.00000000</i>
   <i name="OFIELD_Q6_FAR">      0.00000000</i>
   <i name="OFIELD_A">      0.00000000</i>
  </separator>
 </parameters>
 <atominfo>
  <atoms>      60 </atoms>
  <types>       5 </types>
  <array name="atoms" >
   <dimension dim="1">ion</dimension>
   <field type="string">element</field>
   <field type="int">atomtype</field>
   <set>
    <rc><c>Li</c><c>   1</c></rc>
    <rc><c>Li</c><c>   1</c></rc>
    <rc><c>Li</c><c>   1</c></rc>
    <rc><c>Li</c><c>   1</c></rc>
    <rc><c>Li</c><c>   1</c></rc>
    <rc><c>Li</c><c>   1</c></rc>
    <rc><c>Li</c><c>   1</c></rc>
    <rc><c>Li</c><c>   1</c></rc>
    <rc><c>Mg</c><c>   2</c></rc>
    <rc><c>Mg</c><c>   2</c></rc>
    <rc><c>Mg</c><c>   2</c></rc>
    <rc><c>Mg</c><c>   2</c></rc>
    <rc><c>Bi</c><c>   3</c></rc>
    <rc><c>Bi</c><c>   3</c></rc>
    <rc><c>Bi</c><c>   3</c></rc>
    <rc><c>Bi</c><c>   3</c></rc>
    <rc><c>Bi</c><c>   3</c></rc>
    <rc><c>Bi</c><c>   3</c></rc>
    <rc><c>Bi</c><c>   3</c></rc>
    <rc><c>Bi</c><c>   3</c></rc>
    <rc><c>Bi</c><c>   3</c></rc>
    <rc><c>Bi</c><c>   3</c></rc>
    <rc><c>Bi</c><c>   3</c></rc>
    <rc><c>Bi</c><c>   3</c></rc>
    <rc><c>Bi</c><c>   3</c></rc>
    <rc><c>Bi</c><c>   3</c></rc>
    <rc><c>Bi</c><c>   3</c></rc>
    <rc><c>Bi</c><c>   3</c></rc>
    <rc><c>S </c><c>   4</c></rc>
    <rc><c>S </c><c>   4</c></rc>
    <rc><c>S </c><c>   4</c></rc>
    <rc><c>S </c><c>   4</c></rc>
    <rc><c>S </c><c>   4</c></rc>
    <rc><c>S </c><c>   4</c></rc>
    <rc><c>S </c><c>   4</c></rc>
    <rc><c>S </c><c>   4</c></rc>
    <rc><c>S </c><c>   4</c></rc>
    <rc><c>S </c><c>   4</c></rc>
    <rc><c>S </c><c>   4</c></rc>
    <rc><c>S </c><c>   4</c></rc>
    <rc><c>S </c><c>   4</c></rc>
    <rc><c>S </c><c>   4</c></rc>
    <rc><c>S </c><c>   4</c></rc>
    <rc><c>S </c><c>   4</c></rc>
    <rc><c>O </c><c>   5</c></rc>
    <rc><c>O </c><c>   5</c></rc>
    <rc><c>O </c><c>   5</c></rc>
    <rc><c>O </c><c>   5</c></rc>
    <rc><c>O </c><c>   5</c></rc>
    <rc><c>O </c><c>   5</c></rc>
    <rc><c>O </c><c>   5</c></rc>
    <rc><c>O </c><c>   5</c></rc>
    <rc><c>O </c><c>   5</c></rc>
    <rc><c>O </c><c>   5</c></rc>
    <rc><c>O </c><c>   5</c></rc>
    <rc><c>O </c><c>   5</c></rc>
    <rc><c>O </c><c>   5</c></rc>
    <rc><c>O </c><c>   5</c></rc>
    <rc><c>O </c><c>   5</c></rc>
    <rc><c>O </c><c>   5</c></rc>
   </set>
  </array>
  <array name="atomtypes" >
   <dimension dim="1">type</dimension>
   <field type="int">atomspertype</field>
   <field type="string">element</field>
   <field>mass</field>
   <field>valence</field>
   <field type="string">pseudopotential</field>
   <set>
    <rc><c>   8</c><c>Li</c><c>      7.01000000</c><c>      3.00000000</c><c>  PAW_PBE Li_sv 10Sep2004               </c></rc>
    <rc><c>   4</c><c>Mg</c><c>     24.30500000</c><c>      2.00000000</c><c>  PAW_PBE Mg 13Apr2007                  </c></rc>
    <rc><c>  16</c><c>Bi</c><c>    208.98000000</c><c>     15.00000000</c><c>  PAW_PBE Bi_d 06Sep2000                </c></rc>
    <rc><c>  16</c><c>S </c><c>     32.06600000</c><c>      6.00000000</c><c>  PAW_PBE S 06Sep2000                   </c></rc>
    <rc><c>  16</c><c>O </c><c>     16.00000000</c><c>      6.00000000</c><c>  PAW_PBE O 08Apr2002                   </c></rc>
   </set>
  </array>
 </atominfo>
 <structure name="initialpos" >
  <crystal>
   <varray name="basis" >
    <v>      11.17850000       0.00000000       0.00000000 </v>
    <v>       0.00000000       9.57460000       0.00000000 </v>
    <v>       0.00000000       0.00000000      11.18240000 </v>
   </varray>
   <i name="volume">   1196.84853820 </i>
   <varray name="rec_basis" >
    <v>       0.08945744       0.00000000       0.00000000 </v>
    <v>       0.00000000       0.10444301       0.00000000 </v>
    <v>       0.00000000       0.00000000       0.08942624 </v>
   </varray>
  </crystal>
  <varray name="positions" >
   <v>       0.37539000       0.00017000       0.43687000 </v>
   <v>       0.12461000       0.99984000       0.18687000 </v>
   <v>       0.62539000       0.99984000       0.43687000 </v>
   <v>       0.87539000       0.00017000       0.43687000 </v>
   <v>       0.62461000       0.99984000       0.18687000 </v>
   <v>       0.87461000       0.00017000       0.18687000 </v>
   <v>       0.37539000       0.00017000       0.93687000 </v>
   <v>       0.37461000       0.00017000       0.68687000 </v>
   <v>       0.37461000       0.00017000       0.18687000 </v>
   <v>       0.12461000       0.99984000       0.68687000 </v>
   <v>       0.87539000       0.00017000       0.93687000 </v>
   <v>       0.62461000       0.99984000       0.68687000 </v>
   <v>       0.00013000       0.29519000       0.06281000 </v>
   <v>       0.25013000       0.70481000       0.06281000 </v>
   <v>       0.24987000       0.29519000       0.31282000 </v>
   <v>       0.49987000       0.70481000       0.31282000 </v>
   <v>       0.50013000       0.29519000       0.06281000 </v>
   <v>       0.75013000       0.70481000       0.06281000 </v>
   <v>       0.74987000       0.29519000       0.31282000 </v>
   <v>       0.99987000       0.70481000       0.31282000 </v>
   <v>       0.00013000       0.29519000       0.56281000 </v>
   <v>       0.25013000       0.70481000       0.56281000 </v>
   <v>       0.24987000       0.29519000       0.81282000 </v>
   <v>       0.49987000       0.70481000       0.81282000 </v>
   <v>       0.50013000       0.29519000       0.56281000 </v>
   <v>       0.75013000       0.70481000       0.56281000 </v>
   <v>       0.74987000       0.29519000       0.81282000 </v>
   <v>       0.99987000       0.70481000       0.81282000 </v>
   <v>       0.25005000       0.32677000       0.06286000 </v>
   <v>       0.00005000       0.67323000       0.06286000 </v>
   <v>       0.49995000       0.32677000       0.31286000 </v>
   <v>       0.24995000       0.67323000       0.31286000 </v>
   <v>       0.75005000       0.32677000       0.06286000 </v>
   <v>       0.50005000       0.67323000       0.06286000 </v>
   <v>       0.99995000       0.32677000       0.31286000 </v>
   <v>       0.74995000       0.67323000       0.31286000 </v>
   <v>       0.25005000       0.32677000       0.56286000 </v>
   <v>       0.00005000       0.67323000       0.56286000 </v>
   <v>       0.49995000       0.32677000       0.81286000 </v>
   <v>       0.24995000       0.67323000       0.81286000 </v>
   <v>       0.75005000       0.32677000       0.56286000 </v>
   <v>       0.50005000       0.67323000       0.56286000 </v>
   <v>       0.99995000       0.32677000       0.81286000 </v>
   <v>       0.74995000       0.67323000       0.81286000 </v>
   <v>       0.49987000       0.07798000       0.06246000 </v>
   <v>       0.24987000       0.92202000       0.06246000 </v>
   <v>       0.25013000       0.07798000       0.31246000 </v>
   <v>       0.00013000       0.92202000       0.31246000 </v>
   <v>       0.99987000       0.07798000       0.06246000 </v>
   <v>       0.74987000       0.92202000       0.06246000 </v>
   <v>       0.75013000       0.07798000       0.31246000 </v>
   <v>       0.50013000       0.92202000       0.31246000 </v>
   <v>       0.49987000       0.07798000       0.56246000 </v>
   <v>       0.24987000       0.92202000       0.56246000 </v>
   <v>       0.25013000       0.07798000       0.81246000 </v>
   <v>       0.00013000       0.92202000       0.81246000 </v>
   <v>       0.99987000       0.07798000       0.56246000 </v>
   <v>       0.74987000       0.92202000       0.56246000 </v>
   <v>       0.75013000       0.07798000       0.81246000 </v>
   <v>       0.50013000       0.92202000       0.81246000 </v>
  </varray>
 </structure>
 <calculation>
  <scstep>
   <time name="dav">   61.69   61.76</time>
   <time name="total">   61.78   61.84</time>
   <energy>
    <i name="alphaZ">   1067.11773629 </i>
    <i name="ewald"> -30644.28483827 </i>
    <i name="hartreedc"> -12709.71146609 </i>
    <i name="XCdc">   1321.06323704 </i>
    <i name="pawpsdc">  36729.48549953 </i>
    <i name="pawaedc"> -36149.63912807 </i>
    <i name="eentropy">      0.00000000 </i>
    <i name="bandstr">   1839.94923493 </i>
    <i name="atom">  44408.54722957 </i>
    <i name="e_fr_energy">   5862.52750493 </i>
    <i name="e_wo_entrp">   5862.52750493 </i>
    <i name="e_0_energy">   5862.52750493 </i>
   </energy>
  </scstep>
  <scstep>
   <time name="dav">   61.61   61.95</time>
   <time name="total">   61.62   61.96</time>
   <energy>
    <i name="e_fr_energy">    782.69208809 </i>
    <i name="e_wo_entrp">    782.69208809 </i>
    <i name="e_0_energy">    782.69208809 </i>
   </energy>
  </scstep>
  <scstep>
   <time name="dav">   71.71   71.84</time>
   <time name="total">   71.71   71.84</time>
   <energy>
    <i name="e_fr_energy">   -244.52252263 </i>
    <i name="e_wo_entrp">   -244.52252263 </i>
    <i name="e_0_energy">   -244.52252263 </i>
   </energy>
  </scstep>
  <scstep>
   <time name="dav">   73.72   74.16</time>
   <time name="total">   73.72   74.16</time>
   <energy>
    <i name="e_fr_energy">   -341.47370050 </i>
    <i name="e_wo_entrp">   -341.47370050 </i>
    <i name="e_0_energy">   -341.47370050 </i>
   </energy>
  </scstep>
  <scstep>
   <time name="dav">   96.52   97.45</time>
   <time name="total">   97.28   98.21</time>
   <energy>
    <i name="e_fr_energy">   -349.37099047 </i>
    <i name="e_wo_entrp">   -349.37099047 </i>
    <i name="e_0_energy">   -349.37099047 </i>
   </energy>
  </scstep>
  <scstep>
   <time name="dav">   86.84   88.21</time>
   <time name="total">   87.65   89.05</time>
   <energy>
    <i name="e_fr_energy">   -292.43338524 </i>
    <i name="e_wo_entrp">   -292.43338524 </i>
    <i name="e_0_energy">   -292.43338524 </i>
   </energy>
  </scstep>
  <scstep>
   <time name="dav">   66.15   67.22</time>
   <time name="total">   66.98   68.05</time>
   <energy>
    <i name="e_fr_energy">   -295.12891031 </i>
    <i name="e_wo_entrp">   -295.12891031 </i>
    <i name="e_0_energy">   -295.12891031 </i>
   </energy>
  </scstep>
  <scstep>
   <time name="dav">   77.38   78.84</time>
   <time name="total">   78.19   79.66</time>
   <energy>
    <i name="e_fr_energy">   -294.02696728 </i>
    <i name="e_wo_entrp">   -294.02696728 </i>
    <i name="e_0_energy">   -294.02696728 </i>
   </energy>
  </scstep>
  <scstep>
   <time name="dav">   76.11   77.42</time>
   <time name="total">   76.93   78.24</time>
   <energy>
    <i name="e_fr_energy">   -293.45880540 </i>
    <i name="e_wo_entrp">   -293.45880540 </i>
    <i name="e_0_energy">   -293.45880540 </i>
   </energy>
  </scstep>
  <scstep>
   <time name="dav">   76.08   77.29</time>
   <time name="total">   76.91   78.12</time>
   <energy>
    <i name="e_fr_energy">   -293.47645319 </i>
    <i name="e_wo_entrp">   -293.47645319 </i>
    <i name="e_0_energy">   -293.47645319 </i>
   </energy>
  </scstep>
  <scstep>
   <time name="dav">   79.96   80.71</time>
   <time name="total">   80.80   81.54</time>
   <energy>
    <i name="e_fr_energy">   -293.48525021 </i>
    <i name="e_wo_entrp">   -293.48525021 </i>
    <i name="e_0_energy">   -293.48525021 </i>
   </energy>
  </scstep>
  <scstep>
   <time name="dav">   80.30   80.97</time>
   <time name="total">   81.13   81.80</time>
   <energy>
    <i name="e_fr_energy">   -293.48818705 </i>
    <i name="e_wo_entrp">   -293.48818705 </i>
    <i name="e_0_energy">   -293.48818705 </i>
   </energy>
  </scstep>
  <scstep>
   <time name="dav">   76.02   76.85</time>
   <time name="total">   76.84   77.67</time>
   <energy>
    <i name="e_fr_energy">   -293.48963445 </i>
    <i name="e_wo_entrp">   -293.48963445 </i>
    <i name="e_0_energy">   -293.48963445 </i>
   </energy>
  </scstep>
  <scstep>
   <time name="dav">   79.97   80.50</time>
   <time name="total">   80.81   81.33</time>
   <energy>
    <i name="e_fr_energy">   -293.48979894 </i>
    <i name="e_wo_entrp">   -293.48979894 </i>
    <i name="e_0_energy">   -293.48979894 </i>
   </energy>
  </scstep>
  <scstep>
   <time name="dav">   74.44   74.78</time>
   <time name="total">   75.28   75.61</time>
   <energy>
    <i name="e_fr_energy">   -293.48983144 </i>
    <i name="e_wo_entrp">   -293.48983144 </i>
    <i name="e_0_energy">   -293.48983144 </i>
   </energy>
  </scstep>
  <scstep>
   <time name="dav">   69.40   69.93</time>
   <time name="total">   70.23   70.76</time>
   <energy>
    <i name="e_fr_energy">   -293.48984615 </i>
    <i name="e_wo_entrp">   -293.48984615 </i>
    <i name="e_0_energy">   -293.48984615 </i>
   </energy>
  </scstep>
  <scstep>
   <time name="dav">   65.51   65.77</time>
   <time name="total">   66.34   66.61</time>
   <energy>
    <i name="e_fr_energy">   -293.48984955 </i>
    <i name="e_wo_entrp">   -293.48984955 </i>
    <i name="e_0_energy">   -293.48984955 </i>
   </energy>
  </scstep>
  <scstep>
   <time name="dav">   60.59   60.76</time>
   <time name="total">   60.66   60.83</time>
   <energy>
    <i name="alphaZ">   1067.11773629 </i>
    <i name="ewald"> -30644.28483827 </i>
    <i name="hartreedc"> -12946.92884941 </i>
    <i name="XCdc">   1345.25872720 </i>
    <i name="pawpsdc">  43752.99279343 </i>
    <i name="pawaedc"> -43147.04762030 </i>
    <i name="eentropy">      0.00000000 </i>
    <i name="bandstr">  -4129.14502863 </i>
    <i name="atom">  44408.54722957 </i>
    <i name="e_fr_energy">   -293.48985012 </i>
    <i name="e_wo_entrp">   -293.48985012 </i>
    <i name="e_0_energy">   -293.48985012 </i>
   </energy>
  </scstep>
  <structure>
   <crystal>
    <varray name="basis" >
     <v>      11.17850000       0.00000000       0.00000000 </v>
     <v>       0.00000000       9.57460000       0.00000000 </v>
     <v>       0.00000000       0.00000000      11.18240000 </v>
    </varray>
    <i name="volume">   1196.84853820 </i>
    <varray name="rec_basis" >
     <v>       0.08945744       0.00000000       0.00000000 </v>
     <v>       0.00000000       0.10444301       0.00000000 </v>
     <v>       0.00000000       0.00000000       0.08942624 </v>
    </varray>
   </crystal>
   <varray name="positions" >
    <v>       0.37539000       0.00017000       0.43687000 </v>
    <v>       0.12461000       0.99984000       0.18687000 </v>
    <v>       0.62539000       0.99984000       0.43687000 </v>
    <v>       0.87539000       0.00017000       0.43687000 </v>
    <v>       0.62461000       0.99984000       0.18687000 </v>
    <v>       0.87461000       0.00017000       0.18687000 </v>
    <v>       0.37539000       0.00017000       0.93687000 </v>
    <v>       0.37461000       0.00017000       0.68687000 </v>
    <v>       0.37461000       0.00017000       0.18687000 </v>
    <v>       0.12461000       0.99984000       0.68687000 </v>
    <v>       0.87539000       0.00017000       0.93687000 </v>
    <v>       0.62461000       0.99984000       0.68687000 </v>
    <v>       0.00013000       0.29519000       0.06281000 </v>
    <v>       0.25013000       0.70481000       0.06281000 </v>
    <v>       0.24987000       0.29519000       0.31282000 </v>
    <v>       0.49987000       0.70481000       0.31282000 </v>
    <v>       0.50013000       0.29519000       0.06281000 </v>
    <v>       0.75013000       0.70481000       0.06281000 </v>
    <v>       0.74987000       0.29519000       0.31282000 </v>
    <v>       0.99987000       0.70481000       0.31282000 </v>
    <v>       0.00013000       0.29519000       0.56281000 </v>
    <v>       0.25013000       0.70481000       0.56281000 </v>
    <v>       0.24987000       0.29519000       0.81282000 </v>
    <v>       0.49987000       0.70481000       0.81282000 </v>
    <v>       0.50013000       0.29519000       0.56281000 </v>
    <v>       0.75013000       0.70481000       0.56281000 </v>
    <v>       0.74987000       0.29519000       0.81282000 </v>
    <v>       0.99987000       0.70481000       0.81282000 </v>
    <v>       0.25005000       0.32677000       0.06286000 </v>
    <v>       0.00005000       0.67323000       0.06286000 </v>
    <v>       0.49995000       0.32677000       0.31286000 </v>
    <v>       0.24995000       0.67323000       0.31286000 </v>
    <v>       0.75005000       0.32677000       0.06286000 </v>
    <v>       0.50005000       0.67323000       0.06286000 </v>
    <v>       0.99995000       0.32677000       0.31286000 </v>
    <v>       0.74995000       0.67323000       0.31286000 </v>
    <v>       0.25005000       0.32677000       0.56286000 </v>
    <v>       0.00005000       0.67323000       0.56286000 </v>
    <v>       0.49995000       0.32677000       0.81286000 </v>
    <v>       0.24995000       0.67323000       0.81286000 </v>
    <v>       0.75005000       0.32677000       0.56286000 </v>
    <v>       0.50005000       0.67323000       0.56286000 </v>
    <v>       0.99995000       0.32677000       0.81286000 </v>
    <v>       0.74995000       0.67323000       0.81286000 </v>
    <v>       0.49987000       0.07798000       0.06246000 </v>
    <v>       0.24987000       0.92202000       0.06246000 </v>
    <v>       0.25013000       0.07798000       0.31246000 </v>
    <v>       0.00013000       0.92202000       0.31246000 </v>
    <v>       0.99987000       0.07798000       0.06246000 </v>
    <v>       0.74987000       0.92202000       0.06246000 </v>
    <v>       0.75013000       0.07798000       0.31246000 </v>
    <v>       0.50013000       0.92202000       0.31246000 </v>
    <v>       0.49987000       0.07798000       0.56246000 </v>
    <v>       0.24987000       0.92202000       0.56246000 </v>
    <v>       0.25013000       0.07798000       0.81246000 </v>
    <v>       0.00013000       0.92202000       0.81246000 </v>
    <v>       0.99987000       0.07798000       0.56246000 </v>
    <v>       0.74987000       0.92202000       0.56246000 </v>
    <v>       0.75013000       0.07798000       0.81246000 </v>
    <v>       0.50013000       0.92202000       0.81246000 </v>
   </varray>
  </structure>
  <varray name="forces" >
   <v>      -0.55492071      -0.00255038       0.31532098 </v>
   <v>      -0.41605507      -0.06542456       0.08752657 </v>
   <v>       0.27711448       0.00125241      -0.23390452 </v>
   <v>       0.52517510      -0.00168712       0.34350725 </v>
   <v>       0.44175257       0.06467890      -0.42163389 </v>
   <v>       0.19810592      -0.06369720       0.30686646 </v>
   <v>      -0.03630520      -0.00016968      -0.30688667 </v>
   <v>      -0.20374581      -0.06421209       0.17168631 </v>
   <v>      -0.27149797       0.10954127      -0.19033584 </v>
   <v>      -0.84283677       0.11912318      -0.13771080 </v>
   <v>       0.04197540      -0.00739443      -0.60252804 </v>
   <v>       0.91189529      -0.11395192       0.85884886 </v>
   <v>       0.17292045      -0.00375808       0.04072985 </v>
   <v>      -0.33809433      -0.03088076      -0.18156779 </v>
   <v>      -0.42648979       0.01468150       0.18830495 </v>
   <v>       0.09705524      -1.03587969       0.02053421 </v>
   <v>       0.18535772       0.04490635      -0.21931818 </v>
   <v>      -0.04256884       0.02350474       0.00271438 </v>
   <v>       0.25510517       0.04097423      -0.01787919 </v>
   <v>       0.09609510       1.00692128       0.13614396 </v>
   <v>      -0.07275437      -1.04554475      -0.14347293 </v>
   <v>      -0.27417559      -0.00173435      -0.19745149 </v>
   <v>      -0.16551901      -0.01260291       0.17181587 </v>
   <v>       0.03437991      -0.02241451       0.21703619 </v>
   <v>      -0.09582755       1.07524438      -0.03685961 </v>
   <v>       0.41680273      -0.01488692       0.00798463 </v>
   <v>       0.13224006      -0.11594418      -0.01168985 </v>
   <v>       0.02355187       0.10265262      -0.05167876 </v>
   <v>       0.13918548       0.14619924       0.06506900 </v>
   <v>      -0.05401853      -0.18656907      -0.11775332 </v>
   <v>      -0.03429089       0.12026492       0.04033822 </v>
   <v>       0.31639415      -0.12544229      -0.05948412 </v>
   <v>      -0.02578762       0.14704297      -0.00580450 </v>
   <v>      -0.06140974      -0.09976887       0.14882064 </v>
   <v>      -0.01908202       0.20492151      -0.12096389 </v>
   <v>      -0.26349058      -0.19817293       0.00606911 </v>
   <v>       0.23983808       0.14740644       0.04438288 </v>
   <v>       0.05247476      -0.14977449       0.12325211 </v>
   <v>       0.01932137       0.10212254      -0.14588407 </v>
   <v>       0.06279753      -0.15141038      -0.05138011 </v>
   <v>      -0.33393006       0.12143074       0.00567657 </v>
   <v>       0.04254781      -0.12303574      -0.04275269 </v>
   <v>       0.01336892       0.12749428       0.11057572 </v>
   <v>      -0.09307585      -0.08911003      -0.00558961 </v>
   <v>      -1.03673223      -0.10716008       1.14696378 </v>
   <v>       1.14210539       0.03826234       1.05637530 </v>
   <v>       1.26434015      -0.07769440      -1.03716467 </v>
   <v>      -0.61632173      -0.83724512      -0.66284523 </v>
   <v>      -1.10835987       0.09579904       0.06843427 </v>
   <v>       1.02799643      -0.05528961       0.13815242 </v>
   <v>      -0.24286166      -0.02676880       0.00098686 </v>
   <v>      -0.46594390       0.82333049      -0.39643168 </v>
   <v>       0.46567442      -0.83130060       0.38651756 </v>
   <v>       0.36709473      -0.03924260       1.06432027 </v>
   <v>       0.21776678       0.04799124      -1.10068225 </v>
   <v>      -0.01678926      -0.33945236       0.06248494 </v>
   <v>       0.49064226       0.98873672       0.52704120 </v>
   <v>      -1.31822027       0.00223122      -0.13052694 </v>
   <v>      -0.09676596       0.29263870      -0.03738833 </v>
   <v>      -0.14320409       0.03081768      -1.19691234 </v>
  </varray>
  <varray name="stress" >
   <v>      -8.46590150      -0.13844773      -0.39951905 </v>
   <v>      -0.13844767     -13.84585187       0.07311349 </v>
   <v>      -0.39951925       0.07311352      -8.70830232 </v>
  </varray>
  <energy>
   <i name="e_fr_energy">   -307.12122183 </i>
   <i name="e_wo_entrp">   -307.12122183 </i>
   <i name="e_0_energy">      0.00000000 </i>
  </energy>
  <time name="totalsc"> 1453.21 1466.71</time>
  <eigenvalues>
   <array>
    <dimension dim="1">band</dimension>
    <dimension dim="2">kpoint</dimension>
    <dimension dim="3">spin</dimension>
    <field>eigene</field>
    <field>occ</field>
    <set>
     <set comment="spin 1">
      <set comment="kpoint 1">
       <r>  -40.2420    1.0000 </r>
       <r>  -40.2073    1.0000 </r>
       <r>  -40.1100    1.0000 </r>
       <r>  -40.0352    1.0000 </r>
       <r>  -39.8348    1.0000 </r>
       <r>  -39.6584    1.0000 </r>
       <r>  -39.5906    1.0000 </r>
       <r>  -39.3902    1.0000 </r>
       <r>  -18.9438    1.0000 </r>
       <r>  -18.9378    1.0000 </r>
       <r>  -18.8732    1.0000 </r>
       <r>  -18.8695    1.0000 </r>
       <r>  -18.8663    1.0000 </r>
       <r>  -18.8626    1.0000 </r>
       <r>  -18.7702    1.0000 </r>
       <r>  -18.7643    1.0000 </r>
       <r>  -18.7563    1.0000 </r>
       <r>  -18.7521    1.0000 </r>
       <r>  -18.7419    1.0000 </r>
       <r>  -18.7314    1.0000 </r>
       <r>  -18.7309    1.0000 </r>
       <r>  -18.7282    1.0000 </r>
       <r>  -18.7219    1.0000 </r>
       <r>  -18.7144    1.0000 </r>
       <r>  -18.6689    1.0000 </r>
       <r>  -18.6686    1.0000 </r>
       <r>  -18.6650    1.0000 </r>
       <r>  -18.6611    1.0000 </r>
       <r>  -18.6606    1.0000 </r>
       <r>  -18.6582    1.0000 </r>
       <r>  -18.6576    1.0000 </r>
       <r>  -18.6571    1.0000 </r>
       <r>  -18.6560    1.0000 </r>
       <r>  -18.6547    1.0000 </r>
       <r>  -18.6544    1.0000 </r>
       <r>  -18.6543    1.0000 </r>
       <r>  -18.6524    1.0000 </r>
       <r>  -18.6501    1.0000 </r>
       <r>  -18.6475    1.0000 </r>
       <r>  -18.6474    1.0000 </r>
       <r>  -18.6459    1.0000 </r>
       <r>  -18.6428    1.0000 </r>
       <r>  -18.6427    1.0000 </r>
       <r>  -18.6385    1.0000 </r>
       <r>  -18.6372    1.0000 </r>
       <r>  -18.6366    1.0000 </r>
       <r>  -18.6363    1.0000 </r>
       <r>  -18.6199    1.0000 </r>
       <r>  -18.5854    1.0000 </r>
       <r>  -18.5843    1.0000 </r>
       <r>  -18.5752    1.0000 </r>
       <r>  -18.5736    1.0000 </r>
       <r>  -18.5722    1.0000 </r>
       <r>  -18.5718    1.0000 </r>
       <r>  -18.5623    1.0000 </r>
       <r>  -18.5601    1.0000 </r>
       <r>  -18.5574    1.0000 </r>
       <r>  -18.5448    1.0000 </r>
       <r>  -18.5101    1.0000 </r>
       <r>  -18.5097    1.0000 </r>
       <r>  -18.5087    1.0000 </r>
       <r>  -18.5066    1.0000 </r>
       <r>  -18.5059    1.0000 </r>
       <r>  -18.5048    1.0000 </r>
       <r>  -18.4989    1.0000 </r>
       <r>  -18.4980    1.0000 </r>
       <r>  -18.4958    1.0000 </r>
       <r>  -18.4927    1.0000 </r>
       <r>  -18.4922    1.0000 </r>
       <r>  -18.4913    1.0000 </r>
       <r>  -18.4897    1.0000 </r>
       <r>  -18.4841    1.0000 </r>
       <r>  -18.4837    1.0000 </r>
       <r>  -18.4624    1.0000 </r>
       <r>  -18.4293    1.0000 </r>
       <r>  -18.4193    1.0000 </r>
       <r>  -18.4109    1.0000 </r>
       <r>  -18.4096    1.0000 </r>
       <r>  -18.4091    1.0000 </r>
       <r>  -18.3967    1.0000 </r>
       <r>  -18.3965    1.0000 </r>
       <r>  -18.3888    1.0000 </r>
       <r>  -18.3199    1.0000 </r>
       <r>  -18.3178    1.0000 </r>
       <r>  -18.2106    1.0000 </r>
       <r>  -18.2028    1.0000 </r>
       <r>  -18.1890    1.0000 </r>
       <r>  -18.1835    1.0000 </r>
       <r>  -13.5550    1.0000 </r>
       <r>  -13.4824    1.0000 </r>
       <r>  -12.9417    1.0000 </r>
       <r>  -12.8472    1.0000 </r>
       <r>  -12.8152    1.0000 </r>
       <r>  -12.7824    1.0000 </r>
       <r>  -12.7530    1.0000 </r>
       <r>  -12.7425    1.0000 </r>
       <r>  -12.7266    1.0000 </r>
       <r>  -12.6799    1.0000 </r>
       <r>  -12.6657    1.0000 </r>
       <r>  -12.6298    1.0000 </r>
       <r>  -12.6072    1.0000 </r>
       <r>  -12.5623    1.0000 </r>
       <r>  -11.9964    1.0000 </r>
       <r>  -11.9360    1.0000 </r>
       <r>   -9.3415    1.0000 </r>
       <r>   -9.0462    1.0000 </r>
       <r>   -8.5419    1.0000 </r>
       <r>   -8.5192    1.0000 </r>
       <r>   -8.4978    1.0000 </r>
       <r>   -8.4565    1.0000 </r>
       <r>   -8.3196    1.0000 </r>
       <r>   -8.2977    1.0000 </r>
       <r>   -8.2710    1.0000 </r>
       <r>   -8.2325    1.0000 </r>
       <r>   -8.0413    1.0000 </r>
       <r>   -8.0398    1.0000 </r>
       <r>   -8.0067    1.0000 </r>
       <r>   -8.0056    1.0000 </r>
       <r>   -7.3695    1.0000 </r>
       <r>   -7.3689    1.0000 </r>
       <r>   -6.3877    1.0000 </r>
       <r>   -6.3786    1.0000 </r>
       <r>   -6.3586    1.0000 </r>
       <r>   -6.3512    1.0000 </r>
       <r>   -5.5426    1.0000 </r>
       <r>   -5.5080    1.0000 </r>
       <r>   -5.3745    1.0000 </r>
       <r>   -5.3551    1.0000 </r>
       <r>   -5.3447    1.0000 </r>
       <r>   -5.2639    1.0000 </r>
       <r>   -5.2195    1.0000 </r>
       <r>   -5.1861    1.0000 </r>
       <r>   -5.1376    1.0000 </r>
       <r>   -5.0728    1.0000 </r>
       <r>   -3.8214    1.0000 </r>
       <r>   -3.6707    1.0000 </r>
       <r>   -1.4428    1.0000 </r>
       <r>   -1.3469    1.0000 </r>
       <r>   -1.1079    1.0000 </r>
       <r>   -1.0217    1.0000 </r>
       <r>   -0.5481    1.0000 </r>
       <r>   -0.5203    1.0000 </r>
       <r>   -0.5084    1.0000 </r>
       <r>   -0.4702    1.0000 </r>
       <r>   -0.1892    1.0000 </r>
       <r>   -0.1865    1.0000 </r>
       <r>   -0.1678    1.0000 </r>
       <r>   -0.1465    1.0000 </r>
       <r>    0.0656    1.0000 </r>
       <r>    0.1398    1.0000 </r>
       <r>    0.3344    1.0000 </r>
       <r>    0.4068    1.0000 </r>
       <r>    0.4980    1.0000 </r>
       <r>    0.5487    1.0000 </r>
       <r>    0.5750    1.0000 </r>
       <r>    0.5924    1.0000 </r>
       <r>    0.6833    1.0000 </r>
       <r>    0.7181    1.0000 </r>
       <r>    0.7251    1.0000 </r>
       <r>    0.7482    1.0000 </r>
       <r>    0.8372    1.0000 </r>
       <r>    0.8471    1.0000 </r>
       <r>    0.9117    1.0000 </r>
       <r>    0.9392    1.0000 </r>
       <r>    0.9579    1.0000 </r>
       <r>    0.9814    1.0000 </r>
       <r>    1.0169    1.0000 </r>
       <r>    1.0628    1.0000 </r>
       <r>    1.1051    1.0000 </r>
       <r>    1.1358    1.0000 </r>
       <r>    1.1930    1.0000 </r>
       <r>    1.2294    1.0000 </r>
       <r>    1.2645    1.0000 </r>
       <r>    1.3448    1.0000 </r>
       <r>    1.4000    1.0000 </r>
       <r>    1.4416    1.0000 </r>
       <r>    1.5040    1.0000 </r>
       <r>    1.5159    1.0000 </r>
       <r>    1.5740    1.0000 </r>
       <r>    1.6231    1.0000 </r>
       <r>    1.6646    1.0000 </r>
       <r>    1.7082    1.0000 </r>
       <r>    1.7686    1.0000 </r>
       <r>    1.7887    1.0000 </r>
       <r>    1.8290    1.0000 </r>
       <r>    1.8625    1.0000 </r>
       <r>    1.8761    1.0000 </r>
       <r>    1.9811    1.0000 </r>
       <r>    2.0641    1.0000 </r>
       <r>    2.1551    1.0000 </r>
       <r>    2.1866    1.0000 </r>
       <r>    2.2425    1.0000 </r>
       <r>    2.3313    1.0000 </r>
       <r>    2.3644    1.0000 </r>
       <r>    2.4959    1.0000 </r>
       <r>    2.5436    1.0000 </r>
       <r>    2.5561    1.0000 </r>
       <r>    2.5599    1.0000 </r>
       <r>    2.5816    1.0000 </r>
       <r>    2.5888    1.0000 </r>
       <r>    2.6042    1.0000 </r>
       <r>    2.6547    1.0000 </r>
       <r>    2.6628    1.0000 </r>
       <r>    2.6920    1.0000 </r>
       <r>    2.7225    1.0000 </r>
       <r>    2.7621    1.0000 </r>
       <r>    2.7742    1.0000 </r>
       <r>    2.8316    1.0000 </r>
       <r>    2.8608    1.0000 </r>
       <r>    2.8882    1.0000 </r>
       <r>    2.9090    1.0000 </r>
       <r>    2.9196    1.0000 </r>
       <r>    2.9600    1.0000 </r>
       <r>    3.0140    1.0000 </r>
       <r>    3.0634    1.0000 </r>
       <r>    3.0986    1.0000 </r>
       <r>    3.1232    1.0000 </r>
       <r>    3.1377    1.0000 </r>
       <r>    3.1516    1.0000 </r>
       <r>    3.1658    1.0000 </r>
       <r>    3.1722    1.0000 </r>
       <r>    3.2219    1.0000 </r>
       <r>    3.2835    1.0000 </r>
       <r>    3.3178    1.0000 </r>
       <r>    3.3931    1.0000 </r>
       <r>    3.4318    1.0000 </r>
       <r>    3.4734    1.0000 </r>
       <r>    3.7010    1.0000 </r>
       <r>    4.1720    1.0000 </r>
       <r>    4.1755    1.0000 </r>
       <r>    4.2118    1.0000 </r>
       <r>    4.2190    1.0000 </r>
       <r>    5.0393    0.0000 </r>
       <r>    5.0417    0.0000 </r>
       <r>    5.1408    0.0000 </r>
       <r>    5.1564    0.0000 </r>
       <r>    5.7281    0.0000 </r>
       <r>    5.7364    0.0000 </r>
       <r>    5.8062    0.0000 </r>
       <r>    5.8098    0.0000 </r>
       <r>    6.0890    0.0000 </r>
       <r>    6.1066    0.0000 </r>
       <r>    6.1280    0.0000 </r>
       <r>    6.1379    0.0000 </r>
       <r>    6.2223    0.0000 </r>
       <r>    6.2288    0.0000 </r>
       <r>    6.2503    0.0000 </r>
       <r>    6.2596    0.0000 </r>
       <r>    7.1046    0.0000 </r>
       <r>    7.1596    0.0000 </r>
       <r>    7.2391    0.0000 </r>
       <r>    7.2917    0.0000 </r>
       <r>    7.7958    0.0000 </r>
       <r>    7.8783    0.0000 </r>
       <r>    7.9117    0.0000 </r>
       <r>    7.9338    0.0000 </r>
       <r>    7.9777    0.0000 </r>
       <r>    8.0309    0.0000 </r>
       <r>    8.0705    0.0000 </r>
       <r>    8.1260    0.0000 </r>
       <r>    8.3726    0.0000 </r>
       <r>    8.5232    0.0000 </r>
       <r>    8.6497    0.0000 </r>
       <r>    8.7649    0.0000 </r>
       <r>    8.7782    0.0000 </r>
       <r>    8.8898    0.0000 </r>
       <r>    8.9117    0.0000 </r>
       <r>    8.9679    0.0000 </r>
       <r>    9.0055    0.0000 </r>
       <r>    9.0259    0.0000 </r>
       <r>    9.0657    0.0000 </r>
       <r>    9.1265    0.0000 </r>
       <r>    9.1327    0.0000 </r>
       <r>    9.1389    0.0000 </r>
       <r>    9.2013    0.0000 </r>
       <r>    9.2519    0.0000 </r>
       <r>    9.4417    0.0000 </r>
       <r>    9.4989    0.0000 </r>
       <r>    9.5142    0.0000 </r>
       <r>    9.5481    0.0000 </r>
      </set>
      <set comment="kpoint 2">
       <r>  -40.2420    1.0000 </r>
       <r>  -40.2073    1.0000 </r>
       <r>  -40.1100    1.0000 </r>
       <r>  -40.0352    1.0000 </r>
       <r>  -39.8348    1.0000 </r>
       <r>  -39.6584    1.0000 </r>
       <r>  -39.5906    1.0000 </r>
       <r>  -39.3902    1.0000 </r>
       <r>  -18.9438    1.0000 </r>
       <r>  -18.9378    1.0000 </r>
       <r>  -18.8732    1.0000 </r>
       <r>  -18.8695    1.0000 </r>
       <r>  -18.8663    1.0000 </r>
       <r>  -18.8626    1.0000 </r>
       <r>  -18.7702    1.0000 </r>
       <r>  -18.7643    1.0000 </r>
       <r>  -18.7563    1.0000 </r>
       <r>  -18.7521    1.0000 </r>
       <r>  -18.7417    1.0000 </r>
       <r>  -18.7312    1.0000 </r>
       <r>  -18.7308    1.0000 </r>
       <r>  -18.7281    1.0000 </r>
       <r>  -18.7218    1.0000 </r>
       <r>  -18.7143    1.0000 </r>
       <r>  -18.6699    1.0000 </r>
       <r>  -18.6692    1.0000 </r>
       <r>  -18.6638    1.0000 </r>
       <r>  -18.6612    1.0000 </r>
       <r>  -18.6602    1.0000 </r>
       <r>  -18.6597    1.0000 </r>
       <r>  -18.6582    1.0000 </r>
       <r>  -18.6571    1.0000 </r>
       <r>  -18.6561    1.0000 </r>
       <r>  -18.6550    1.0000 </r>
       <r>  -18.6541    1.0000 </r>
       <r>  -18.6539    1.0000 </r>
       <r>  -18.6527    1.0000 </r>
       <r>  -18.6500    1.0000 </r>
       <r>  -18.6494    1.0000 </r>
       <r>  -18.6462    1.0000 </r>
       <r>  -18.6439    1.0000 </r>
       <r>  -18.6430    1.0000 </r>
       <r>  -18.6429    1.0000 </r>
       <r>  -18.6392    1.0000 </r>
       <r>  -18.6371    1.0000 </r>
       <r>  -18.6361    1.0000 </r>
       <r>  -18.6358    1.0000 </r>
       <r>  -18.6199    1.0000 </r>
       <r>  -18.5854    1.0000 </r>
       <r>  -18.5843    1.0000 </r>
       <r>  -18.5752    1.0000 </r>
       <r>  -18.5736    1.0000 </r>
       <r>  -18.5724    1.0000 </r>
       <r>  -18.5717    1.0000 </r>
       <r>  -18.5623    1.0000 </r>
       <r>  -18.5602    1.0000 </r>
       <r>  -18.5574    1.0000 </r>
       <r>  -18.5448    1.0000 </r>
       <r>  -18.5101    1.0000 </r>
       <r>  -18.5097    1.0000 </r>
       <r>  -18.5086    1.0000 </r>
       <r>  -18.5066    1.0000 </r>
       <r>  -18.5059    1.0000 </r>
       <r>  -18.5048    1.0000 </r>
       <r>  -18.4989    1.0000 </r>
       <r>  -18.4980    1.0000 </r>
       <r>  -18.4958    1.0000 </r>
       <r>  -18.4927    1.0000 </r>
       <r>  -18.4922    1.0000 </r>
       <r>  -18.4912    1.0000 </r>
       <r>  -18.4897    1.0000 </r>
       <r>  -18.4841    1.0000 </r>
       <r>  -18.4837    1.0000 </r>
       <r>  -18.4624    1.0000 </r>
       <r>  -18.4293    1.0000 </r>
       <r>  -18.4193    1.0000 </r>
       <r>  -18.4109    1.0000 </r>
       <r>  -18.4096    1.0000 </r>
       <r>  -18.4091    1.0000 </r>
       <r>  -18.3967    1.0000 </r>
       <r>  -18.3966    1.0000 </r>
       <r>  -18.3888    1.0000 </r>
       <r>  -18.3199    1.0000 </r>
       <r>  -18.3178    1.0000 </r>
       <r>  -18.2106    1.0000 </r>
       <r>  -18.2028    1.0000 </r>
       <r>  -18.1890    1.0000 </r>
       <r>  -18.1835    1.0000 </r>
       <r>  -13.5548    1.0000 </r>
       <r>  -13.4824    1.0000 </r>
       <r>  -12.9291    1.0000 </r>
       <r>  -12.8659    1.0000 </r>
       <r>  -12.8253    1.0000 </r>
       <r>  -12.7754    1.0000 </r>
       <r>  -12.7524    1.0000 </r>
       <r>  -12.7380    1.0000 </r>
       <r>  -12.7224    1.0000 </r>
       <r>  -12.6793    1.0000 </r>
       <r>  -12.6620    1.0000 </r>
       <r>  -12.6313    1.0000 </r>
       <r>  -12.6101    1.0000 </r>
       <r>  -12.5625    1.0000 </r>
       <r>  -11.9964    1.0000 </r>
       <r>  -11.9360    1.0000 </r>
       <r>   -9.1965    1.0000 </r>
       <r>   -9.0397    1.0000 </r>
       <r>   -8.9212    1.0000 </r>
       <r>   -8.7610    1.0000 </r>
       <r>   -8.4148    1.0000 </r>
       <r>   -8.4043    1.0000 </r>
       <r>   -8.2751    1.0000 </r>
       <r>   -8.2703    1.0000 </r>
       <r>   -8.2128    1.0000 </r>
       <r>   -8.2037    1.0000 </r>
       <r>   -8.0728    1.0000 </r>
       <r>   -8.0698    1.0000 </r>
       <r>   -7.7635    1.0000 </r>
       <r>   -7.6511    1.0000 </r>
       <r>   -7.6480    1.0000 </r>
       <r>   -7.5349    1.0000 </r>
       <r>   -6.0378    1.0000 </r>
       <r>   -6.0243    1.0000 </r>
       <r>   -5.8568    1.0000 </r>
       <r>   -5.8455    1.0000 </r>
       <r>   -5.8197    1.0000 </r>
       <r>   -5.8079    1.0000 </r>
       <r>   -5.7521    1.0000 </r>
       <r>   -5.6772    1.0000 </r>
       <r>   -5.6690    1.0000 </r>
       <r>   -5.6604    1.0000 </r>
       <r>   -5.5458    1.0000 </r>
       <r>   -5.4700    1.0000 </r>
       <r>   -4.5213    1.0000 </r>
       <r>   -4.3611    1.0000 </r>
       <r>   -4.3583    1.0000 </r>
       <r>   -4.1885    1.0000 </r>
       <r>   -1.2420    1.0000 </r>
       <r>   -1.0679    1.0000 </r>
       <r>   -0.9061    1.0000 </r>
       <r>   -0.7349    1.0000 </r>
       <r>   -0.4279    1.0000 </r>
       <r>   -0.2829    1.0000 </r>
       <r>   -0.0286    1.0000 </r>
       <r>   -0.0038    1.0000 </r>
       <r>    0.0430    1.0000 </r>
       <r>    0.0976    1.0000 </r>
       <r>    0.1383    1.0000 </r>
       <r>    0.1549    1.0000 </r>
       <r>    0.2277    1.0000 </r>
       <r>    0.2583    1.0000 </r>
       <r>    0.3641    1.0000 </r>
       <r>    0.3837    1.0000 </r>
       <r>    0.4000    1.0000 </r>
       <r>    0.4673    1.0000 </r>
       <r>    0.5052    1.0000 </r>
       <r>    0.5498    1.0000 </r>
       <r>    0.5741    1.0000 </r>
       <r>    0.6041    1.0000 </r>
       <r>    0.6132    1.0000 </r>
       <r>    0.6879    1.0000 </r>
       <r>    0.7135    1.0000 </r>
       <r>    0.7921    1.0000 </r>
       <r>    0.8883    1.0000 </r>
       <r>    0.9521    1.0000 </r>
       <r>    1.0212    1.0000 </r>
       <r>    1.0417    1.0000 </r>
       <r>    1.0881    1.0000 </r>
       <r>    1.1325    1.0000 </r>
       <r>    1.1683    1.0000 </r>
       <r>    1.1817    1.0000 </r>
       <r>    1.2091    1.0000 </r>
       <r>    1.2486    1.0000 </r>
       <r>    1.2877    1.0000 </r>
       <r>    1.3360    1.0000 </r>
       <r>    1.3576    1.0000 </r>
       <r>    1.3813    1.0000 </r>
       <r>    1.4442    1.0000 </r>
       <r>    1.5048    1.0000 </r>
       <r>    1.5208    1.0000 </r>
       <r>    1.5818    1.0000 </r>
       <r>    1.5870    1.0000 </r>
       <r>    1.6090    1.0000 </r>
       <r>    1.6749    1.0000 </r>
       <r>    1.7244    1.0000 </r>
       <r>    1.7831    1.0000 </r>
       <r>    1.8192    1.0000 </r>
       <r>    1.8720    1.0000 </r>
       <r>    1.9137    1.0000 </r>
       <r>    1.9623    1.0000 </r>
       <r>    2.0071    1.0000 </r>
       <r>    2.0126    1.0000 </r>
       <r>    2.0527    1.0000 </r>
       <r>    2.1228    1.0000 </r>
       <r>    2.1453    1.0000 </r>
       <r>    2.2036    1.0000 </r>
       <r>    2.2174    1.0000 </r>
       <r>    2.3023    1.0000 </r>
       <r>    2.3562    1.0000 </r>
       <r>    2.4027    1.0000 </r>
       <r>    2.4060    1.0000 </r>
       <r>    2.4698    1.0000 </r>
       <r>    2.5367    1.0000 </r>
       <r>    2.5572    1.0000 </r>
       <r>    2.5842    1.0000 </r>
       <r>    2.6136    1.0000 </r>
       <r>    2.6309    1.0000 </r>
       <r>    2.6699    1.0000 </r>
       <r>    2.7284    1.0000 </r>
       <r>    2.7747    1.0000 </r>
       <r>    2.7949    1.0000 </r>
       <r>    2.8118    1.0000 </r>
       <r>    2.8572    1.0000 </r>
       <r>    2.8861    1.0000 </r>
       <r>    2.8988    1.0000 </r>
       <r>    2.9143    1.0000 </r>
       <r>    2.9930    1.0000 </r>
       <r>    3.0408    1.0000 </r>
       <r>    3.0850    1.0000 </r>
       <r>    3.1000    1.0000 </r>
       <r>    3.1279    1.0000 </r>
       <r>    3.1482    1.0000 </r>
       <r>    3.1837    1.0000 </r>
       <r>    3.3332    1.0000 </r>
       <r>    3.4193    1.0000 </r>
       <r>    3.4375    1.0000 </r>
       <r>    3.4925    1.0000 </r>
       <r>    3.5009    1.0000 </r>
       <r>    3.5139    1.0000 </r>
       <r>    3.5646    1.0000 </r>
       <r>    3.6078    1.0000 </r>
       <r>    3.6911    1.0000 </r>
       <r>    3.7950    1.0000 </r>
       <r>    5.5482    0.0000 </r>
       <r>    5.5540    0.0000 </r>
       <r>    5.7036    0.0000 </r>
       <r>    5.7106    0.0000 </r>
       <r>    5.7242    0.0000 </r>
       <r>    5.7375    0.0000 </r>
       <r>    5.8891    0.0000 </r>
       <r>    5.8961    0.0000 </r>
       <r>    7.1890    0.0000 </r>
       <r>    7.2459    0.0000 </r>
       <r>    7.2503    0.0000 </r>
       <r>    7.3361    0.0000 </r>
       <r>    7.3770    0.0000 </r>
       <r>    7.4029    0.0000 </r>
       <r>    7.4183    0.0000 </r>
       <r>    7.4357    0.0000 </r>
       <r>    7.4661    0.0000 </r>
       <r>    7.4908    0.0000 </r>
       <r>    7.5917    0.0000 </r>
       <r>    7.6067    0.0000 </r>
       <r>    7.7953    0.0000 </r>
       <r>    7.8030    0.0000 </r>
       <r>    7.8344    0.0000 </r>
       <r>    7.8616    0.0000 </r>
       <r>    7.8737    0.0000 </r>
       <r>    7.8873    0.0000 </r>
       <r>    7.9263    0.0000 </r>
       <r>    7.9596    0.0000 </r>
       <r>    7.9838    0.0000 </r>
       <r>    8.0080    0.0000 </r>
       <r>    8.0300    0.0000 </r>
       <r>    8.1008    0.0000 </r>
       <r>    8.2250    0.0000 </r>
       <r>    8.2830    0.0000 </r>
       <r>    8.4075    0.0000 </r>
       <r>    8.4999    0.0000 </r>
       <r>    8.6101    0.0000 </r>
       <r>    8.7157    0.0000 </r>
       <r>    8.7381    0.0000 </r>
       <r>    8.7484    0.0000 </r>
       <r>    8.7574    0.0000 </r>
       <r>    8.8427    0.0000 </r>
       <r>    8.9088    0.0000 </r>
       <r>    8.9227    0.0000 </r>
       <r>    9.0744    0.0000 </r>
       <r>    9.2905    0.0000 </r>
       <r>    9.3493    0.0000 </r>
       <r>    9.4240    0.0000 </r>
      </set>
      <set comment="kpoint 3">
       <r>  -40.2420    1.0000 </r>
       <r>  -40.2073    1.0000 </r>
       <r>  -40.1100    1.0000 </r>
       <r>  -40.0352    1.0000 </r>
       <r>  -39.8348    1.0000 </r>
       <r>  -39.6584    1.0000 </r>
       <r>  -39.5906    1.0000 </r>
       <r>  -39.3902    1.0000 </r>
       <r>  -18.9438    1.0000 </r>
       <r>  -18.9378    1.0000 </r>
       <r>  -18.8732    1.0000 </r>
       <r>  -18.8695    1.0000 </r>
       <r>  -18.8663    1.0000 </r>
       <r>  -18.8626    1.0000 </r>
       <r>  -18.7702    1.0000 </r>
       <r>  -18.7643    1.0000 </r>
       <r>  -18.7563    1.0000 </r>
       <r>  -18.7521    1.0000 </r>
       <r>  -18.7419    1.0000 </r>
       <r>  -18.7315    1.0000 </r>
       <r>  -18.7308    1.0000 </r>
       <r>  -18.7282    1.0000 </r>
       <r>  -18.7219    1.0000 </r>
       <r>  -18.7144    1.0000 </r>
       <r>  -18.6689    1.0000 </r>
       <r>  -18.6686    1.0000 </r>
       <r>  -18.6650    1.0000 </r>
       <r>  -18.6614    1.0000 </r>
       <r>  -18.6603    1.0000 </r>
       <r>  -18.6582    1.0000 </r>
       <r>  -18.6576    1.0000 </r>
       <r>  -18.6571    1.0000 </r>
       <r>  -18.6560    1.0000 </r>
       <r>  -18.6546    1.0000 </r>
       <r>  -18.6545    1.0000 </r>
       <r>  -18.6543    1.0000 </r>
       <r>  -18.6524    1.0000 </r>
       <r>  -18.6501    1.0000 </r>
       <r>  -18.6476    1.0000 </r>
       <r>  -18.6473    1.0000 </r>
       <r>  -18.6459    1.0000 </r>
       <r>  -18.6430    1.0000 </r>
       <r>  -18.6426    1.0000 </r>
       <r>  -18.6385    1.0000 </r>
       <r>  -18.6372    1.0000 </r>
       <r>  -18.6368    1.0000 </r>
       <r>  -18.6361    1.0000 </r>
       <r>  -18.6199    1.0000 </r>
       <r>  -18.5854    1.0000 </r>
       <r>  -18.5843    1.0000 </r>
       <r>  -18.5752    1.0000 </r>
       <r>  -18.5736    1.0000 </r>
       <r>  -18.5722    1.0000 </r>
       <r>  -18.5718    1.0000 </r>
       <r>  -18.5624    1.0000 </r>
       <r>  -18.5601    1.0000 </r>
       <r>  -18.5574    1.0000 </r>
       <r>  -18.5448    1.0000 </r>
       <r>  -18.5101    1.0000 </r>
       <r>  -18.5097    1.0000 </r>
       <r>  -18.5086    1.0000 </r>
       <r>  -18.5065    1.0000 </r>
       <r>  -18.5059    1.0000 </r>
       <r>  -18.5048    1.0000 </r>
       <r>  -18.4989    1.0000 </r>
       <r>  -18.4980    1.0000 </r>
       <r>  -18.4958    1.0000 </r>
       <r>  -18.4927    1.0000 </r>
       <r>  -18.4922    1.0000 </r>
       <r>  -18.4913    1.0000 </r>
       <r>  -18.4897    1.0000 </r>
       <r>  -18.4841    1.0000 </r>
       <r>  -18.4837    1.0000 </r>
       <r>  -18.4624    1.0000 </r>
       <r>  -18.4293    1.0000 </r>
       <r>  -18.4193    1.0000 </r>
       <r>  -18.4109    1.0000 </r>
       <r>  -18.4096    1.0000 </r>
       <r>  -18.4091    1.0000 </r>
       <r>  -18.3967    1.0000 </r>
       <r>  -18.3965    1.0000 </r>
       <r>  -18.3888    1.0000 </r>
       <r>  -18.3200    1.0000 </r>
       <r>  -18.3177    1.0000 </r>
       <r>  -18.2106    1.0000 </r>
       <r>  -18.2028    1.0000 </r>
       <r>  -18.1890    1.0000 </r>
       <r>  -18.1835    1.0000 </r>
       <r>  -13.5547    1.0000 </r>
       <r>  -13.4826    1.0000 </r>
       <r>  -12.9402    1.0000 </r>
       <r>  -12.8472    1.0000 </r>
       <r>  -12.8148    1.0000 </r>
       <r>  -12.7819    1.0000 </r>
       <r>  -12.7530    1.0000 </r>
       <r>  -12.7425    1.0000 </r>
       <r>  -12.7268    1.0000 </r>
       <r>  -12.6799    1.0000 </r>
       <r>  -12.6670    1.0000 </r>
       <r>  -12.6308    1.0000 </r>
       <r>  -12.6074    1.0000 </r>
       <r>  -12.5630    1.0000 </r>
       <r>  -11.9957    1.0000 </r>
       <r>  -11.9374    1.0000 </r>
       <r>   -9.3311    1.0000 </r>
       <r>   -9.0536    1.0000 </r>
       <r>   -8.5607    1.0000 </r>
       <r>   -8.5359    1.0000 </r>
       <r>   -8.5155    1.0000 </r>
       <r>   -8.4739    1.0000 </r>
       <r>   -8.2987    1.0000 </r>
       <r>   -8.2792    1.0000 </r>
       <r>   -8.2507    1.0000 </r>
       <r>   -8.2133    1.0000 </r>
       <r>   -8.0454    1.0000 </r>
       <r>   -8.0437    1.0000 </r>
       <r>   -8.0096    1.0000 </r>
       <r>   -8.0087    1.0000 </r>
       <r>   -7.3726    1.0000 </r>
       <r>   -7.3714    1.0000 </r>
       <r>   -6.3789    1.0000 </r>
       <r>   -6.3681    1.0000 </r>
       <r>   -6.3504    1.0000 </r>
       <r>   -6.3398    1.0000 </r>
       <r>   -5.5591    1.0000 </r>
       <r>   -5.4928    1.0000 </r>
       <r>   -5.4100    1.0000 </r>
       <r>   -5.4035    1.0000 </r>
       <r>   -5.3900    1.0000 </r>
       <r>   -5.2824    1.0000 </r>
       <r>   -5.1666    1.0000 </r>
       <r>   -5.1285    1.0000 </r>
       <r>   -5.0904    1.0000 </r>
       <r>   -5.0261    1.0000 </r>
       <r>   -3.8963    1.0000 </r>
       <r>   -3.5839    1.0000 </r>
       <r>   -1.3658    1.0000 </r>
       <r>   -1.2890    1.0000 </r>
       <r>   -1.2109    1.0000 </r>
       <r>   -1.1009    1.0000 </r>
       <r>   -0.4338    1.0000 </r>
       <r>   -0.4292    1.0000 </r>
       <r>   -0.4114    1.0000 </r>
       <r>   -0.4010    1.0000 </r>
       <r>   -0.3533    1.0000 </r>
       <r>   -0.3135    1.0000 </r>
       <r>   -0.3088    1.0000 </r>
       <r>   -0.2617    1.0000 </r>
       <r>   -0.1665    1.0000 </r>
       <r>    0.0445    1.0000 </r>
       <r>    0.0945    1.0000 </r>
       <r>    0.1926    1.0000 </r>
       <r>    0.2652    1.0000 </r>
       <r>    0.3233    1.0000 </r>
       <r>    0.3447    1.0000 </r>
       <r>    0.4195    1.0000 </r>
       <r>    0.5265    1.0000 </r>
       <r>    0.5814    1.0000 </r>
       <r>    0.6951    1.0000 </r>
       <r>    0.7315    1.0000 </r>
       <r>    0.7851    1.0000 </r>
       <r>    0.7993    1.0000 </r>
       <r>    0.8194    1.0000 </r>
       <r>    0.8323    1.0000 </r>
       <r>    0.9052    1.0000 </r>
       <r>    1.0718    1.0000 </r>
       <r>    1.1775    1.0000 </r>
       <r>    1.2067    1.0000 </r>
       <r>    1.2142    1.0000 </r>
       <r>    1.3055    1.0000 </r>
       <r>    1.3391    1.0000 </r>
       <r>    1.3624    1.0000 </r>
       <r>    1.3996    1.0000 </r>
       <r>    1.4691    1.0000 </r>
       <r>    1.5547    1.0000 </r>
       <r>    1.6146    1.0000 </r>
       <r>    1.6410    1.0000 </r>
       <r>    1.6679    1.0000 </r>
       <r>    1.7074    1.0000 </r>
       <r>    1.7463    1.0000 </r>
       <r>    1.7691    1.0000 </r>
       <r>    1.8214    1.0000 </r>
       <r>    1.8501    1.0000 </r>
       <r>    1.9088    1.0000 </r>
       <r>    1.9489    1.0000 </r>
       <r>    1.9688    1.0000 </r>
       <r>    2.0210    1.0000 </r>
       <r>    2.0543    1.0000 </r>
       <r>    2.1573    1.0000 </r>
       <r>    2.1963    1.0000 </r>
       <r>    2.2707    1.0000 </r>
       <r>    2.3479    1.0000 </r>
       <r>    2.4083    1.0000 </r>
       <r>    2.4199    1.0000 </r>
       <r>    2.5040    1.0000 </r>
       <r>    2.5116    1.0000 </r>
       <r>    2.5222    1.0000 </r>
       <r>    2.5427    1.0000 </r>
       <r>    2.5623    1.0000 </r>
       <r>    2.5647    1.0000 </r>
       <r>    2.5784    1.0000 </r>
       <r>    2.5826    1.0000 </r>
       <r>    2.6379    1.0000 </r>
       <r>    2.6778    1.0000 </r>
       <r>    2.7330    1.0000 </r>
       <r>    2.7758    1.0000 </r>
       <r>    2.7892    1.0000 </r>
       <r>    2.8001    1.0000 </r>
       <r>    2.8239    1.0000 </r>
       <r>    2.8501    1.0000 </r>
       <r>    2.8916    1.0000 </r>
       <r>    2.9206    1.0000 </r>
       <r>    2.9449    1.0000 </r>
       <r>    3.0064    1.0000 </r>
       <r>    3.0169    1.0000 </r>
       <r>    3.0227    1.0000 </r>
       <r>    3.0405    1.0000 </r>
       <r>    3.1207    1.0000 </r>
       <r>    3.1731    1.0000 </r>
       <r>    3.2926    1.0000 </r>
       <r>    3.3292    1.0000 </r>
       <r>    3.3673    1.0000 </r>
       <r>    3.3929    1.0000 </r>
       <r>    3.4227    1.0000 </r>
       <r>    3.4326    1.0000 </r>
       <r>    3.4574    1.0000 </r>
       <r>    3.5471    1.0000 </r>
       <r>    3.6525    1.0000 </r>
       <r>    4.2210    1.0000 </r>
       <r>    4.2242    1.0000 </r>
       <r>    4.2629    1.0000 </r>
       <r>    4.2689    1.0000 </r>
       <r>    5.1112    0.0000 </r>
       <r>    5.1145    0.0000 </r>
       <r>    5.2136    0.0000 </r>
       <r>    5.2140    0.0000 </r>
       <r>    5.7350    0.0000 </r>
       <r>    5.7455    0.0000 </r>
       <r>    5.8139    0.0000 </r>
       <r>    5.8184    0.0000 </r>
       <r>    6.1457    0.0000 </r>
       <r>    6.1587    0.0000 </r>
       <r>    6.1678    0.0000 </r>
       <r>    6.1853    0.0000 </r>
       <r>    6.2356    0.0000 </r>
       <r>    6.2429    0.0000 </r>
       <r>    6.2698    0.0000 </r>
       <r>    6.2745    0.0000 </r>
       <r>    6.7858    0.0000 </r>
       <r>    6.8845    0.0000 </r>
       <r>    6.9247    0.0000 </r>
       <r>    7.0369    0.0000 </r>
       <r>    7.2526    0.0000 </r>
       <r>    7.3495    0.0000 </r>
       <r>    7.3723    0.0000 </r>
       <r>    7.4478    0.0000 </r>
       <r>    7.7071    0.0000 </r>
       <r>    7.8070    0.0000 </r>
       <r>    7.9207    0.0000 </r>
       <r>    7.9534    0.0000 </r>
       <r>    8.0054    0.0000 </r>
       <r>    8.3022    0.0000 </r>
       <r>    8.3362    0.0000 </r>
       <r>    8.4523    0.0000 </r>
       <r>    8.6623    0.0000 </r>
       <r>    8.7713    0.0000 </r>
       <r>    8.9171    0.0000 </r>
       <r>    8.9287    0.0000 </r>
       <r>    8.9994    0.0000 </r>
       <r>    9.0359    0.0000 </r>
       <r>    9.0661    0.0000 </r>
       <r>    9.0703    0.0000 </r>
       <r>    9.0786    0.0000 </r>
       <r>    9.1394    0.0000 </r>
       <r>    9.1526    0.0000 </r>
       <r>    9.2150    0.0000 </r>
       <r>    9.4625    0.0000 </r>
       <r>    9.4720    0.0000 </r>
       <r>    9.6600    0.0000 </r>
       <r>    9.8014    0.0000 </r>
      </set>
      <set comment="kpoint 4">
       <r>  -40.2420    1.0000 </r>
       <r>  -40.2073    1.0000 </r>
       <r>  -40.1100    1.0000 </r>
       <r>  -40.0352    1.0000 </r>
       <r>  -39.8347    1.0000 </r>
       <r>  -39.6584    1.0000 </r>
       <r>  -39.5906    1.0000 </r>
       <r>  -39.3902    1.0000 </r>
       <r>  -18.9438    1.0000 </r>
       <r>  -18.9377    1.0000 </r>
       <r>  -18.8732    1.0000 </r>
       <r>  -18.8695    1.0000 </r>
       <r>  -18.8663    1.0000 </r>
       <r>  -18.8626    1.0000 </r>
       <r>  -18.7702    1.0000 </r>
       <r>  -18.7643    1.0000 </r>
       <r>  -18.7563    1.0000 </r>
       <r>  -18.7521    1.0000 </r>
       <r>  -18.7417    1.0000 </r>
       <r>  -18.7313    1.0000 </r>
       <r>  -18.7307    1.0000 </r>
       <r>  -18.7281    1.0000 </r>
       <r>  -18.7218    1.0000 </r>
       <r>  -18.7143    1.0000 </r>
       <r>  -18.6699    1.0000 </r>
       <r>  -18.6692    1.0000 </r>
       <r>  -18.6638    1.0000 </r>
       <r>  -18.6613    1.0000 </r>
       <r>  -18.6601    1.0000 </r>
       <r>  -18.6597    1.0000 </r>
       <r>  -18.6582    1.0000 </r>
       <r>  -18.6571    1.0000 </r>
       <r>  -18.6561    1.0000 </r>
       <r>  -18.6551    1.0000 </r>
       <r>  -18.6541    1.0000 </r>
       <r>  -18.6539    1.0000 </r>
       <r>  -18.6527    1.0000 </r>
       <r>  -18.6500    1.0000 </r>
       <r>  -18.6494    1.0000 </r>
       <r>  -18.6462    1.0000 </r>
       <r>  -18.6439    1.0000 </r>
       <r>  -18.6430    1.0000 </r>
       <r>  -18.6428    1.0000 </r>
       <r>  -18.6392    1.0000 </r>
       <r>  -18.6371    1.0000 </r>
       <r>  -18.6361    1.0000 </r>
       <r>  -18.6357    1.0000 </r>
       <r>  -18.6199    1.0000 </r>
       <r>  -18.5854    1.0000 </r>
       <r>  -18.5843    1.0000 </r>
       <r>  -18.5752    1.0000 </r>
       <r>  -18.5736    1.0000 </r>
       <r>  -18.5724    1.0000 </r>
       <r>  -18.5717    1.0000 </r>
       <r>  -18.5624    1.0000 </r>
       <r>  -18.5602    1.0000 </r>
       <r>  -18.5574    1.0000 </r>
       <r>  -18.5448    1.0000 </r>
       <r>  -18.5101    1.0000 </r>
       <r>  -18.5097    1.0000 </r>
       <r>  -18.5086    1.0000 </r>
       <r>  -18.5065    1.0000 </r>
       <r>  -18.5059    1.0000 </r>
       <r>  -18.5048    1.0000 </r>
       <r>  -18.4989    1.0000 </r>
       <r>  -18.4980    1.0000 </r>
       <r>  -18.4958    1.0000 </r>
       <r>  -18.4927    1.0000 </r>
       <r>  -18.4922    1.0000 </r>
       <r>  -18.4913    1.0000 </r>
       <r>  -18.4897    1.0000 </r>
       <r>  -18.4841    1.0000 </r>
       <r>  -18.4837    1.0000 </r>
       <r>  -18.4624    1.0000 </r>
       <r>  -18.4293    1.0000 </r>
       <r>  -18.4193    1.0000 </r>
       <r>  -18.4109    1.0000 </r>
       <r>  -18.4096    1.0000 </r>
       <r>  -18.4091    1.0000 </r>
[...]
       <r>    8.8330    0.0000 </r>
       <r>    8.8560    0.0000 </r>
       <r>    8.8762    0.0000 </r>
       <r>    8.8823    0.0000 </r>
       <r>    8.9061    0.0000 </r>
       <r>    8.9206    0.0000 </r>
       <r>    8.9419    0.0000 </r>
      </set>
     </set>
    </set>
   </array>
  </eigenvalues>
  <separator name="orbital magnetization" >
   <v name="MAGDIPOLOUT">      0.00000000      0.00000000      0.00000000</v>
  </separator>
  <dos>
   <i name="efermi">      4.27575829 </i>
   <total>
    <array>
     <dimension dim="1">gridpoints</dimension>
     <dimension dim="2">spin</dimension>
     <field>energy</field>
     <field>total</field>
     <field>integrated</field>
     <set>
      <set comment="spin 1">
       <r>   -42.7442     0.0000     0.0000 </r>
       <r>   -42.5607     0.0000     0.0000 </r>
       <r>   -42.3772     0.0000     0.0000 </r>
       <r>   -42.1937     0.0000     0.0000 </r>
       <r>   -42.0102     0.0000     0.0000 </r>
       <r>   -41.8267     0.0000     0.0000 </r>
       <r>   -41.6432     0.0000     0.0000 </r>
       <r>   -41.4598     0.0000     0.0000 </r>
       <r>   -41.2763     0.0000     0.0000 </r>
       <r>   -41.0928     0.0000     0.0000 </r>
       <r>   -40.9093     0.0000     0.0000 </r>
       <r>   -40.7258     0.0000     0.0000 </r>
       <r>   -40.5423     0.0000     0.0000 </r>
       <r>   -40.3588     0.0000     0.0000 </r>
       <r>   -40.1753     0.0000     4.0000 </r>
       <r>   -39.9918     0.0000     8.0000 </r>
       <r>   -39.8083     0.0000    10.0000 </r>
       <r>   -39.6248     0.0000    12.0000 </r>
       <r>   -39.4413     0.0000    14.0000 </r>
       <r>   -39.2578     0.0000    16.0000 </r>
       <r>   -39.0744     0.0000    16.0000 </r>
       <r>   -38.8909     0.0000    16.0000 </r>
       <r>   -38.7074     0.0000    16.0000 </r>
       <r>   -38.5239     0.0000    16.0000 </r>
       <r>   -38.3404     0.0000    16.0000 </r>
       <r>   -38.1569     0.0000    16.0000 </r>
       <r>   -37.9734     0.0000    16.0000 </r>
       <r>   -37.7899     0.0000    16.0000 </r>
       <r>   -37.6064     0.0000    16.0000 </r>
       <r>   -37.4229     0.0000    16.0000 </r>
       <r>   -37.2394     0.0000    16.0000 </r>
       <r>   -37.0559     0.0000    16.0000 </r>
       <r>   -36.8724     0.0000    16.0000 </r>
       <r>   -36.6889     0.0000    16.0000 </r>
       <r>   -36.5055     0.0000    16.0000 </r>
       <r>   -36.3220     0.0000    16.0000 </r>
       <r>   -36.1385     0.0000    16.0000 </r>
       <r>   -35.9550     0.0000    16.0000 </r>
       <r>   -35.7715     0.0000    16.0000 </r>
       <r>   -35.5880     0.0000    16.0000 </r>
       <r>   -35.4045     0.0000    16.0000 </r>
       <r>   -35.2210     0.0000    16.0000 </r>
       <r>   -35.0375     0.0000    16.0000 </r>
       <r>   -34.8540     0.0000    16.0000 </r>
       <r>   -34.6705     0.0000    16.0000 </r>
       <r>   -34.4870     0.0000    16.0000 </r>
       <r>   -34.3035     0.0000    16.0000 </r>
       <r>   -34.1201     0.0000    16.0000 </r>
       <r>   -33.9366     0.0000    16.0000 </r>
       <r>   -33.7531     0.0000    16.0000 </r>
       <r>   -33.5696     0.0000    16.0000 </r>
       <r>   -33.3861     0.0000    16.0000 </r>
       <r>   -33.2026     0.0000    16.0000 </r>
       <r>   -33.0191     0.0000    16.0000 </r>
       <r>   -32.8356     0.0000    16.0000 </r>
       <r>   -32.6521     0.0000    16.0000 </r>
       <r>   -32.4686     0.0000    16.0000 </r>
       <r>   -32.2851     0.0000    16.0000 </r>
       <r>   -32.1016     0.0000    16.0000 </r>
       <r>   -31.9181     0.0000    16.0000 </r>
       <r>   -31.7346     0.0000    16.0000 </r>
       <r>   -31.5512     0.0000    16.0000 </r>
       <r>   -31.3677     0.0000    16.0000 </r>
       <r>   -31.1842     0.0000    16.0000 </r>
       <r>   -31.0007     0.0000    16.0000 </r>
       <r>   -30.8172     0.0000    16.0000 </r>
       <r>   -30.6337     0.0000    16.0000 </r>
       <r>   -30.4502     0.0000    16.0000 </r>
       <r>   -30.2667     0.0000    16.0000 </r>
       <r>   -30.0832     0.0000    16.0000 </r>
       <r>   -29.8997     0.0000    16.0000 </r>
       <r>   -29.7162     0.0000    16.0000 </r>
       <r>   -29.5327     0.0000    16.0000 </r>
       <r>   -29.3492     0.0000    16.0000 </r>
       <r>   -29.1658     0.0000    16.0000 </r>
       <r>   -28.9823     0.0000    16.0000 </r>
       <r>   -28.7988     0.0000    16.0000 </r>
       <r>   -28.6153     0.0000    16.0000 </r>
       <r>   -28.4318     0.0000    16.0000 </r>
       <r>   -28.2483     0.0000    16.0000 </r>
       <r>   -28.0648     0.0000    16.0000 </r>
       <r>   -27.8813     0.0000    16.0000 </r>
       <r>   -27.6978     0.0000    16.0000 </r>
       <r>   -27.5143     0.0000    16.0000 </r>
       <r>   -27.3308     0.0000    16.0000 </r>
       <r>   -27.1473     0.0000    16.0000 </r>
       <r>   -26.9638     0.0000    16.0000 </r>
       <r>   -26.7804     0.0000    16.0000 </r>
       <r>   -26.5969     0.0000    16.0000 </r>
       <r>   -26.4134     0.0000    16.0000 </r>
       <r>   -26.2299     0.0000    16.0000 </r>
       <r>   -26.0464     0.0000    16.0000 </r>
       <r>   -25.8629     0.0000    16.0000 </r>
       <r>   -25.6794     0.0000    16.0000 </r>
       <r>   -25.4959     0.0000    16.0000 </r>
       <r>   -25.3124     0.0000    16.0000 </r>
       <r>   -25.1289     0.0000    16.0000 </r>
       <r>   -24.9454     0.0000    16.0000 </r>
       <r>   -24.7619     0.0000    16.0000 </r>
       <r>   -24.5784     0.0000    16.0000 </r>
       <r>   -24.3949     0.0000    16.0000 </r>
       <r>   -24.2115     0.0000    16.0000 </r>
       <r>   -24.0280     0.0000    16.0000 </r>
       <r>   -23.8445     0.0000    16.0000 </r>
       <r>   -23.6610     0.0000    16.0000 </r>
       <r>   -23.4775     0.0000    16.0000 </r>
       <r>   -23.2940     0.0000    16.0000 </r>
       <r>   -23.1105     0.0000    16.0000 </r>
       <r>   -22.9270     0.0000    16.0000 </r>
       <r>   -22.7435     0.0000    16.0000 </r>
       <r>   -22.5600     0.0000    16.0000 </r>
       <r>   -22.3765     0.0000    16.0000 </r>
       <r>   -22.1930     0.0000    16.0000 </r>
       <r>   -22.0095     0.0000    16.0000 </r>
       <r>   -21.8261     0.0000    16.0000 </r>
       <r>   -21.6426     0.0000    16.0000 </r>
       <r>   -21.4591     0.0000    16.0000 </r>
       <r>   -21.2756     0.0000    16.0000 </r>
       <r>   -21.0921     0.0000    16.0000 </r>
       <r>   -20.9086     0.0000    16.0000 </r>
       <r>   -20.7251     0.0000    16.0000 </r>
       <r>   -20.5416     0.0000    16.0000 </r>
       <r>   -20.3581     0.0000    16.0000 </r>
       <r>   -20.1746     0.0000    16.0000 </r>
       <r>   -19.9911     0.0000    16.0000 </r>
       <r>   -19.8076     0.0000    16.0000 </r>
       <r>   -19.6241     0.0000    16.0000 </r>
       <r>   -19.4407     0.0000    16.0000 </r>
       <r>   -19.2572     0.0000    16.0000 </r>
       <r>   -19.0737     0.0000    16.0000 </r>
       <r>   -18.8902     0.0000    20.0000 </r>
       <r>   -18.7067     0.0000    48.0000 </r>
       <r>   -18.5232     0.0000   116.0000 </r>
       <r>   -18.3397     0.0000   164.0000 </r>
       <r>   -18.1562     0.0000   176.0000 </r>
       <r>   -17.9727     0.0000   176.0000 </r>
       <r>   -17.7892     0.0000   176.0000 </r>
       <r>   -17.6057     0.0000   176.0000 </r>
       <r>   -17.4222     0.0000   176.0000 </r>
       <r>   -17.2387     0.0000   176.0000 </r>
       <r>   -17.0552     0.0000   176.0000 </r>
       <r>   -16.8718     0.0000   176.0000 </r>
       <r>   -16.6883     0.0000   176.0000 </r>
       <r>   -16.5048     0.0000   176.0000 </r>
       <r>   -16.3213     0.0000   176.0000 </r>
       <r>   -16.1378     0.0000   176.0000 </r>
       <r>   -15.9543     0.0000   176.0000 </r>
       <r>   -15.7708     0.0000   176.0000 </r>
       <r>   -15.5873     0.0000   176.0000 </r>
       <r>   -15.4038     0.0000   176.0000 </r>
       <r>   -15.2203     0.0000   176.0000 </r>
       <r>   -15.0368     0.0000   176.0000 </r>
       <r>   -14.8533     0.0000   176.0000 </r>
       <r>   -14.6698     0.0000   176.0000 </r>
       <r>   -14.4864     0.0000   176.0000 </r>
       <r>   -14.3029     0.0000   176.0000 </r>
       <r>   -14.1194     0.0000   176.0000 </r>
       <r>   -13.9359     0.0000   176.0000 </r>
       <r>   -13.7524     0.0000   176.0000 </r>
       <r>   -13.5689     0.0000   176.0000 </r>
       <r>   -13.3854     0.0000   180.0000 </r>
       <r>   -13.2019     0.0000   180.0000 </r>
       <r>   -13.0184     0.0000   180.0000 </r>
       <r>   -12.8349     0.0000   184.0000 </r>
       <r>   -12.6514     0.0000   198.0000 </r>
       <r>   -12.4679     0.0000   204.0000 </r>
       <r>   -12.2844     0.0000   204.0000 </r>
       <r>   -12.1009     0.0000   204.0000 </r>
       <r>   -11.9175     0.0000   208.0000 </r>
       <r>   -11.7340     0.0000   208.0000 </r>
       <r>   -11.5505     0.0000   208.0000 </r>
       <r>   -11.3670     0.0000   208.0000 </r>
       <r>   -11.1835     0.0000   208.0000 </r>
       <r>   -11.0000     0.0000   208.0000 </r>
       <r>   -10.8165     0.0000   208.0000 </r>
       <r>   -10.6330     0.0000   208.0000 </r>
       <r>   -10.4495     0.0000   208.0000 </r>
       <r>   -10.2660     0.0000   208.0000 </r>
       <r>   -10.0825     0.0000   208.0000 </r>
       <r>    -9.8990     0.0000   208.0000 </r>
       <r>    -9.7155     0.0000   208.0000 </r>
       <r>    -9.5321     0.0000   208.0000 </r>
       <r>    -9.3486     0.0000   208.0000 </r>
       <r>    -9.1651    10.5191   209.0500 </r>
       <r>    -8.9816     4.8449   211.9628 </r>
       <r>    -8.7981    20.8647   213.6344 </r>
       <r>    -8.6146    12.4636   216.2051 </r>
       <r>    -8.4311    33.0392   219.7418 </r>
       <r>    -8.2476     2.6218   224.0208 </r>
       <r>    -8.0641    41.7724   227.6690 </r>
       <r>    -7.8806    18.6692   232.0813 </r>
       <r>    -7.6971    20.9824   235.4826 </r>
       <r>    -7.5136    16.1639   238.8431 </r>
       <r>    -7.3301     0.0000   240.0000 </r>
       <r>    -7.1467     0.0000   240.0000 </r>
       <r>    -6.9632     0.0000   240.0000 </r>
       <r>    -6.7797     0.0000   240.0000 </r>
       <r>    -6.5962     0.0000   240.0000 </r>
       <r>    -6.4127     0.0000   240.0000 </r>
       <r>    -6.2292    13.7369   240.9634 </r>
       <r>    -6.0457    29.2928   245.1057 </r>
       <r>    -5.8622    17.4971   248.7003 </r>
       <r>    -5.6787    22.3647   253.3621 </r>
       <r>    -5.4952    20.2739   257.3166 </r>
       <r>    -5.3117    18.2221   261.1205 </r>
       <r>    -5.1282     7.0251   263.5655 </r>
       <r>    -4.9447     5.9009   264.4218 </r>
       <r>    -4.7612     7.8281   265.7769 </r>
       <r>    -4.5778    10.4290   267.4339 </r>
       <r>    -4.3943     5.9605   268.9900 </r>
       <r>    -4.2108     7.3216   270.2203 </r>
       <r>    -4.0273     4.4382   271.3214 </r>
       <r>    -3.8438     1.4433   271.8455 </r>
       <r>    -3.6603     0.2182   271.9944 </r>
       <r>    -3.4768     0.0000   272.0000 </r>
       <r>    -3.2933     0.0000   272.0000 </r>
       <r>    -3.1098     0.0000   272.0000 </r>
       <r>    -2.9263     0.0000   272.0000 </r>
       <r>    -2.7428     0.0000   272.0000 </r>
       <r>    -2.5593     0.0000   272.0000 </r>
       <r>    -2.3758     0.0000   272.0000 </r>
       <r>    -2.1924     0.0000   272.0000 </r>
       <r>    -2.0089     0.0000   272.0000 </r>
       <r>    -1.8254     0.0000   272.0000 </r>
       <r>    -1.6419     0.0000   272.0000 </r>
       <r>    -1.4584     0.0000   272.0000 </r>
       <r>    -1.2749     4.6112   272.2592 </r>
       <r>    -1.0914    10.0094   273.7368 </r>
       <r>    -0.9079    13.7921   275.9374 </r>
       <r>    -0.7244     9.1756   278.0947 </r>
       <r>    -0.5409     4.8941   279.3830 </r>
       <r>    -0.3574    22.7962   281.7835 </r>
       <r>    -0.1739    27.5272   286.1021 </r>
       <r>     0.0096    36.9138   293.2568 </r>
       <r>     0.1930    33.0766   299.2354 </r>
       <r>     0.3765    39.7532   305.9806 </r>
       <r>     0.5600    46.3313   313.2074 </r>
       <r>     0.7435    30.1953   319.8169 </r>
       <r>     0.9270    41.9033   326.5992 </r>
       <r>     1.1105    46.6851   334.5177 </r>
       <r>     1.2940    51.9300   343.8072 </r>
       <r>     1.4775    49.4860   352.7009 </r>
       <r>     1.6610    52.3837   362.1386 </r>
       <r>     1.8445    48.6553   370.8514 </r>
       <r>     2.0280    40.0838   378.0191 </r>
       <r>     2.2115    43.5298   385.8206 </r>
       <r>     2.3950    53.5886   394.3557 </r>
       <r>     2.5785    65.6599   405.3225 </r>
       <r>     2.7619    62.0813   416.9260 </r>
       <r>     2.9454    66.5107   428.8392 </r>
       <r>     3.1289    52.5465   440.4643 </r>
       <r>     3.3124    34.9005   447.3796 </r>
       <r>     3.4959    42.4970   454.4555 </r>
       <r>     3.6794    13.0993   458.8734 </r>
       <r>     3.8629    13.0675   461.6209 </r>
       <r>     4.0464     6.4524   463.4121 </r>
       <r>     4.2299     0.3021   463.9962 </r>
       <r>     4.4134     0.0000   464.0000 </r>
       <r>     4.5969     0.0000   464.0000 </r>
       <r>     4.7804     0.0000   464.0000 </r>
       <r>     4.9639     0.0000   464.0000 </r>
       <r>     5.1473     0.7448   464.0286 </r>
       <r>     5.3308     4.3144   464.4668 </r>
       <r>     5.5143     8.2653   465.6208 </r>
       <r>     5.6978     9.0935   467.3109 </r>
       <r>     5.8813    19.2906   471.2430 </r>
       <r>     6.0648    12.4846   473.8340 </r>
       <r>     6.2483    11.5917   475.9889 </r>
       <r>     6.4318    13.2924   478.2661 </r>
       <r>     6.6153    15.0410   480.8660 </r>
       <r>     6.7988    16.7936   483.7856 </r>
       <r>     6.9823    19.5472   487.0837 </r>
       <r>     7.1658    27.8270   491.3440 </r>
       <r>     7.3493    40.5629   497.5979 </r>
       <r>     7.5328    27.5182   504.7246 </r>
       <r>     7.7162    38.3986   509.8342 </r>
       <r>     7.8997    51.2728   518.3724 </r>
       <r>     8.0832    26.2203   525.9186 </r>
       <r>     8.2667    18.7162   529.8792 </r>
       <r>     8.4502    20.3503   533.3771 </r>
       <r>     8.6337    25.9038   537.6734 </r>
       <r>     8.8172    48.3916   543.2727 </r>
       <r>     9.0007    30.6038   550.9548 </r>
       <r>     9.1842    15.5080   554.9094 </r>
       <r>     9.3677    11.5809   557.3935 </r>
       <r>     9.5512     7.3599   559.3609 </r>
       <r>     9.7347     0.9040   559.9797 </r>
       <r>     9.9182     0.0000   560.0000 </r>
       <r>    10.1016     0.0000   560.0000 </r>
       <r>    10.2851     0.0000   560.0000 </r>
       <r>    10.4686     0.0000   560.0000 </r>
       <r>    10.6521     0.0000   560.0000 </r>
       <r>    10.8356     0.0000   560.0000 </r>
       <r>    11.0191     0.0000   560.0000 </r>
       <r>    11.2026     0.0000   560.0000 </r>
       <r>    11.3861     0.0000   560.0000 </r>
       <r>    11.5696     0.0000   560.0000 </r>
       <r>    11.7531     0.0000   560.0000 </r>
       <r>    11.9366     0.0000   560.0000 </r>
       <r>    12.1201     0.0000   560.0000 </r>
       <r>    12.3036     0.0000   560.0000 </r>
      </set>
     </set>
    </array>
   </total>
  </dos>
 </calculation>
 <structure name="finalpos" >
  <crystal>
   <varray name="basis" >
    <v>      11.17850000       0.00000000       0.00000000 </v>
    <v>       0.00000000       9.57460000       0.00000000 </v>
    <v>       0.00000000       0.00000000      11.18240000 </v>
   </varray>
   <i name="volume">   1196.84853820 </i>
   <varray name="rec_basis" >
    <v>       0.08945744       0.00000000       0.00000000 </v>
    <v>       0.00000000       0.10444301       0.00000000 </v>
    <v>       0.00000000       0.00000000       0.08942624 </v>
   </varray>
  </crystal>
  <varray name="positions" >
   <v>       0.37539000       0.00017000       0.43687000 </v>
   <v>       0.12461000       0.99984000       0.18687000 </v>
   <v>       0.62539000       0.99984000       0.43687000 </v>
   <v>       0.87539000       0.00017000       0.43687000 </v>
   <v>       0.62461000       0.99984000       0.18687000 </v>
   <v>       0.87461000       0.00017000       0.18687000 </v>
   <v>       0.37539000       0.00017000       0.93687000 </v>
   <v>       0.37461000       0.00017000       0.68687000 </v>
   <v>       0.37461000       0.00017000       0.18687000 </v>
   <v>       0.12461000       0.99984000       0.68687000 </v>
   <v>       0.87539000       0.00017000       0.93687000 </v>
   <v>       0.62461000       0.99984000       0.68687000 </v>
   <v>       0.00013000       0.29519000       0.06281000 </v>
   <v>       0.25013000       0.70481000       0.06281000 </v>
   <v>       0.24987000       0.29519000       0.31282000 </v>
   <v>       0.49987000       0.70481000       0.31282000 </v>
   <v>       0.50013000       0.29519000       0.06281000 </v>
   <v>       0.75013000       0.70481000       0.06281000 </v>
   <v>       0.74987000       0.29519000       0.31282000 </v>
   <v>       0.99987000       0.70481000       0.31282000 </v>
   <v>       0.00013000       0.29519000       0.56281000 </v>
   <v>       0.25013000       0.70481000       0.56281000 </v>
   <v>       0.24987000       0.29519000       0.81282000 </v>
   <v>       0.49987000       0.70481000       0.81282000 </v>
   <v>       0.50013000       0.29519000       0.56281000 </v>
   <v>       0.75013000       0.70481000       0.56281000 </v>
   <v>       0.74987000       0.29519000       0.81282000 </v>
   <v>       0.99987000       0.70481000       0.81282000 </v>
   <v>       0.25005000       0.32677000       0.06286000 </v>
   <v>       0.00005000       0.67323000       0.06286000 </v>
   <v>       0.49995000       0.32677000       0.31286000 </v>
   <v>       0.24995000       0.67323000       0.31286000 </v>
   <v>       0.75005000       0.32677000       0.06286000 </v>
   <v>       0.50005000       0.67323000       0.06286000 </v>
   <v>       0.99995000       0.32677000       0.31286000 </v>
   <v>       0.74995000       0.67323000       0.31286000 </v>
   <v>       0.25005000       0.32677000       0.56286000 </v>
   <v>       0.00005000       0.67323000       0.56286000 </v>
   <v>       0.49995000       0.32677000       0.81286000 </v>
   <v>       0.24995000       0.67323000       0.81286000 </v>
   <v>       0.75005000       0.32677000       0.56286000 </v>
   <v>       0.50005000       0.67323000       0.56286000 </v>
   <v>       0.99995000       0.32677000       0.81286000 </v>
   <v>       0.74995000       0.67323000       0.81286000 </v>
   <v>       0.49987000       0.07798000       0.06246000 </v>
   <v>       0.24987000       0.92202000       0.06246000 </v>
   <v>       0.25013000       0.07798000       0.31246000 </v>
   <v>       0.00013000       0.92202000       0.31246000 </v>
   <v>       0.99987000       0.07798000       0.06246000 </v>
   <v>       0.74987000       0.92202000       0.06246000 </v>
   <v>       0.75013000       0.07798000       0.31246000 </v>
   <v>       0.50013000       0.92202000       0.31246000 </v>
   <v>       0.49987000       0.07798000       0.56246000 </v>
   <v>       0.24987000       0.92202000       0.56246000 </v>
   <v>       0.25013000       0.07798000       0.81246000 </v>
   <v>       0.00013000       0.92202000       0.81246000 </v>
   <v>       0.99987000       0.07798000       0.56246000 </v>
   <v>       0.74987000       0.92202000       0.56246000 </v>
   <v>       0.75013000       0.07798000       0.81246000 </v>
   <v>       0.50013000       0.92202000       0.81246000 </v>
  </varray>
 </structure>
</modeling>
