<?xml version="1.0" encoding="ISO-8859-1"?>
<modeling>
 <generator>
  <i name="program" type="string">vasp </i>
  <i name="version" type="string">5.4.4.18Apr17-6-g9f103f2a35  </i>
  <i name="subversion" type="string">(build Jul 31 2017 11:33:29) complex            parallel </i>
  <i name="platform" type="string">LinuxIFC </i>
  <i name="date" type="string">2021 09 24 </i>
  <i name="time" type="string">01:00:59 </i>
 </generator>
 <incar>
  <i type="string" name="SYSTEM"> La2O2S</i>
  <i type="string" name="PREC">normal</i>
  <i type="int" name="NELMIN">     4</i>
  <i type="int" name="IBRION">     2</i>
  <i type="int" name="NFREE">    10</i>
  <i name="EDIFF">      0.00000100</i>
  <i name="EDIFFG">     -0.01000000</i>
  <i type="int" name="NSW">   200</i>
  <i type="int" name="ISIF">     3</i>
  <i name="ENCUT">    600.00000000</i>
  <i name="ENAUG">    900.00000000</i>
  <i type="int" name="ISMEAR">    -5</i>
  <i type="logical" name="LWAVE"> F  </i>
  <i type="logical" name="LCHARG"> F  </i>
  <v type="int" name="KPOINT_BSE">    -1     0     0     0</v>
 </incar>
 <structure name="primitive_cell" >
  <crystal>
   <varray name="basis" >
    <v>      11.17850000       0.00000000       0.00000000 </v>
    <v>       0.00000000       9.57460000       0.00000000 </v>
    <v>       0.00000000       0.00000000      11.18240000 </v>
   </varray>
   <i name="volume">   1196.84853820 </i>
   <varray name="rec_basis" >
    <v>       0.08945744       0.00000000       0.00000000 </v>
    <v>       0.00000000       0.10444301       0.00000000 </v>
    <v>       0.00000000       0.00000000       0.08942624 </v>
   </varray>
  </crystal>
  <varray name="positions" >
   <v>       0.37539000       0.00017000       0.43687000 </v>
   <v>      -0.49987000      -0.07798000       0.31246000 </v>
   <v>       0.25013000       0.07798000       0.31246000 </v>
   <v>       0.49987000       0.07798000      -0.43754000 </v>
   <v>       0.24987000      -0.07798000      -0.43754000 </v>
   <v>      -0.37461000      -0.00016000       0.43687000 </v>
   <v>       0.37461000       0.00017000       0.18687000 </v>
   <v>       0.37461000       0.00017000      -0.31313000 </v>
   <v>       0.49987000      -0.29519000       0.31282000 </v>
   <v>       0.24987000       0.29519000       0.31282000 </v>
   <v>      -0.49987000       0.29519000      -0.43719000 </v>
   <v>       0.25013000      -0.29519000      -0.43719000 </v>
   <v>       0.49995000       0.32677000       0.31286000 </v>
   <v>       0.24995000      -0.32677000       0.31286000 </v>
   <v>      -0.49995000      -0.32677000      -0.43714000 </v>
   <v>       0.25005000       0.32677000      -0.43714000 </v>
   <v>      -0.37539000      -0.00016000      -0.31313000 </v>
   <v>      -0.37539000      -0.00016000       0.18687000 </v>
   <v>       0.12461000      -0.00016000       0.18687000 </v>
   <v>       0.12461000      -0.00016000      -0.31313000 </v>
   <v>       0.49987000       0.07798000       0.06246000 </v>
   <v>      -0.24987000       0.07798000       0.31246000 </v>
   <v>      -0.25013000      -0.07798000      -0.43754000 </v>
   <v>       0.24987000      -0.07798000       0.06246000 </v>
   <v>       0.00013000      -0.07798000       0.31246000 </v>
   <v>      -0.49987000      -0.07798000      -0.18754000 </v>
   <v>      -0.00013000       0.07798000      -0.43754000 </v>
   <v>       0.25013000       0.07798000      -0.18754000 </v>
   <v>      -0.49987000       0.29519000       0.06281000 </v>
   <v>      -0.25013000       0.29519000       0.31282000 </v>
   <v>       0.25013000      -0.29519000       0.06281000 </v>
   <v>      -0.24987000      -0.29519000      -0.43719000 </v>
   <v>      -0.00013000      -0.29519000       0.31282000 </v>
   <v>       0.00013000       0.29519000      -0.43719000 </v>
   <v>       0.49987000      -0.29519000      -0.18718000 </v>
   <v>       0.24987000       0.29519000      -0.18718000 </v>
   <v>      -0.49995000      -0.32677000       0.06286000 </v>
   <v>       0.25005000       0.32677000       0.06286000 </v>
   <v>      -0.25005000      -0.32677000       0.31286000 </v>
   <v>      -0.24995000       0.32677000      -0.43714000 </v>
   <v>      -0.00005000       0.32677000       0.31286000 </v>
   <v>       0.00005000      -0.32677000      -0.43714000 </v>
   <v>       0.49995000       0.32677000      -0.18714000 </v>
   <v>       0.24995000      -0.32677000      -0.18714000 </v>
   <v>      -0.12461000       0.00017000       0.43687000 </v>
   <v>       0.37539000       0.00017000      -0.06313000 </v>
   <v>      -0.25013000      -0.07798000       0.06246000 </v>
   <v>      -0.00013000       0.07798000       0.06246000 </v>
   <v>      -0.24987000       0.07798000      -0.18754000 </v>
   <v>       0.00013000      -0.07798000      -0.18754000 </v>
   <v>      -0.12539000       0.00017000       0.18687000 </v>
   <v>      -0.12539000       0.00017000      -0.31313000 </v>
   <v>      -0.37461000      -0.00016000      -0.06313000 </v>
   <v>      -0.24987000      -0.29519000       0.06281000 </v>
   <v>       0.00013000       0.29519000       0.06281000 </v>
   <v>      -0.25013000       0.29519000      -0.18718000 </v>
   <v>      -0.00013000      -0.29519000      -0.18718000 </v>
   <v>      -0.24995000       0.32677000       0.06286000 </v>
   <v>       0.00005000      -0.32677000       0.06286000 </v>
   <v>      -0.25005000      -0.32677000      -0.18714000 </v>
   <v>      -0.00005000       0.32677000      -0.18714000 </v>
   <v>      -0.12461000       0.00017000      -0.06313000 </v>
  </varray>
 </structure>
 <varray name="primitive_index" >
  <v type="int" >        1 </v>
  <v type="int" >       54 </v>
  <v type="int" >       49 </v>
  <v type="int" >       55 </v>
  <v type="int" >       56 </v>
  <v type="int" >        4 </v>
  <v type="int" >        3 </v>
  <v type="int" >        9 </v>
  <v type="int" >       18 </v>
  <v type="int" >       17 </v>
  <v type="int" >       27 </v>
  <v type="int" >       24 </v>
  <v type="int" >       33 </v>
  <v type="int" >       34 </v>
  <v type="int" >       44 </v>
  <v type="int" >       39 </v>
  <v type="int" >       11 </v>
  <v type="int" >       13 </v>
  <v type="int" >        2 </v>
  <v type="int" >        8 </v>
  <v type="int" >       47 </v>
  <v type="int" >       53 </v>
  <v type="int" >       60 </v>
  <v type="int" >       48 </v>
  <v type="int" >       50 </v>
  <v type="int" >       62 </v>
  <v type="int" >       59 </v>
  <v type="int" >       57 </v>
  <v type="int" >       19 </v>
  <v type="int" >       21 </v>
  <v type="int" >       16 </v>
  <v type="int" >       28 </v>
  <v type="int" >       22 </v>
  <v type="int" >       23 </v>
  <v type="int" >       26 </v>
  <v type="int" >       25 </v>
  <v type="int" >       36 </v>
  <v type="int" >       31 </v>
  <v type="int" >       38 </v>
  <v type="int" >       43 </v>
  <v type="int" >       37 </v>
  <v type="int" >       40 </v>
  <v type="int" >       41 </v>
  <v type="int" >       42 </v>
  <v type="int" >        5 </v>
  <v type="int" >        7 </v>
  <v type="int" >       52 </v>
  <v type="int" >       51 </v>
  <v type="int" >       61 </v>
  <v type="int" >       58 </v>
  <v type="int" >        6 </v>
  <v type="int" >       12 </v>
  <v type="int" >       10 </v>
  <v type="int" >       20 </v>
  <v type="int" >       15 </v>
  <v type="int" >       29 </v>
  <v type="int" >       30 </v>
  <v type="int" >       35 </v>
  <v type="int" >       32 </v>
  <v type="int" >       46 </v>
  <v type="int" >       45 </v>
  <v type="int" >       14 </v>
 </varray>
 <kpoints>
  <generation param="Gamma">
   <v type="int" name="divisions">       2        2        2 </v>
   <v name="usershift">      0.00000000       0.00000000       0.00000000 </v>
   <v name="genvec1">      0.50000000       0.00000000       0.00000000 </v>
   <v name="genvec2">      0.00000000       0.50000000       0.00000000 </v>
   <v name="genvec3">      0.00000000       0.00000000       0.50000000 </v>
   <v name="shift">      0.00000000       0.00000000       0.00000000 </v>
  </generation>
  <varray name="kpointlist" >
   <v>       0.00000000       0.00000000       0.00000000 </v>
   <v>       0.50000000       0.00000000       0.00000000 </v>
   <v>       0.00000000       0.50000000       0.00000000 </v>
   <v>       0.50000000       0.50000000       0.00000000 </v>
   <v>       0.00000000       0.00000000       0.50000000 </v>
   <v>       0.50000000       0.00000000       0.50000000 </v>
   <v>       0.00000000       0.50000000       0.50000000 </v>
   <v>       0.50000000       0.50000000       0.50000000 </v>
  </varray>
  <varray name="weights" >
   <v>       0.12500000 </v>
   <v>       0.12500000 </v>
   <v>       0.12500000 </v>
   <v>       0.12500000 </v>
   <v>       0.12500000 </v>
   <v>       0.12500000 </v>
   <v>       0.12500000 </v>
   <v>       0.12500000 </v>
  </varray>
  <varray name="tetrahedronlist"  type="int" >
   <v type="int" >        2        1        2        4        5 </v>
   <v type="int" >        2        1        3        4        5 </v>
   <v type="int" >        2        3        4        5        7 </v>
   <v type="int" >        2        2        4        5        6 </v>
   <v type="int" >        2        4        5        6        8 </v>
   <v type="int" >        2        4        5        7        8 </v>
   <v type="int" >        2        1        2        3        6 </v>
   <v type="int" >        2        2        3        4        6 </v>
   <v type="int" >        2        3        4        6        8 </v>
   <v type="int" >        2        1        3        5        6 </v>
   <v type="int" >        2        3        5        6        7 </v>
   <v type="int" >        2        3        6        7        8 </v>
   <v type="int" >        2        2        3        4        7 </v>
   <v type="int" >        2        1        2        3        7 </v>
   <v type="int" >        2        1        2        5        7 </v>
   <v type="int" >        2        2        4        7        8 </v>
   <v type="int" >        2        2        6        7        8 </v>
   <v type="int" >        2        2        5        6        7 </v>
   <v type="int" >        2        1        3        4        8 </v>
   <v type="int" >        2        1        2        4        8 </v>
   <v type="int" >        2        1        2        6        8 </v>
   <v type="int" >        2        1        3        7        8 </v>
   <v type="int" >        2        1        5        7        8 </v>
   <v type="int" >        2        1        5        6        8 </v>
  </varray>
  <i name="volumeweight">      0.02083333 </i>
 </kpoints>
 <parameters>
  <separator name="general" >
   <i type="string" name="SYSTEM">La2O2S</i>
   <i type="logical" name="LCOMPAT"> F  </i>
  </separator>
  <separator name="electronic" >
   <i type="string" name="PREC">normal</i>
   <i name="ENMAX">    600.00000000</i>
   <i name="ENAUG">    900.00000000</i>
   <i name="EDIFF">      0.00000100</i>
   <i type="int" name="IALGO">    38</i>
   <i type="int" name="IWAVPR">    11</i>
   <i type="int" name="NBANDS">   308</i>
   <i name="NELECT">    472.00000000</i>
   <i type="int" name="TURBO">     0</i>
   <i type="int" name="IRESTART">     0</i>
   <i type="int" name="NREBOOT">     0</i>
   <i type="int" name="NMIN">     0</i>
   <i name="EREF">      0.00000000</i>
   <separator name="electronic smearing" >
    <i type="int" name="ISMEAR">    -5</i>
    <i name="SIGMA">      0.20000000</i>
    <i name="KSPACING">      0.50000000</i>
    <i type="logical" name="KGAMMA"> T  </i>
   </separator>
   <separator name="electronic projectors" >
    <i type="logical" name="LREAL"> F  </i>
    <v name="ROPT">      0.00000000      0.00000000      0.00000000      0.00000000      0.00000000</v>
    <i type="int" name="LMAXPAW">  -100</i>
    <i type="int" name="LMAXMIX">     2</i>
    <i type="logical" name="NLSPLINE"> F  </i>
   </separator>
   <separator name="electronic startup" >
    <i type="int" name="ISTART">     0</i>
    <i type="int" name="ICHARG">     2</i>
    <i type="int" name="INIWAV">     1</i>
   </separator>
   <separator name="electronic spin" >
    <i type="int" name="ISPIN">     1</i>
    <i type="logical" name="LNONCOLLINEAR"> F  </i>
    <v name="MAGMOM">      1.00000000      1.00000000      1.00000000      1.00000000      1.00000000      1.00000000      1.00000000      1.00000000      1.00000000      1.00000000      1.00000000      1.00000000      1.00000000      1.00000000      1.00000000      1.00000000      1.00000000      1.00000000      1.00000000      1.00000000
      1.00000000      1.00000000      1.00000000      1.00000000      1.00000000      1.00000000      1.00000000      1.00000000      1.00000000      1.00000000      1.00000000      1.00000000      1.00000000      1.00000000      1.00000000      1.00000000      1.00000000      1.00000000      1.00000000      1.00000000
      1.00000000      1.00000000      1.00000000      1.00000000      1.00000000      1.00000000      1.00000000      1.00000000      1.00000000      1.00000000      1.00000000      1.00000000      1.00000000      1.00000000      1.00000000      1.00000000      1.00000000      1.00000000      1.00000000      1.00000000
      1.00000000      1.00000000</v>
    <i name="NUPDOWN">     -1.00000000</i>
    <i type="logical" name="LSORBIT"> F  </i>
    <v name="SAXIS">      0.00000000      0.00000000      1.00000000</v>
    <i type="logical" name="LSPIRAL"> F  </i>
    <v name="QSPIRAL">      0.00000000      0.00000000      0.00000000</v>
    <i type="logical" name="LZEROZ"> F  </i>
   </separator>
   <separator name="electronic exchange-correlation" >
    <i type="logical" name="LASPH"> F  </i>
    <i type="logical" name="LMETAGGA"> F  </i>
   </separator>
   <separator name="electronic convergence" >
    <i type="int" name="NELM">    60</i>
    <i type="int" name="NELMDL">    -5</i>
    <i type="int" name="NELMIN">     4</i>
    <i name="ENINI">    600.00000000</i>
    <separator name="electronic convergence detail" >
     <i type="logical" name="LDIAG"> T  </i>
     <i type="logical" name="LSUBROT"> F  </i>
     <i name="WEIMIN">      0.00100000</i>
     <i name="EBREAK">      0.00000000</i>
     <i name="DEPER">      0.30000000</i>
     <i type="int" name="NRMM">     4</i>
     <i name="TIME">      0.40000000</i>
    </separator>
   </separator>
   <separator name="electronic mixer" >
    <i name="AMIX">      0.40000000</i>
    <i name="BMIX">      1.00000000</i>
    <i name="AMIN">      0.10000000</i>
    <i name="AMIX_MAG">      1.60000000</i>
    <i name="BMIX_MAG">      1.00000000</i>
    <separator name="electronic mixer details" >
     <i type="int" name="IMIX">     4</i>
     <i type="logical" name="MIXFIRST"> F  </i>
     <i type="int" name="MAXMIX">   -45</i>
     <i name="WC">    100.00000000</i>
     <i type="int" name="INIMIX">     1</i>
     <i type="int" name="MIXPRE">     1</i>
     <i type="int" name="MREMOVE">     5</i>
    </separator>
   </separator>
   <separator name="electronic dipolcorrection" >
    <i type="logical" name="LDIPOL"> F  </i>
    <i type="logical" name="LMONO"> F  </i>
    <i type="int" name="IDIPOL">     0</i>
    <i name="EPSILON">      1.00000000</i>
    <v name="DIPOL">   -100.00000000   -100.00000000   -100.00000000</v>
    <i name="EFIELD">      0.00000000</i>
   </separator>
  </separator>
  <separator name="grids" >
   <i type="int" name="NGX">    70</i>
   <i type="int" name="NGY">    60</i>
   <i type="int" name="NGZ">    70</i>
   <i type="int" name="NGXF">   140</i>
   <i type="int" name="NGYF">   120</i>
   <i type="int" name="NGZF">   140</i>
   <i type="logical" name="ADDGRID"> F  </i>
  </separator>
  <separator name="ionic" >
   <i type="int" name="NSW">   200</i>
   <i type="int" name="IBRION">     2</i>
   <i type="int" name="MDALGO">     0</i>
   <i type="int" name="ISIF">     3</i>
   <i name="PSTRESS">      0.00000000</i>
   <i name="EDIFFG">     -0.01000000</i>
   <i type="int" name="NFREE">    10</i>
   <i name="POTIM">      0.50000000</i>
   <i name="SMASS">     -3.00000000</i>
   <i name="SCALEE">      1.00000000</i>
  </separator>
  <separator name="ionic md" >
   <i name="TEBEG">      0.00010000</i>
   <i name="TEEND">      0.00010000</i>
   <i type="int" name="NBLOCK">     1</i>
   <i type="int" name="KBLOCK">   200</i>
   <i type="int" name="NPACO">   256</i>
   <i name="APACO">     16.00000000</i>
  </separator>
  <separator name="symmetry" >
   <i type="int" name="ISYM">     2</i>
   <i name="SYMPREC">      0.00001000</i>
  </separator>
  <separator name="dos" >
   <i type="int" name="LORBIT">     0</i>
   <v name="RWIGS">     -1.00000000     -1.00000000     -1.00000000     -1.00000000     -1.00000000</v>
   <i type="int" name="NEDOS">   301</i>
   <i name="EMIN">     10.00000000</i>
   <i name="EMAX">    -10.00000000</i>
   <i name="EFERMI">      0.00000000</i>
  </separator>
  <separator name="writing" >
   <i type="int" name="NWRITE">     2</i>
   <i type="logical" name="LWAVE"> F  </i>
   <i type="logical" name="LDOWNSAMPLE"> F  </i>
   <i type="logical" name="LCHARG"> F  </i>
   <i type="logical" name="LPARD"> F  </i>
   <i type="logical" name="LVTOT"> F  </i>
   <i type="logical" name="LVHAR"> F  </i>
   <i type="logical" name="LELF"> F  </i>
   <i type="logical" name="LOPTICS"> F  </i>
   <v name="STM">      0.00000000      0.00000000      0.00000000      0.00000000      0.00000000      0.00000000      0.00000000</v>
  </separator>
  <separator name="performance" >
   <i type="int" name="NPAR">    28</i>
   <i type="int" name="NSIM">     4</i>
   <i type="int" name="NBLK">    -1</i>
   <i type="logical" name="LPLANE"> T  </i>
   <i type="logical" name="LSCALAPACK"> T  </i>
   <i type="logical" name="LSCAAWARE"> F  </i>
   <i type="logical" name="LSCALU"> F  </i>
   <i type="logical" name="LASYNC"> F  </i>
   <i type="logical" name="LORBITALREAL"> F  </i>
  </separator>
  <separator name="miscellaneous" >
   <i type="int" name="IDIOT">     3</i>
   <i type="int" name="ISPECIAL">     0</i>
   <i type="logical" name="LMUSIC"> F  </i>
   <v name="POMASS">      7.01000000     24.30500000    208.98000000     32.06600000     16.00000000</v>
   <v name="DARWINR">      0.00000000      0.00000000      0.00000000      0.00000000      0.00000000</v>
   <v name="DARWINV">      1.00000000      1.00000000      1.00000000      1.00000000      1.00000000</v>
   <i type="logical" name="LCORR"> T  </i>
  </separator>
  <i type="logical" name="GGA_COMPAT"> T  </i>
  <i type="logical" name="LBERRY"> F  </i>
  <i type="int" name="ICORELEVEL">     0</i>
  <i type="logical" name="LDAU"> F  </i>
  <i type="int" name="I_CONSTRAINED_M">     0</i>
  <separator name="electronic exchange-correlation" >
   <i type="string" name="GGA">--</i>
   <i type="int" name="VOSKOWN">     0</i>
   <i type="logical" name="LHFCALC"> F  </i>
   <i type="string" name="PRECFOCK"></i>
   <i type="logical" name="LSYMGRAD"> F  </i>
   <i type="logical" name="LHFONE"> F  </i>
   <i type="logical" name="LRHFCALC"> F  </i>
   <i type="logical" name="LTHOMAS"> F  </i>
   <i type="logical" name="LMODELHF"> F  </i>
   <i name="ENCUT4O">     -1.00000000</i>
   <i type="int" name="EXXOEP">     0</i>
   <i type="int" name="FOURORBIT">     0</i>
   <i name="AEXX">      0.00000000</i>
   <i name="HFALPHA">      0.00000000</i>
   <i name="MCALPHA">      0.00000000</i>
   <i name="ALDAX">      1.00000000</i>
   <i name="AGGAX">      1.00000000</i>
   <i name="ALDAC">      1.00000000</i>
   <i name="AGGAC">      1.00000000</i>
   <i type="int" name="NKREDX">     1</i>
   <i type="int" name="NKREDY">     1</i>
   <i type="int" name="NKREDZ">     1</i>
   <i type="logical" name="SHIFTRED"> F  </i>
   <i type="logical" name="ODDONLY"> F  </i>
   <i type="logical" name="EVENONLY"> F  </i>
   <i type="int" name="LMAXFOCK">     0</i>
   <i type="int" name="NMAXFOCKAE">     0</i>
   <i type="logical" name="LFOCKAEDFT"> F  </i>
   <i name="HFSCREEN">      0.00000000</i>
   <i name="HFSCREENC">      0.00000000</i>
   <i type="int" name="NBANDSGWLOW">     0</i>
  </separator>
  <separator name="vdW DFT" >
   <i type="logical" name="LUSE_VDW"> F  </i>
   <i name="Zab_VDW">     -0.84910000</i>
   <i name="PARAM1">      0.12340000</i>
   <i name="PARAM2">      1.00000000</i>
   <i name="PARAM3">      0.00000000</i>
  </separator>
  <separator name="model GW" >
   <i type="int" name="MODEL_GW">     0</i>
   <i name="MODEL_EPS0">     11.58240521</i>
   <i name="MODEL_ALPHA">      1.00000000</i>
  </separator>
  <separator name="linear response parameters" >
   <i type="logical" name="LEPSILON"> F  </i>
   <i type="logical" name="LRPA"> F  </i>
   <i type="logical" name="LNABLA"> F  </i>
   <i type="logical" name="LVEL"> F  </i>
   <i type="int" name="KINTER">     0</i>
   <i name="CSHIFT">      0.10000000</i>
   <i name="OMEGAMAX">     -1.00000000</i>
   <i name="DEG_THRESHOLD">      0.00200000</i>
   <i name="RTIME">     -0.10000000</i>
   <i name="WPLASMAI">      0.00000000</i>
   <v name="DFIELD">      0.00000000      0.00000000      0.00000000</v>
   <v name="WPLASMA">      0.00000000      0.00000000      0.00000000      0.00000000      0.00000000      0.00000000      0.00000000      0.00000000      0.00000000</v>
  </separator>
  <separator name="orbital magnetization" >
   <i type="logical" name="NUCIND"> F  </i>
   <v name="MAGPOS">      0.00000000      0.00000000      0.00000000</v>
   <i type="logical" name="LNICSALL"> T  </i>
   <i type="logical" name="ORBITALMAG"> F  </i>
   <i type="logical" name="LMAGBLOCH"> F  </i>
   <i type="logical" name="LCHIMAG"> F  </i>
   <i type="logical" name="LGAUGE"> T  </i>
   <i type="int" name="MAGATOM">     0</i>
   <v name="MAGDIPOL">      0.00000000      0.00000000      0.00000000</v>
   <v name="AVECCONST">      0.00000000      0.00000000      0.00000000</v>
  </separator>
  <separator name="response functions" >
   <i type="logical" name="LADDER"> F  </i>
   <i type="logical" name="LRPAFORCE"> F  </i>
   <i type="logical" name="LFXC"> F  </i>
   <i type="logical" name="LHARTREE"> T  </i>
   <i type="int" name="IBSE">     0</i>
   <v type="int" name="KPOINT">    -1     0     0     0</v>
   <i type="logical" name="LTCTE"> F  </i>
   <i type="logical" name="LTETE"> F  </i>
   <i type="logical" name="LTRIPLET"> F  </i>
   <i type="logical" name="LFXCEPS"> F  </i>
   <i type="logical" name="LFXHEG"> F  </i>
   <i type="int" name="NATURALO">     2</i>
   <i type="logical" name="L2ORDER"> F  </i>
   <i type="logical" name="LMP2LT"> F  </i>
   <i type="logical" name="LUSEW"> F  </i>
   <i name="ENCUTGW">     -2.00000000</i>
   <i name="ENCUTGWSOFT">     -2.00000000</i>
   <i name="ENCUTLF">     -1.00000000</i>
   <i type="int" name="LMAXMP2">    -1</i>
   <i name="SCISSOR">      0.00000000</i>
   <i type="int" name="NOMEGA">     0</i>
   <i type="int" name="NOMEGAR">     0</i>
   <i type="int" name="NBANDSGW">    -1</i>
   <i type="int" name="NBANDSO">    -1</i>
   <i type="int" name="NBANDSV">    -1</i>
   <i type="int" name="NELM">     1</i>
   <i type="int" name="NELMHF">     1</i>
   <i type="int" name="DIM">     3</i>
   <i type="int" name="ANTIRES">     0</i>
   <i name="OMEGAMAX">    -30.00000000</i>
   <i name="OMEGAMIN">    -30.00000000</i>
   <i name="OMEGATL">   -200.00000000</i>
   <i type="int" name="OMEGAGRID">   140</i>
   <i name="CSHIFT">     -0.10000000</i>
   <i type="logical" name="SELFENERGY"> F  </i>
   <i type="logical" name="LSPECTRAL"> F  </i>
   <i type="logical" name="LSPECTRALGW"> F  </i>
   <i type="logical" name="LSINGLES"> F  </i>
   <i type="logical" name="LFERMIGW"> F  </i>
   <i type="logical" name="ODDONLYGW"> F  </i>
   <i type="logical" name="EVENONLYGW"> F  </i>
   <i type="int" name="NKREDLFX">     1</i>
   <i type="int" name="NKREDLFY">     1</i>
   <i type="int" name="NKREDLFZ">     1</i>
   <i type="int" name="MAXMEM">  2800</i>
   <i type="int" name="TELESCOPE">     0</i>
   <i type="int" name="TAUPAR">     1</i>
   <i type="int" name="OMEGAPAR">    -1</i>
   <i name="LAMBDA">      1.00000000</i>
  </separator>
  <separator name="External order field" >
   <i name="OFIELD_KAPPA">      0.00000000</i>
   <v name="OFIELD_K">      0.00000000      0.00000000      0.00000000</v>
   <i name="OFIELD_Q6_NEAR">      0.00000000</i>
   <i name="OFIELD_Q6_FAR">      0.00000000</i>
   <i name="OFIELD_A">      0.00000000</i>
  </separator>
 </parameters>
 <atominfo>
  <atoms>      62 </atoms>
  <types>       5 </types>
  <array name="atoms" >
   <dimension dim="1">ion</dimension>
   <field type="string">element</field>
   <field type="int">atomtype</field>
   <set>
    <rc><c>Li</c><c>   1</c></rc>
    <rc><c>Li</c><c>   1</c></rc>
    <rc><c>Li</c><c>   1</c></rc>
    <rc><c>Li</c><c>   1</c></rc>
    <rc><c>Li</c><c>   1</c></rc>
    <rc><c>Li</c><c>   1</c></rc>
    <rc><c>Li</c><c>   1</c></rc>
    <rc><c>Li</c><c>   1</c></rc>
    <rc><c>Li</c><c>   1</c></rc>
    <rc><c>Li</c><c>   1</c></rc>
    <rc><c>Li</c><c>   1</c></rc>
    <rc><c>Li</c><c>   1</c></rc>
    <rc><c>Mg</c><c>   2</c></rc>
    <rc><c>Mg</c><c>   2</c></rc>
    <rc><c>Bi</c><c>   3</c></rc>
    <rc><c>Bi</c><c>   3</c></rc>
    <rc><c>Bi</c><c>   3</c></rc>
    <rc><c>Bi</c><c>   3</c></rc>
    <rc><c>Bi</c><c>   3</c></rc>
    <rc><c>Bi</c><c>   3</c></rc>
    <rc><c>Bi</c><c>   3</c></rc>
    <rc><c>Bi</c><c>   3</c></rc>
    <rc><c>Bi</c><c>   3</c></rc>
    <rc><c>Bi</c><c>   3</c></rc>
    <rc><c>Bi</c><c>   3</c></rc>
    <rc><c>Bi</c><c>   3</c></rc>
    <rc><c>Bi</c><c>   3</c></rc>
    <rc><c>Bi</c><c>   3</c></rc>
    <rc><c>Bi</c><c>   3</c></rc>
    <rc><c>Bi</c><c>   3</c></rc>
    <rc><c>S </c><c>   4</c></rc>
    <rc><c>S </c><c>   4</c></rc>
    <rc><c>S </c><c>   4</c></rc>
    <rc><c>S </c><c>   4</c></rc>
    <rc><c>S </c><c>   4</c></rc>
    <rc><c>S </c><c>   4</c></rc>
    <rc><c>S </c><c>   4</c></rc>
    <rc><c>S </c><c>   4</c></rc>
    <rc><c>S </c><c>   4</c></rc>
    <rc><c>S </c><c>   4</c></rc>
    <rc><c>S </c><c>   4</c></rc>
    <rc><c>S </c><c>   4</c></rc>
    <rc><c>S </c><c>   4</c></rc>
    <rc><c>S </c><c>   4</c></rc>
    <rc><c>S </c><c>   4</c></rc>
    <rc><c>S </c><c>   4</c></rc>
    <rc><c>O </c><c>   5</c></rc>
    <rc><c>O </c><c>   5</c></rc>
    <rc><c>O </c><c>   5</c></rc>
    <rc><c>O </c><c>   5</c></rc>
    <rc><c>O </c><c>   5</c></rc>
    <rc><c>O </c><c>   5</c></rc>
    <rc><c>O </c><c>   5</c></rc>
    <rc><c>O </c><c>   5</c></rc>
    <rc><c>O </c><c>   5</c></rc>
    <rc><c>O </c><c>   5</c></rc>
    <rc><c>O </c><c>   5</c></rc>
    <rc><c>O </c><c>   5</c></rc>
    <rc><c>O </c><c>   5</c></rc>
    <rc><c>O </c><c>   5</c></rc>
    <rc><c>O </c><c>   5</c></rc>
    <rc><c>O </c><c>   5</c></rc>
   </set>
  </array>
  <array name="atomtypes" >
   <dimension dim="1">type</dimension>
   <field type="int">atomspertype</field>
   <field type="string">element</field>
   <field>mass</field>
   <field>valence</field>
   <field type="string">pseudopotential</field>
   <set>
    <rc><c>  12</c><c>Li</c><c>      7.01000000</c><c>      3.00000000</c><c>  PAW_PBE Li_sv 10Sep2004               </c></rc>
    <rc><c>   2</c><c>Mg</c><c>     24.30500000</c><c>      2.00000000</c><c>  PAW_PBE Mg 13Apr2007                  </c></rc>
    <rc><c>  16</c><c>Bi</c><c>    208.98000000</c><c>     15.00000000</c><c>  PAW_PBE Bi_d 06Sep2000                </c></rc>
    <rc><c>  16</c><c>S </c><c>     32.06600000</c><c>      6.00000000</c><c>  PAW_PBE S 06Sep2000                   </c></rc>
    <rc><c>  16</c><c>O </c><c>     16.00000000</c><c>      6.00000000</c><c>  PAW_PBE O 08Apr2002                   </c></rc>
   </set>
  </array>
 </atominfo>
 <structure name="initialpos" >
  <crystal>
   <varray name="basis" >
    <v>      11.17850000       0.00000000       0.00000000 </v>
    <v>       0.00000000       9.57460000       0.00000000 </v>
    <v>       0.00000000       0.00000000      11.18240000 </v>
   </varray>
   <i name="volume">   1196.84853820 </i>
   <varray name="rec_basis" >
    <v>       0.08945744       0.00000000       0.00000000 </v>
    <v>       0.00000000       0.10444301       0.00000000 </v>
    <v>       0.00000000       0.00000000       0.08942624 </v>
   </varray>
  </crystal>
  <varray name="positions" >
   <v>       0.37539000       0.00017000       0.43687000 </v>
   <v>       0.12461000       0.99984000       0.18687000 </v>
   <v>       0.37461000       0.00017000       0.18687000 </v>
   <v>       0.62539000       0.99984000       0.43687000 </v>
   <v>       0.87539000       0.00017000       0.43687000 </v>
   <v>       0.87461000       0.00017000       0.18687000 </v>
   <v>       0.37539000       0.00017000       0.93687000 </v>
   <v>       0.12461000       0.99984000       0.68687000 </v>
   <v>       0.37461000       0.00017000       0.68687000 </v>
   <v>       0.62539000       0.99984000       0.93687000 </v>
   <v>       0.62461000       0.99984000       0.68687000 </v>
   <v>       0.87461000       0.00017000       0.68687000 </v>
   <v>       0.62461000       0.99984000       0.18687000 </v>
   <v>       0.87539000       0.00017000       0.93687000 </v>
   <v>       0.00013000       0.29519000       0.06281000 </v>
   <v>       0.25013000       0.70481000       0.06281000 </v>
   <v>       0.24987000       0.29519000       0.31282000 </v>
   <v>       0.49987000       0.70481000       0.31282000 </v>
   <v>       0.50013000       0.29519000       0.06281000 </v>
   <v>       0.75013000       0.70481000       0.06281000 </v>
   <v>       0.74987000       0.29519000       0.31282000 </v>
   <v>       0.99987000       0.70481000       0.31282000 </v>
   <v>       0.00013000       0.29519000       0.56281000 </v>
   <v>       0.25013000       0.70481000       0.56281000 </v>
   <v>       0.24987000       0.29519000       0.81282000 </v>
   <v>       0.49987000       0.70481000       0.81282000 </v>
   <v>       0.50013000       0.29519000       0.56281000 </v>
   <v>       0.75013000       0.70481000       0.56281000 </v>
   <v>       0.74987000       0.29519000       0.81282000 </v>
   <v>       0.99987000       0.70481000       0.81282000 </v>
   <v>       0.25005000       0.32677000       0.06286000 </v>
   <v>       0.00005000       0.67323000       0.06286000 </v>
   <v>       0.49995000       0.32677000       0.31286000 </v>
   <v>       0.24995000       0.67323000       0.31286000 </v>
   <v>       0.75005000       0.32677000       0.06286000 </v>
   <v>       0.50005000       0.67323000       0.06286000 </v>
   <v>       0.99995000       0.32677000       0.31286000 </v>
   <v>       0.74995000       0.67323000       0.31286000 </v>
   <v>       0.25005000       0.32677000       0.56286000 </v>
   <v>       0.00005000       0.67323000       0.56286000 </v>
   <v>       0.49995000       0.32677000       0.81286000 </v>
   <v>       0.24995000       0.67323000       0.81286000 </v>
   <v>       0.75005000       0.32677000       0.56286000 </v>
   <v>       0.50005000       0.67323000       0.56286000 </v>
   <v>       0.99995000       0.32677000       0.81286000 </v>
   <v>       0.74995000       0.67323000       0.81286000 </v>
   <v>       0.49987000       0.07798000       0.06246000 </v>
   <v>       0.24987000       0.92202000       0.06246000 </v>
   <v>       0.25013000       0.07798000       0.31246000 </v>
   <v>       0.00013000       0.92202000       0.31246000 </v>
   <v>       0.99987000       0.07798000       0.06246000 </v>
   <v>       0.74987000       0.92202000       0.06246000 </v>
   <v>       0.75013000       0.07798000       0.31246000 </v>
   <v>       0.50013000       0.92202000       0.31246000 </v>
   <v>       0.49987000       0.07798000       0.56246000 </v>
   <v>       0.24987000       0.92202000       0.56246000 </v>
   <v>       0.25013000       0.07798000       0.81246000 </v>
   <v>       0.00013000       0.92202000       0.81246000 </v>
   <v>       0.99987000       0.07798000       0.56246000 </v>
   <v>       0.74987000       0.92202000       0.56246000 </v>
   <v>       0.75013000       0.07798000       0.81246000 </v>
   <v>       0.50013000       0.92202000       0.81246000 </v>
  </varray>
 </structure>
 <calculation>
  <scstep>
   <time name="dav">   66.39   66.68</time>
   <time name="total">   66.48   66.77</time>
   <energy>
    <i name="alphaZ">   1079.87189334 </i>
    <i name="ewald"> -31116.93996136 </i>
    <i name="hartreedc"> -12708.33042844 </i>
    <i name="XCdc">   1468.89824145 </i>
    <i name="pawpsdc">  36917.91861236 </i>
    <i name="pawaedc"> -36503.41947684 </i>
    <i name="eentropy">      0.00000000 </i>
    <i name="bandstr">   1590.18853930 </i>
    <i name="atom">  45173.57650906 </i>
    <i name="e_fr_energy">   5901.76392888 </i>
    <i name="e_wo_entrp">   5901.76392888 </i>
    <i name="e_0_energy">   5901.76392888 </i>
   </energy>
  </scstep>
  <scstep>
   <time name="dav">   66.27   66.80</time>
   <time name="total">   66.28   66.81</time>
   <energy>
    <i name="e_fr_energy">    756.34479041 </i>
    <i name="e_wo_entrp">    756.34479041 </i>
    <i name="e_0_energy">    756.34479041 </i>
   </energy>
  </scstep>
  <scstep>
   <time name="dav">   72.68   73.76</time>
   <time name="total">   72.68   73.76</time>
   <energy>
    <i name="e_fr_energy">   -242.75909097 </i>
    <i name="e_wo_entrp">   -242.75909097 </i>
    <i name="e_0_energy">   -242.75909097 </i>
   </energy>
  </scstep>
  <scstep>
   <time name="dav">   82.96   83.91</time>
   <time name="total">   82.96   83.91</time>
   <energy>
    <i name="e_fr_energy">   -352.47392903 </i>
    <i name="e_wo_entrp">   -352.47392903 </i>
    <i name="e_0_energy">   -352.47392903 </i>
   </energy>
  </scstep>
  <scstep>
   <time name="dav">  106.22  107.21</time>
   <time name="total">  106.97  107.96</time>
   <energy>
    <i name="e_fr_energy">   -360.70978652 </i>
    <i name="e_wo_entrp">   -360.70978652 </i>
    <i name="e_0_energy">   -360.70978652 </i>
   </energy>
  </scstep>
  <scstep>
   <time name="dav">   94.39   95.45</time>
   <time name="total">   95.20   96.27</time>
   <energy>
    <i name="e_fr_energy">   -300.43157081 </i>
    <i name="e_wo_entrp">   -300.43157081 </i>
    <i name="e_0_energy">   -300.43157081 </i>
   </energy>
  </scstep>
  <scstep>
   <time name="dav">   72.68   73.14</time>
   <time name="total">   73.55   74.02</time>
   <energy>
    <i name="e_fr_energy">   -302.58260877 </i>
    <i name="e_wo_entrp">   -302.58260877 </i>
    <i name="e_0_energy">   -302.58260877 </i>
   </energy>
  </scstep>
  <scstep>
   <time name="dav">   84.50   85.18</time>
   <time name="total">   85.31   86.00</time>
   <energy>
    <i name="e_fr_energy">   -301.14797893 </i>
    <i name="e_wo_entrp">   -301.14797893 </i>
    <i name="e_0_energy">   -301.14797893 </i>
   </energy>
  </scstep>
  <scstep>
   <time name="dav">   90.21   90.45</time>
   <time name="total">   91.05   91.31</time>
   <energy>
    <i name="e_fr_energy">   -300.53359460 </i>
    <i name="e_wo_entrp">   -300.53359460 </i>
    <i name="e_0_energy">   -300.53359460 </i>
   </energy>
  </scstep>
  <scstep>
   <time name="dav">   79.62   80.18</time>
   <time name="total">   80.46   81.02</time>
   <energy>
    <i name="e_fr_energy">   -300.48459062 </i>
    <i name="e_wo_entrp">   -300.48459062 </i>
    <i name="e_0_energy">   -300.48459062 </i>
   </energy>
  </scstep>
  <scstep>
   <time name="dav">   86.47   87.88</time>
   <time name="total">   87.29   88.71</time>
   <energy>
    <i name="e_fr_energy">   -300.49778955 </i>
    <i name="e_wo_entrp">   -300.49778955 </i>
    <i name="e_0_energy">   -300.49778955 </i>
   </energy>
  </scstep>
  <scstep>
   <time name="dav">   81.59   82.51</time>
   <time name="total">   82.39   83.34</time>
   <energy>
    <i name="e_fr_energy">   -300.50295487 </i>
    <i name="e_wo_entrp">   -300.50295487 </i>
    <i name="e_0_energy">   -300.50295487 </i>
   </energy>
  </scstep>
  <scstep>
   <time name="dav">   88.22   89.12</time>
   <time name="total">   89.05   89.96</time>
   <energy>
    <i name="e_fr_energy">   -300.50358304 </i>
    <i name="e_wo_entrp">   -300.50358304 </i>
    <i name="e_0_energy">   -300.50358304 </i>
   </energy>
  </scstep>
  <scstep>
   <time name="dav">   72.45   72.57</time>
   <time name="total">   73.26   73.38</time>
   <energy>
    <i name="e_fr_energy">   -300.50389983 </i>
    <i name="e_wo_entrp">   -300.50389983 </i>
    <i name="e_0_energy">   -300.50389983 </i>
   </energy>
  </scstep>
  <scstep>
   <time name="dav">  104.12  104.30</time>
   <time name="total">  104.93  105.11</time>
   <energy>
    <i name="e_fr_energy">   -300.50392969 </i>
    <i name="e_wo_entrp">   -300.50392969 </i>
    <i name="e_0_energy">   -300.50392969 </i>
   </energy>
  </scstep>
  <scstep>
   <time name="dav">   71.71   72.46</time>
   <time name="total">   72.53   73.28</time>
   <energy>
    <i name="e_fr_energy">   -300.50394235 </i>
    <i name="e_wo_entrp">   -300.50394235 </i>
    <i name="e_0_energy">   -300.50394235 </i>
   </energy>
  </scstep>
  <scstep>
   <time name="dav">   72.33   72.80</time>
   <time name="total">   73.14   73.61</time>
   <energy>
    <i name="e_fr_energy">   -300.50394633 </i>
    <i name="e_wo_entrp">   -300.50394633 </i>
    <i name="e_0_energy">   -300.50394633 </i>
   </energy>
  </scstep>
  <scstep>
   <time name="dav">   60.39   60.73</time>
   <time name="total">   60.47   60.81</time>
   <energy>
    <i name="alphaZ">   1079.87189334 </i>
    <i name="ewald"> -31116.93996136 </i>
    <i name="hartreedc"> -12941.22357793 </i>
    <i name="XCdc">   1491.72412604 </i>
    <i name="pawpsdc">  43946.69837960 </i>
    <i name="pawaedc"> -43507.94725648 </i>
    <i name="eentropy">      0.00000000 </i>
    <i name="bandstr">  -4426.26405882 </i>
    <i name="atom">  45173.57650906 </i>
    <i name="e_fr_energy">   -300.50394654 </i>
    <i name="e_wo_entrp">   -300.50394654 </i>
    <i name="e_0_energy">   -300.50394654 </i>
   </energy>
  </scstep>
  <structure>
   <crystal>
    <varray name="basis" >
     <v>      11.17850000       0.00000000       0.00000000 </v>
     <v>       0.00000000       9.57460000       0.00000000 </v>
     <v>       0.00000000       0.00000000      11.18240000 </v>
    </varray>
    <i name="volume">   1196.84853820 </i>
    <varray name="rec_basis" >
     <v>       0.08945744       0.00000000       0.00000000 </v>
     <v>       0.00000000       0.10444301       0.00000000 </v>
     <v>       0.00000000       0.00000000       0.08942624 </v>
    </varray>
   </crystal>
   <varray name="positions" >
    <v>       0.37539000       0.00017000       0.43687000 </v>
    <v>       0.12461000       0.99984000       0.18687000 </v>
    <v>       0.37461000       0.00017000       0.18687000 </v>
    <v>       0.62539000       0.99984000       0.43687000 </v>
    <v>       0.87539000       0.00017000       0.43687000 </v>
    <v>       0.87461000       0.00017000       0.18687000 </v>
    <v>       0.37539000       0.00017000       0.93687000 </v>
    <v>       0.12461000       0.99984000       0.68687000 </v>
    <v>       0.37461000       0.00017000       0.68687000 </v>
    <v>       0.62539000       0.99984000       0.93687000 </v>
    <v>       0.62461000       0.99984000       0.68687000 </v>
    <v>       0.87461000       0.00017000       0.68687000 </v>
    <v>       0.62461000       0.99984000       0.18687000 </v>
    <v>       0.87539000       0.00017000       0.93687000 </v>
    <v>       0.00013000       0.29519000       0.06281000 </v>
    <v>       0.25013000       0.70481000       0.06281000 </v>
    <v>       0.24987000       0.29519000       0.31282000 </v>
    <v>       0.49987000       0.70481000       0.31282000 </v>
    <v>       0.50013000       0.29519000       0.06281000 </v>
    <v>       0.75013000       0.70481000       0.06281000 </v>
    <v>       0.74987000       0.29519000       0.31282000 </v>
    <v>       0.99987000       0.70481000       0.31282000 </v>
    <v>       0.00013000       0.29519000       0.56281000 </v>
    <v>       0.25013000       0.70481000       0.56281000 </v>
    <v>       0.24987000       0.29519000       0.81282000 </v>
    <v>       0.49987000       0.70481000       0.81282000 </v>
    <v>       0.50013000       0.29519000       0.56281000 </v>
    <v>       0.75013000       0.70481000       0.56281000 </v>
    <v>       0.74987000       0.29519000       0.81282000 </v>
    <v>       0.99987000       0.70481000       0.81282000 </v>
    <v>       0.25005000       0.32677000       0.06286000 </v>
    <v>       0.00005000       0.67323000       0.06286000 </v>
    <v>       0.49995000       0.32677000       0.31286000 </v>
    <v>       0.24995000       0.67323000       0.31286000 </v>
    <v>       0.75005000       0.32677000       0.06286000 </v>
    <v>       0.50005000       0.67323000       0.06286000 </v>
    <v>       0.99995000       0.32677000       0.31286000 </v>
    <v>       0.74995000       0.67323000       0.31286000 </v>
    <v>       0.25005000       0.32677000       0.56286000 </v>
    <v>       0.00005000       0.67323000       0.56286000 </v>
    <v>       0.49995000       0.32677000       0.81286000 </v>
    <v>       0.24995000       0.67323000       0.81286000 </v>
    <v>       0.75005000       0.32677000       0.56286000 </v>
    <v>       0.50005000       0.67323000       0.56286000 </v>
    <v>       0.99995000       0.32677000       0.81286000 </v>
    <v>       0.74995000       0.67323000       0.81286000 </v>
    <v>       0.49987000       0.07798000       0.06246000 </v>
    <v>       0.24987000       0.92202000       0.06246000 </v>
    <v>       0.25013000       0.07798000       0.31246000 </v>
    <v>       0.00013000       0.92202000       0.31246000 </v>
    <v>       0.99987000       0.07798000       0.06246000 </v>
    <v>       0.74987000       0.92202000       0.06246000 </v>
    <v>       0.75013000       0.07798000       0.31246000 </v>
    <v>       0.50013000       0.92202000       0.31246000 </v>
    <v>       0.49987000       0.07798000       0.56246000 </v>
    <v>       0.24987000       0.92202000       0.56246000 </v>
    <v>       0.25013000       0.07798000       0.81246000 </v>
    <v>       0.00013000       0.92202000       0.81246000 </v>
    <v>       0.99987000       0.07798000       0.56246000 </v>
    <v>       0.74987000       0.92202000       0.56246000 </v>
    <v>       0.75013000       0.07798000       0.81246000 </v>
    <v>       0.50013000       0.92202000       0.81246000 </v>
   </varray>
  </structure>
  <varray name="forces" >
   <v>      -0.69276406       0.07031496       0.13424696 </v>
   <v>       0.13387326      -0.06954947       0.11977366 </v>
   <v>      -0.91807368      -0.00430264       0.04623439 </v>
   <v>      -0.04677886      -0.00128168       0.54206128 </v>
   <v>       0.67275497      -0.07404395       0.13522056 </v>
   <v>       0.92722965       0.00122898       0.52280812 </v>
   <v>      -0.69701491      -0.07363380      -0.12331709 </v>
   <v>       0.13320026       0.06714916      -0.10951741 </v>
   <v>      -0.42579661       0.00074068      -0.03329705 </v>
   <v>      -0.53712888      -0.00463672      -0.53091748 </v>
   <v>      -0.11652624      -0.06936490      -0.12190472 </v>
   <v>       0.43556003      -0.00855571      -0.51005590 </v>
   <v>      -0.24024670       0.11350119       0.29595684 </v>
   <v>       1.38372350       0.11066434      -0.23967114 </v>
   <v>       0.61299973       0.04775899       0.00953611 </v>
   <v>      -0.26835831       0.98612664      -0.11557230 </v>
   <v>      -0.31570723      -1.02018375       0.25778078 </v>
   <v>      -0.50514444      -1.07639237       0.28269629 </v>
   <v>      -0.57734848       1.10881059      -0.14240497 </v>
   <v>       0.21431594      -2.05739548       0.00517230 </v>
   <v>       0.35495101       1.10482369       0.34617132 </v>
   <v>       0.47836343       0.99730312       0.30726452 </v>
   <v>       0.41211376      -1.02294226      -0.17378447 </v>
   <v>      -0.27247104       1.05107608      -0.11581268 </v>
   <v>      -0.19703780      -1.03868692      -0.04491044 </v>
   <v>      -0.40902215      -0.04905105      -0.22062518 </v>
   <v>      -0.36409473       0.02423756       0.06814697 </v>
   <v>       0.19129053      -0.06616567       0.00153565 </v>
   <v>       0.06446797       1.09421131      -0.36723195 </v>
   <v>       0.57464993      -0.00283076      -0.16772581 </v>
   <v>       0.19893976       0.20236861       0.00570816 </v>
   <v>      -0.48158762      -0.11373000      -0.13731701 </v>
   <v>       0.36791306       0.08470684      -0.20887615 </v>
   <v>       0.29684035      -0.22804173      -0.07768292 </v>
   <v>      -0.15080472      -0.04215430       0.00374759 </v>
   <v>       0.43195644      -0.04407878       0.12665043 </v>
   <v>      -0.36859721       0.18660833      -0.18475080 </v>
   <v>      -0.28512956      -0.04987059      -0.26763379 </v>
   <v>       0.20128925       0.26105052       0.00073253 </v>
   <v>      -0.27721472      -0.22295282       0.11037186 </v>
   <v>       0.32746786       0.14833289       0.16720225 </v>
   <v>       0.10980892      -0.23713696       0.06599572 </v>
   <v>      -0.16224023       0.15260976      -0.00575251 </v>
   <v>       0.24136025      -0.18562376      -0.08707936 </v>
   <v>      -0.41411309       0.14766176       0.21512893 </v>
   <v>      -0.02669686      -0.05943686       0.27034717 </v>
   <v>       0.90409914      -0.96600988       0.56427438 </v>
   <v>       0.78578429      -0.81062565       0.58039458 </v>
   <v>       0.81505469       0.85383795      -0.64720926 </v>
   <v>      -0.90467180      -0.78236122      -0.72073691 </v>
   <v>      -1.50837086      -0.05902313       0.02359833 </v>
   <v>      -0.17322198       1.65857295      -0.00141115 </v>
   <v>      -0.73801070      -0.96962009      -0.76837975 </v>
   <v>       0.81016251       0.90095207      -0.67386463 </v>
   <v>       0.25193804      -0.03526288      -0.08106625 </v>
   <v>       0.74479438      -0.92210308       0.57286615 </v>
   <v>       0.69491255       0.89375556      -0.50209328 </v>
   <v>      -1.42779213      -0.02682571       0.05097155 </v>
   <v>      -0.81241809       0.85673141       0.64668696 </v>
   <v>      -0.15249134       0.10228280      -0.00251362 </v>
   <v>       0.37175992      -0.93356668       0.73694498 </v>
   <v>       0.32329969       0.10002250       0.16688862 </v>
  </varray>
  <varray name="stress" >
   <v>      -8.59582649      -0.11287222      -0.45311376 </v>
   <v>      -0.11287224     -14.11669355      -0.15283156 </v>
   <v>      -0.45311385      -0.15283170      -7.15187472 </v>
  </varray>
  <energy>
   <i name="e_fr_energy">   -316.34632466 </i>
   <i name="e_wo_entrp">   -316.34632466 </i>
   <i name="e_0_energy">      0.00000000 </i>
  </energy>
  <time name="totalsc"> 1589.75 1602.66</time>
 </calculation>
 <calculation>
  <scstep>
   <time name="dav">   68.78   69.20</time>
   <time name="total">   69.61   70.03</time>
   <energy>
    <i name="alphaZ">   1098.84147753 </i>
    <i name="ewald"> -31291.41450847 </i>
    <i name="hartreedc"> -13015.81116796 </i>
    <i name="XCdc">   1502.02118740 </i>
    <i name="pawpsdc">  43946.72122508 </i>
    <i name="pawaedc"> -43507.97404922 </i>
    <i name="eentropy">      0.00000000 </i>
    <i name="bandstr">  -4205.99755590 </i>
    <i name="atom">  45173.57650906 </i>
    <i name="e_fr_energy">   -300.03688249 </i>
    <i name="e_wo_entrp">   -300.03688249 </i>
    <i name="e_0_energy">   -300.03688249 </i>
   </energy>
  </scstep>
  <scstep>
   <time name="dav">   75.58   75.79</time>
   <time name="total">   76.42   76.63</time>
   <energy>
    <i name="e_fr_energy">   -301.84466065 </i>
    <i name="e_wo_entrp">   -301.84466065 </i>
    <i name="e_0_energy">   -301.84466065 </i>
   </energy>
  </scstep>
  <scstep>
   <time name="dav">   96.68   96.92</time>
   <time name="total">   97.51   97.76</time>
   <energy>
    <i name="e_fr_energy">   -301.59674376 </i>
    <i name="e_wo_entrp">   -301.59674376 </i>
    <i name="e_0_energy">   -301.59674376 </i>
   </energy>
  </scstep>
  <scstep>
   <time name="dav">   88.01   88.16</time>
   <time name="total">   88.83   89.01</time>
   <energy>
    <i name="e_fr_energy">   -301.48806942 </i>
    <i name="e_wo_entrp">   -301.48806942 </i>
    <i name="e_0_energy">   -301.48806942 </i>
   </energy>
  </scstep>
  <scstep>
   <time name="dav">   84.66   85.18</time>
   <time name="total">   85.50   86.02</time>
   <energy>
    <i name="e_fr_energy">   -301.49104781 </i>
    <i name="e_wo_entrp">   -301.49104781 </i>
    <i name="e_0_energy">   -301.49104781 </i>
   </energy>
  </scstep>
  <scstep>
   <time name="dav">  101.17  101.83</time>
   <time name="total">  101.99  102.66</time>
   <energy>
    <i name="e_fr_energy">   -301.48926865 </i>
    <i name="e_wo_entrp">   -301.48926865 </i>
    <i name="e_0_energy">   -301.48926865 </i>
   </energy>
  </scstep>
  <scstep>
   <time name="dav">   80.46   80.98</time>
   <time name="total">   81.31   81.83</time>
   <energy>
    <i name="e_fr_energy">   -301.48812341 </i>
    <i name="e_wo_entrp">   -301.48812341 </i>
    <i name="e_0_energy">   -301.48812341 </i>
   </energy>
  </scstep>
  <scstep>
   <time name="dav">   97.12   97.73</time>
   <time name="total">   97.85   98.62</time>
   <energy>
    <i name="e_fr_energy">   -301.48812870 </i>
    <i name="e_wo_entrp">   -301.48812870 </i>
    <i name="e_0_energy">   -301.48812870 </i>
   </energy>
  </scstep>
  <scstep>
   <time name="dav">   77.80   78.55</time>
   <time name="total">   78.61   79.40</time>
   <energy>
    <i name="e_fr_energy">   -301.48818132 </i>
    <i name="e_wo_entrp">   -301.48818132 </i>
    <i name="e_0_energy">   -301.48818132 </i>
   </energy>
  </scstep>
  <scstep>
   <time name="dav">   86.58   88.03</time>
   <time name="total">   87.40   88.87</time>
   <energy>
    <i name="e_fr_energy">   -301.48818470 </i>
    <i name="e_wo_entrp">   -301.48818470 </i>
    <i name="e_0_energy">   -301.48818470 </i>
   </energy>
  </scstep>
  <scstep>
   <time name="dav">   76.15   76.59</time>
   <time name="total">   76.99   77.43</time>
   <energy>
    <i name="e_fr_energy">   -301.48818425 </i>
    <i name="e_wo_entrp">   -301.48818425 </i>
    <i name="e_0_energy">   -301.48818425 </i>
   </energy>
  </scstep>
  <scstep>
   <time name="dav">   72.90   73.41</time>
   <time name="total">   72.97   73.49</time>
   <energy>
    <i name="alphaZ">   1098.84147753 </i>
    <i name="ewald"> -31291.41450847 </i>
    <i name="hartreedc"> -12855.94396460 </i>
    <i name="XCdc">   1494.62965199 </i>
    <i name="pawpsdc">  44332.22485607 </i>
    <i name="pawaedc"> -43896.48016510 </i>
    <i name="eentropy">      0.00000000 </i>
    <i name="bandstr">  -4356.92204086 </i>
    <i name="atom">  45173.57650906 </i>
    <i name="e_fr_energy">   -301.48818436 </i>
    <i name="e_wo_entrp">   -301.48818436 </i>
    <i name="e_0_energy">   -301.48818436 </i>
   </energy>
  </scstep>
  <structure>
   <crystal>
    <varray name="basis" >
     <v>      11.12264793      -0.00073340      -0.00294414 </v>
     <v>      -0.00062817       9.49603633      -0.00085055 </v>
     <v>      -0.00294517      -0.00099338      11.13591391 </v>
    </varray>
    <i name="volume">   1176.18703281 </i>
    <varray name="rec_basis" >
     <v>       0.08990666       0.00000595       0.00002378 </v>
     <v>       0.00000695       0.10530710       0.00000940 </v>
     <v>       0.00002377       0.00000804       0.08979955 </v>
    </varray>
   </crystal>
   <varray name="positions" >
    <v>       0.37240026       0.00052429       0.43744916 </v>
    <v>       0.12518775       0.99948957       0.18738672 </v>
    <v>       0.37064790       0.00014832       0.18706946 </v>
    <v>       0.62518812       0.99983354       0.43920854 </v>
    <v>       0.87829338      -0.00020308       0.43745336 </v>
    <v>       0.87861161       0.00017619       0.18912548 </v>
    <v>       0.37238192      -0.00020101       0.93633799 </v>
    <v>       0.12518485       0.00017834       0.68639752 </v>
    <v>       0.37277240       0.00017373       0.68672635 </v>
    <v>       0.62307193       0.99981664       0.93457954 </v>
    <v>       0.62410711       0.99949050       0.68634408 </v>
    <v>       0.87648973       0.00012689       0.68466954 </v>
    <v>       0.62357318       0.00041189       0.18814680 </v>
    <v>       0.88136169       0.00072759       0.93583602 </v>
    <v>       0.00277550       0.29543064       0.06285114 </v>
    <v>       0.24897186       0.70977871       0.06231140 </v>
    <v>       0.24850751       0.29004969       0.31393211 </v>
    <v>       0.49768997       0.69938648       0.31403960 </v>
    <v>       0.49763836       0.30077686       0.06219564 </v>
    <v>       0.75105492       0.69444359       0.06283231 </v>
    <v>       0.75140185       0.30075677       0.31431344 </v>
    <v>       0.00193446       0.70983502       0.31414559 </v>
    <v>       0.00190854       0.29003580       0.56206027 </v>
    <v>       0.24895411       0.71010596       0.56231037 </v>
    <v>       0.24901965       0.28995646       0.81262625 </v>
    <v>       0.49810480       0.70456285       0.81186819 </v>
    <v>       0.49855869       0.29531212       0.56310400 </v>
    <v>       0.75095555       0.70447662       0.56281663 </v>
    <v>       0.75014822       0.30070330       0.81123570 </v>
    <v>       0.00235000       0.70479574       0.81209640 </v>
    <v>       0.25090856       0.32778966       0.06288463 </v>
    <v>      -0.00202837       0.67265696       0.06226759 </v>
    <v>       0.50153779       0.32719680       0.31195888 </v>
    <v>       0.25123106       0.67208099       0.31252486 </v>
    <v>       0.74939918       0.32655760       0.06287617 </v>
    <v>       0.50191418       0.67300790       0.06340639 </v>
    <v>       0.99835926       0.32771025       0.31206296 </v>
    <v>       0.74871948       0.67297872       0.31170539 </v>
    <v>       0.25091870       0.32808533       0.56286316 </v>
    <v>      -0.00114637       0.67210663       0.56333616 </v>
    <v>       0.50136324       0.32751739       0.81358134 </v>
    <v>       0.25042390       0.67203516       0.81314472 </v>
    <v>       0.74934983       0.32753894       0.56283518 </v>
    <v>       0.50109163       0.67229471       0.56248433 </v>
    <v>       0.99816283       0.32751401       0.81378810 </v>
    <v>       0.74983479       0.67293052       0.81402632 </v>
    <v>       0.50377179       0.07311266       0.06489437 </v>
    <v>       0.25326118       0.91793558       0.06496391 </v>
    <v>       0.25364750       0.08228215       0.30966784 </v>
    <v>      -0.00377426       0.91807799       0.30935063 </v>
    <v>       0.99336038       0.07768261       0.06256181 </v>
    <v>       0.74912243       0.93037690       0.06245391 </v>
    <v>       0.74694499       0.07309446       0.30914509 </v>
    <v>       0.50362639       0.92655954       0.30955284 </v>
    <v>       0.50095728       0.07780232       0.56211027 </v>
    <v>       0.25308428       0.91737388       0.56493144 </v>
    <v>       0.25312901       0.08248328       0.81029389 </v>
    <v>      -0.00603187       0.92188484       0.81267990 </v>
    <v>       0.99636388       0.08229673       0.56524991 </v>
    <v>       0.74921190       0.92253536       0.56244916 </v>
    <v>       0.75173439       0.07327612       0.81563930 </v>
    <v>       0.50152525       0.92252397       0.81317998 </v>
   </varray>
  </structure>
  <varray name="forces" >
   <v>      -0.36682560       0.03574934       0.02397700 </v>
   <v>       0.03120053      -0.03624892       0.03036174 </v>
   <v>      -0.40413938      -0.00293739       0.02215512 </v>
   <v>      -0.02569140      -0.00120411       0.26041464 </v>
   <v>       0.34095872      -0.04472419       0.02170167 </v>
   <v>       0.35666716       0.00537416       0.24685237 </v>
   <v>      -0.37048107      -0.04752440      -0.00749106 </v>
   <v>       0.03439855       0.03213860      -0.02678697 </v>
   <v>      -0.19091192       0.00150000      -0.01338454 </v>
   <v>      -0.18394267       0.00313721      -0.21292291 </v>
   <v>       0.00320619      -0.04083687      -0.00071636 </v>
   <v>       0.16111059      -0.01556436      -0.25365078 </v>
   <v>       0.13656597       0.01905207      -0.08513871 </v>
   <v>       0.20620436       0.05305204       0.09246916 </v>
   <v>       0.16384527       0.24527259      -0.04036822 </v>
   <v>      -0.10634574      -1.05677978      -0.09878705 </v>
   <v>      -0.11397577       1.11884911       0.18077696 </v>
   <v>      -0.13849229       0.05077342       0.06250674 </v>
   <v>      -0.12177392      -0.10912464      -0.01671147 </v>
   <v>       0.03793481       0.10433671      -0.00469163 </v>
   <v>       0.07369725      -0.10587585       0.04713326 </v>
   <v>       0.18809205      -0.99988714       0.17039400 </v>
   <v>       0.20326253       1.13097393      -0.10451806 </v>
   <v>      -0.13140550      -1.25188400      -0.10120435 </v>
   <v>      -0.11338105       1.19220289       0.01440448 </v>
   <v>      -0.09975222      -0.18824267      -0.06161102 </v>
   <v>      -0.13975188       0.26234793      -0.00017067 </v>
   <v>       0.04676708      -0.19594826       0.00711964 </v>
   <v>       0.03075971      -0.12133532      -0.06621709 </v>
   <v>       0.20085492      -0.34879283      -0.04339695 </v>
   <v>       0.09756838       0.12507581       0.01177966 </v>
   <v>      -0.20927712      -0.12574859      -0.07830369 </v>
   <v>       0.14962749       0.20972810      -0.09441994 </v>
   <v>       0.14582485      -0.14313821      -0.03852915 </v>
   <v>      -0.04612337       0.23892029       0.00514543 </v>
   <v>       0.15468638      -0.19213206       0.05779381 </v>
   <v>      -0.17054429       0.10975276      -0.09390398 </v>
   <v>      -0.10653620      -0.19526159      -0.09706529 </v>
   <v>       0.10390046       0.16163525       0.00761522 </v>
   <v>      -0.12901449      -0.13280239       0.06827474 </v>
   <v>       0.11918529       0.16597282       0.06934295 </v>
   <v>       0.05723440      -0.14603140       0.01371404 </v>
   <v>      -0.05401834       0.16894844      -0.01064389 </v>
   <v>       0.08921503      -0.18725144      -0.03904015 </v>
   <v>      -0.19981368       0.14050718       0.11595263 </v>
   <v>       0.00883405      -0.20231491       0.10189258 </v>
   <v>       0.17147638       0.41718451       0.16879732 </v>
   <v>       0.50488684       1.18743880       0.48375533 </v>
   <v>       0.51959890      -1.24779577      -0.51124478 </v>
   <v>      -0.52620728       1.14658401      -0.51069974 </v>
   <v>      -0.63103562      -0.05437008       0.28726276 </v>
   <v>       0.08734499      -0.56943052      -0.06082873 </v>
   <v>      -0.19900624       0.40119238      -0.17724388 </v>
   <v>       0.15045704      -0.37972270      -0.14298957 </v>
   <v>       0.02539623      -0.24175967      -0.01072380 </v>
   <v>       0.52411494       1.37176345       0.49917342 </v>
   <v>       0.50531020      -1.31523719      -0.48362454 </v>
   <v>      -0.61241006       0.12226930      -0.33869140 </v>
   <v>      -0.52383912      -1.25542612       0.50234558 </v>
   <v>      -0.00536902       0.18697543      -0.01103128 </v>
   <v>       0.28737603       0.36769024       0.26318554 </v>
   <v>       0.00250169       0.17893461       0.00045385 </v>
  </varray>
  <varray name="stress" >
   <v>       5.65281627      -0.05755495       0.27190056 </v>
   <v>      -0.05755552       9.13146610       0.42006398 </v>
   <v>       0.27190095       0.42006412       4.09867870 </v>
  </varray>
  <energy>
   <i name="e_fr_energy">   -317.54895962 </i>
   <i name="e_wo_entrp">   -317.54895962 </i>
   <i name="e_0_energy">      0.00000000 </i>
  </energy>
  <time name="totalsc"> 1128.80 1136.00</time>
 </calculation>
 <calculation>
  <scstep>
   <time name="dav">   75.90   76.39</time>
   <time name="total">   76.74   77.22</time>
   <energy>
    <i name="alphaZ">   1096.87946692 </i>
    <i name="ewald"> -31275.25465283 </i>
    <i name="hartreedc"> -12846.80472063 </i>
    <i name="XCdc">   1493.54800899 </i>
    <i name="pawpsdc">  44332.18143753 </i>
    <i name="pawaedc"> -43896.44032233 </i>
    <i name="eentropy">      0.00000000 </i>
    <i name="bandstr">  -4379.20688823 </i>
    <i name="atom">  45173.57650906 </i>
    <i name="e_fr_energy">   -301.52116151 </i>
    <i name="e_wo_entrp">   -301.52116151 </i>
    <i name="e_0_energy">   -301.52116151 </i>
   </energy>
  </scstep>
  <scstep>
   <time name="dav">   75.65   75.93</time>
   <time name="total">   76.48   76.77</time>
   <energy>
    <i name="e_fr_energy">   -301.53209315 </i>
    <i name="e_wo_entrp">   -301.53209315 </i>
    <i name="e_0_energy">   -301.53209315 </i>
   </energy>
  </scstep>
  <scstep>
   <time name="dav">   91.61   91.77</time>
   <time name="total">   92.45   92.60</time>
   <energy>
    <i name="e_fr_energy">   -301.52961977 </i>
    <i name="e_wo_entrp">   -301.52961977 </i>
    <i name="e_0_energy">   -301.52961977 </i>
   </energy>
  </scstep>
  <scstep>
   <time name="dav">   86.45   86.81</time>
   <time name="total">   87.29   87.64</time>
   <energy>
    <i name="e_fr_energy">   -301.52883593 </i>
    <i name="e_wo_entrp">   -301.52883593 </i>
    <i name="e_0_energy">   -301.52883593 </i>
   </energy>
  </scstep>
  <scstep>
   <time name="dav">   85.53   85.89</time>
   <time name="total">   86.37   86.74</time>
   <energy>
    <i name="e_fr_energy">   -301.52881290 </i>
    <i name="e_wo_entrp">   -301.52881290 </i>
    <i name="e_0_energy">   -301.52881290 </i>
   </energy>
  </scstep>
  <scstep>
   <time name="dav">   89.64   90.28</time>
   <time name="total">   90.47   91.12</time>
   <energy>
    <i name="e_fr_energy">   -301.52878548 </i>
    <i name="e_wo_entrp">   -301.52878548 </i>
    <i name="e_0_energy">   -301.52878548 </i>
   </energy>
  </scstep>
  <scstep>
   <time name="dav">   84.84   85.39</time>
   <time name="total">   85.67   86.23</time>
   <energy>
    <i name="e_fr_energy">   -301.52875704 </i>
    <i name="e_wo_entrp">   -301.52875704 </i>
    <i name="e_0_energy">   -301.52875704 </i>
   </energy>
  </scstep>
  <scstep>
   <time name="dav">   92.88   93.12</time>
   <time name="total">   93.72   93.95</time>
   <energy>
    <i name="e_fr_energy">   -301.52875660 </i>
    <i name="e_wo_entrp">   -301.52875660 </i>
    <i name="e_0_energy">   -301.52875660 </i>
   </energy>
  </scstep>
  <scstep>
   <time name="dav">   64.02   64.11</time>
   <time name="total">   64.09   64.19</time>
   <energy>
    <i name="alphaZ">   1096.87946692 </i>
    <i name="ewald"> -31275.25465283 </i>
    <i name="hartreedc"> -12863.28834511 </i>
    <i name="XCdc">   1494.31330332 </i>
    <i name="pawpsdc">  44286.19674655 </i>
    <i name="pawaedc"> -43850.04779902 </i>
    <i name="eentropy">      0.00000000 </i>
    <i name="bandstr">  -4363.90398624 </i>
    <i name="atom">  45173.57650906 </i>
    <i name="e_fr_energy">   -301.52875735 </i>
    <i name="e_wo_entrp">   -301.52875735 </i>
    <i name="e_0_energy">   -301.52875735 </i>
   </energy>
  </scstep>
  <structure>
   <crystal>
    <varray name="basis" >
     <v>      11.12836347      -0.00065835      -0.00264286 </v>
     <v>      -0.00056389       9.50407604      -0.00076351 </v>
     <v>      -0.00264378      -0.00089173      11.14067100 </v>
    </varray>
    <i name="volume">   1178.29090248 </i>
    <varray name="rec_basis" >
     <v>       0.08986048       0.00000533       0.00002133 </v>
     <v>       0.00000623       0.10521801       0.00000842 </v>
     <v>       0.00002132       0.00000721       0.08976121 </v>
    </varray>
   </crystal>
   <varray name="positions" >
    <v>       0.37270773       0.00048775       0.43738973 </v>
    <v>       0.12512832       0.99952572       0.18733361 </v>
    <v>       0.37105539       0.00015059       0.18704907 </v>
    <v>       0.62520882       0.99983418       0.43896823 </v>
    <v>       0.87799477      -0.00016461       0.43739334 </v>
    <v>       0.87819999       0.00017550       0.18889359 </v>
    <v>       0.37269131      -0.00016270       0.93639274 </v>
    <v>       0.12512574       0.00014343       0.68644606 </v>
    <v>       0.37296140       0.00017336       0.68674116 </v>
    <v>       0.62331040       0.99981909       0.93481497 </v>
    <v>       0.62415885       0.99952657       0.68639814 </v>
    <v>       0.87629647       0.00013135       0.68489561 </v>
    <v>       0.62367977       0.00035287       0.18801562 </v>
    <v>       0.88074754       0.00067003       0.93594211 </v>
    <v>       0.00250342       0.29540579       0.06284684 </v>
    <v>       0.24909095       0.70926605       0.06236263 </v>
    <v>       0.24864764       0.29058007       0.31381790 </v>
    <v>       0.49791418       0.69994609       0.31391437 </v>
    <v>       0.49789460       0.30020043       0.06225880 </v>
    <v>       0.75095985       0.69551319       0.06283008 </v>
    <v>       0.75124423       0.30018236       0.31415989 </v>
    <v>       0.00172207       0.70931651       0.31400927 </v>
    <v>       0.00172568       0.29056760       0.56213730 </v>
    <v>       0.24907503       0.70955954       0.56236170 </v>
    <v>       0.24910714       0.29049647       0.81264622 </v>
    <v>       0.49828637       0.70458838       0.81196605 </v>
    <v>       0.49872029       0.29529953       0.56307383 </v>
    <v>       0.75087064       0.70451101       0.56281592 </v>
    <v>       0.75011962       0.30013445       0.81139846 </v>
    <v>       0.00209495       0.70479720       0.81217069 </v>
    <v>       0.25082025       0.32768444       0.06288206 </v>
    <v>      -0.00181460       0.67271611       0.06232853 </v>
    <v>       0.50137451       0.32715276       0.31205143 </v>
    <v>       0.25109932       0.67219954       0.31255928 </v>
    <v>       0.74946611       0.32657952       0.06287453 </v>
    <v>       0.50172244       0.67303080       0.06335019 </v>
    <v>       0.99852288       0.32761325       0.31214490 </v>
    <v>       0.74884607       0.67300467       0.31182407 </v>
    <v>       0.25082935       0.32794961       0.56286280 </v>
    <v>      -0.00102333       0.67222254       0.56328727 </v>
    <v>       0.50121787       0.32744026       0.81350717 </v>
    <v>       0.25037516       0.67215844       0.81311545 </v>
    <v>       0.74942183       0.32745961       0.56283775 </v>
    <v>       0.50098452       0.67239121       0.56252291 </v>
    <v>       0.99834660       0.32743725       0.81369277 </v>
    <v>       0.74984660       0.67296141       0.81390647 </v>
    <v>       0.50337046       0.07361481       0.06464414 </v>
    <v>       0.25291236       0.91835695       0.06470655 </v>
    <v>       0.25328579       0.08183826       0.30995463 </v>
    <v>      -0.00337261       0.91848479       0.30967029 </v>
    <v>       0.99402987       0.07771334       0.06255152 </v>
    <v>       0.74919927       0.92951464       0.06245449 </v>
    <v>       0.74727268       0.07359862       0.30948586 </v>
    <v>       0.50326685       0.92609116       0.30985145 </v>
    <v>       0.50084547       0.07782065       0.56214618 </v>
    <v>       0.25275366       0.91785322       0.56467742 </v>
    <v>       0.25282060       0.08201863       0.81051636 </v>
    <v>      -0.00539814       0.92189883       0.81265747 </v>
    <v>       0.99672437       0.08185133       0.56496328 </v>
    <v>       0.74927958       0.92248219       0.56245028 </v>
    <v>       0.75156932       0.07376142       0.81531258 </v>
    <v>       0.50138173       0.92247196       0.81310596 </v>
   </varray>
  </structure>
  <varray name="forces" >
   <v>      -0.40083516       0.03879394       0.03465072 </v>
   <v>       0.04161428      -0.03968934       0.03949631 </v>
   <v>      -0.45941751      -0.00289828       0.02475265 </v>
   <v>      -0.02807867      -0.00110957       0.28950156 </v>
   <v>       0.37555228      -0.04714885       0.03269005 </v>
   <v>       0.41804134       0.00306488       0.27588068 </v>
   <v>      -0.40424160      -0.04961157      -0.01889732 </v>
   <v>       0.04454849       0.03589112      -0.03531188 </v>
   <v>      -0.21686056       0.00126732      -0.01567928 </v>
   <v>      -0.21974315       0.00157477      -0.24593547 </v>
   <v>      -0.00921518      -0.04361060      -0.01314945 </v>
   <v>       0.19139708      -0.01358428      -0.28072103 </v>
   <v>       0.09331181       0.02939104      -0.04077129 </v>
   <v>       0.33775240       0.05618846       0.05758433 </v>
   <v>       0.20972860       0.22617508      -0.03548693 </v>
   <v>      -0.11788610      -0.79824726      -0.09804608 </v>
   <v>      -0.12915507       0.84737434       0.18517212 </v>
   <v>      -0.17920060      -0.04567140       0.08639650 </v>
   <v>      -0.17109095      -0.00594047      -0.03038635 </v>
   <v>       0.05743663      -0.05254203      -0.00420966 </v>
   <v>       0.10477701      -0.00298296       0.07851911 </v>
   <v>       0.21259368      -0.74910318       0.18085233 </v>
   <v>       0.21947615       0.85770790      -0.10791713 </v>
   <v>      -0.14091638      -0.95600728      -0.09944614 </v>
   <v>      -0.11720869       0.90600031       0.00588380 </v>
   <v>      -0.13267842      -0.17287212      -0.07809147 </v>
   <v>      -0.16390452       0.23659252       0.00664811 </v>
   <v>       0.06232878      -0.18182165       0.00657002 </v>
   <v>       0.03421362      -0.01681252      -0.09782059 </v>
   <v>       0.23939987      -0.31366051      -0.05649886 </v>
   <v>       0.10897085       0.13352293       0.01070736 </v>
   <v>      -0.23968034      -0.12526768      -0.08460476 </v>
   <v>       0.17236178       0.19775547      -0.10637876 </v>
   <v>       0.16309293      -0.15283612      -0.04195419 </v>
   <v>      -0.05651868       0.21232573       0.00488310 </v>
   <v>       0.18394355      -0.17827089       0.06502498 </v>
   <v>      -0.19250632       0.11849989      -0.10309777 </v>
   <v>      -0.12483864      -0.18147884      -0.11537397 </v>
   <v>       0.11444524       0.17315511       0.00623585 </v>
   <v>      -0.14478502      -0.14301836       0.07254025 </v>
   <v>       0.14119008       0.16475293       0.07963992 </v>
   <v>       0.06239891      -0.15610751       0.01957836 </v>
   <v>      -0.06513052       0.16757988      -0.01007403 </v>
   <v>       0.10506165      -0.18740249      -0.04452830 </v>
   <v>      -0.22313591       0.14189332       0.12642192 </v>
   <v>       0.00560152      -0.18863264       0.11989833 </v>
   <v>       0.25430148       0.29267842       0.21580341 </v>
   <v>       0.52999944       0.93566015       0.49176765 </v>
   <v>       0.54563346      -0.98236843      -0.52206263 </v>
   <v>      -0.56113018       0.90628301      -0.52998578 </v>
   <v>      -0.72803553      -0.06182859       0.25402272 </v>
   <v>       0.05981357      -0.40191826      -0.05391378 </v>
   <v>      -0.26183082       0.27770416      -0.24486701 </v>
   <v>       0.22735634      -0.26213638      -0.20592612 </v>
   <v>       0.04915353      -0.21951947      -0.01805598 </v>
   <v>       0.54244403       1.07895136       0.50404429 </v>
   <v>       0.52030727      -1.03307922      -0.48337416 </v>
   <v>      -0.70403310       0.11496204      -0.28953464 </v>
   <v>      -0.54914059      -0.98887976       0.51486230 </v>
   <v>      -0.02091666       0.17728032      -0.01019395 </v>
   <v>       0.29757980       0.25274773       0.31426024 </v>
   <v>       0.03628739       0.17028437       0.01800580 </v>
  </varray>
  <varray name="stress" >
   <v>       4.02832237      -0.06344962       0.20329645 </v>
   <v>      -0.06344980       5.64887557       0.32732392 </v>
   <v>       0.20329677       0.32732376       2.79113959 </v>
  </varray>
  <energy>
   <i name="e_fr_energy">   -317.56616260 </i>
   <i name="e_wo_entrp">   -317.56616260 </i>
   <i name="e_0_energy">      0.00000000 </i>
  </energy>
  <time name="totalsc">  867.14  871.02</time>
 </calculation>
 <calculation>
  <scstep>
   <time name="dav">   66.07   66.55</time>
   <time name="total">   66.90   67.38</time>
   <energy>
    <i name="alphaZ">   1095.52926991 </i>
    <i name="ewald"> -31375.96236316 </i>
    <i name="hartreedc"> -12753.39506005 </i>
    <i name="XCdc">   1492.91992097 </i>
    <i name="pawpsdc">  44286.31018895 </i>
    <i name="pawaedc"> -43850.16244790 </i>
    <i name="eentropy">      0.00000000 </i>
    <i name="bandstr">  -4369.88069402 </i>
    <i name="atom">  45173.57650906 </i>
    <i name="e_fr_energy">   -301.06467623 </i>
    <i name="e_wo_entrp">   -301.06467623 </i>
    <i name="e_0_energy">   -301.06467623 </i>
   </energy>
  </scstep>
  <scstep>
   <time name="dav">   77.24   77.45</time>
   <time name="total">   78.06   78.28</time>
   <energy>
    <i name="e_fr_energy">   -301.98999226 </i>
    <i name="e_wo_entrp">   -301.98999226 </i>
    <i name="e_0_energy">   -301.98999226 </i>
   </energy>
  </scstep>
  <scstep>
   <time name="dav">   94.91   95.15</time>
   <time name="total">   95.75   95.98</time>
   <energy>
    <i name="e_fr_energy">   -301.98907097 </i>
    <i name="e_wo_entrp">   -301.98907097 </i>
    <i name="e_0_energy">   -301.98907097 </i>
   </energy>
  </scstep>
  <scstep>
   <time name="dav">   79.00   79.20</time>
   <time name="total">   79.85   80.05</time>
   <energy>
    <i name="e_fr_energy">   -301.96929105 </i>
    <i name="e_wo_entrp">   -301.96929105 </i>
    <i name="e_0_energy">   -301.96929105 </i>
   </energy>
  </scstep>
  <scstep>
   <time name="dav">   77.44   77.62</time>
   <time name="total">   78.35   78.53</time>
   <energy>
    <i name="e_fr_energy">   -301.95956985 </i>
    <i name="e_wo_entrp">   -301.95956985 </i>
    <i name="e_0_energy">   -301.95956985 </i>
   </energy>
  </scstep>
  <scstep>
   <time name="dav">   84.94   85.98</time>
   <time name="total">   85.77   86.81</time>
   <energy>
    <i name="e_fr_energy">   -301.96011049 </i>
    <i name="e_wo_entrp">   -301.96011049 </i>
    <i name="e_0_energy">   -301.96011049 </i>
   </energy>
  </scstep>
  <scstep>
   <time name="dav">   94.11   95.56</time>
   <time name="total">   94.94   96.40</time>
   <energy>
    <i name="e_fr_energy">   -301.96006348 </i>
    <i name="e_wo_entrp">   -301.96006348 </i>
    <i name="e_0_energy">   -301.96006348 </i>
   </energy>
  </scstep>
  <scstep>
   <time name="dav">   83.89   85.17</time>
   <time name="total">   84.68   86.00</time>
   <energy>
    <i name="e_fr_energy">   -301.95999483 </i>
    <i name="e_wo_entrp">   -301.95999483 </i>
    <i name="e_0_energy">   -301.95999483 </i>
   </energy>
  </scstep>
  <scstep>
   <time name="dav">   83.55   83.94</time>
   <time name="total">   84.39   84.79</time>
   <energy>
    <i name="e_fr_energy">   -301.95999180 </i>
    <i name="e_wo_entrp">   -301.95999180 </i>
    <i name="e_0_energy">   -301.95999180 </i>
   </energy>
  </scstep>
  <scstep>
   <time name="dav">   74.29   74.55</time>
   <time name="total">   75.12   75.38</time>
   <energy>
    <i name="e_fr_energy">   -301.95999562 </i>
    <i name="e_wo_entrp">   -301.95999562 </i>
    <i name="e_0_energy">   -301.95999562 </i>
   </energy>
  </scstep>
  <scstep>
   <time name="dav">   84.76   85.81</time>
   <time name="total">   84.83   85.89</time>
   <energy>
    <i name="alphaZ">   1095.52926991 </i>
    <i name="ewald"> -31375.96236316 </i>
    <i name="hartreedc"> -12760.03621916 </i>
    <i name="XCdc">   1493.18582482 </i>
    <i name="pawpsdc">  44088.26203319 </i>
    <i name="pawaedc"> -43648.96772786 </i>
    <i name="eentropy">      0.00000000 </i>
    <i name="bandstr">  -4367.54732303 </i>
    <i name="atom">  45173.57650906 </i>
    <i name="e_fr_energy">   -301.95999623 </i>
    <i name="e_wo_entrp">   -301.95999623 </i>
    <i name="e_0_energy">   -301.95999623 </i>
   </energy>
  </scstep>
  <structure>
   <crystal>
    <varray name="basis" >
     <v>      11.13505170      -0.00129696      -0.00234734 </v>
     <v>      -0.00110905       9.50830660       0.00070010 </v>
     <v>      -0.00234888       0.00082385      11.14274158 </v>
    </varray>
    <i name="volume">   1179.74309997 </i>
    <varray name="rec_basis" >
     <v>       0.08980650       0.00001047       0.00001893 </v>
     <v>       0.00001225       0.10517120      -0.00000777 </v>
     <v>       0.00001892      -0.00000661       0.08974452 </v>
    </varray>
   </crystal>
   <varray name="positions" >
    <v>       0.37000975       0.00079885       0.43772888 </v>
    <v>       0.12549756       0.99921135       0.18767322 </v>
    <v>       0.36778466       0.00012872       0.18721969 </v>
    <v>       0.62502281       0.99982669       0.44097462 </v>
    <v>       0.88055678      -0.00052348       0.43772677 </v>
    <v>       0.88130868       0.00019320       0.19081534 </v>
    <v>       0.36997257      -0.00053354       0.93613482 </v>
    <v>       0.12550635       0.00043492       0.68613911 </v>
    <v>       0.37142834       0.00018079       0.68662647 </v>
    <v>       0.62160463       0.99981883       0.93300893 </v>
    <v>       0.62395212       0.99919293       0.68616723 </v>
    <v>       0.87773495       0.00004932       0.68297272 </v>
    <v>       0.62373069       0.00069011       0.18826774 </v>
    <v>       0.88417113       0.00113592       0.93584301 </v>
    <v>       0.00427534       0.29661086       0.06271051 </v>
    <v>       0.24820429       0.70695700       0.06178041 </v>
    <v>       0.24764571       0.29307597       0.31497348 </v>
    <v>       0.49642706       0.69790698       0.31468633 </v>
    <v>       0.49633805       0.30203733       0.06192516 </v>
    <v>       0.75151168       0.69178857       0.06281953 </v>
    <v>       0.75219975       0.30202753       0.31499043 </v>
    <v>       0.00331274       0.70727097       0.31521789 </v>
    <v>       0.00325011       0.29311024       0.56143051 </v>
    <v>       0.24808462       0.70657542       0.56177312 </v>
    <v>       0.24832628       0.29325262       0.81260669 </v>
    <v>       0.49713472       0.70364612       0.81131763 </v>
    <v>       0.49750092       0.29651662       0.56319969 </v>
    <v>       0.75141029       0.70349563       0.56284606 </v>
    <v>       0.75035745       0.30189278       0.81045633 </v>
    <v>       0.00393751       0.70323296       0.81169050 </v>
    <v>       0.25156906       0.32868905       0.06293593 </v>
    <v>      -0.00352492       0.67190164       0.06177200 </v>
    <v>       0.50263525       0.32827864       0.31130061 </v>
    <v>       0.25221852       0.67105578       0.31226995 </v>
    <v>       0.74900936       0.32756424       0.06290058 </v>
    <v>       0.50312461       0.67207036       0.06380816 </v>
    <v>       0.99717537       0.32851642       0.31144201 </v>
    <v>       0.74790577       0.67201824       0.31095005 </v>
    <v>       0.25160479       0.32925006       0.56289058 </v>
    <v>      -0.00203663       0.67113610       0.56375316 </v>
    <v>       0.50228840       0.32850926       0.81408542 </v>
    <v>       0.25079798       0.67098310       0.81329330 </v>
    <v>       0.74891206       0.32854969       0.56278671 </v>
    <v>       0.50177751       0.67114698       0.56220908 </v>
    <v>       0.99680397       0.32839130       0.81453766 </v>
[...]
       <r>   11.4276    0.0000 </r>
       <r>   11.4842    0.0000 </r>
       <r>   11.5397    0.0000 </r>
       <r>   11.6008    0.0000 </r>
      </set>
     </set>
    </set>
   </array>
  </eigenvalues>
  <separator name="orbital magnetization" >
   <v name="MAGDIPOLOUT">      0.00000000      0.00000000      0.00000000</v>
  </separator>
  <dos>
   <i name="efermi">      4.35664674 </i>
   <total>
    <array>
     <dimension dim="1">gridpoints</dimension>
     <dimension dim="2">spin</dimension>
     <field>energy</field>
     <field>total</field>
     <field>integrated</field>
     <set>
      <set comment="spin 1">
       <r>   -42.5177     0.0000     0.0000 </r>
       <r>   -42.3266     0.0000     0.0000 </r>
       <r>   -42.1354     0.0000     0.0000 </r>
       <r>   -41.9443     0.0000     0.0000 </r>
       <r>   -41.7532     0.0000     0.0000 </r>
       <r>   -41.5620     0.0000     0.0000 </r>
       <r>   -41.3709     0.0000     0.0000 </r>
       <r>   -41.1798     0.0000     0.0000 </r>
       <r>   -40.9887     0.0000     0.0000 </r>
       <r>   -40.7975     0.0000     0.0000 </r>
       <r>   -40.6064     0.0000     0.0000 </r>
       <r>   -40.4153     0.0000     0.0000 </r>
       <r>   -40.2241     0.0000     0.0000 </r>
       <r>   -40.0330     0.0000     0.0000 </r>
       <r>   -39.8419     0.0000     2.0000 </r>
       <r>   -39.6508     0.0000     6.0000 </r>
       <r>   -39.4596     0.0000    10.0000 </r>
       <r>   -39.2685     0.0000    22.0000 </r>
       <r>   -39.0774     0.0000    24.0000 </r>
       <r>   -38.8862     0.0000    24.0000 </r>
       <r>   -38.6951     0.0000    24.0000 </r>
       <r>   -38.5040     0.0000    24.0000 </r>
       <r>   -38.3129     0.0000    24.0000 </r>
       <r>   -38.1217     0.0000    24.0000 </r>
       <r>   -37.9306     0.0000    24.0000 </r>
       <r>   -37.7395     0.0000    24.0000 </r>
       <r>   -37.5483     0.0000    24.0000 </r>
       <r>   -37.3572     0.0000    24.0000 </r>
       <r>   -37.1661     0.0000    24.0000 </r>
       <r>   -36.9750     0.0000    24.0000 </r>
       <r>   -36.7838     0.0000    24.0000 </r>
       <r>   -36.5927     0.0000    24.0000 </r>
       <r>   -36.4016     0.0000    24.0000 </r>
       <r>   -36.2104     0.0000    24.0000 </r>
       <r>   -36.0193     0.0000    24.0000 </r>
       <r>   -35.8282     0.0000    24.0000 </r>
       <r>   -35.6371     0.0000    24.0000 </r>
       <r>   -35.4459     0.0000    24.0000 </r>
       <r>   -35.2548     0.0000    24.0000 </r>
       <r>   -35.0637     0.0000    24.0000 </r>
       <r>   -34.8725     0.0000    24.0000 </r>
       <r>   -34.6814     0.0000    24.0000 </r>
       <r>   -34.4903     0.0000    24.0000 </r>
       <r>   -34.2991     0.0000    24.0000 </r>
       <r>   -34.1080     0.0000    24.0000 </r>
       <r>   -33.9169     0.0000    24.0000 </r>
       <r>   -33.7258     0.0000    24.0000 </r>
       <r>   -33.5346     0.0000    24.0000 </r>
       <r>   -33.3435     0.0000    24.0000 </r>
       <r>   -33.1524     0.0000    24.0000 </r>
       <r>   -32.9612     0.0000    24.0000 </r>
       <r>   -32.7701     0.0000    24.0000 </r>
       <r>   -32.5790     0.0000    24.0000 </r>
       <r>   -32.3879     0.0000    24.0000 </r>
       <r>   -32.1967     0.0000    24.0000 </r>
       <r>   -32.0056     0.0000    24.0000 </r>
       <r>   -31.8145     0.0000    24.0000 </r>
       <r>   -31.6233     0.0000    24.0000 </r>
       <r>   -31.4322     0.0000    24.0000 </r>
       <r>   -31.2411     0.0000    24.0000 </r>
       <r>   -31.0500     0.0000    24.0000 </r>
       <r>   -30.8588     0.0000    24.0000 </r>
       <r>   -30.6677     0.0000    24.0000 </r>
       <r>   -30.4766     0.0000    24.0000 </r>
       <r>   -30.2854     0.0000    24.0000 </r>
       <r>   -30.0943     0.0000    24.0000 </r>
       <r>   -29.9032     0.0000    24.0000 </r>
       <r>   -29.7121     0.0000    24.0000 </r>
       <r>   -29.5209     0.0000    24.0000 </r>
       <r>   -29.3298     0.0000    24.0000 </r>
       <r>   -29.1387     0.0000    24.0000 </r>
       <r>   -28.9475     0.0000    24.0000 </r>
       <r>   -28.7564     0.0000    24.0000 </r>
       <r>   -28.5653     0.0000    24.0000 </r>
       <r>   -28.3742     0.0000    24.0000 </r>
       <r>   -28.1830     0.0000    24.0000 </r>
       <r>   -27.9919     0.0000    24.0000 </r>
       <r>   -27.8008     0.0000    24.0000 </r>
       <r>   -27.6096     0.0000    24.0000 </r>
       <r>   -27.4185     0.0000    24.0000 </r>
       <r>   -27.2274     0.0000    24.0000 </r>
       <r>   -27.0363     0.0000    24.0000 </r>
       <r>   -26.8451     0.0000    24.0000 </r>
       <r>   -26.6540     0.0000    24.0000 </r>
       <r>   -26.4629     0.0000    24.0000 </r>
       <r>   -26.2717     0.0000    24.0000 </r>
       <r>   -26.0806     0.0000    24.0000 </r>
       <r>   -25.8895     0.0000    24.0000 </r>
       <r>   -25.6984     0.0000    24.0000 </r>
       <r>   -25.5072     0.0000    24.0000 </r>
       <r>   -25.3161     0.0000    24.0000 </r>
       <r>   -25.1250     0.0000    24.0000 </r>
       <r>   -24.9338     0.0000    24.0000 </r>
       <r>   -24.7427     0.0000    24.0000 </r>
       <r>   -24.5516     0.0000    24.0000 </r>
       <r>   -24.3605     0.0000    24.0000 </r>
       <r>   -24.1693     0.0000    24.0000 </r>
       <r>   -23.9782     0.0000    24.0000 </r>
       <r>   -23.7871     0.0000    24.0000 </r>
       <r>   -23.5959     0.0000    24.0000 </r>
       <r>   -23.4048     0.0000    24.0000 </r>
       <r>   -23.2137     0.0000    24.0000 </r>
       <r>   -23.0226     0.0000    24.0000 </r>
       <r>   -22.8314     0.0000    24.0000 </r>
       <r>   -22.6403     0.0000    24.0000 </r>
       <r>   -22.4492     0.0000    24.0000 </r>
       <r>   -22.2580     0.0000    24.0000 </r>
       <r>   -22.0669     0.0000    24.0000 </r>
       <r>   -21.8758     0.0000    24.0000 </r>
       <r>   -21.6846     0.0000    24.0000 </r>
       <r>   -21.4935     0.0000    24.0000 </r>
       <r>   -21.3024     0.0000    24.0000 </r>
       <r>   -21.1113     0.0000    24.0000 </r>
       <r>   -20.9201     0.0000    24.0000 </r>
       <r>   -20.7290     0.0000    24.0000 </r>
       <r>   -20.5379     0.0000    24.0000 </r>
       <r>   -20.3467     0.0000    24.0000 </r>
       <r>   -20.1556     0.0000    24.0000 </r>
       <r>   -19.9645     0.0000    24.0000 </r>
       <r>   -19.7734     0.0000    24.0000 </r>
       <r>   -19.5822     0.0000    24.0000 </r>
       <r>   -19.3911     0.0000    24.0000 </r>
       <r>   -19.2000     0.0000    24.0000 </r>
       <r>   -19.0088     0.0000    24.0000 </r>
       <r>   -18.8177     0.0000    24.0000 </r>
       <r>   -18.6266     0.0000    30.0000 </r>
       <r>   -18.4355     0.0000   140.0000 </r>
       <r>   -18.2443     0.0000   184.0000 </r>
       <r>   -18.0532     0.0000   184.0000 </r>
       <r>   -17.8621     0.0000   184.0000 </r>
       <r>   -17.6709     0.0000   184.0000 </r>
       <r>   -17.4798     0.0000   184.0000 </r>
       <r>   -17.2887     0.0000   184.0000 </r>
       <r>   -17.0976     0.0000   184.0000 </r>
       <r>   -16.9064     0.0000   184.0000 </r>
       <r>   -16.7153     0.0000   184.0000 </r>
       <r>   -16.5242     0.0000   184.0000 </r>
       <r>   -16.3330     0.0000   184.0000 </r>
       <r>   -16.1419     0.0000   184.0000 </r>
       <r>   -15.9508     0.0000   184.0000 </r>
       <r>   -15.7597     0.0000   184.0000 </r>
       <r>   -15.5685     0.0000   184.0000 </r>
       <r>   -15.3774     0.0000   184.0000 </r>
       <r>   -15.1863     0.0000   184.0000 </r>
       <r>   -14.9951     0.0000   184.0000 </r>
       <r>   -14.8040     0.0000   184.0000 </r>
       <r>   -14.6129     0.0000   184.0000 </r>
       <r>   -14.4218     0.0000   184.0000 </r>
       <r>   -14.2306     0.0000   184.0000 </r>
       <r>   -14.0395     0.0000   184.0000 </r>
       <r>   -13.8484     0.0000   184.0000 </r>
       <r>   -13.6572     0.0000   184.0000 </r>
       <r>   -13.4661     0.0000   184.0000 </r>
       <r>   -13.2750     0.0000   184.0000 </r>
       <r>   -13.0839     0.0000   184.0000 </r>
       <r>   -12.8927     0.0000   186.0000 </r>
       <r>   -12.7016     0.0000   194.0000 </r>
       <r>   -12.5105     0.0000   208.0000 </r>
       <r>   -12.3193     0.0000   216.0000 </r>
       <r>   -12.1282     0.0000   216.0000 </r>
       <r>   -11.9371     0.0000   216.0000 </r>
       <r>   -11.7460     0.0000   216.0000 </r>
       <r>   -11.5548     0.0000   216.0000 </r>
       <r>   -11.3637     0.0000   216.0000 </r>
       <r>   -11.1726     0.0000   216.0000 </r>
       <r>   -10.9814     0.0000   216.0000 </r>
       <r>   -10.7903     0.0000   216.0000 </r>
       <r>   -10.5992     0.0000   216.0000 </r>
       <r>   -10.4081     0.0000   216.0000 </r>
       <r>   -10.2169     0.0000   216.0000 </r>
       <r>   -10.0258     0.0000   216.0000 </r>
       <r>    -9.8347     0.0000   216.0000 </r>
       <r>    -9.6435     0.0000   216.0000 </r>
       <r>    -9.4524     0.0000   216.0000 </r>
       <r>    -9.2613     5.9658   216.1892 </r>
       <r>    -9.0702     2.8078   217.9650 </r>
       <r>    -8.8790     6.5139   219.8484 </r>
       <r>    -8.6879    18.2827   221.2340 </r>
       <r>    -8.4968     1.6863   224.0052 </r>
       <r>    -8.3056    22.5860   229.2682 </r>
       <r>    -8.1145     0.8999   231.9937 </r>
       <r>    -7.9234    35.7297   236.6179 </r>
       <r>    -7.7322    22.4909   242.0925 </r>
       <r>    -7.5411    18.6493   244.9777 </r>
       <r>    -7.3500     1.5178   247.9914 </r>
       <r>    -7.1589     0.0000   248.0000 </r>
       <r>    -6.9677     0.0000   248.0000 </r>
       <r>    -6.7766     0.0000   248.0000 </r>
       <r>    -6.5855     0.0000   248.0000 </r>
       <r>    -6.3943     0.0000   248.0000 </r>
       <r>    -6.2032     2.6753   248.0396 </r>
       <r>    -6.0121    27.6546   250.9323 </r>
       <r>    -5.8210     1.8655   256.0214 </r>
       <r>    -5.6298    32.9160   259.4427 </r>
       <r>    -5.4387    26.1447   264.8475 </r>
       <r>    -5.2476    17.2199   269.3070 </r>
       <r>    -5.0564     9.0277   271.6892 </r>
       <r>    -4.8653     5.3687   272.3174 </r>
       <r>    -4.6742    12.4540   274.1367 </r>
       <r>    -4.4831     5.8410   276.2208 </r>
       <r>    -4.2919     5.7267   277.0826 </r>
       <r>    -4.1008     9.9598   278.5266 </r>
       <r>    -3.9097     2.3433   279.5833 </r>
       <r>    -3.7185     1.0768   279.9100 </r>
       <r>    -3.5274     0.0105   279.9999 </r>
       <r>    -3.3363     0.0000   280.0000 </r>
       <r>    -3.1452     0.0000   280.0000 </r>
       <r>    -2.9540     0.0000   280.0000 </r>
       <r>    -2.7629     0.0000   280.0000 </r>
       <r>    -2.5718     0.0000   280.0000 </r>
       <r>    -2.3806     0.0000   280.0000 </r>
       <r>    -2.1895     0.0000   280.0000 </r>
       <r>    -1.9984     0.0000   280.0000 </r>
       <r>    -1.8073     0.0000   280.0000 </r>
       <r>    -1.6161     0.0000   280.0000 </r>
       <r>    -1.4250     0.0000   280.0000 </r>
       <r>    -1.2339     1.9284   280.0448 </r>
       <r>    -1.0427     7.5498   281.2578 </r>
       <r>    -0.8516     6.1329   282.4768 </r>
       <r>    -0.6605    13.5426   284.5229 </r>
       <r>    -0.4694     8.1134   286.5929 </r>
       <r>    -0.2782    19.4096   288.7792 </r>
       <r>    -0.0871    26.1977   293.3829 </r>
       <r>     0.1040    44.6913   299.8235 </r>
       <r>     0.2952    34.6950   307.3882 </r>
       <r>     0.4863    48.2767   315.4710 </r>
       <r>     0.6774    20.2277   321.7243 </r>
       <r>     0.8685    23.9141   328.1248 </r>
       <r>     1.0597    43.8250   335.0267 </r>
       <r>     1.2508    45.6310   344.0850 </r>
       <r>     1.4419    39.0940   352.6225 </r>
       <r>     1.6331    50.8313   359.9144 </r>
       <r>     1.8242    52.3575   369.7196 </r>
       <r>     2.0153    60.5631   379.2905 </r>
       <r>     2.2064    46.5714   389.5482 </r>
       <r>     2.3976    49.2589   398.3261 </r>
       <r>     2.5887    77.2989   410.3705 </r>
       <r>     2.7798    78.5110   424.5342 </r>
       <r>     2.9710    81.1880   436.6406 </r>
       <r>     3.1621    38.2622   448.9313 </r>
       <r>     3.3532    22.1837   456.2234 </r>
       <r>     3.5443    53.2636   462.2808 </r>
       <r>     3.7355    16.4191   468.0223 </r>
       <r>     3.9266     9.6791   470.4348 </r>
       <r>     4.1177     3.9063   471.7329 </r>
       <r>     4.3089     0.0000   472.0000 </r>
       <r>     4.5000     0.0000   472.0000 </r>
       <r>     4.6911     0.0000   472.0000 </r>
       <r>     4.8823     0.0000   472.0000 </r>
       <r>     5.0734     0.0000   472.0000 </r>
       <r>     5.2645     0.4218   472.0084 </r>
       <r>     5.4556     5.0906   472.4928 </r>
       <r>     5.6468    10.4094   473.9740 </r>
       <r>     5.8379    24.4540   475.9065 </r>
       <r>     6.0290    14.7931   480.2233 </r>
       <r>     6.2202    12.8583   482.8280 </r>
       <r>     6.4113    12.7049   485.2369 </r>
       <r>     6.6024    13.9151   487.7809 </r>
       <r>     6.7935    15.1166   490.5554 </r>
       <r>     6.9847    16.9893   493.5981 </r>
       <r>     7.1758    22.0501   497.2046 </r>
       <r>     7.3669    25.7951   501.6746 </r>
       <r>     7.5581    40.9750   507.8711 </r>
       <r>     7.7492    30.3003   514.7408 </r>
       <r>     7.9403    36.2837   521.6192 </r>
       <r>     8.1314    32.7891   527.9579 </r>
       <r>     8.3226    28.3264   534.0000 </r>
       <r>     8.5137    23.2341   538.7594 </r>
       <r>     8.7048    30.4222   543.7693 </r>
       <r>     8.8960    49.9814   550.5277 </r>
       <r>     9.0871    31.8180   557.6899 </r>
       <r>     9.2782    19.3090   562.5782 </r>
       <r>     9.4693    10.2991   565.2055 </r>
       <r>     9.6605     8.3442   567.3569 </r>
       <r>     9.8516     8.4304   568.5387 </r>
       <r>    10.0427    15.6292   570.8669 </r>
       <r>    10.2339    11.9197   573.3611 </r>
       <r>    10.4250    28.3196   576.6957 </r>
       <r>    10.6161    29.1501   581.0591 </r>
       <r>    10.8072    48.9923   586.6296 </r>
       <r>    10.9984    28.1538   593.5609 </r>
       <r>    11.1895    25.1552   598.5519 </r>
       <r>    11.3806    28.9069   603.6240 </r>
       <r>    11.5718    30.5961   609.7972 </r>
       <r>    11.7629    14.4691   614.1188 </r>
       <r>    11.9540     3.9345   615.6932 </r>
       <r>    12.1451     0.1946   615.9955 </r>
       <r>    12.3363     0.0000   616.0000 </r>
       <r>    12.5274     0.0000   616.0000 </r>
       <r>    12.7185     0.0000   616.0000 </r>
       <r>    12.9097     0.0000   616.0000 </r>
       <r>    13.1008     0.0000   616.0000 </r>
       <r>    13.2919     0.0000   616.0000 </r>
       <r>    13.4830     0.0000   616.0000 </r>
       <r>    13.6742     0.0000   616.0000 </r>
       <r>    13.8653     0.0000   616.0000 </r>
       <r>    14.0564     0.0000   616.0000 </r>
       <r>    14.2476     0.0000   616.0000 </r>
       <r>    14.4387     0.0000   616.0000 </r>
       <r>    14.6298     0.0000   616.0000 </r>
       <r>    14.8209     0.0000   616.0000 </r>
      </set>
     </set>
    </array>
   </total>
  </dos>
 </calculation>
 <structure name="finalpos" >
  <crystal>
   <varray name="basis" >
    <v>      11.21179737      -0.01081056       0.03189637 </v>
    <v>      -0.00911871       9.48604172       0.00443091 </v>
    <v>       0.03198545       0.00558948      11.18701008 </v>
   </varray>
   <i name="volume">   1189.78985724 </i>
   <varray name="rec_basis" >
    <v>       0.08919257       0.00008586      -0.00025506 </v>
    <v>       0.00010180       0.10541817      -0.00005296 </v>
    <v>      -0.00025435      -0.00004200       0.08939014 </v>
   </varray>
  </crystal>
  <varray name="positions" >
   <v>       0.37108859       0.00706928       0.44824289 </v>
   <v>       0.16724003       0.96056240       0.24072813 </v>
   <v>       0.38506719       0.00043965       0.18643890 </v>
   <v>       0.63390341       0.00235400       0.44193629 </v>
   <v>      -0.00238465      -0.02959142       0.46002985 </v>
   <v>       0.90787139       0.02736634       0.21605281 </v>
   <v>       0.23193954       0.02037352       0.95271942 </v>
   <v>       0.14838479       0.02209380       0.66531177 </v>
   <v>       0.37995600       0.00156242       0.69410957 </v>
   <v>       0.60282655       0.00434425       0.92588290 </v>
   <v>       0.62545039       0.00115334       0.68388723 </v>
   <v>       0.87507255      -0.00022211       0.68432190 </v>
   <v>       0.63515073      -0.00616218       0.18051174 </v>
   <v>       0.86066434      -0.00068341       0.94034872 </v>
   <v>      -0.00595747       0.30829419       0.05992931 </v>
   <v>       0.24938662       0.69578256       0.06591251 </v>
   <v>       0.25408184       0.29272064       0.31062878 </v>
   <v>       0.50217982       0.69069913       0.30855817 </v>
   <v>       0.49707368       0.30446921       0.06078122 </v>
   <v>       0.74511658       0.68156253       0.05654645 </v>
   <v>       0.75034370       0.30493203       0.30976472 </v>
   <v>       0.00104168       0.68948456       0.30747105 </v>
   <v>      -0.00005988       0.30445008       0.56494869 </v>
   <v>       0.25307331       0.70486254       0.56503699 </v>
   <v>       0.24932696       0.30834591       0.80598901 </v>
   <v>       0.49639609       0.70443242       0.80641970 </v>
   <v>       0.50039738       0.30243249       0.55957202 </v>
   <v>       0.74685565       0.70473761       0.56204406 </v>
   <v>       0.74640524       0.30992448       0.80980199 </v>
   <v>      -0.00712658       0.69635245       0.81020574 </v>
   <v>       0.24420568       0.29100734       0.05581091 </v>
   <v>      -0.00463506       0.66060619       0.05830225 </v>
   <v>       0.49962384       0.35327854       0.30855636 </v>
   <v>       0.24674693       0.65218327       0.31038298 </v>
   <v>       0.74308023       0.35816494       0.05934983 </v>
   <v>       0.49645425       0.65151756       0.06015558 </v>
   <v>       0.99774853       0.30962691       0.31093028 </v>
   <v>       0.74770049       0.66165931       0.30658453 </v>
   <v>       0.24670916       0.34708913       0.55694213 </v>
   <v>      -0.00185966       0.69774225       0.55657042 </v>
   <v>       0.49747922       0.33941324       0.80931677 </v>
   <v>       0.24559480       0.67556818       0.81249876 </v>
   <v>       0.74787165       0.33829708       0.55858439 </v>
   <v>       0.49873882       0.64971107       0.55922933 </v>
   <v>       0.99556560       0.35104115       0.81141063 </v>
   <v>       0.74450419       0.64208168       0.80797056 </v>
   <v>       0.51916546       0.08683283       0.07416926 </v>
   <v>       0.25379358       0.90990736       0.09086319 </v>
   <v>       0.28216684       0.07945019       0.31394118 </v>
   <v>       0.01320587       0.90754051       0.30296452 </v>
   <v>       0.95594028       0.09603021       0.06067474 </v>
   <v>       0.73333806       0.90819307       0.04668452 </v>
   <v>       0.74338236       0.08562161       0.29452937 </v>
   <v>       0.51794060       0.91199467       0.29919392 </v>
   <v>       0.50394685       0.08386488       0.55535865 </v>
   <v>       0.27022361       0.91967980       0.57225445 </v>
   <v>       0.24858692       0.09180365       0.79384446 </v>
   <v>      -0.03976699       0.90925493       0.81693209 </v>
   <v>       0.00389159       0.08984760       0.58813225 </v>
   <v>       0.73930269       0.92037715       0.57293787 </v>
   <v>       0.74624366       0.08773136       0.82150267 </v>
   <v>       0.51156449       0.91913964       0.79562863 </v>
  </varray>
 </structure>
</modeling>
