<?xml version="1.0" encoding="ISO-8859-1"?>
<modeling>
 <generator>
  <i name="program" type="string">vasp </i>
  <i name="version" type="string">5.4.4.18Apr17-6-g9f103f2a35  </i>
  <i name="subversion" type="string">(build Jul 31 2017 11:33:29) complex            parallel </i>
  <i name="platform" type="string">LinuxIFC </i>
  <i name="date" type="string">2021 09 24 </i>
  <i name="time" type="string">16:10:20 </i>
 </generator>
 <incar>
  <i type="string" name="SYSTEM"> La2O2S</i>
  <i type="string" name="PREC">normal</i>
  <i type="int" name="NELMIN">     4</i>
  <i type="int" name="IBRION">     2</i>
  <i type="int" name="NFREE">    10</i>
  <i name="EDIFF">      0.00000100</i>
  <i name="EDIFFG">     -0.01000000</i>
  <i type="int" name="NSW">   200</i>
  <i type="int" name="ISIF">     3</i>
  <i name="ENCUT">    600.00000000</i>
  <i name="ENAUG">    900.00000000</i>
  <i type="int" name="ISMEAR">    -5</i>
  <i type="logical" name="LWAVE"> F  </i>
  <i type="logical" name="LCHARG"> F  </i>
  <v type="int" name="KPOINT_BSE">    -1     0     0     0</v>
 </incar>
 <structure name="primitive_cell" >
  <crystal>
   <varray name="basis" >
    <v>      11.17850000       0.00000000       0.00000000 </v>
    <v>       0.00000000       9.57460000       0.00000000 </v>
    <v>       0.00000000       0.00000000      11.18240000 </v>
   </varray>
   <i name="volume">   1196.84853820 </i>
   <varray name="rec_basis" >
    <v>       0.08945744       0.00000000       0.00000000 </v>
    <v>       0.00000000       0.10444301       0.00000000 </v>
    <v>       0.00000000       0.00000000       0.08942624 </v>
   </varray>
  </crystal>
  <varray name="positions" >
   <v>       0.37539000       0.00017000       0.43687000 </v>
   <v>      -0.49987000      -0.07798000       0.31246000 </v>
   <v>       0.25013000       0.07798000       0.31246000 </v>
   <v>       0.49987000       0.07798000      -0.43754000 </v>
   <v>       0.24987000      -0.07798000      -0.43754000 </v>
   <v>      -0.37461000      -0.00016000       0.43687000 </v>
   <v>       0.37461000       0.00017000      -0.31313000 </v>
   <v>       0.37461000       0.00017000       0.18687000 </v>
   <v>       0.49987000      -0.29519000       0.31282000 </v>
   <v>       0.24987000       0.29519000       0.31282000 </v>
   <v>      -0.49987000       0.29519000      -0.43719000 </v>
   <v>       0.25013000      -0.29519000      -0.43719000 </v>
   <v>       0.49995000       0.32677000       0.31286000 </v>
   <v>       0.24995000      -0.32677000       0.31286000 </v>
   <v>      -0.49995000      -0.32677000      -0.43714000 </v>
   <v>       0.25005000       0.32677000      -0.43714000 </v>
   <v>      -0.37539000      -0.00016000      -0.31313000 </v>
   <v>       0.12461000      -0.00016000       0.18687000 </v>
   <v>       0.49987000       0.07798000       0.06246000 </v>
   <v>      -0.24987000       0.07798000       0.31246000 </v>
   <v>      -0.25013000      -0.07798000      -0.43754000 </v>
   <v>       0.24987000      -0.07798000       0.06246000 </v>
   <v>       0.00013000      -0.07798000       0.31246000 </v>
   <v>      -0.49987000      -0.07798000      -0.18754000 </v>
   <v>      -0.00013000       0.07798000      -0.43754000 </v>
   <v>       0.25013000       0.07798000      -0.18754000 </v>
   <v>      -0.49987000       0.29519000       0.06281000 </v>
   <v>      -0.25013000       0.29519000       0.31282000 </v>
   <v>       0.25013000      -0.29519000       0.06281000 </v>
   <v>      -0.24987000      -0.29519000      -0.43719000 </v>
   <v>      -0.00013000      -0.29519000       0.31282000 </v>
   <v>       0.00013000       0.29519000      -0.43719000 </v>
   <v>       0.49987000      -0.29519000      -0.18718000 </v>
   <v>       0.24987000       0.29519000      -0.18718000 </v>
   <v>      -0.49995000      -0.32677000       0.06286000 </v>
   <v>       0.25005000       0.32677000       0.06286000 </v>
   <v>      -0.25005000      -0.32677000       0.31286000 </v>
   <v>      -0.24995000       0.32677000      -0.43714000 </v>
   <v>      -0.00005000       0.32677000       0.31286000 </v>
   <v>       0.00005000      -0.32677000      -0.43714000 </v>
   <v>       0.49995000       0.32677000      -0.18714000 </v>
   <v>       0.24995000      -0.32677000      -0.18714000 </v>
   <v>      -0.12461000       0.00017000       0.43687000 </v>
   <v>       0.37539000       0.00017000      -0.06313000 </v>
   <v>      -0.25013000      -0.07798000       0.06246000 </v>
   <v>      -0.00013000       0.07798000       0.06246000 </v>
   <v>      -0.24987000       0.07798000      -0.18754000 </v>
   <v>       0.00013000      -0.07798000      -0.18754000 </v>
   <v>      -0.12539000       0.00017000       0.18687000 </v>
   <v>      -0.12539000       0.00017000      -0.31313000 </v>
   <v>       0.12539000      -0.00016000      -0.06313000 </v>
   <v>      -0.37461000      -0.00016000      -0.06313000 </v>
   <v>      -0.24987000      -0.29519000       0.06281000 </v>
   <v>       0.00013000       0.29519000       0.06281000 </v>
   <v>      -0.25013000       0.29519000      -0.18718000 </v>
   <v>      -0.00013000      -0.29519000      -0.18718000 </v>
   <v>      -0.24995000       0.32677000       0.06286000 </v>
   <v>       0.00005000      -0.32677000       0.06286000 </v>
   <v>      -0.25005000      -0.32677000      -0.18714000 </v>
   <v>      -0.00005000       0.32677000      -0.18714000 </v>
   <v>      -0.12461000       0.00017000      -0.06313000 </v>
  </varray>
 </structure>
 <varray name="primitive_index" >
  <v type="int" >        1 </v>
  <v type="int" >       53 </v>
  <v type="int" >       48 </v>
  <v type="int" >       54 </v>
  <v type="int" >       55 </v>
  <v type="int" >        3 </v>
  <v type="int" >        8 </v>
  <v type="int" >       11 </v>
  <v type="int" >       17 </v>
  <v type="int" >       16 </v>
  <v type="int" >       26 </v>
  <v type="int" >       23 </v>
  <v type="int" >       32 </v>
  <v type="int" >       33 </v>
  <v type="int" >       43 </v>
  <v type="int" >       38 </v>
  <v type="int" >       10 </v>
  <v type="int" >        2 </v>
  <v type="int" >       46 </v>
  <v type="int" >       52 </v>
  <v type="int" >       59 </v>
  <v type="int" >       47 </v>
  <v type="int" >       49 </v>
  <v type="int" >       61 </v>
  <v type="int" >       58 </v>
  <v type="int" >       56 </v>
  <v type="int" >       18 </v>
  <v type="int" >       20 </v>
  <v type="int" >       15 </v>
  <v type="int" >       27 </v>
  <v type="int" >       21 </v>
  <v type="int" >       22 </v>
  <v type="int" >       25 </v>
  <v type="int" >       24 </v>
  <v type="int" >       35 </v>
  <v type="int" >       30 </v>
  <v type="int" >       37 </v>
  <v type="int" >       42 </v>
  <v type="int" >       36 </v>
  <v type="int" >       39 </v>
  <v type="int" >       40 </v>
  <v type="int" >       41 </v>
  <v type="int" >        4 </v>
  <v type="int" >        7 </v>
  <v type="int" >       51 </v>
  <v type="int" >       50 </v>
  <v type="int" >       60 </v>
  <v type="int" >       57 </v>
  <v type="int" >        5 </v>
  <v type="int" >       13 </v>
  <v type="int" >        6 </v>
  <v type="int" >       12 </v>
  <v type="int" >       19 </v>
  <v type="int" >       14 </v>
  <v type="int" >       28 </v>
  <v type="int" >       29 </v>
  <v type="int" >       34 </v>
  <v type="int" >       31 </v>
  <v type="int" >       45 </v>
  <v type="int" >       44 </v>
  <v type="int" >        9 </v>
 </varray>
 <kpoints>
  <generation param="Gamma">
   <v type="int" name="divisions">       2        2        2 </v>
   <v name="usershift">      0.00000000       0.00000000       0.00000000 </v>
   <v name="genvec1">      0.50000000       0.00000000       0.00000000 </v>
   <v name="genvec2">      0.00000000       0.50000000       0.00000000 </v>
   <v name="genvec3">      0.00000000       0.00000000       0.50000000 </v>
   <v name="shift">      0.00000000       0.00000000       0.00000000 </v>
  </generation>
  <varray name="kpointlist" >
   <v>       0.00000000       0.00000000       0.00000000 </v>
   <v>       0.50000000       0.00000000       0.00000000 </v>
   <v>       0.00000000       0.50000000       0.00000000 </v>
   <v>       0.50000000       0.50000000       0.00000000 </v>
   <v>       0.00000000       0.00000000       0.50000000 </v>
   <v>       0.50000000       0.00000000       0.50000000 </v>
   <v>       0.00000000       0.50000000       0.50000000 </v>
   <v>       0.50000000       0.50000000       0.50000000 </v>
  </varray>
  <varray name="weights" >
   <v>       0.12500000 </v>
   <v>       0.12500000 </v>
   <v>       0.12500000 </v>
   <v>       0.12500000 </v>
   <v>       0.12500000 </v>
   <v>       0.12500000 </v>
   <v>       0.12500000 </v>
   <v>       0.12500000 </v>
  </varray>
  <varray name="tetrahedronlist"  type="int" >
   <v type="int" >        2        1        2        4        5 </v>
   <v type="int" >        2        1        3        4        5 </v>
   <v type="int" >        2        3        4        5        7 </v>
   <v type="int" >        2        2        4        5        6 </v>
   <v type="int" >        2        4        5        6        8 </v>
   <v type="int" >        2        4        5        7        8 </v>
   <v type="int" >        2        1        2        3        6 </v>
   <v type="int" >        2        2        3        4        6 </v>
   <v type="int" >        2        3        4        6        8 </v>
   <v type="int" >        2        1        3        5        6 </v>
   <v type="int" >        2        3        5        6        7 </v>
   <v type="int" >        2        3        6        7        8 </v>
   <v type="int" >        2        2        3        4        7 </v>
   <v type="int" >        2        1        2        3        7 </v>
   <v type="int" >        2        1        2        5        7 </v>
   <v type="int" >        2        2        4        7        8 </v>
   <v type="int" >        2        2        6        7        8 </v>
   <v type="int" >        2        2        5        6        7 </v>
   <v type="int" >        2        1        3        4        8 </v>
   <v type="int" >        2        1        2        4        8 </v>
   <v type="int" >        2        1        2        6        8 </v>
   <v type="int" >        2        1        3        7        8 </v>
   <v type="int" >        2        1        5        7        8 </v>
   <v type="int" >        2        1        5        6        8 </v>
  </varray>
  <i name="volumeweight">      0.02083333 </i>
 </kpoints>
 <parameters>
  <separator name="general" >
   <i type="string" name="SYSTEM">La2O2S</i>
   <i type="logical" name="LCOMPAT"> F  </i>
  </separator>
  <separator name="electronic" >
   <i type="string" name="PREC">normal</i>
   <i name="ENMAX">    600.00000000</i>
   <i name="ENAUG">    900.00000000</i>
   <i name="EDIFF">      0.00000100</i>
   <i type="int" name="IALGO">    38</i>
   <i type="int" name="IWAVPR">    11</i>
   <i type="int" name="NBANDS">   280</i>
   <i name="NELECT">    468.00000000</i>
   <i type="int" name="TURBO">     0</i>
   <i type="int" name="IRESTART">     0</i>
   <i type="int" name="NREBOOT">     0</i>
   <i type="int" name="NMIN">     0</i>
   <i name="EREF">      0.00000000</i>
   <separator name="electronic smearing" >
    <i type="int" name="ISMEAR">    -5</i>
    <i name="SIGMA">      0.20000000</i>
    <i name="KSPACING">      0.50000000</i>
    <i type="logical" name="KGAMMA"> T  </i>
   </separator>
   <separator name="electronic projectors" >
    <i type="logical" name="LREAL"> F  </i>
    <v name="ROPT">      0.00000000      0.00000000      0.00000000      0.00000000      0.00000000</v>
    <i type="int" name="LMAXPAW">  -100</i>
    <i type="int" name="LMAXMIX">     2</i>
    <i type="logical" name="NLSPLINE"> F  </i>
   </separator>
   <separator name="electronic startup" >
    <i type="int" name="ISTART">     0</i>
    <i type="int" name="ICHARG">     2</i>
    <i type="int" name="INIWAV">     1</i>
   </separator>
   <separator name="electronic spin" >
    <i type="int" name="ISPIN">     1</i>
    <i type="logical" name="LNONCOLLINEAR"> F  </i>
    <v name="MAGMOM">      1.00000000      1.00000000      1.00000000      1.00000000      1.00000000      1.00000000      1.00000000      1.00000000      1.00000000      1.00000000      1.00000000      1.00000000      1.00000000      1.00000000      1.00000000      1.00000000      1.00000000      1.00000000      1.00000000      1.00000000
      1.00000000      1.00000000      1.00000000      1.00000000      1.00000000      1.00000000      1.00000000      1.00000000      1.00000000      1.00000000      1.00000000      1.00000000      1.00000000      1.00000000      1.00000000      1.00000000      1.00000000      1.00000000      1.00000000      1.00000000
      1.00000000      1.00000000      1.00000000      1.00000000      1.00000000      1.00000000      1.00000000      1.00000000      1.00000000      1.00000000      1.00000000      1.00000000      1.00000000      1.00000000      1.00000000      1.00000000      1.00000000      1.00000000      1.00000000      1.00000000
      1.00000000</v>
    <i name="NUPDOWN">     -1.00000000</i>
    <i type="logical" name="LSORBIT"> F  </i>
    <v name="SAXIS">      0.00000000      0.00000000      1.00000000</v>
    <i type="logical" name="LSPIRAL"> F  </i>
    <v name="QSPIRAL">      0.00000000      0.00000000      0.00000000</v>
    <i type="logical" name="LZEROZ"> F  </i>
   </separator>
   <separator name="electronic exchange-correlation" >
    <i type="logical" name="LASPH"> F  </i>
    <i type="logical" name="LMETAGGA"> F  </i>
   </separator>
   <separator name="electronic convergence" >
    <i type="int" name="NELM">    60</i>
    <i type="int" name="NELMDL">    -5</i>
    <i type="int" name="NELMIN">     4</i>
    <i name="ENINI">    600.00000000</i>
    <separator name="electronic convergence detail" >
     <i type="logical" name="LDIAG"> T  </i>
     <i type="logical" name="LSUBROT"> F  </i>
     <i name="WEIMIN">      0.00100000</i>
     <i name="EBREAK">      0.00000000</i>
     <i name="DEPER">      0.30000000</i>
     <i type="int" name="NRMM">     4</i>
     <i name="TIME">      0.40000000</i>
    </separator>
   </separator>
   <separator name="electronic mixer" >
    <i name="AMIX">      0.40000000</i>
    <i name="BMIX">      1.00000000</i>
    <i name="AMIN">      0.10000000</i>
    <i name="AMIX_MAG">      1.60000000</i>
    <i name="BMIX_MAG">      1.00000000</i>
    <separator name="electronic mixer details" >
     <i type="int" name="IMIX">     4</i>
     <i type="logical" name="MIXFIRST"> F  </i>
     <i type="int" name="MAXMIX">   -45</i>
     <i name="WC">    100.00000000</i>
     <i type="int" name="INIMIX">     1</i>
     <i type="int" name="MIXPRE">     1</i>
     <i type="int" name="MREMOVE">     5</i>
    </separator>
   </separator>
   <separator name="electronic dipolcorrection" >
    <i type="logical" name="LDIPOL"> F  </i>
    <i type="logical" name="LMONO"> F  </i>
    <i type="int" name="IDIPOL">     0</i>
    <i name="EPSILON">      1.00000000</i>
    <v name="DIPOL">   -100.00000000   -100.00000000   -100.00000000</v>
    <i name="EFIELD">      0.00000000</i>
   </separator>
  </separator>
  <separator name="grids" >
   <i type="int" name="NGX">    70</i>
   <i type="int" name="NGY">    60</i>
   <i type="int" name="NGZ">    70</i>
   <i type="int" name="NGXF">   140</i>
   <i type="int" name="NGYF">   120</i>
   <i type="int" name="NGZF">   140</i>
   <i type="logical" name="ADDGRID"> F  </i>
  </separator>
  <separator name="ionic" >
   <i type="int" name="NSW">   200</i>
   <i type="int" name="IBRION">     2</i>
   <i type="int" name="MDALGO">     0</i>
   <i type="int" name="ISIF">     3</i>
   <i name="PSTRESS">      0.00000000</i>
   <i name="EDIFFG">     -0.01000000</i>
   <i type="int" name="NFREE">    10</i>
   <i name="POTIM">      0.50000000</i>
   <i name="SMASS">     -3.00000000</i>
   <i name="SCALEE">      1.00000000</i>
  </separator>
  <separator name="ionic md" >
   <i name="TEBEG">      0.00010000</i>
   <i name="TEEND">      0.00010000</i>
   <i type="int" name="NBLOCK">     1</i>
   <i type="int" name="KBLOCK">   200</i>
   <i type="int" name="NPACO">   256</i>
   <i name="APACO">     16.00000000</i>
  </separator>
  <separator name="symmetry" >
   <i type="int" name="ISYM">     2</i>
   <i name="SYMPREC">      0.00001000</i>
  </separator>
  <separator name="dos" >
   <i type="int" name="LORBIT">     0</i>
   <v name="RWIGS">     -1.00000000     -1.00000000     -1.00000000     -1.00000000     -1.00000000</v>
   <i type="int" name="NEDOS">   301</i>
   <i name="EMIN">     10.00000000</i>
   <i name="EMAX">    -10.00000000</i>
   <i name="EFERMI">      0.00000000</i>
  </separator>
  <separator name="writing" >
   <i type="int" name="NWRITE">     2</i>
   <i type="logical" name="LWAVE"> F  </i>
   <i type="logical" name="LDOWNSAMPLE"> F  </i>
   <i type="logical" name="LCHARG"> F  </i>
   <i type="logical" name="LPARD"> F  </i>
   <i type="logical" name="LVTOT"> F  </i>
   <i type="logical" name="LVHAR"> F  </i>
   <i type="logical" name="LELF"> F  </i>
   <i type="logical" name="LOPTICS"> F  </i>
   <v name="STM">      0.00000000      0.00000000      0.00000000      0.00000000      0.00000000      0.00000000      0.00000000</v>
  </separator>
  <separator name="performance" >
   <i type="int" name="NPAR">    28</i>
   <i type="int" name="NSIM">     4</i>
   <i type="int" name="NBLK">    -1</i>
   <i type="logical" name="LPLANE"> T  </i>
   <i type="logical" name="LSCALAPACK"> T  </i>
   <i type="logical" name="LSCAAWARE"> F  </i>
   <i type="logical" name="LSCALU"> F  </i>
   <i type="logical" name="LASYNC"> F  </i>
   <i type="logical" name="LORBITALREAL"> F  </i>
  </separator>
  <separator name="miscellaneous" >
   <i type="int" name="IDIOT">     3</i>
   <i type="int" name="ISPECIAL">     0</i>
   <i type="logical" name="LMUSIC"> F  </i>
   <v name="POMASS">      7.01000000     24.30500000    208.98000000     32.06600000     16.00000000</v>
   <v name="DARWINR">      0.00000000      0.00000000      0.00000000      0.00000000      0.00000000</v>
   <v name="DARWINV">      1.00000000      1.00000000      1.00000000      1.00000000      1.00000000</v>
   <i type="logical" name="LCORR"> T  </i>
  </separator>
  <i type="logical" name="GGA_COMPAT"> T  </i>
  <i type="logical" name="LBERRY"> F  </i>
  <i type="int" name="ICORELEVEL">     0</i>
  <i type="logical" name="LDAU"> F  </i>
  <i type="int" name="I_CONSTRAINED_M">     0</i>
  <separator name="electronic exchange-correlation" >
   <i type="string" name="GGA">--</i>
   <i type="int" name="VOSKOWN">     0</i>
   <i type="logical" name="LHFCALC"> F  </i>
   <i type="string" name="PRECFOCK"></i>
   <i type="logical" name="LSYMGRAD"> F  </i>
   <i type="logical" name="LHFONE"> F  </i>
   <i type="logical" name="LRHFCALC"> F  </i>
   <i type="logical" name="LTHOMAS"> F  </i>
   <i type="logical" name="LMODELHF"> F  </i>
   <i name="ENCUT4O">     -1.00000000</i>
   <i type="int" name="EXXOEP">     0</i>
   <i type="int" name="FOURORBIT">     0</i>
   <i name="AEXX">      0.00000000</i>
   <i name="HFALPHA">      0.00000000</i>
   <i name="MCALPHA">      0.00000000</i>
   <i name="ALDAX">      1.00000000</i>
   <i name="AGGAX">      1.00000000</i>
   <i name="ALDAC">      1.00000000</i>
   <i name="AGGAC">      1.00000000</i>
   <i type="int" name="NKREDX">     1</i>
   <i type="int" name="NKREDY">     1</i>
   <i type="int" name="NKREDZ">     1</i>
   <i type="logical" name="SHIFTRED"> F  </i>
   <i type="logical" name="ODDONLY"> F  </i>
   <i type="logical" name="EVENONLY"> F  </i>
   <i type="int" name="LMAXFOCK">     0</i>
   <i type="int" name="NMAXFOCKAE">     0</i>
   <i type="logical" name="LFOCKAEDFT"> F  </i>
   <i name="HFSCREEN">      0.00000000</i>
   <i name="HFSCREENC">      0.00000000</i>
   <i type="int" name="NBANDSGWLOW">     0</i>
  </separator>
  <separator name="vdW DFT" >
   <i type="logical" name="LUSE_VDW"> F  </i>
   <i name="Zab_VDW">     -0.84910000</i>
   <i name="PARAM1">      0.12340000</i>
   <i name="PARAM2">      1.00000000</i>
   <i name="PARAM3">      0.00000000</i>
  </separator>
  <separator name="model GW" >
   <i type="int" name="MODEL_GW">     0</i>
   <i name="MODEL_EPS0">     11.77228070</i>
   <i name="MODEL_ALPHA">      1.00000000</i>
  </separator>
  <separator name="linear response parameters" >
   <i type="logical" name="LEPSILON"> F  </i>
   <i type="logical" name="LRPA"> F  </i>
   <i type="logical" name="LNABLA"> F  </i>
   <i type="logical" name="LVEL"> F  </i>
   <i type="int" name="KINTER">     0</i>
   <i name="CSHIFT">      0.10000000</i>
   <i name="OMEGAMAX">     -1.00000000</i>
   <i name="DEG_THRESHOLD">      0.00200000</i>
   <i name="RTIME">     -0.10000000</i>
   <i name="WPLASMAI">      0.00000000</i>
   <v name="DFIELD">      0.00000000      0.00000000      0.00000000</v>
   <v name="WPLASMA">      0.00000000      0.00000000      0.00000000      0.00000000      0.00000000      0.00000000      0.00000000      0.00000000      0.00000000</v>
  </separator>
  <separator name="orbital magnetization" >
   <i type="logical" name="NUCIND"> F  </i>
   <v name="MAGPOS">      0.00000000      0.00000000      0.00000000</v>
   <i type="logical" name="LNICSALL"> T  </i>
   <i type="logical" name="ORBITALMAG"> F  </i>
   <i type="logical" name="LMAGBLOCH"> F  </i>
   <i type="logical" name="LCHIMAG"> F  </i>
   <i type="logical" name="LGAUGE"> T  </i>
   <i type="int" name="MAGATOM">     0</i>
   <v name="MAGDIPOL">      0.00000000      0.00000000      0.00000000</v>
   <v name="AVECCONST">      0.00000000      0.00000000      0.00000000</v>
  </separator>
  <separator name="response functions" >
   <i type="logical" name="LADDER"> F  </i>
   <i type="logical" name="LRPAFORCE"> F  </i>
   <i type="logical" name="LFXC"> F  </i>
   <i type="logical" name="LHARTREE"> T  </i>
   <i type="int" name="IBSE">     0</i>
   <v type="int" name="KPOINT">    -1     0     0     0</v>
   <i type="logical" name="LTCTE"> F  </i>
   <i type="logical" name="LTETE"> F  </i>
   <i type="logical" name="LTRIPLET"> F  </i>
   <i type="logical" name="LFXCEPS"> F  </i>
   <i type="logical" name="LFXHEG"> F  </i>
   <i type="int" name="NATURALO">     2</i>
   <i type="logical" name="L2ORDER"> F  </i>
   <i type="logical" name="LMP2LT"> F  </i>
   <i type="logical" name="LUSEW"> F  </i>
   <i name="ENCUTGW">     -2.00000000</i>
   <i name="ENCUTGWSOFT">     -2.00000000</i>
   <i name="ENCUTLF">     -1.00000000</i>
   <i type="int" name="LMAXMP2">    -1</i>
   <i name="SCISSOR">      0.00000000</i>
   <i type="int" name="NOMEGA">     0</i>
   <i type="int" name="NOMEGAR">     0</i>
   <i type="int" name="NBANDSGW">    -1</i>
   <i type="int" name="NBANDSO">    -1</i>
   <i type="int" name="NBANDSV">    -1</i>
   <i type="int" name="NELM">     1</i>
   <i type="int" name="NELMHF">     1</i>
   <i type="int" name="DIM">     3</i>
   <i type="int" name="ANTIRES">     0</i>
   <i name="OMEGAMAX">    -30.00000000</i>
   <i name="OMEGAMIN">    -30.00000000</i>
   <i name="OMEGATL">   -200.00000000</i>
   <i type="int" name="OMEGAGRID">   140</i>
   <i name="CSHIFT">     -0.10000000</i>
   <i type="logical" name="SELFENERGY"> F  </i>
   <i type="logical" name="LSPECTRAL"> F  </i>
   <i type="logical" name="LSPECTRALGW"> F  </i>
   <i type="logical" name="LSINGLES"> F  </i>
   <i type="logical" name="LFERMIGW"> F  </i>
   <i type="logical" name="ODDONLYGW"> F  </i>
   <i type="logical" name="EVENONLYGW"> F  </i>
   <i type="int" name="NKREDLFX">     1</i>
   <i type="int" name="NKREDLFY">     1</i>
   <i type="int" name="NKREDLFZ">     1</i>
   <i type="int" name="MAXMEM">  2800</i>
   <i type="int" name="TELESCOPE">     0</i>
   <i type="int" name="TAUPAR">     1</i>
   <i type="int" name="OMEGAPAR">    -1</i>
   <i name="LAMBDA">      1.00000000</i>
  </separator>
  <separator name="External order field" >
   <i name="OFIELD_KAPPA">      0.00000000</i>
   <v name="OFIELD_K">      0.00000000      0.00000000      0.00000000</v>
   <i name="OFIELD_Q6_NEAR">      0.00000000</i>
   <i name="OFIELD_Q6_FAR">      0.00000000</i>
   <i name="OFIELD_A">      0.00000000</i>
  </separator>
 </parameters>
 <atominfo>
  <atoms>      61 </atoms>
  <types>       5 </types>
  <array name="atoms" >
   <dimension dim="1">ion</dimension>
   <field type="string">element</field>
   <field type="int">atomtype</field>
   <set>
    <rc><c>Li</c><c>   1</c></rc>
    <rc><c>Li</c><c>   1</c></rc>
    <rc><c>Li</c><c>   1</c></rc>
    <rc><c>Li</c><c>   1</c></rc>
    <rc><c>Li</c><c>   1</c></rc>
    <rc><c>Li</c><c>   1</c></rc>
    <rc><c>Li</c><c>   1</c></rc>
    <rc><c>Li</c><c>   1</c></rc>
    <rc><c>Li</c><c>   1</c></rc>
    <rc><c>Li</c><c>   1</c></rc>
    <rc><c>Mg</c><c>   2</c></rc>
    <rc><c>Mg</c><c>   2</c></rc>
    <rc><c>Mg</c><c>   2</c></rc>
    <rc><c>Bi</c><c>   3</c></rc>
    <rc><c>Bi</c><c>   3</c></rc>
    <rc><c>Bi</c><c>   3</c></rc>
    <rc><c>Bi</c><c>   3</c></rc>
    <rc><c>Bi</c><c>   3</c></rc>
    <rc><c>Bi</c><c>   3</c></rc>
    <rc><c>Bi</c><c>   3</c></rc>
    <rc><c>Bi</c><c>   3</c></rc>
    <rc><c>Bi</c><c>   3</c></rc>
    <rc><c>Bi</c><c>   3</c></rc>
    <rc><c>Bi</c><c>   3</c></rc>
    <rc><c>Bi</c><c>   3</c></rc>
    <rc><c>Bi</c><c>   3</c></rc>
    <rc><c>Bi</c><c>   3</c></rc>
    <rc><c>Bi</c><c>   3</c></rc>
    <rc><c>Bi</c><c>   3</c></rc>
    <rc><c>S </c><c>   4</c></rc>
    <rc><c>S </c><c>   4</c></rc>
    <rc><c>S </c><c>   4</c></rc>
    <rc><c>S </c><c>   4</c></rc>
    <rc><c>S </c><c>   4</c></rc>
    <rc><c>S </c><c>   4</c></rc>
    <rc><c>S </c><c>   4</c></rc>
    <rc><c>S </c><c>   4</c></rc>
    <rc><c>S </c><c>   4</c></rc>
    <rc><c>S </c><c>   4</c></rc>
    <rc><c>S </c><c>   4</c></rc>
    <rc><c>S </c><c>   4</c></rc>
    <rc><c>S </c><c>   4</c></rc>
    <rc><c>S </c><c>   4</c></rc>
    <rc><c>S </c><c>   4</c></rc>
    <rc><c>S </c><c>   4</c></rc>
    <rc><c>O </c><c>   5</c></rc>
    <rc><c>O </c><c>   5</c></rc>
    <rc><c>O </c><c>   5</c></rc>
    <rc><c>O </c><c>   5</c></rc>
    <rc><c>O </c><c>   5</c></rc>
    <rc><c>O </c><c>   5</c></rc>
    <rc><c>O </c><c>   5</c></rc>
    <rc><c>O </c><c>   5</c></rc>
    <rc><c>O </c><c>   5</c></rc>
    <rc><c>O </c><c>   5</c></rc>
    <rc><c>O </c><c>   5</c></rc>
    <rc><c>O </c><c>   5</c></rc>
    <rc><c>O </c><c>   5</c></rc>
    <rc><c>O </c><c>   5</c></rc>
    <rc><c>O </c><c>   5</c></rc>
    <rc><c>O </c><c>   5</c></rc>
   </set>
  </array>
  <array name="atomtypes" >
   <dimension dim="1">type</dimension>
   <field type="int">atomspertype</field>
   <field type="string">element</field>
   <field>mass</field>
   <field>valence</field>
   <field type="string">pseudopotential</field>
   <set>
    <rc><c>  10</c><c>Li</c><c>      7.01000000</c><c>      3.00000000</c><c>  PAW_PBE Li_sv 10Sep2004               </c></rc>
    <rc><c>   3</c><c>Mg</c><c>     24.30500000</c><c>      2.00000000</c><c>  PAW_PBE Mg 13Apr2007                  </c></rc>
    <rc><c>  16</c><c>Bi</c><c>    208.98000000</c><c>     15.00000000</c><c>  PAW_PBE Bi_d 06Sep2000                </c></rc>
    <rc><c>  16</c><c>S </c><c>     32.06600000</c><c>      6.00000000</c><c>  PAW_PBE S 06Sep2000                   </c></rc>
    <rc><c>  16</c><c>O </c><c>     16.00000000</c><c>      6.00000000</c><c>  PAW_PBE O 08Apr2002                   </c></rc>
   </set>
  </array>
 </atominfo>
 <structure name="initialpos" >
  <crystal>
   <varray name="basis" >
    <v>      11.17850000       0.00000000       0.00000000 </v>
    <v>       0.00000000       9.57460000       0.00000000 </v>
    <v>       0.00000000       0.00000000      11.18240000 </v>
   </varray>
   <i name="volume">   1196.84853820 </i>
   <varray name="rec_basis" >
    <v>       0.08945744       0.00000000       0.00000000 </v>
    <v>       0.00000000       0.10444301       0.00000000 </v>
    <v>       0.00000000       0.00000000       0.08942624 </v>
   </varray>
  </crystal>
  <varray name="positions" >
   <v>       0.37539000       0.00017000       0.43687000 </v>
   <v>       0.12461000       0.99984000       0.18687000 </v>
   <v>       0.62539000       0.99984000       0.43687000 </v>
   <v>       0.87539000       0.00017000       0.43687000 </v>
   <v>       0.87461000       0.00017000       0.18687000 </v>
   <v>       0.12539000       0.99984000       0.93687000 </v>
   <v>       0.37539000       0.00017000       0.93687000 </v>
   <v>       0.37461000       0.00017000       0.68687000 </v>
   <v>       0.87539000       0.00017000       0.93687000 </v>
   <v>       0.62461000       0.99984000       0.68687000 </v>
   <v>       0.37461000       0.00017000       0.18687000 </v>
   <v>       0.62539000       0.99984000       0.93687000 </v>
   <v>       0.87461000       0.00017000       0.68687000 </v>
   <v>       0.00013000       0.29519000       0.06281000 </v>
   <v>       0.25013000       0.70481000       0.06281000 </v>
   <v>       0.24987000       0.29519000       0.31282000 </v>
   <v>       0.49987000       0.70481000       0.31282000 </v>
   <v>       0.50013000       0.29519000       0.06281000 </v>
   <v>       0.75013000       0.70481000       0.06281000 </v>
   <v>       0.74987000       0.29519000       0.31282000 </v>
   <v>       0.99987000       0.70481000       0.31282000 </v>
   <v>       0.00013000       0.29519000       0.56281000 </v>
   <v>       0.25013000       0.70481000       0.56281000 </v>
   <v>       0.24987000       0.29519000       0.81282000 </v>
   <v>       0.49987000       0.70481000       0.81282000 </v>
   <v>       0.50013000       0.29519000       0.56281000 </v>
   <v>       0.75013000       0.70481000       0.56281000 </v>
   <v>       0.74987000       0.29519000       0.81282000 </v>
   <v>       0.99987000       0.70481000       0.81282000 </v>
   <v>       0.25005000       0.32677000       0.06286000 </v>
   <v>       0.00005000       0.67323000       0.06286000 </v>
   <v>       0.49995000       0.32677000       0.31286000 </v>
   <v>       0.24995000       0.67323000       0.31286000 </v>
   <v>       0.75005000       0.32677000       0.06286000 </v>
   <v>       0.50005000       0.67323000       0.06286000 </v>
   <v>       0.99995000       0.32677000       0.31286000 </v>
   <v>       0.74995000       0.67323000       0.31286000 </v>
   <v>       0.25005000       0.32677000       0.56286000 </v>
   <v>       0.00005000       0.67323000       0.56286000 </v>
   <v>       0.49995000       0.32677000       0.81286000 </v>
   <v>       0.24995000       0.67323000       0.81286000 </v>
   <v>       0.75005000       0.32677000       0.56286000 </v>
   <v>       0.50005000       0.67323000       0.56286000 </v>
   <v>       0.99995000       0.32677000       0.81286000 </v>
   <v>       0.74995000       0.67323000       0.81286000 </v>
   <v>       0.49987000       0.07798000       0.06246000 </v>
   <v>       0.24987000       0.92202000       0.06246000 </v>
   <v>       0.25013000       0.07798000       0.31246000 </v>
   <v>       0.00013000       0.92202000       0.31246000 </v>
   <v>       0.99987000       0.07798000       0.06246000 </v>
   <v>       0.74987000       0.92202000       0.06246000 </v>
   <v>       0.75013000       0.07798000       0.31246000 </v>
   <v>       0.50013000       0.92202000       0.31246000 </v>
   <v>       0.49987000       0.07798000       0.56246000 </v>
   <v>       0.24987000       0.92202000       0.56246000 </v>
   <v>       0.25013000       0.07798000       0.81246000 </v>
   <v>       0.00013000       0.92202000       0.81246000 </v>
   <v>       0.99987000       0.07798000       0.56246000 </v>
   <v>       0.74987000       0.92202000       0.56246000 </v>
   <v>       0.75013000       0.07798000       0.81246000 </v>
   <v>       0.50013000       0.92202000       0.81246000 </v>
  </varray>
 </structure>
 <calculation>
  <scstep>
   <time name="dav">   59.69   59.97</time>
   <time name="total">   59.78   60.07</time>
   <energy>
    <i name="alphaZ">   1073.51873187 </i>
    <i name="ewald"> -30881.44176047 </i>
    <i name="hartreedc"> -12706.98870804 </i>
    <i name="XCdc">   1395.02796579 </i>
    <i name="pawpsdc">  36823.70205594 </i>
    <i name="pawaedc"> -36326.52930246 </i>
    <i name="eentropy">      0.00000000 </i>
    <i name="bandstr">   1803.47262597 </i>
    <i name="atom">  44791.06186932 </i>
    <i name="e_fr_energy">   5971.82347793 </i>
    <i name="e_wo_entrp">   5971.82347793 </i>
    <i name="e_0_energy">   5971.82347793 </i>
   </energy>
  </scstep>
  <scstep>
   <time name="dav">   60.85   61.20</time>
   <time name="total">   60.86   61.21</time>
   <energy>
    <i name="e_fr_energy">    785.38773987 </i>
    <i name="e_wo_entrp">    785.38773987 </i>
    <i name="e_0_energy">    785.38773987 </i>
   </energy>
  </scstep>
  <scstep>
   <time name="dav">   68.43   68.73</time>
   <time name="total">   68.43   68.73</time>
   <energy>
    <i name="e_fr_energy">   -242.08569231 </i>
    <i name="e_wo_entrp">   -242.08569231 </i>
    <i name="e_0_energy">   -242.08569231 </i>
   </energy>
  </scstep>
  <scstep>
   <time name="dav">   73.53   73.92</time>
   <time name="total">   73.53   73.93</time>
   <energy>
    <i name="e_fr_energy">   -346.45858312 </i>
    <i name="e_wo_entrp">   -346.45858312 </i>
    <i name="e_0_energy">   -346.45858312 </i>
   </energy>
  </scstep>
  <scstep>
   <time name="dav">   95.89   96.59</time>
   <time name="total">   96.63   97.33</time>
   <energy>
    <i name="e_fr_energy">   -354.35997405 </i>
    <i name="e_wo_entrp">   -354.35997405 </i>
    <i name="e_0_energy">   -354.35997405 </i>
   </energy>
  </scstep>
  <scstep>
   <time name="dav">   84.46   85.10</time>
   <time name="total">   85.26   85.90</time>
   <energy>
    <i name="e_fr_energy">   -295.51062087 </i>
    <i name="e_wo_entrp">   -295.51062087 </i>
    <i name="e_0_energy">   -295.51062087 </i>
   </energy>
  </scstep>
  <scstep>
   <time name="dav">   64.65   65.10</time>
   <time name="total">   65.46   65.91</time>
   <energy>
    <i name="e_fr_energy">   -298.10857606 </i>
    <i name="e_wo_entrp">   -298.10857606 </i>
    <i name="e_0_energy">   -298.10857606 </i>
   </energy>
  </scstep>
  <scstep>
   <time name="dav">   77.08   77.38</time>
   <time name="total">   77.89   78.19</time>
   <energy>
    <i name="e_fr_energy">   -296.81540522 </i>
    <i name="e_wo_entrp">   -296.81540522 </i>
    <i name="e_0_energy">   -296.81540522 </i>
   </energy>
  </scstep>
  <scstep>
   <time name="dav">   69.37   69.53</time>
   <time name="total">   70.18   70.33</time>
   <energy>
    <i name="e_fr_energy">   -296.14890168 </i>
    <i name="e_wo_entrp">   -296.14890168 </i>
    <i name="e_0_energy">   -296.14890168 </i>
   </energy>
  </scstep>
  <scstep>
   <time name="dav">   72.67   72.93</time>
   <time name="total">   73.47   73.73</time>
   <energy>
    <i name="e_fr_energy">   -296.19927652 </i>
    <i name="e_wo_entrp">   -296.19927652 </i>
    <i name="e_0_energy">   -296.19927652 </i>
   </energy>
  </scstep>
  <scstep>
   <time name="dav">   84.25   84.42</time>
   <time name="total">   85.06   85.22</time>
   <energy>
    <i name="e_fr_energy">   -296.20200274 </i>
    <i name="e_wo_entrp">   -296.20200274 </i>
    <i name="e_0_energy">   -296.20200274 </i>
   </energy>
  </scstep>
  <scstep>
   <time name="dav">   74.57   74.93</time>
   <time name="total">   75.38   75.74</time>
   <energy>
    <i name="e_fr_energy">   -296.20572885 </i>
    <i name="e_wo_entrp">   -296.20572885 </i>
    <i name="e_0_energy">   -296.20572885 </i>
   </energy>
  </scstep>
  <scstep>
   <time name="dav">   76.77   76.94</time>
   <time name="total">   77.57   77.75</time>
   <energy>
    <i name="e_fr_energy">   -296.20737913 </i>
    <i name="e_wo_entrp">   -296.20737913 </i>
    <i name="e_0_energy">   -296.20737913 </i>
   </energy>
  </scstep>
  <scstep>
   <time name="dav">   71.98   72.15</time>
   <time name="total">   72.79   72.96</time>
   <energy>
    <i name="e_fr_energy">   -296.20723595 </i>
    <i name="e_wo_entrp">   -296.20723595 </i>
    <i name="e_0_energy">   -296.20723595 </i>
   </energy>
  </scstep>
  <scstep>
   <time name="dav">   73.95   74.19</time>
   <time name="total">   74.76   75.00</time>
   <energy>
    <i name="e_fr_energy">   -296.20738771 </i>
    <i name="e_wo_entrp">   -296.20738771 </i>
    <i name="e_0_energy">   -296.20738771 </i>
   </energy>
  </scstep>
  <scstep>
   <time name="dav">   83.80   83.97</time>
   <time name="total">   84.61   84.78</time>
   <energy>
    <i name="e_fr_energy">   -296.20739963 </i>
    <i name="e_wo_entrp">   -296.20739963 </i>
    <i name="e_0_energy">   -296.20739963 </i>
   </energy>
  </scstep>
  <scstep>
   <time name="dav">   67.01   67.06</time>
   <time name="total">   67.81   67.87</time>
   <energy>
    <i name="e_fr_energy">   -296.20740923 </i>
    <i name="e_wo_entrp">   -296.20740923 </i>
    <i name="e_0_energy">   -296.20740923 </i>
   </energy>
  </scstep>
  <scstep>
   <time name="dav">   68.26   68.46</time>
   <time name="total">   69.05   69.26</time>
   <energy>
    <i name="e_fr_energy">   -296.20741078 </i>
    <i name="e_wo_entrp">   -296.20741078 </i>
    <i name="e_0_energy">   -296.20741078 </i>
   </energy>
  </scstep>
  <scstep>
   <time name="dav">   62.64   62.87</time>
   <time name="total">   63.48   63.72</time>
   <energy>
    <i name="e_fr_energy">   -296.20741208 </i>
    <i name="e_wo_entrp">   -296.20741208 </i>
    <i name="e_0_energy">   -296.20741208 </i>
   </energy>
  </scstep>
  <scstep>
   <time name="dav">   47.57   47.74</time>
   <time name="total">   47.65   47.81</time>
   <energy>
    <i name="alphaZ">   1073.51873187 </i>
    <i name="ewald"> -30881.44176047 </i>
    <i name="hartreedc"> -12939.55048947 </i>
    <i name="XCdc">   1418.40753613 </i>
    <i name="pawpsdc">  43849.28366941 </i>
    <i name="pawaedc"> -43326.97700999 </i>
    <i name="eentropy">      0.00000000 </i>
    <i name="bandstr">  -4280.50995855 </i>
    <i name="atom">  44791.06186932 </i>
    <i name="e_fr_energy">   -296.20741175 </i>
    <i name="e_wo_entrp">   -296.20741175 </i>
    <i name="e_0_energy">   -296.20741175 </i>
   </energy>
  </scstep>
  <structure>
   <crystal>
    <varray name="basis" >
     <v>      11.17850000       0.00000000       0.00000000 </v>
     <v>       0.00000000       9.57460000       0.00000000 </v>
     <v>       0.00000000       0.00000000      11.18240000 </v>
    </varray>
    <i name="volume">   1196.84853820 </i>
    <varray name="rec_basis" >
     <v>       0.08945744       0.00000000       0.00000000 </v>
     <v>       0.00000000       0.10444301       0.00000000 </v>
     <v>       0.00000000       0.00000000       0.08942624 </v>
    </varray>
   </crystal>
   <varray name="positions" >
    <v>       0.37539000       0.00017000       0.43687000 </v>
    <v>       0.12461000       0.99984000       0.18687000 </v>
    <v>       0.62539000       0.99984000       0.43687000 </v>
    <v>       0.87539000       0.00017000       0.43687000 </v>
    <v>       0.87461000       0.00017000       0.18687000 </v>
    <v>       0.12539000       0.99984000       0.93687000 </v>
    <v>       0.37539000       0.00017000       0.93687000 </v>
    <v>       0.37461000       0.00017000       0.68687000 </v>
    <v>       0.87539000       0.00017000       0.93687000 </v>
    <v>       0.62461000       0.99984000       0.68687000 </v>
    <v>       0.37461000       0.00017000       0.18687000 </v>
    <v>       0.62539000       0.99984000       0.93687000 </v>
    <v>       0.87461000       0.00017000       0.68687000 </v>
    <v>       0.00013000       0.29519000       0.06281000 </v>
    <v>       0.25013000       0.70481000       0.06281000 </v>
    <v>       0.24987000       0.29519000       0.31282000 </v>
    <v>       0.49987000       0.70481000       0.31282000 </v>
    <v>       0.50013000       0.29519000       0.06281000 </v>
    <v>       0.75013000       0.70481000       0.06281000 </v>
    <v>       0.74987000       0.29519000       0.31282000 </v>
    <v>       0.99987000       0.70481000       0.31282000 </v>
    <v>       0.00013000       0.29519000       0.56281000 </v>
    <v>       0.25013000       0.70481000       0.56281000 </v>
    <v>       0.24987000       0.29519000       0.81282000 </v>
    <v>       0.49987000       0.70481000       0.81282000 </v>
    <v>       0.50013000       0.29519000       0.56281000 </v>
    <v>       0.75013000       0.70481000       0.56281000 </v>
    <v>       0.74987000       0.29519000       0.81282000 </v>
    <v>       0.99987000       0.70481000       0.81282000 </v>
    <v>       0.25005000       0.32677000       0.06286000 </v>
    <v>       0.00005000       0.67323000       0.06286000 </v>
    <v>       0.49995000       0.32677000       0.31286000 </v>
    <v>       0.24995000       0.67323000       0.31286000 </v>
    <v>       0.75005000       0.32677000       0.06286000 </v>
    <v>       0.50005000       0.67323000       0.06286000 </v>
    <v>       0.99995000       0.32677000       0.31286000 </v>
    <v>       0.74995000       0.67323000       0.31286000 </v>
    <v>       0.25005000       0.32677000       0.56286000 </v>
    <v>       0.00005000       0.67323000       0.56286000 </v>
    <v>       0.49995000       0.32677000       0.81286000 </v>
    <v>       0.24995000       0.67323000       0.81286000 </v>
    <v>       0.75005000       0.32677000       0.56286000 </v>
    <v>       0.50005000       0.67323000       0.56286000 </v>
    <v>       0.99995000       0.32677000       0.81286000 </v>
    <v>       0.74995000       0.67323000       0.81286000 </v>
    <v>       0.49987000       0.07798000       0.06246000 </v>
    <v>       0.24987000       0.92202000       0.06246000 </v>
    <v>       0.25013000       0.07798000       0.31246000 </v>
    <v>       0.00013000       0.92202000       0.31246000 </v>
    <v>       0.99987000       0.07798000       0.06246000 </v>
    <v>       0.74987000       0.92202000       0.06246000 </v>
    <v>       0.75013000       0.07798000       0.31246000 </v>
    <v>       0.50013000       0.92202000       0.31246000 </v>
    <v>       0.49987000       0.07798000       0.56246000 </v>
    <v>       0.24987000       0.92202000       0.56246000 </v>
    <v>       0.25013000       0.07798000       0.81246000 </v>
    <v>       0.00013000       0.92202000       0.81246000 </v>
    <v>       0.99987000       0.07798000       0.56246000 </v>
    <v>       0.74987000       0.92202000       0.56246000 </v>
    <v>       0.75013000       0.07798000       0.81246000 </v>
    <v>       0.50013000       0.92202000       0.81246000 </v>
   </varray>
  </structure>
  <varray name="forces" >
   <v>      -0.54751445      -0.11937607       0.44813932 </v>
   <v>      -0.47000862       0.00091684       0.57976676 </v>
   <v>      -0.01353260       0.13132070      -0.50968463 </v>
   <v>       0.56081400       0.12283833      -0.46819417 </v>
   <v>      -0.18688511       0.00550181       0.31757626 </v>
   <v>      -0.01466698       0.13196618      -0.49949959 </v>
   <v>      -0.54685064       0.12656595      -0.45424896 </v>
   <v>      -0.79701629       0.01827595      -0.30312105 </v>
   <v>       0.54879349      -0.12702359       0.48976872 </v>
   <v>      -0.47904015       0.00190602      -0.55855138 </v>
   <v>       0.49792463      -0.01557389       0.58143415 </v>
   <v>      -0.02612656      -0.22452689       1.06326417 </v>
   <v>       1.55988252      -0.02218228      -0.50643752 </v>
   <v>       0.07481136       0.04841502       0.20684446 </v>
   <v>      -0.29760685      -1.07505359       0.01225641 </v>
   <v>      -0.37547803       0.02408583       0.47539680 </v>
   <v>       0.09594317       0.01505749       0.17113635 </v>
   <v>       0.01521925       0.97648449       0.32256399 </v>
   <v>       0.17694346      -0.06133211       0.50242178 </v>
   <v>       0.10233752      -0.98293612      -0.01779867 </v>
   <v>       0.18914441       1.02569656       0.26573509 </v>
   <v>       0.53693609      -0.98962939      -0.25669563 </v>
   <v>      -0.35547874       1.95714055      -0.08209638 </v>
   <v>      -0.26431001      -0.94431873      -0.40320157 </v>
   <v>      -0.41486886      -1.11881057      -0.32958742 </v>
   <v>      -0.30514097       0.06675273      -0.18451083 </v>
   <v>       0.10194408      -1.08979858      -0.39709881 </v>
   <v>       0.22458600       2.04921874      -0.12081787 </v>
   <v>       0.48196551      -0.02466135      -0.23589338 </v>
   <v>       0.19392014       0.14759360       0.07187826 </v>
   <v>       0.00218396      -0.19791387      -0.16618950 </v>
   <v>      -0.08637026       0.13474462      -0.18640566 </v>
   <v>       0.22621670      -0.17601849      -0.44339644 </v>
   <v>      -0.17661411       0.03715408      -0.37483970 </v>
   <v>      -0.01832099      -0.00292328      -0.17548291 </v>
   <v>       0.02213343       0.23815013      -0.19791554 </v>
   <v>      -0.15022798      -0.17695293       0.01834264 </v>
   <v>       0.21041569       0.19582846      -0.01869614 </v>
   <v>      -0.45190164      -0.13534396       0.23314961 </v>
   <v>       0.35395875       0.05127423       0.18362176 </v>
   <v>       0.18877155      -0.15423599       0.36982511 </v>
   <v>      -0.13259644       0.15488328       0.38011257 </v>
   <v>       0.36941744      -0.19608234       0.18293799 </v>
   <v>      -0.38212659       0.11941237       0.12798872 </v>
   <v>      -0.16145945      -0.01162358      -0.00612682 </v>
   <v>      -0.56722759      -0.77313094      -0.82258049 </v>
   <v>       0.64772035       0.81431379       0.44164072 </v>
   <v>       1.17159056      -0.04038212      -1.33204438 </v>
   <v>      -0.59929763      -0.87574812      -0.73158985 </v>
   <v>      -0.00551468      -0.03544824      -0.16030883 </v>
   <v>      -0.03849291       0.15467574      -1.43653355 </v>
   <v>       0.45488320       0.79703426       0.62313401 </v>
   <v>      -1.09137108      -0.02831166      -0.03325976 </v>
   <v>       0.30485468      -0.05478884       0.17301023 </v>
   <v>       1.26352900      -1.58998099       0.02105076 </v>
   <v>       0.74964225       0.71516307       0.85486137 </v>
   <v>      -1.41061076       0.04937580       0.23664437 </v>
   <v>      -1.85824484       0.71878605       0.60173153 </v>
   <v>       0.29502665       0.82399512       0.80436460 </v>
   <v>      -0.19988279      -1.58128441       0.01240637 </v>
   <v>       0.80327475       0.97086512       0.63980255 </v>
  </varray>
  <varray name="stress" >
   <v>      -8.18104630       0.27582053      -0.35190575 </v>
   <v>       0.27582048     -13.82920446       0.42627370 </v>
   <v>      -0.35190581       0.42627365      -5.81258802 </v>
  </varray>
  <energy>
   <i name="e_fr_energy">   -310.80529586 </i>
   <i name="e_wo_entrp">   -310.80529586 </i>
   <i name="e_0_energy">      0.00000000 </i>
  </energy>
  <time name="totalsc"> 1566.10 1572.42</time>
 </calculation>
 <calculation>
  <scstep>
   <time name="dav">   60.93   61.19</time>
   <time name="total">   61.77   62.05</time>
   <energy>
    <i name="alphaZ">   1091.36634964 </i>
    <i name="ewald"> -31037.83139885 </i>
    <i name="hartreedc"> -13015.26215645 </i>
    <i name="XCdc">   1428.11017158 </i>
    <i name="pawpsdc">  43849.26000627 </i>
    <i name="pawaedc"> -43326.95622658 </i>
    <i name="eentropy">      0.00000000 </i>
    <i name="bandstr">  -4075.49194921 </i>
    <i name="atom">  44791.06186932 </i>
    <i name="e_fr_energy">   -295.74333428 </i>
    <i name="e_wo_entrp">   -295.74333428 </i>
    <i name="e_0_energy">   -295.74333428 </i>
   </energy>
  </scstep>
  <scstep>
   <time name="dav">   71.79   72.16</time>
   <time name="total">   72.66   73.03</time>
   <energy>
    <i name="e_fr_energy">   -297.83894670 </i>
    <i name="e_wo_entrp">   -297.83894670 </i>
    <i name="e_0_energy">   -297.83894670 </i>
   </energy>
  </scstep>
  <scstep>
   <time name="dav">   85.52   85.88</time>
   <time name="total">   86.38   86.75</time>
   <energy>
    <i name="e_fr_energy">   -297.59452267 </i>
    <i name="e_wo_entrp">   -297.59452267 </i>
    <i name="e_0_energy">   -297.59452267 </i>
   </energy>
  </scstep>
  <scstep>
   <time name="dav">   78.41   78.71</time>
   <time name="total">   79.20   79.51</time>
   <energy>
    <i name="e_fr_energy">   -297.48581457 </i>
    <i name="e_wo_entrp">   -297.48581457 </i>
    <i name="e_0_energy">   -297.48581457 </i>
   </energy>
  </scstep>
  <scstep>
   <time name="dav">   74.38   74.63</time>
   <time name="total">   75.18   75.42</time>
   <energy>
    <i name="e_fr_energy">   -297.48649580 </i>
    <i name="e_wo_entrp">   -297.48649580 </i>
    <i name="e_0_energy">   -297.48649580 </i>
   </energy>
  </scstep>
  <scstep>
   <time name="dav">   72.71   73.01</time>
   <time name="total">   73.52   73.82</time>
   <energy>
    <i name="e_fr_energy">   -297.48529613 </i>
    <i name="e_wo_entrp">   -297.48529613 </i>
    <i name="e_0_energy">   -297.48529613 </i>
   </energy>
  </scstep>
  <scstep>
   <time name="dav">   75.14   75.39</time>
   <time name="total">   75.93   76.18</time>
   <energy>
    <i name="e_fr_energy">   -297.48450997 </i>
    <i name="e_wo_entrp">   -297.48450997 </i>
    <i name="e_0_energy">   -297.48450997 </i>
   </energy>
  </scstep>
  <scstep>
   <time name="dav">   92.20   92.60</time>
   <time name="total">   92.99   93.39</time>
   <energy>
    <i name="e_fr_energy">   -297.48454410 </i>
    <i name="e_wo_entrp">   -297.48454410 </i>
    <i name="e_0_energy">   -297.48454410 </i>
   </energy>
  </scstep>
  <scstep>
   <time name="dav">   65.58   65.86</time>
   <time name="total">   66.42   66.71</time>
   <energy>
    <i name="e_fr_energy">   -297.48458640 </i>
    <i name="e_wo_entrp">   -297.48458640 </i>
    <i name="e_0_energy">   -297.48458640 </i>
   </energy>
  </scstep>
  <scstep>
   <time name="dav">   81.87   82.29</time>
   <time name="total">   82.66   83.09</time>
   <energy>
    <i name="e_fr_energy">   -297.48459607 </i>
    <i name="e_wo_entrp">   -297.48459607 </i>
    <i name="e_0_energy">   -297.48459607 </i>
   </energy>
  </scstep>
  <scstep>
   <time name="dav">   66.87   68.20</time>
   <time name="total">   67.66   69.00</time>
   <energy>
    <i name="e_fr_energy">   -297.48459642 </i>
    <i name="e_wo_entrp">   -297.48459642 </i>
    <i name="e_0_energy">   -297.48459642 </i>
   </energy>
  </scstep>
  <scstep>
   <time name="dav">   65.17   65.59</time>
   <time name="total">   65.24   65.67</time>
   <energy>
    <i name="alphaZ">   1091.36634964 </i>
    <i name="ewald"> -31037.83139885 </i>
    <i name="hartreedc"> -12866.38018511 </i>
    <i name="XCdc">   1421.33937208 </i>
    <i name="pawpsdc">  44221.93167959 </i>
    <i name="pawaedc"> -43702.56405399 </i>
    <i name="eentropy">      0.00000000 </i>
    <i name="bandstr">  -4216.40822922 </i>
    <i name="atom">  44791.06186932 </i>
    <i name="e_fr_energy">   -297.48459655 </i>
    <i name="e_wo_entrp">   -297.48459655 </i>
    <i name="e_0_energy">   -297.48459655 </i>
   </energy>
  </scstep>
  <structure>
   <crystal>
    <varray name="basis" >
     <v>      11.12447157       0.00182155      -0.00232402 </v>
     <v>       0.00156019       9.49637460       0.00241123 </v>
     <v>      -0.00232483       0.00281614      11.14399971 </v>
    </varray>
    <i name="volume">   1177.27592150 </i>
    <varray name="rec_basis" >
     <v>       0.08989192      -0.00001477       0.00001876 </v>
     <v>      -0.00001725       0.10530335      -0.00002661 </v>
     <v>       0.00001875      -0.00002279       0.08973440 </v>
    </varray>
   </crystal>
   <varray name="positions" >
    <v>       0.37302711      -0.00043149       0.43880334 </v>
    <v>       0.12258160       0.99984462       0.18937121 </v>
    <v>       0.62533160       0.00050167       0.43467114 </v>
    <v>       0.87781028       0.00078893       0.43485014 </v>
    <v>       0.87380347       0.00019772       0.18824007 </v>
    <v>       0.12532670       0.00050493       0.93471508 </v>
    <v>       0.37302998       0.00080772       0.93491030 </v>
    <v>       0.37117035       0.00026209       0.68556229 </v>
    <v>       0.87775841      -0.00047002       0.93898294 </v>
    <v>       0.62254262       0.99984960       0.68446032 </v>
    <v>       0.37675888       0.00009153       0.18937840 </v>
    <v>       0.62527725       0.99870870       0.94145709 </v>
    <v>       0.88134193       0.00005823       0.68468515 </v>
    <v>       0.00045286       0.29543394       0.06370236 </v>
    <v>       0.24884563       0.69939323       0.06286288 </v>
    <v>       0.24824956       0.29531136       0.31487094 </v>
    <v>       0.50028406       0.70488587       0.31355831 </v>
    <v>       0.50019568       0.30011012       0.06420159 </v>
    <v>       0.75089363       0.70450097       0.06497753 </v>
    <v>       0.75031165       0.29023737       0.31274321 </v>
    <v>       0.00068628       0.70997808       0.31396642 </v>
    <v>       0.00244724       0.29020365       0.56170257 </v>
    <v>       0.24859587       0.71467126       0.56245582 </v>
    <v>       0.24872933       0.29043195       0.81108052 </v>
    <v>       0.49807957       0.69917275       0.81139811 </v>
    <v>       0.49881311       0.29552634       0.56201399 </v>
    <v>       0.75056996       0.69931893       0.56109685 </v>
    <v>       0.75083924       0.30551521       0.81229877 </v>
    <v>       0.00195000       0.70468574       0.81180232 </v>
    <v>       0.25088689       0.32751367       0.06317009 </v>
    <v>       0.00005943       0.67223279       0.06214303 </v>
    <v>       0.49957725       0.32744893       0.31205582 </v>
    <v>       0.25092628       0.67234311       0.31094712 </v>
    <v>       0.74928779       0.32695720       0.06124288 </v>
    <v>       0.49997093       0.67321527       0.06210294 </v>
    <v>       0.00004552       0.32796995       0.31200616 </v>
    <v>       0.74930167       0.67233840       0.31293913 </v>
    <v>       0.25095808       0.32775670       0.56277934 </v>
    <v>      -0.00190026       0.67254805       0.56386584 </v>
    <v>       0.50147757       0.32702835       0.81365217 </v>
    <v>       0.25076467       0.67245287       0.81445548 </v>
    <v>       0.74947776       0.32755040       0.56449987 </v>
    <v>       0.50164428       0.67224202       0.56364922 </v>
    <v>       0.99830087       0.32737167       0.81341216 </v>
    <v>       0.74925320       0.67317143       0.81283357 </v>
    <v>       0.49742204       0.07408450       0.05891126 </v>
    <v>       0.25266534       0.92612301       0.06436531 </v>
    <v>       0.25518619       0.07777653       0.30671335 </v>
    <v>      -0.00245637       0.91760745       0.30930380 </v>
    <v>       0.99984620       0.07780139       0.06176840 </v>
    <v>       0.74970388       0.92279935       0.05626257 </v>
    <v>       0.75209312       0.08199594       0.31514830 </v>
    <v>       0.49542001       0.92187735       0.31231651 </v>
    <v>       0.50118565       0.07770394       0.56320639 </v>
    <v>       0.25532297       0.91400871       0.56255082 </v>
    <v>       0.25336520       0.08158343       0.81614801 </v>
    <v>      -0.00595772       0.92226879       0.81348092 </v>
    <v>       0.99185044       0.08160168       0.56505597 </v>
    <v>       0.75114324       0.92617179       0.56593016 </v>
    <v>       0.74926737       0.07001253       0.81251352 </v>
    <v>       0.50359666       0.92691181       0.81522021 </v>
   </varray>
  </structure>
  <varray name="forces" >
   <v>      -0.39460962      -0.05472289       0.28277959 </v>
   <v>      -0.18487460       0.00800878       0.33522413 </v>
   <v>      -0.00083212       0.07033293      -0.29938207 </v>
   <v>       0.32504703       0.06777200      -0.23088073 </v>
   <v>      -0.20898481       0.00209687       0.09807267 </v>
   <v>      -0.00039736       0.07093986      -0.28287671 </v>
   <v>      -0.28324842       0.05701008      -0.22223988 </v>
   <v>      -0.43977609       0.02418331      -0.11312052 </v>
   <v>       0.20918798      -0.06699539       0.19807403 </v>
   <v>      -0.14420639      -0.00289363      -0.18913120 </v>
   <v>       0.45854270      -0.02297726      -0.13500722 </v>
   <v>      -0.03541978      -0.00976049       0.30769107 </v>
   <v>       0.23170308      -0.13417208       0.19496976 </v>
   <v>       0.06119850       0.26763953       0.05941725 </v>
   <v>      -0.08200792       0.01980546       0.06102508 </v>
   <v>      -0.16035136       0.22532758       0.13808186 </v>
   <v>       0.02234188      -0.33923152       0.04221962 </v>
   <v>      -0.03526374       0.00725620       0.07753466 </v>
   <v>       0.04463987      -0.13169513       0.12447645 </v>
   <v>      -0.01720386       1.03134470      -0.01142456 </v>
   <v>       0.16946041      -1.15771770       0.14169945 </v>
   <v>       0.28385705       0.89639869      -0.13670958 </v>
   <v>      -0.31429544      -2.40176586      -0.07343298 </v>
   <v>      -0.10008216       0.88875385      -0.13140245 </v>
   <v>      -0.04252236       0.13950657      -0.11723322 </v>
   <v>      -0.03446958       0.24041561      -0.01761480 </v>
   <v>       0.02146460       0.02871943      -0.02724610 </v>
   <v>       0.03945684      -0.08960201      -0.10621778 </v>
   <v>       0.11480733      -0.25568973      -0.08896925 </v>
   <v>       0.08323879       0.25030598       0.05034705 </v>
   <v>      -0.00962659      -0.18954757      -0.06856066 </v>
   <v>      -0.06675908       0.13092495      -0.09186852 </v>
   <v>       0.12303368      -0.18861004      -0.22974591 </v>
   <v>      -0.07714055       0.07857995      -0.14896336 </v>
   <v>       0.01200867      -0.11889367      -0.05835415 </v>
   <v>       0.01034908       0.14865698      -0.09055585 </v>
   <v>      -0.04734188      -0.10672984       0.00552702 </v>
   <v>       0.11996888       0.07481231      -0.01661118 </v>
   <v>      -0.25316750      -0.07519429       0.14076658 </v>
   <v>       0.12488073       0.20141094       0.08155406 </v>
   <v>       0.08437929      -0.10196792       0.15682991 </v>
   <v>      -0.03463709       0.26664307       0.15226047 </v>
   <v>       0.14561319      -0.20437759       0.07167182 </v>
   <v>      -0.15691279       0.12682912       0.02028173 </v>
   <v>      -0.05781918      -0.27425287       0.01190741 </v>
   <v>      -0.46988136       0.33831255      -0.36961396 </v>
   <v>       0.28354929      -0.30916419       0.26366059 </v>
   <v>       0.65055396      -0.07876850      -0.66344596 </v>
   <v>      -0.52614838       1.27474196      -0.55876263 </v>
   <v>       0.01142871      -0.22963803      -0.00489916 </v>
   <v>       0.28275357      -0.01976686      -0.62294709 </v>
   <v>       0.45763601      -1.16076489       0.48303994 </v>
   <v>      -0.65853744       0.18217747       0.23531154 </v>
   <v>       0.01016923      -0.19543614      -0.01591340 </v>
   <v>       1.10434811       2.72695408       0.01971807 </v>
   <v>       0.47861059      -1.02428069       0.51997290 </v>
   <v>      -0.67366341       0.10639077       0.26028579 </v>
   <v>      -1.04595340      -0.83699213       0.05372045 </v>
   <v>       0.29368448      -0.32489404       0.25294227 </v>
   <v>       0.05525124       0.55974683      -0.00423920 </v>
   <v>       0.24296950      -0.40549545       0.28630687 </v>
  </varray>
  <varray name="stress" >
   <v>       6.24624880       0.14889716      -0.11883093 </v>
   <v>       0.14889772       9.33738892      -0.98760955 </v>
   <v>      -0.11883057      -0.98760915       5.26983199 </v>
  </varray>
  <energy>
   <i name="e_fr_energy">   -312.27404584 </i>
   <i name="e_wo_entrp">   -312.27404584 </i>
   <i name="e_0_energy">      0.00000000 </i>
  </energy>
  <time name="totalsc"> 1004.37 1009.64</time>
 </calculation>
 <calculation>
  <scstep>
   <time name="dav">   67.54   68.15</time>
   <time name="total">   68.33   68.94</time>
   <energy>
    <i name="alphaZ">   1090.29203940 </i>
    <i name="ewald"> -31029.59221813 </i>
    <i name="hartreedc"> -12860.93926949 </i>
    <i name="XCdc">   1420.74504565 </i>
    <i name="pawpsdc">  44221.92959615 </i>
    <i name="pawaedc"> -43702.56390099 </i>
    <i name="eentropy">      0.00000000 </i>
    <i name="bandstr">  -4228.43244491 </i>
    <i name="atom">  44791.06186932 </i>
    <i name="e_fr_energy">   -297.49928300 </i>
    <i name="e_wo_entrp">   -297.49928300 </i>
    <i name="e_0_energy">   -297.49928300 </i>
   </energy>
  </scstep>
  <scstep>
   <time name="dav">   65.43   66.86</time>
   <time name="total">   66.22   67.65</time>
   <energy>
    <i name="e_fr_energy">   -297.50499721 </i>
    <i name="e_wo_entrp">   -297.50499721 </i>
    <i name="e_0_energy">   -297.50499721 </i>
   </energy>
  </scstep>
  <scstep>
   <time name="dav">   81.41   81.42</time>
   <time name="total">   82.21   82.22</time>
   <energy>
    <i name="e_fr_energy">   -297.50425380 </i>
    <i name="e_wo_entrp">   -297.50425380 </i>
    <i name="e_0_energy">   -297.50425380 </i>
   </energy>
  </scstep>
  <scstep>
   <time name="dav">   83.44   84.05</time>
   <time name="total">   84.24   84.85</time>
   <energy>
    <i name="e_fr_energy">   -297.50395305 </i>
    <i name="e_wo_entrp">   -297.50395305 </i>
    <i name="e_0_energy">   -297.50395305 </i>
   </energy>
  </scstep>
  <scstep>
   <time name="dav">   72.77   73.09</time>
   <time name="total">   73.58   73.90</time>
   <energy>
    <i name="e_fr_energy">   -297.50392902 </i>
    <i name="e_wo_entrp">   -297.50392902 </i>
    <i name="e_0_energy">   -297.50392902 </i>
   </energy>
  </scstep>
  <scstep>
   <time name="dav">   79.97   80.72</time>
   <time name="total">   80.76   81.51</time>
   <energy>
    <i name="e_fr_energy">   -297.50391766 </i>
    <i name="e_wo_entrp">   -297.50391766 </i>
    <i name="e_0_energy">   -297.50391766 </i>
   </energy>
  </scstep>
  <scstep>
   <time name="dav">   78.98   80.00</time>
   <time name="total">   79.82   81.02</time>
   <energy>
    <i name="e_fr_energy">   -297.50390762 </i>
    <i name="e_wo_entrp">   -297.50390762 </i>
    <i name="e_0_energy">   -297.50390762 </i>
   </energy>
  </scstep>
  <scstep>
   <time name="dav">   68.94   69.02</time>
   <time name="total">   69.76   69.92</time>
   <energy>
    <i name="e_fr_energy">   -297.50390558 </i>
    <i name="e_wo_entrp">   -297.50390558 </i>
    <i name="e_0_energy">   -297.50390558 </i>
   </energy>
  </scstep>
  <scstep>
   <time name="dav">   46.19   46.20</time>
   <time name="total">   46.26   46.27</time>
   <energy>
    <i name="alphaZ">   1090.29203940 </i>
    <i name="ewald"> -31029.59221813 </i>
    <i name="hartreedc"> -12869.88608013 </i>
    <i name="XCdc">   1421.15407203 </i>
    <i name="pawpsdc">  44195.46607837 </i>
    <i name="pawaedc"> -43675.85897873 </i>
    <i name="eentropy">      0.00000000 </i>
    <i name="bandstr">  -4220.14068760 </i>
    <i name="atom">  44791.06186932 </i>
    <i name="e_fr_energy">   -297.50390548 </i>
    <i name="e_wo_entrp">   -297.50390548 </i>
    <i name="e_0_energy">   -297.50390548 </i>
   </energy>
  </scstep>
  <structure>
   <crystal>
    <varray name="basis" >
     <v>      11.12768919       0.00171306      -0.00218561 </v>
     <v>       0.00146727       9.50103325       0.00226763 </v>
     <v>      -0.00218638       0.00264842      11.14628661 </v>
    </varray>
    <i name="volume">   1178.43594059 </i>
    <varray name="rec_basis" >
     <v>       0.08986592      -0.00001388       0.00001763 </v>
     <v>      -0.00001621       0.10525172      -0.00002501 </v>
     <v>       0.00001762      -0.00002142       0.08971599 </v>
    </varray>
   </crystal>
   <varray name="positions" >
    <v>       0.37316849      -0.00039537       0.43868783 </v>
    <v>       0.12270296       0.99984436       0.18922176 </v>
    <v>       0.62533513       0.00046190       0.43480255 </v>
    <v>       0.87766548       0.00075176       0.43497082 </v>
    <v>       0.87385172       0.00019607       0.18815821 </v>
    <v>       0.12533052       0.00046496       0.93484387 </v>
    <v>       0.37317124       0.00076936       0.93502745 </v>
    <v>       0.37137620       0.00025649       0.68564048 </v>
    <v>       0.87761664      -0.00043153       0.93885663 </v>
    <v>       0.62266637       0.99984896       0.68460435 </v>
    <v>       0.37663025       0.00009631       0.18922847 </v>
    <v>       0.62528393       0.99877671       0.94118296 </v>
    <v>       0.88093909       0.00006498       0.68481563 </v>
    <v>       0.00043353       0.29541932       0.06364903 </v>
    <v>       0.24892244       0.69971846       0.06285966 </v>
    <v>       0.24834651       0.29530409       0.31474840 </v>
    <v>       0.50025927       0.70488133       0.31351418 </v>
    <v>       0.50019177       0.29981472       0.06411849 </v>
    <v>       0.75084790       0.70451957       0.06484798 </v>
    <v>       0.75028518       0.29053475       0.31274773 </v>
    <v>       0.00063746       0.70966780       0.31389797 </v>
    <v>       0.00230854       0.29050306       0.56176866 </v>
    <v>       0.24868777       0.71407912       0.56247714 </v>
    <v>       0.24879757       0.29071760       0.81118443 </v>
    <v>       0.49818668       0.69951119       0.81148303 </v>
    <v>       0.49889193       0.29550612       0.56206158 </v>
    <v>       0.75054360       0.69964862       0.56119915 </v>
    <v>       0.75078133       0.30489524       0.81233004 </v>
    <v>       0.00182554       0.70469321       0.81186311 </v>
    <v>       0.25083681       0.32746903       0.06315156 </v>
    <v>       0.00005886       0.67229265       0.06218586 </v>
    <v>       0.49959958       0.32740814       0.31210389 </v>
    <v>       0.25086787       0.67239634       0.31106141 </v>
    <v>       0.74933343       0.32694593       0.06133953 </v>
    <v>       0.49997567       0.67321614       0.06214818 </v>
    <v>       0.00003982       0.32789788       0.31205720 </v>
    <v>       0.74934046       0.67239193       0.31293440 </v>
    <v>       0.25090375       0.32769747       0.56278416 </v>
    <v>      -0.00178356       0.67258900       0.56380575 </v>
    <v>       0.50138614       0.32701287       0.81360482 </v>
    <v>       0.25071590       0.67249957       0.81436012 </v>
    <v>       0.74951199       0.32750356       0.56440189 </v>
    <v>       0.50154886       0.67230137       0.56360203 </v>
    <v>       0.99839956       0.32733554       0.81337920 </v>
    <v>       0.74929489       0.67317494       0.81283516 </v>
    <v>       0.49756854       0.07431831       0.05912331 </v>
    <v>       0.25249807       0.92587671       0.06425147 </v>
    <v>       0.25488368       0.07778870       0.30705670 </v>
    <v>      -0.00230159       0.91787231       0.30949239 </v>
    <v>       0.99984763       0.07781210       0.06180973 </v>
    <v>       0.74971390       0.92275244       0.05663293 </v>
    <v>       0.75197564       0.08175488       0.31498768 </v>
    <v>       0.49570187       0.92188586       0.31232514 </v>
    <v>       0.50110691       0.07772054       0.56316177 </v>
    <v>       0.25499657       0.91448981       0.56254522 </v>
    <v>       0.25317158       0.08136716       0.81592762 </v>
    <v>      -0.00559342       0.92225380       0.81341999 </v>
    <v>       0.99233036       0.08138417       0.56490098 </v>
    <v>       0.75106703       0.92592257       0.56572282 </v>
    <v>       0.74931893       0.07049092       0.81251023 </v>
    <v>       0.50338921       0.92661817       0.81505528 </v>
   </varray>
  </structure>
  <varray name="forces" >
   <v>      -0.40503342      -0.05984597       0.29368334 </v>
   <v>      -0.20164414       0.00703632       0.35025084 </v>
   <v>      -0.00123868       0.07413437      -0.31193022 </v>
   <v>       0.33920655       0.07116213      -0.24473281 </v>
   <v>      -0.20776265       0.00202678       0.11153717 </v>
   <v>      -0.00078162       0.07469605      -0.29621381 </v>
   <v>      -0.30015069       0.06217815      -0.23710515 </v>
   <v>      -0.46173170       0.02248078      -0.12484011 </v>
   <v>       0.22934250      -0.07065757       0.21481411 </v>
   <v>      -0.16368801      -0.00216185      -0.21096247 </v>
   <v>       0.45895762      -0.02223171      -0.08576465 </v>
   <v>      -0.03147847      -0.02459221       0.35616419 </v>
   <v>       0.32053076      -0.11963389       0.14557626 </v>
   <v>       0.06221027       0.25368487       0.06872677 </v>
   <v>      -0.09544556      -0.03498307       0.05791507 </v>
   <v>      -0.17382972       0.21461138       0.15858024 </v>
   <v>       0.02672158      -0.31722473       0.04985193 </v>
   <v>      -0.03225487       0.05629690       0.09314021 </v>
   <v>       0.05259622      -0.12803274       0.14706578 </v>
   <v>      -0.00878796       0.88063458      -0.00980293 </v>
   <v>       0.16833533      -0.99370582       0.14613255 </v>
   <v>       0.29353546       0.76185433      -0.14200475 </v>
   <v>      -0.30301826      -2.01949626      -0.07335228 </v>
   <v>      -0.10726767       0.75462846      -0.14535782 </v>
   <v>      -0.06568343       0.07811748      -0.13081021 </v>
   <v>      -0.05138405       0.22903641      -0.02748282 </v>
   <v>       0.02618277      -0.02698514      -0.04983842 </v>
   <v>       0.05122468       0.00025845      -0.10777398 </v>
   <v>       0.13641984      -0.24213463      -0.09813153 </v>
   <v>       0.09015336       0.24428147       0.05177149 </v>
   <v>      -0.00844828      -0.19016566      -0.07431850 </v>
   <v>      -0.06798282       0.13120633      -0.09811379 </v>
   <v>       0.12910526      -0.18846319      -0.24324397 </v>
   <v>      -0.08328311       0.07668888      -0.16283446 </v>
   <v>       0.00987502      -0.11252712      -0.06533471 </v>
   <v>       0.01170715       0.15434287      -0.09726527 </v>
   <v>      -0.05391441      -0.11103254       0.00646056 </v>
   <v>       0.12523903       0.08244596      -0.01710272 </v>
   <v>      -0.26577877      -0.07962006       0.14640026 </v>
   <v>       0.13895546       0.19326747       0.08777071 </v>
   <v>       0.09089715      -0.10569017       0.17008739 </v>
   <v>      -0.04029595       0.26029158       0.16667347 </v>
   <v>       0.15965402      -0.20438938       0.07864446 </v>
   <v>      -0.17164100       0.12681946       0.02662641 </v>
   <v>      -0.06385456      -0.25973986       0.01087632 </v>
   <v>      -0.47482096       0.27935642      -0.39921479 </v>
   <v>       0.30687048      -0.25134008       0.27522080 </v>
   <v>       0.68673967      -0.08100516      -0.70842016 </v>
   <v>      -0.52820949       1.11393783      -0.56633998 </v>
   <v>       0.01020188      -0.21695886      -0.01449609 </v>
   <v>       0.25913605      -0.00553180      -0.67609488 </v>
   <v>       0.45635602      -1.01454912       0.48985347 </v>
   <v>      -0.68726037       0.17090552       0.21585776 </v>
   <v>       0.02846703      -0.18574528      -0.00441349 </v>
   <v>       1.10072044       2.35061485       0.01899096 </v>
   <v>       0.49337027      -0.89728649       0.53859960 </v>
   <v>      -0.72076804       0.10540233       0.25690619 </v>
   <v>      -1.09836038      -0.73177187       0.09557880 </v>
   <v>       0.29438816      -0.26627293       0.28730963 </v>
   <v>       0.04034578       0.46677010      -0.00329616 </v>
   <v>       0.27835322      -0.33539334       0.30952622 </v>
  </varray>
  <varray name="stress" >
   <v>       5.27563763       0.13604120      -0.12544849 </v>
   <v>       0.13604161       7.19991051      -0.84576020 </v>
   <v>      -0.12544899      -0.84576014       4.50355454 </v>
  </varray>
  <energy>
   <i name="e_fr_energy">   -312.28148737 </i>
   <i name="e_wo_entrp">   -312.28148737 </i>
   <i name="e_0_energy">      0.00000000 </i>
  </energy>
  <time name="totalsc">  755.78  760.99</time>
 </calculation>
 <calculation>
  <scstep>
   <time name="dav">   59.90   60.18</time>
   <time name="total">   60.69   60.98</time>
   <energy>
    <i name="alphaZ">   1087.57478869 </i>
    <i name="ewald"> -31114.26207162 </i>
    <i name="hartreedc"> -12756.07079640 </i>
    <i name="XCdc">   1419.02609171 </i>
    <i name="pawpsdc">  44195.54513777 </i>
    <i name="pawaedc"> -43675.93860683 </i>
    <i name="eentropy">      0.00000000 </i>
    <i name="bandstr">  -4243.49473548 </i>
    <i name="atom">  44791.06186932 </i>
    <i name="e_fr_energy">   -296.55832285 </i>
    <i name="e_wo_entrp">   -296.55832285 </i>
    <i name="e_0_energy">   -296.55832285 </i>
   </energy>
  </scstep>
  <scstep>
   <time name="dav">   68.30   68.56</time>
   <time name="total">   69.09   69.36</time>
   <energy>
    <i name="e_fr_energy">   -298.17126249 </i>
    <i name="e_wo_entrp">   -298.17126249 </i>
    <i name="e_0_energy">   -298.17126249 </i>
   </energy>
  </scstep>
  <scstep>
   <time name="dav">   87.36   88.64</time>
   <time name="total">   88.15   89.43</time>
   <energy>
    <i name="e_fr_energy">   -298.15890325 </i>
    <i name="e_wo_entrp">   -298.15890325 </i>
    <i name="e_0_energy">   -298.15890325 </i>
   </energy>
  </scstep>
  <scstep>
   <time name="dav">   67.81   68.62</time>
   <time name="total">   68.60   69.42</time>
   <energy>
    <i name="e_fr_energy">   -298.12807849 </i>
    <i name="e_wo_entrp">   -298.12807849 </i>
    <i name="e_0_energy">   -298.12807849 </i>
   </energy>
  </scstep>
  <scstep>
   <time name="dav">   70.41   70.79</time>
   <time name="total">   71.21   71.58</time>
   <energy>
    <i name="e_fr_energy">   -298.10940360 </i>
    <i name="e_wo_entrp">   -298.10940360 </i>
    <i name="e_0_energy">   -298.10940360 </i>
   </energy>
  </scstep>
  <scstep>
   <time name="dav">   70.40   71.12</time>
   <time name="total">   71.19   71.92</time>
   <energy>
    <i name="e_fr_energy">   -298.10952570 </i>
    <i name="e_wo_entrp">   -298.10952570 </i>
    <i name="e_0_energy">   -298.10952570 </i>
   </energy>
  </scstep>
  <scstep>
   <time name="dav">   80.69   81.10</time>
   <time name="total">   81.49   81.90</time>
   <energy>
    <i name="e_fr_energy">   -298.10957825 </i>
    <i name="e_wo_entrp">   -298.10957825 </i>
    <i name="e_0_energy">   -298.10957825 </i>
   </energy>
  </scstep>
  <scstep>
   <time name="dav">   86.52   87.02</time>
   <time name="total">   87.32   87.82</time>
   <energy>
    <i name="e_fr_energy">   -298.10951313 </i>
    <i name="e_wo_entrp">   -298.10951313 </i>
    <i name="e_0_energy">   -298.10951313 </i>
   </energy>
  </scstep>
  <scstep>
   <time name="dav">   71.22   71.47</time>
   <time name="total">   72.03   72.29</time>
   <energy>
    <i name="e_fr_energy">   -298.10950513 </i>
    <i name="e_wo_entrp">   -298.10950513 </i>
    <i name="e_0_energy">   -298.10950513 </i>
   </energy>
  </scstep>
  <scstep>
   <time name="dav">   69.67   69.98</time>
   <time name="total">   70.47   70.79</time>
   <energy>
    <i name="e_fr_energy">   -298.10951382 </i>
    <i name="e_wo_entrp">   -298.10951382 </i>
    <i name="e_0_energy">   -298.10951382 </i>
   </energy>
  </scstep>
  <scstep>
   <time name="dav">   73.15   73.45</time>
   <time name="total">   73.94   74.25</time>
   <energy>
    <i name="e_fr_energy">   -298.10951580 </i>
    <i name="e_wo_entrp">   -298.10951580 </i>
    <i name="e_0_energy">   -298.10951580 </i>
   </energy>
  </scstep>
  <scstep>
   <time name="dav">   57.38   57.58</time>
   <time name="total">   58.18   58.38</time>
   <energy>
    <i name="e_fr_energy">   -298.10951689 </i>
    <i name="e_wo_entrp">   -298.10951689 </i>
    <i name="e_0_energy">   -298.10951689 </i>
   </energy>
  </scstep>
  <scstep>
   <time name="dav">   58.00   58.26</time>
   <time name="total">   58.07   58.33</time>
   <energy>
    <i name="alphaZ">   1087.57478869 </i>
    <i name="ewald"> -31114.26207162 </i>
    <i name="hartreedc"> -12775.59876015 </i>
    <i name="XCdc">   1419.91555394 </i>
    <i name="pawpsdc">  43959.30395729 </i>
    <i name="pawaedc"> -43436.06071324 </i>
    <i name="eentropy">      0.00000000 </i>
    <i name="bandstr">  -4230.04414169 </i>
    <i name="atom">  44791.06186932 </i>
    <i name="e_fr_energy">   -298.10951745 </i>
    <i name="e_wo_entrp">   -298.10951745 </i>
    <i name="e_0_energy">   -298.10951745 </i>
   </energy>
  </scstep>
  <structure>
   <crystal>
    <varray name="basis" >
     <v>      11.13766940       0.00338603      -0.00401309 </v>
     <v>       0.00289516       9.50605425      -0.00129163 </v>
     <v>      -0.00401548      -0.00152868      11.15822676 </v>
    </varray>
    <i name="volume">   1181.38020330 </i>
    <varray name="rec_basis" >
     <v>       0.08978541      -0.00002734       0.00003231 </v>
     <v>      -0.00003198       0.10519613       0.00001440 </v>
     <v>       0.00003229       0.00001217       0.08961999 </v>
    </varray>
   </crystal>
   <varray name="positions" >
    <v>       0.37038517      -0.00096352       0.44080033 </v>
    <v>       0.12093939       0.99988131       0.19182796 </v>
    <v>       0.62530336       0.00112910       0.43249376 </v>
    <v>       0.88019231       0.00138446       0.43302925 </v>
    <v>       0.87260395       0.00021851       0.18924225 </v>
    <v>       0.12529856       0.00113640       0.93262176 </v>
    <v>       0.37083755       0.00136621       0.93314422 </v>
    <v>       0.36787137       0.00041123       0.68452622 </v>
    <v>       0.87965073      -0.00107188       0.94071241 </v>
    <v>       0.62104720       0.99984323       0.68263373 </v>
    <v>       0.37955023      -0.00005090       0.18997416 </v>
    <v>       0.62509982       0.99814866       0.94473947 </v>
    <v>       0.88530009      -0.00058569       0.68447074 </v>
    <v>       0.00084328       0.29680044       0.06433829 </v>
    <v>       0.24794392       0.69713125       0.06313111 </v>
    <v>       0.24688282       0.29643468       0.31633515 </v>
    <v>       0.50055783       0.70332334       0.31405502 </v>
    <v>       0.50008263       0.30228757       0.06513312 </v>
    <v>       0.75141255       0.70373908       0.06643796 </v>
    <v>       0.75044326       0.29274788       0.31267135 </v>
    <v>       0.00172144       0.70698278       0.31503184 </v>
    <v>       0.00459402       0.29210513       0.56067061 </v>
    <v>       0.24670947       0.70833819       0.56200723 </v>
    <v>       0.24783129       0.29238574       0.80979123 </v>
    <v>       0.49711069       0.69739369       0.81029356 </v>
    <v>       0.49808707       0.29680526       0.56159079 </v>
    <v>       0.75085118       0.69706857       0.56022724 </v>
    <v>       0.75143021       0.30949386       0.81163729 </v>
    <v>       0.00333311       0.70342303       0.81099290 </v>
    <v>       0.25159432       0.32902550       0.06351025 </v>
    <v>       0.00002691       0.67089475       0.06155051 </v>
    <v>       0.49914264       0.32836901       0.31132755 </v>
    <v>       0.25185404       0.67105626       0.30917372 </v>
    <v>       0.74863803       0.32741456       0.05992613 </v>
    <v>       0.49998284       0.67264519       0.06153332 </v>
    <v>       0.00013204       0.32920672       0.31126252 </v>
    <v>       0.74882188       0.67143796       0.31299720 </v>
[...]
       <r>    8.8674    0.0000 </r>
       <r>    8.9264    0.0000 </r>
       <r>    8.9355    0.0000 </r>
       <r>    8.9892    0.0000 </r>
       <r>    9.0306    0.0000 </r>
      </set>
     </set>
    </set>
   </array>
  </eigenvalues>
  <separator name="orbital magnetization" >
   <v name="MAGDIPOLOUT">      0.00000000      0.00000000      0.00000000</v>
  </separator>
  <dos>
   <i name="efermi">      4.38622975 </i>
   <total>
    <array>
     <dimension dim="1">gridpoints</dimension>
     <dimension dim="2">spin</dimension>
     <field>energy</field>
     <field>total</field>
     <field>integrated</field>
     <set>
      <set comment="spin 1">
       <r>   -42.1357     0.0000     0.0000 </r>
       <r>   -41.9555     0.0000     0.0000 </r>
       <r>   -41.7754     0.0000     0.0000 </r>
       <r>   -41.5952     0.0000     0.0000 </r>
       <r>   -41.4151     0.0000     0.0000 </r>
       <r>   -41.2349     0.0000     0.0000 </r>
       <r>   -41.0548     0.0000     0.0000 </r>
       <r>   -40.8747     0.0000     0.0000 </r>
       <r>   -40.6945     0.0000     0.0000 </r>
       <r>   -40.5144     0.0000     0.0000 </r>
       <r>   -40.3342     0.0000     0.0000 </r>
       <r>   -40.1541     0.0000     0.0000 </r>
       <r>   -39.9739     0.0000     0.0000 </r>
       <r>   -39.7938     0.0000     0.0000 </r>
       <r>   -39.6137     0.0000     6.0000 </r>
       <r>   -39.4335     0.0000    14.0000 </r>
       <r>   -39.2534     0.0000    18.0000 </r>
       <r>   -39.0732     0.0000    20.0000 </r>
       <r>   -38.8931     0.0000    20.0000 </r>
       <r>   -38.7129     0.0000    20.0000 </r>
       <r>   -38.5328     0.0000    20.0000 </r>
       <r>   -38.3527     0.0000    20.0000 </r>
       <r>   -38.1725     0.0000    20.0000 </r>
       <r>   -37.9924     0.0000    20.0000 </r>
       <r>   -37.8122     0.0000    20.0000 </r>
       <r>   -37.6321     0.0000    20.0000 </r>
       <r>   -37.4519     0.0000    20.0000 </r>
       <r>   -37.2718     0.0000    20.0000 </r>
       <r>   -37.0917     0.0000    20.0000 </r>
       <r>   -36.9115     0.0000    20.0000 </r>
       <r>   -36.7314     0.0000    20.0000 </r>
       <r>   -36.5512     0.0000    20.0000 </r>
       <r>   -36.3711     0.0000    20.0000 </r>
       <r>   -36.1909     0.0000    20.0000 </r>
       <r>   -36.0108     0.0000    20.0000 </r>
       <r>   -35.8307     0.0000    20.0000 </r>
       <r>   -35.6505     0.0000    20.0000 </r>
       <r>   -35.4704     0.0000    20.0000 </r>
       <r>   -35.2902     0.0000    20.0000 </r>
       <r>   -35.1101     0.0000    20.0000 </r>
       <r>   -34.9299     0.0000    20.0000 </r>
       <r>   -34.7498     0.0000    20.0000 </r>
       <r>   -34.5697     0.0000    20.0000 </r>
       <r>   -34.3895     0.0000    20.0000 </r>
       <r>   -34.2094     0.0000    20.0000 </r>
       <r>   -34.0292     0.0000    20.0000 </r>
       <r>   -33.8491     0.0000    20.0000 </r>
       <r>   -33.6689     0.0000    20.0000 </r>
       <r>   -33.4888     0.0000    20.0000 </r>
       <r>   -33.3087     0.0000    20.0000 </r>
       <r>   -33.1285     0.0000    20.0000 </r>
       <r>   -32.9484     0.0000    20.0000 </r>
       <r>   -32.7682     0.0000    20.0000 </r>
       <r>   -32.5881     0.0000    20.0000 </r>
       <r>   -32.4079     0.0000    20.0000 </r>
       <r>   -32.2278     0.0000    20.0000 </r>
       <r>   -32.0477     0.0000    20.0000 </r>
       <r>   -31.8675     0.0000    20.0000 </r>
       <r>   -31.6874     0.0000    20.0000 </r>
       <r>   -31.5072     0.0000    20.0000 </r>
       <r>   -31.3271     0.0000    20.0000 </r>
       <r>   -31.1469     0.0000    20.0000 </r>
       <r>   -30.9668     0.0000    20.0000 </r>
       <r>   -30.7867     0.0000    20.0000 </r>
       <r>   -30.6065     0.0000    20.0000 </r>
       <r>   -30.4264     0.0000    20.0000 </r>
       <r>   -30.2462     0.0000    20.0000 </r>
       <r>   -30.0661     0.0000    20.0000 </r>
       <r>   -29.8859     0.0000    20.0000 </r>
       <r>   -29.7058     0.0000    20.0000 </r>
       <r>   -29.5257     0.0000    20.0000 </r>
       <r>   -29.3455     0.0000    20.0000 </r>
       <r>   -29.1654     0.0000    20.0000 </r>
       <r>   -28.9852     0.0000    20.0000 </r>
       <r>   -28.8051     0.0000    20.0000 </r>
       <r>   -28.6249     0.0000    20.0000 </r>
       <r>   -28.4448     0.0000    20.0000 </r>
       <r>   -28.2647     0.0000    20.0000 </r>
       <r>   -28.0845     0.0000    20.0000 </r>
       <r>   -27.9044     0.0000    20.0000 </r>
       <r>   -27.7242     0.0000    20.0000 </r>
       <r>   -27.5441     0.0000    20.0000 </r>
       <r>   -27.3639     0.0000    20.0000 </r>
       <r>   -27.1838     0.0000    20.0000 </r>
       <r>   -27.0037     0.0000    20.0000 </r>
       <r>   -26.8235     0.0000    20.0000 </r>
       <r>   -26.6434     0.0000    20.0000 </r>
       <r>   -26.4632     0.0000    20.0000 </r>
       <r>   -26.2831     0.0000    20.0000 </r>
       <r>   -26.1029     0.0000    20.0000 </r>
       <r>   -25.9228     0.0000    20.0000 </r>
       <r>   -25.7427     0.0000    20.0000 </r>
       <r>   -25.5625     0.0000    20.0000 </r>
       <r>   -25.3824     0.0000    20.0000 </r>
       <r>   -25.2022     0.0000    20.0000 </r>
       <r>   -25.0221     0.0000    20.0000 </r>
       <r>   -24.8419     0.0000    20.0000 </r>
       <r>   -24.6618     0.0000    20.0000 </r>
       <r>   -24.4817     0.0000    20.0000 </r>
       <r>   -24.3015     0.0000    20.0000 </r>
       <r>   -24.1214     0.0000    20.0000 </r>
       <r>   -23.9412     0.0000    20.0000 </r>
       <r>   -23.7611     0.0000    20.0000 </r>
       <r>   -23.5809     0.0000    20.0000 </r>
       <r>   -23.4008     0.0000    20.0000 </r>
       <r>   -23.2207     0.0000    20.0000 </r>
       <r>   -23.0405     0.0000    20.0000 </r>
       <r>   -22.8604     0.0000    20.0000 </r>
       <r>   -22.6802     0.0000    20.0000 </r>
       <r>   -22.5001     0.0000    20.0000 </r>
       <r>   -22.3199     0.0000    20.0000 </r>
       <r>   -22.1398     0.0000    20.0000 </r>
       <r>   -21.9597     0.0000    20.0000 </r>
       <r>   -21.7795     0.0000    20.0000 </r>
       <r>   -21.5994     0.0000    20.0000 </r>
       <r>   -21.4192     0.0000    20.0000 </r>
       <r>   -21.2391     0.0000    20.0000 </r>
       <r>   -21.0589     0.0000    20.0000 </r>
       <r>   -20.8788     0.0000    20.0000 </r>
       <r>   -20.6987     0.0000    20.0000 </r>
       <r>   -20.5185     0.0000    20.0000 </r>
       <r>   -20.3384     0.0000    20.0000 </r>
       <r>   -20.1582     0.0000    20.0000 </r>
       <r>   -19.9781     0.0000    20.0000 </r>
       <r>   -19.7979     0.0000    20.0000 </r>
       <r>   -19.6178     0.0000    20.0000 </r>
       <r>   -19.4377     0.0000    20.0000 </r>
       <r>   -19.2575     0.0000    20.0000 </r>
       <r>   -19.0774     0.0000    20.0000 </r>
       <r>   -18.8972     0.0000    20.0000 </r>
       <r>   -18.7171     0.0000    22.0000 </r>
       <r>   -18.5369  1870.5575    88.1937 </r>
       <r>   -18.3568     0.0000   164.0000 </r>
       <r>   -18.1767     0.0000   180.0000 </r>
       <r>   -17.9965     0.0000   180.0000 </r>
       <r>   -17.8164     0.0000   180.0000 </r>
       <r>   -17.6362     0.0000   180.0000 </r>
       <r>   -17.4561     0.0000   180.0000 </r>
       <r>   -17.2759     0.0000   180.0000 </r>
       <r>   -17.0958     0.0000   180.0000 </r>
       <r>   -16.9157     0.0000   180.0000 </r>
       <r>   -16.7355     0.0000   180.0000 </r>
       <r>   -16.5554     0.0000   180.0000 </r>
       <r>   -16.3752     0.0000   180.0000 </r>
       <r>   -16.1951     0.0000   180.0000 </r>
       <r>   -16.0149     0.0000   180.0000 </r>
       <r>   -15.8348     0.0000   180.0000 </r>
       <r>   -15.6547     0.0000   180.0000 </r>
       <r>   -15.4745     0.0000   180.0000 </r>
       <r>   -15.2944     0.0000   180.0000 </r>
       <r>   -15.1142     0.0000   180.0000 </r>
       <r>   -14.9341     0.0000   180.0000 </r>
       <r>   -14.7539     0.0000   180.0000 </r>
       <r>   -14.5738     0.0000   180.0000 </r>
       <r>   -14.3937     0.0000   180.0000 </r>
       <r>   -14.2135     0.0000   180.0000 </r>
       <r>   -14.0334     0.0000   180.0000 </r>
       <r>   -13.8532     0.0000   180.0000 </r>
       <r>   -13.6731     0.0000   180.0000 </r>
       <r>   -13.4929     0.0000   180.0000 </r>
       <r>   -13.3128     0.0000   180.0000 </r>
       <r>   -13.1327     0.0000   180.0000 </r>
       <r>   -12.9525     0.0000   184.0000 </r>
       <r>   -12.7724     0.0000   188.0000 </r>
       <r>   -12.5922   706.9491   197.8033 </r>
       <r>   -12.4121     0.0000   210.0000 </r>
       <r>   -12.2319     0.0000   212.0000 </r>
       <r>   -12.0518     0.0000   212.0000 </r>
       <r>   -11.8717     0.0000   212.0000 </r>
       <r>   -11.6915     0.0000   212.0000 </r>
       <r>   -11.5114     0.0000   212.0000 </r>
       <r>   -11.3312     0.0000   212.0000 </r>
       <r>   -11.1511     0.0000   212.0000 </r>
       <r>   -10.9709     0.0000   212.0000 </r>
       <r>   -10.7908     0.0000   212.0000 </r>
       <r>   -10.6107     0.0000   212.0000 </r>
       <r>   -10.4305     0.0000   212.0000 </r>
       <r>   -10.2504     0.0000   212.0000 </r>
       <r>   -10.0702     0.0000   212.0000 </r>
       <r>    -9.8901     0.0000   212.0000 </r>
       <r>    -9.7099     0.0000   212.0000 </r>
       <r>    -9.5298     0.0000   212.0000 </r>
       <r>    -9.3497     3.2962   212.0579 </r>
       <r>    -9.1695     7.2530   213.7437 </r>
       <r>    -8.9894    10.1479   215.3947 </r>
       <r>    -8.8092     5.9838   216.2288 </r>
       <r>    -8.6291    15.6843   219.3911 </r>
       <r>    -8.4489    48.8217   222.3543 </r>
       <r>    -8.2688    19.6304   226.7540 </r>
       <r>    -8.0887     4.9636   228.0450 </r>
       <r>    -7.9085    32.7839   234.1999 </r>
       <r>    -7.7284    22.3971   238.9990 </r>
       <r>    -7.5482    23.2784   241.2741 </r>
       <r>    -7.3681     1.1623   243.9921 </r>
       <r>    -7.1879     0.0000   244.0000 </r>
       <r>    -7.0078     0.0000   244.0000 </r>
       <r>    -6.8277     0.0000   244.0000 </r>
       <r>    -6.6475     0.0000   244.0000 </r>
       <r>    -6.4674     0.0000   244.0000 </r>
       <r>    -6.2872     0.1498   244.0004 </r>
       <r>    -6.1071    21.4521   245.6907 </r>
       <r>    -5.9269    16.7215   250.4328 </r>
       <r>    -5.7468    22.7773   253.1506 </r>
       <r>    -5.5667    25.7141   258.0984 </r>
       <r>    -5.3865    23.1039   262.6293 </r>
       <r>    -5.2064    12.4939   266.2659 </r>
       <r>    -5.0262     3.3754   267.9437 </r>
       <r>    -4.8461     7.0001   268.4807 </r>
       <r>    -4.6659    14.3543   270.4730 </r>
       <r>    -4.4858     4.2943   272.3183 </r>
       <r>    -4.3057     5.7937   273.1291 </r>
       <r>    -4.1255    10.2686   274.4833 </r>
       <r>    -3.9454     2.4561   275.5451 </r>
       <r>    -3.7652     1.2546   275.8791 </r>
       <r>    -3.5851     0.1093   275.9980 </r>
       <r>    -3.4049     0.0000   276.0000 </r>
       <r>    -3.2248     0.0000   276.0000 </r>
       <r>    -3.0447     0.0000   276.0000 </r>
       <r>    -2.8645     0.0000   276.0000 </r>
       <r>    -2.6844     0.0000   276.0000 </r>
       <r>    -2.5042     0.0000   276.0000 </r>
       <r>    -2.3241     0.0000   276.0000 </r>
       <r>    -2.1439     0.0000   276.0000 </r>
       <r>    -1.9638     0.0000   276.0000 </r>
       <r>    -1.7837     0.0000   276.0000 </r>
       <r>    -1.6035     0.0000   276.0000 </r>
       <r>    -1.4234     0.0000   276.0000 </r>
       <r>    -1.2432     3.4591   276.1264 </r>
       <r>    -1.0631     7.7790   277.3892 </r>
       <r>    -0.8829     5.9347   278.5531 </r>
       <r>    -0.7028    14.1222   280.3644 </r>
       <r>    -0.5227     8.7773   282.4831 </r>
       <r>    -0.3425    17.1126   284.4109 </r>
       <r>    -0.1624    26.2017   288.5660 </r>
       <r>     0.0178    41.0454   294.0262 </r>
       <r>     0.1979    36.0146   301.7570 </r>
       <r>     0.3781    46.6737   308.5794 </r>
       <r>     0.5582    26.4755   315.5342 </r>
       <r>     0.7383    34.3462   321.3917 </r>
       <r>     0.9185    31.5233   327.2257 </r>
       <r>     1.0986    36.0681   334.7579 </r>
       <r>     1.2788    41.4410   342.7609 </r>
       <r>     1.4589    34.2500   351.0527 </r>
       <r>     1.6391    54.6254   358.6959 </r>
       <r>     1.8192    43.6730   367.6703 </r>
       <r>     1.9993    51.0168   376.3332 </r>
       <r>     2.1795    39.1110   384.8711 </r>
       <r>     2.3596    45.2726   392.9184 </r>
       <r>     2.5398    78.6900   403.8739 </r>
       <r>     2.7199    79.2179   417.5065 </r>
       <r>     2.9001    68.5843   428.7384 </r>
       <r>     3.0802    64.4306   441.1287 </r>
       <r>     3.2603    36.0057   449.8176 </r>
       <r>     3.4405    27.5932   454.7162 </r>
       <r>     3.6206    35.5902   461.8779 </r>
       <r>     3.8008    13.4624   465.0555 </r>
       <r>     3.9809     7.8692   466.9767 </r>
       <r>     4.1611     2.2884   467.8914 </r>
       <r>     4.3412     0.0000   468.0000 </r>
       <r>     4.5213     0.0000   468.0000 </r>
       <r>     4.7015     0.0000   468.0000 </r>
       <r>     4.8816     0.0000   468.0000 </r>
       <r>     5.0618     0.0000   468.0000 </r>
       <r>     5.2419     0.0298   468.0002 </r>
       <r>     5.4221     4.6138   468.3609 </r>
       <r>     5.6022    10.0454   469.6812 </r>
       <r>     5.7823     8.9930   471.5759 </r>
       <r>     5.9625    21.8112   475.4028 </r>
       <r>     6.1426    13.5423   478.1205 </r>
       <r>     6.3228    12.7160   480.4772 </r>
       <r>     6.5029    13.5515   482.8141 </r>
       <r>     6.6831    14.9020   485.3770 </r>
       <r>     6.8632    16.6650   488.2071 </r>
       <r>     7.0433    19.3939   491.4380 </r>
       <r>     7.2235    23.2817   495.3543 </r>
       <r>     7.4036    28.2704   499.9244 </r>
       <r>     7.5838    38.8098   506.4684 </r>
       <r>     7.7639    29.6807   511.8108 </r>
       <r>     7.9441    40.8372   517.6920 </r>
       <r>     8.1242    34.2596   524.5113 </r>
       <r>     8.3043    29.8213   530.2549 </r>
       <r>     8.4845    20.7231   534.6995 </r>
       <r>     8.6646    31.0712   539.0886 </r>
       <r>     8.8448    38.2697   545.3409 </r>
       <r>     9.0249    35.0809   552.0054 </r>
       <r>     9.2051    23.9844   557.6751 </r>
       <r>     9.3852     2.8109   559.9252 </r>
       <r>     9.5653     0.0000   560.0000 </r>
       <r>     9.7455     0.0000   560.0000 </r>
       <r>     9.9256     0.0000   560.0000 </r>
       <r>    10.1058     0.0000   560.0000 </r>
       <r>    10.2859     0.0000   560.0000 </r>
       <r>    10.4661     0.0000   560.0000 </r>
       <r>    10.6462     0.0000   560.0000 </r>
       <r>    10.8263     0.0000   560.0000 </r>
       <r>    11.0065     0.0000   560.0000 </r>
       <r>    11.1866     0.0000   560.0000 </r>
       <r>    11.3668     0.0000   560.0000 </r>
       <r>    11.5469     0.0000   560.0000 </r>
       <r>    11.7271     0.0000   560.0000 </r>
       <r>    11.9072     0.0000   560.0000 </r>
      </set>
     </set>
    </array>
   </total>
  </dos>
 </calculation>
 <structure name="finalpos" >
  <crystal>
   <varray name="basis" >
    <v>      11.17873993      -0.05583643       0.00399078 </v>
    <v>      -0.04767313       9.51933891       0.01883753 </v>
    <v>       0.00402921       0.02073347      11.18594967 </v>
   </varray>
   <i name="volume">   1190.30973876 </i>
   <varray name="rec_basis" >
    <v>       0.08945777       0.00044807      -0.00003305 </v>
    <v>       0.00052479       0.10505233      -0.00019491 </v>
    <v>      -0.00003280      -0.00017707       0.08939820 </v>
   </varray>
  </crystal>
  <varray name="positions" >
   <v>       0.37105499      -0.00490364       0.43575604 </v>
   <v>       0.12337563       0.00677501       0.19117427 </v>
   <v>       0.60963609       0.01632999       0.39359442 </v>
   <v>       0.92328909       0.03155444       0.42120410 </v>
   <v>       0.83847479      -0.02095811       0.20501774 </v>
   <v>       0.11633160       0.00914995       0.92769136 </v>
   <v>       0.36871409      -0.00412600       0.91883287 </v>
   <v>       0.21668762       0.02855007       0.66205228 </v>
   <v>       0.88516615       0.00019737       0.95334674 </v>
   <v>       0.59207206       0.97387932       0.65863452 </v>
   <v>       0.39118873      -0.00301085       0.17437195 </v>
   <v>       0.63292047       0.00202634       0.94624467 </v>
   <v>       0.86629660       0.00303345       0.70265546 </v>
   <v>       0.00811421       0.30166145       0.06461129 </v>
   <v>       0.25515544       0.68952541       0.06311082 </v>
   <v>       0.25647221       0.30044246       0.31250642 </v>
   <v>       0.50090568       0.69314055       0.31537152 </v>
   <v>       0.50513537       0.31094566       0.06040412 </v>
   <v>       0.75596479       0.69140058       0.06719087 </v>
   <v>       0.75858327       0.29982394       0.32028740 </v>
   <v>       0.00247943       0.71130639       0.31296617 </v>
   <v>      -0.00065334       0.31142551       0.56856618 </v>
   <v>       0.25494984       0.69685566       0.56062098 </v>
   <v>       0.25384145       0.30374101       0.81539876 </v>
   <v>       0.50364482       0.69475292       0.81450159 </v>
   <v>       0.50442236       0.29207404       0.55745737 </v>
   <v>       0.75306638       0.69026731       0.57113595 </v>
   <v>       0.75570028       0.31646713       0.81968325 </v>
   <v>       0.00151830       0.69951831       0.81517152 </v>
   <v>       0.25465761       0.35458835       0.06413857 </v>
   <v>       0.00467140       0.65267944       0.06616359 </v>
   <v>       0.50435935       0.34768022       0.31425563 </v>
   <v>       0.25617072       0.64543912       0.31199875 </v>
   <v>       0.75230701       0.33736899       0.06687360 </v>
   <v>       0.50578896       0.64997009       0.06455828 </v>
   <v>       0.00412137       0.33015523       0.31723310 </v>
   <v>       0.75619879       0.67651963       0.31487159 </v>
   <v>       0.24991317       0.28191108       0.56595138 </v>
   <v>       0.00240788       0.67446024       0.56720792 </v>
   <v>       0.50533666       0.33724371       0.81629463 </v>
   <v>       0.25597077       0.67044320       0.81451135 </v>
   <v>       0.74999008       0.35436248       0.56793882 </v>
   <v>       0.50467543       0.65407812       0.56542459 </v>
   <v>       0.00470440       0.35622184       0.81696345 </v>
   <v>       0.75521340       0.63807531       0.81917862 </v>
   <v>       0.49698149       0.08554813       0.04650891 </v>
   <v>       0.26991337       0.91034202       0.06347621 </v>
   <v>       0.27237020       0.08744167       0.28073249 </v>
   <v>      -0.00852650       0.92414328       0.29026884 </v>
   <v>       0.01624331       0.08569396       0.05348164 </v>
   <v>       0.75703515       0.91189137       0.05145065 </v>
   <v>       0.76399354       0.08486148       0.33258751 </v>
   <v>       0.48393739       0.91150282       0.30745464 </v>
   <v>       0.51861594       0.08014465       0.53126875 </v>
   <v>       0.26888377       0.90643428       0.54908090 </v>
   <v>       0.24258636       0.08748179       0.82709899 </v>
   <v>      -0.02066617       0.91724714       0.82389061 </v>
   <v>       0.96528463       0.09847477       0.57939290 </v>
   <v>       0.74425678       0.90265017       0.60847648 </v>
   <v>       0.76092213       0.09070595       0.83403501 </v>
   <v>       0.52256323       0.91295382       0.82714098 </v>
  </varray>
 </structure>
</modeling>
