<?xml version="1.0" encoding="ISO-8859-1"?>
<modeling>
 <generator>
  <i name="program" type="string">vasp </i>
  <i name="version" type="string">5.4.4.18Apr17-6-g9f103f2a35  </i>
  <i name="subversion" type="string">(build Jul 31 2017 11:33:29) complex            parallel </i>
  <i name="platform" type="string">LinuxIFC </i>
  <i name="date" type="string">2021 09 24 </i>
  <i name="time" type="string">09:38:54 </i>
 </generator>
 <incar>
  <i type="string" name="SYSTEM"> La2O2S</i>
  <i type="string" name="PREC">normal</i>
  <i type="int" name="NELMIN">     4</i>
  <i type="int" name="IBRION">     2</i>
  <i type="int" name="NFREE">    10</i>
  <i name="EDIFF">      0.00000100</i>
  <i name="EDIFFG">     -0.01000000</i>
  <i type="int" name="NSW">   200</i>
  <i type="int" name="ISIF">     3</i>
  <i name="ENCUT">    600.00000000</i>
  <i name="ENAUG">    900.00000000</i>
  <i type="int" name="ISMEAR">    -5</i>
  <i type="logical" name="LWAVE"> F  </i>
  <i type="logical" name="LCHARG"> F  </i>
  <v type="int" name="KPOINT_BSE">    -1     0     0     0</v>
 </incar>
 <structure name="primitive_cell" >
  <crystal>
   <varray name="basis" >
    <v>      11.17850000       0.00000000       0.00000000 </v>
    <v>       0.00000000       9.57460000       0.00000000 </v>
    <v>       0.00000000       0.00000000      11.18240000 </v>
   </varray>
   <i name="volume">   1196.84853820 </i>
   <varray name="rec_basis" >
    <v>       0.08945744       0.00000000       0.00000000 </v>
    <v>       0.00000000       0.10444301       0.00000000 </v>
    <v>       0.00000000       0.00000000       0.08942624 </v>
   </varray>
  </crystal>
  <varray name="positions" >
   <v>       0.37539000       0.00017000       0.43687000 </v>
   <v>      -0.49987000      -0.07798000       0.31246000 </v>
   <v>       0.25013000       0.07798000       0.31246000 </v>
   <v>       0.49987000       0.07798000      -0.43754000 </v>
   <v>       0.24987000      -0.07798000      -0.43754000 </v>
   <v>      -0.37461000      -0.00016000       0.43687000 </v>
   <v>       0.37461000       0.00017000       0.18687000 </v>
   <v>       0.37461000       0.00017000      -0.31313000 </v>
   <v>       0.49987000      -0.29519000       0.31282000 </v>
   <v>       0.24987000       0.29519000       0.31282000 </v>
   <v>      -0.49987000       0.29519000      -0.43719000 </v>
   <v>       0.25013000      -0.29519000      -0.43719000 </v>
   <v>       0.49995000       0.32677000       0.31286000 </v>
   <v>       0.24995000      -0.32677000       0.31286000 </v>
   <v>      -0.49995000      -0.32677000      -0.43714000 </v>
   <v>       0.25005000       0.32677000      -0.43714000 </v>
   <v>      -0.37539000      -0.00016000       0.18687000 </v>
   <v>       0.12461000      -0.00016000       0.18687000 </v>
   <v>       0.12461000      -0.00016000      -0.31313000 </v>
   <v>       0.49987000       0.07798000       0.06246000 </v>
   <v>      -0.24987000       0.07798000       0.31246000 </v>
   <v>      -0.25013000      -0.07798000      -0.43754000 </v>
   <v>       0.24987000      -0.07798000       0.06246000 </v>
   <v>       0.00013000      -0.07798000       0.31246000 </v>
   <v>      -0.49987000      -0.07798000      -0.18754000 </v>
   <v>      -0.00013000       0.07798000      -0.43754000 </v>
   <v>       0.25013000       0.07798000      -0.18754000 </v>
   <v>      -0.49987000       0.29519000       0.06281000 </v>
   <v>      -0.25013000       0.29519000       0.31282000 </v>
   <v>       0.25013000      -0.29519000       0.06281000 </v>
   <v>      -0.24987000      -0.29519000      -0.43719000 </v>
   <v>      -0.00013000      -0.29519000       0.31282000 </v>
   <v>       0.00013000       0.29519000      -0.43719000 </v>
   <v>       0.49987000      -0.29519000      -0.18718000 </v>
   <v>       0.24987000       0.29519000      -0.18718000 </v>
   <v>      -0.49995000      -0.32677000       0.06286000 </v>
   <v>       0.25005000       0.32677000       0.06286000 </v>
   <v>      -0.25005000      -0.32677000       0.31286000 </v>
   <v>      -0.24995000       0.32677000      -0.43714000 </v>
   <v>      -0.00005000       0.32677000       0.31286000 </v>
   <v>       0.00005000      -0.32677000      -0.43714000 </v>
   <v>       0.49995000       0.32677000      -0.18714000 </v>
   <v>       0.24995000      -0.32677000      -0.18714000 </v>
   <v>      -0.12461000       0.00017000       0.43687000 </v>
   <v>       0.37539000       0.00017000      -0.06313000 </v>
   <v>      -0.25013000      -0.07798000       0.06246000 </v>
   <v>      -0.00013000       0.07798000       0.06246000 </v>
   <v>      -0.24987000       0.07798000      -0.18754000 </v>
   <v>       0.00013000      -0.07798000      -0.18754000 </v>
   <v>      -0.12539000       0.00017000       0.18687000 </v>
   <v>      -0.12539000       0.00017000      -0.31313000 </v>
   <v>       0.12539000      -0.00016000      -0.06313000 </v>
   <v>      -0.37461000      -0.00016000      -0.06313000 </v>
   <v>      -0.24987000      -0.29519000       0.06281000 </v>
   <v>       0.00013000       0.29519000       0.06281000 </v>
   <v>      -0.25013000       0.29519000      -0.18718000 </v>
   <v>      -0.00013000      -0.29519000      -0.18718000 </v>
   <v>      -0.24995000       0.32677000       0.06286000 </v>
   <v>       0.00005000      -0.32677000       0.06286000 </v>
   <v>      -0.25005000      -0.32677000      -0.18714000 </v>
   <v>      -0.00005000       0.32677000      -0.18714000 </v>
   <v>      -0.12461000       0.00017000      -0.06313000 </v>
  </varray>
 </structure>
 <varray name="primitive_index" >
  <v type="int" >        1 </v>
  <v type="int" >       54 </v>
  <v type="int" >       49 </v>
  <v type="int" >       55 </v>
  <v type="int" >       56 </v>
  <v type="int" >        4 </v>
  <v type="int" >        3 </v>
  <v type="int" >       14 </v>
  <v type="int" >       18 </v>
  <v type="int" >       17 </v>
  <v type="int" >       27 </v>
  <v type="int" >       24 </v>
  <v type="int" >       33 </v>
  <v type="int" >       34 </v>
  <v type="int" >       44 </v>
  <v type="int" >       39 </v>
  <v type="int" >        6 </v>
  <v type="int" >        2 </v>
  <v type="int" >        9 </v>
  <v type="int" >       47 </v>
  <v type="int" >       53 </v>
  <v type="int" >       60 </v>
  <v type="int" >       48 </v>
  <v type="int" >       50 </v>
  <v type="int" >       62 </v>
  <v type="int" >       59 </v>
  <v type="int" >       57 </v>
  <v type="int" >       19 </v>
  <v type="int" >       21 </v>
  <v type="int" >       16 </v>
  <v type="int" >       28 </v>
  <v type="int" >       22 </v>
  <v type="int" >       23 </v>
  <v type="int" >       26 </v>
  <v type="int" >       25 </v>
  <v type="int" >       36 </v>
  <v type="int" >       31 </v>
  <v type="int" >       38 </v>
  <v type="int" >       43 </v>
  <v type="int" >       37 </v>
  <v type="int" >       40 </v>
  <v type="int" >       41 </v>
  <v type="int" >       42 </v>
  <v type="int" >        5 </v>
  <v type="int" >       13 </v>
  <v type="int" >       52 </v>
  <v type="int" >       51 </v>
  <v type="int" >       61 </v>
  <v type="int" >       58 </v>
  <v type="int" >        7 </v>
  <v type="int" >       12 </v>
  <v type="int" >        8 </v>
  <v type="int" >       10 </v>
  <v type="int" >       20 </v>
  <v type="int" >       15 </v>
  <v type="int" >       29 </v>
  <v type="int" >       30 </v>
  <v type="int" >       35 </v>
  <v type="int" >       32 </v>
  <v type="int" >       46 </v>
  <v type="int" >       45 </v>
  <v type="int" >       11 </v>
 </varray>
 <kpoints>
  <generation param="Gamma">
   <v type="int" name="divisions">       2        2        2 </v>
   <v name="usershift">      0.00000000       0.00000000       0.00000000 </v>
   <v name="genvec1">      0.50000000       0.00000000       0.00000000 </v>
   <v name="genvec2">      0.00000000       0.50000000       0.00000000 </v>
   <v name="genvec3">      0.00000000       0.00000000       0.50000000 </v>
   <v name="shift">      0.00000000       0.00000000       0.00000000 </v>
  </generation>
  <varray name="kpointlist" >
   <v>       0.00000000       0.00000000       0.00000000 </v>
   <v>       0.50000000       0.00000000       0.00000000 </v>
   <v>       0.00000000       0.50000000       0.00000000 </v>
   <v>       0.50000000       0.50000000       0.00000000 </v>
   <v>       0.00000000       0.00000000       0.50000000 </v>
   <v>       0.50000000       0.00000000       0.50000000 </v>
   <v>       0.00000000       0.50000000       0.50000000 </v>
   <v>       0.50000000       0.50000000       0.50000000 </v>
  </varray>
  <varray name="weights" >
   <v>       0.12500000 </v>
   <v>       0.12500000 </v>
   <v>       0.12500000 </v>
   <v>       0.12500000 </v>
   <v>       0.12500000 </v>
   <v>       0.12500000 </v>
   <v>       0.12500000 </v>
   <v>       0.12500000 </v>
  </varray>
  <varray name="tetrahedronlist"  type="int" >
   <v type="int" >        2        1        2        4        5 </v>
   <v type="int" >        2        1        3        4        5 </v>
   <v type="int" >        2        3        4        5        7 </v>
   <v type="int" >        2        2        4        5        6 </v>
   <v type="int" >        2        4        5        6        8 </v>
   <v type="int" >        2        4        5        7        8 </v>
   <v type="int" >        2        1        2        3        6 </v>
   <v type="int" >        2        2        3        4        6 </v>
   <v type="int" >        2        3        4        6        8 </v>
   <v type="int" >        2        1        3        5        6 </v>
   <v type="int" >        2        3        5        6        7 </v>
   <v type="int" >        2        3        6        7        8 </v>
   <v type="int" >        2        2        3        4        7 </v>
   <v type="int" >        2        1        2        3        7 </v>
   <v type="int" >        2        1        2        5        7 </v>
   <v type="int" >        2        2        4        7        8 </v>
   <v type="int" >        2        2        6        7        8 </v>
   <v type="int" >        2        2        5        6        7 </v>
   <v type="int" >        2        1        3        4        8 </v>
   <v type="int" >        2        1        2        4        8 </v>
   <v type="int" >        2        1        2        6        8 </v>
   <v type="int" >        2        1        3        7        8 </v>
   <v type="int" >        2        1        5        7        8 </v>
   <v type="int" >        2        1        5        6        8 </v>
  </varray>
  <i name="volumeweight">      0.02083333 </i>
 </kpoints>
 <parameters>
  <separator name="general" >
   <i type="string" name="SYSTEM">La2O2S</i>
   <i type="logical" name="LCOMPAT"> F  </i>
  </separator>
  <separator name="electronic" >
   <i type="string" name="PREC">normal</i>
   <i name="ENMAX">    600.00000000</i>
   <i name="ENAUG">    900.00000000</i>
   <i name="EDIFF">      0.00000100</i>
   <i type="int" name="IALGO">    38</i>
   <i type="int" name="IWAVPR">    11</i>
   <i type="int" name="NBANDS">   308</i>
   <i name="NELECT">    472.00000000</i>
   <i type="int" name="TURBO">     0</i>
   <i type="int" name="IRESTART">     0</i>
   <i type="int" name="NREBOOT">     0</i>
   <i type="int" name="NMIN">     0</i>
   <i name="EREF">      0.00000000</i>
   <separator name="electronic smearing" >
    <i type="int" name="ISMEAR">    -5</i>
    <i name="SIGMA">      0.20000000</i>
    <i name="KSPACING">      0.50000000</i>
    <i type="logical" name="KGAMMA"> T  </i>
   </separator>
   <separator name="electronic projectors" >
    <i type="logical" name="LREAL"> F  </i>
    <v name="ROPT">      0.00000000      0.00000000      0.00000000      0.00000000      0.00000000</v>
    <i type="int" name="LMAXPAW">  -100</i>
    <i type="int" name="LMAXMIX">     2</i>
    <i type="logical" name="NLSPLINE"> F  </i>
   </separator>
   <separator name="electronic startup" >
    <i type="int" name="ISTART">     0</i>
    <i type="int" name="ICHARG">     2</i>
    <i type="int" name="INIWAV">     1</i>
   </separator>
   <separator name="electronic spin" >
    <i type="int" name="ISPIN">     1</i>
    <i type="logical" name="LNONCOLLINEAR"> F  </i>
    <v name="MAGMOM">      1.00000000      1.00000000      1.00000000      1.00000000      1.00000000      1.00000000      1.00000000      1.00000000      1.00000000      1.00000000      1.00000000      1.00000000      1.00000000      1.00000000      1.00000000      1.00000000      1.00000000      1.00000000      1.00000000      1.00000000
      1.00000000      1.00000000      1.00000000      1.00000000      1.00000000      1.00000000      1.00000000      1.00000000      1.00000000      1.00000000      1.00000000      1.00000000      1.00000000      1.00000000      1.00000000      1.00000000      1.00000000      1.00000000      1.00000000      1.00000000
      1.00000000      1.00000000      1.00000000      1.00000000      1.00000000      1.00000000      1.00000000      1.00000000      1.00000000      1.00000000      1.00000000      1.00000000      1.00000000      1.00000000      1.00000000      1.00000000      1.00000000      1.00000000      1.00000000      1.00000000
      1.00000000      1.00000000</v>
    <i name="NUPDOWN">     -1.00000000</i>
    <i type="logical" name="LSORBIT"> F  </i>
    <v name="SAXIS">      0.00000000      0.00000000      1.00000000</v>
    <i type="logical" name="LSPIRAL"> F  </i>
    <v name="QSPIRAL">      0.00000000      0.00000000      0.00000000</v>
    <i type="logical" name="LZEROZ"> F  </i>
   </separator>
   <separator name="electronic exchange-correlation" >
    <i type="logical" name="LASPH"> F  </i>
    <i type="logical" name="LMETAGGA"> F  </i>
   </separator>
   <separator name="electronic convergence" >
    <i type="int" name="NELM">    60</i>
    <i type="int" name="NELMDL">    -5</i>
    <i type="int" name="NELMIN">     4</i>
    <i name="ENINI">    600.00000000</i>
    <separator name="electronic convergence detail" >
     <i type="logical" name="LDIAG"> T  </i>
     <i type="logical" name="LSUBROT"> F  </i>
     <i name="WEIMIN">      0.00100000</i>
     <i name="EBREAK">      0.00000000</i>
     <i name="DEPER">      0.30000000</i>
     <i type="int" name="NRMM">     4</i>
     <i name="TIME">      0.40000000</i>
    </separator>
   </separator>
   <separator name="electronic mixer" >
    <i name="AMIX">      0.40000000</i>
    <i name="BMIX">      1.00000000</i>
    <i name="AMIN">      0.10000000</i>
    <i name="AMIX_MAG">      1.60000000</i>
    <i name="BMIX_MAG">      1.00000000</i>
    <separator name="electronic mixer details" >
     <i type="int" name="IMIX">     4</i>
     <i type="logical" name="MIXFIRST"> F  </i>
     <i type="int" name="MAXMIX">   -45</i>
     <i name="WC">    100.00000000</i>
     <i type="int" name="INIMIX">     1</i>
     <i type="int" name="MIXPRE">     1</i>
     <i type="int" name="MREMOVE">     5</i>
    </separator>
   </separator>
   <separator name="electronic dipolcorrection" >
    <i type="logical" name="LDIPOL"> F  </i>
    <i type="logical" name="LMONO"> F  </i>
    <i type="int" name="IDIPOL">     0</i>
    <i name="EPSILON">      1.00000000</i>
    <v name="DIPOL">   -100.00000000   -100.00000000   -100.00000000</v>
    <i name="EFIELD">      0.00000000</i>
   </separator>
  </separator>
  <separator name="grids" >
   <i type="int" name="NGX">    70</i>
   <i type="int" name="NGY">    60</i>
   <i type="int" name="NGZ">    70</i>
   <i type="int" name="NGXF">   140</i>
   <i type="int" name="NGYF">   120</i>
   <i type="int" name="NGZF">   140</i>
   <i type="logical" name="ADDGRID"> F  </i>
  </separator>
  <separator name="ionic" >
   <i type="int" name="NSW">   200</i>
   <i type="int" name="IBRION">     2</i>
   <i type="int" name="MDALGO">     0</i>
   <i type="int" name="ISIF">     3</i>
   <i name="PSTRESS">      0.00000000</i>
   <i name="EDIFFG">     -0.01000000</i>
   <i type="int" name="NFREE">    10</i>
   <i name="POTIM">      0.50000000</i>
   <i name="SMASS">     -3.00000000</i>
   <i name="SCALEE">      1.00000000</i>
  </separator>
  <separator name="ionic md" >
   <i name="TEBEG">      0.00010000</i>
   <i name="TEEND">      0.00010000</i>
   <i type="int" name="NBLOCK">     1</i>
   <i type="int" name="KBLOCK">   200</i>
   <i type="int" name="NPACO">   256</i>
   <i name="APACO">     16.00000000</i>
  </separator>
  <separator name="symmetry" >
   <i type="int" name="ISYM">     2</i>
   <i name="SYMPREC">      0.00001000</i>
  </separator>
  <separator name="dos" >
   <i type="int" name="LORBIT">     0</i>
   <v name="RWIGS">     -1.00000000     -1.00000000     -1.00000000     -1.00000000     -1.00000000</v>
   <i type="int" name="NEDOS">   301</i>
   <i name="EMIN">     10.00000000</i>
   <i name="EMAX">    -10.00000000</i>
   <i name="EFERMI">      0.00000000</i>
  </separator>
  <separator name="writing" >
   <i type="int" name="NWRITE">     2</i>
   <i type="logical" name="LWAVE"> F  </i>
   <i type="logical" name="LDOWNSAMPLE"> F  </i>
   <i type="logical" name="LCHARG"> F  </i>
   <i type="logical" name="LPARD"> F  </i>
   <i type="logical" name="LVTOT"> F  </i>
   <i type="logical" name="LVHAR"> F  </i>
   <i type="logical" name="LELF"> F  </i>
   <i type="logical" name="LOPTICS"> F  </i>
   <v name="STM">      0.00000000      0.00000000      0.00000000      0.00000000      0.00000000      0.00000000      0.00000000</v>
  </separator>
  <separator name="performance" >
   <i type="int" name="NPAR">    28</i>
   <i type="int" name="NSIM">     4</i>
   <i type="int" name="NBLK">    -1</i>
   <i type="logical" name="LPLANE"> T  </i>
   <i type="logical" name="LSCALAPACK"> T  </i>
   <i type="logical" name="LSCAAWARE"> F  </i>
   <i type="logical" name="LSCALU"> F  </i>
   <i type="logical" name="LASYNC"> F  </i>
   <i type="logical" name="LORBITALREAL"> F  </i>
  </separator>
  <separator name="miscellaneous" >
   <i type="int" name="IDIOT">     3</i>
   <i type="int" name="ISPECIAL">     0</i>
   <i type="logical" name="LMUSIC"> F  </i>
   <v name="POMASS">      7.01000000     24.30500000    208.98000000     32.06600000     16.00000000</v>
   <v name="DARWINR">      0.00000000      0.00000000      0.00000000      0.00000000      0.00000000</v>
   <v name="DARWINV">      1.00000000      1.00000000      1.00000000      1.00000000      1.00000000</v>
   <i type="logical" name="LCORR"> T  </i>
  </separator>
  <i type="logical" name="GGA_COMPAT"> T  </i>
  <i type="logical" name="LBERRY"> F  </i>
  <i type="int" name="ICORELEVEL">     0</i>
  <i type="logical" name="LDAU"> F  </i>
  <i type="int" name="I_CONSTRAINED_M">     0</i>
  <separator name="electronic exchange-correlation" >
   <i type="string" name="GGA">--</i>
   <i type="int" name="VOSKOWN">     0</i>
   <i type="logical" name="LHFCALC"> F  </i>
   <i type="string" name="PRECFOCK"></i>
   <i type="logical" name="LSYMGRAD"> F  </i>
   <i type="logical" name="LHFONE"> F  </i>
   <i type="logical" name="LRHFCALC"> F  </i>
   <i type="logical" name="LTHOMAS"> F  </i>
   <i type="logical" name="LMODELHF"> F  </i>
   <i name="ENCUT4O">     -1.00000000</i>
   <i type="int" name="EXXOEP">     0</i>
   <i type="int" name="FOURORBIT">     0</i>
   <i name="AEXX">      0.00000000</i>
   <i name="HFALPHA">      0.00000000</i>
   <i name="MCALPHA">      0.00000000</i>
   <i name="ALDAX">      1.00000000</i>
   <i name="AGGAX">      1.00000000</i>
   <i name="ALDAC">      1.00000000</i>
   <i name="AGGAC">      1.00000000</i>
   <i type="int" name="NKREDX">     1</i>
   <i type="int" name="NKREDY">     1</i>
   <i type="int" name="NKREDZ">     1</i>
   <i type="logical" name="SHIFTRED"> F  </i>
   <i type="logical" name="ODDONLY"> F  </i>
   <i type="logical" name="EVENONLY"> F  </i>
   <i type="int" name="LMAXFOCK">     0</i>
   <i type="int" name="NMAXFOCKAE">     0</i>
   <i type="logical" name="LFOCKAEDFT"> F  </i>
   <i name="HFSCREEN">      0.00000000</i>
   <i name="HFSCREENC">      0.00000000</i>
   <i type="int" name="NBANDSGWLOW">     0</i>
  </separator>
  <separator name="vdW DFT" >
   <i type="logical" name="LUSE_VDW"> F  </i>
   <i name="Zab_VDW">     -0.84910000</i>
   <i name="PARAM1">      0.12340000</i>
   <i name="PARAM2">      1.00000000</i>
   <i name="PARAM3">      0.00000000</i>
  </separator>
  <separator name="model GW" >
   <i type="int" name="MODEL_GW">     0</i>
   <i name="MODEL_EPS0">     11.58240521</i>
   <i name="MODEL_ALPHA">      1.00000000</i>
  </separator>
  <separator name="linear response parameters" >
   <i type="logical" name="LEPSILON"> F  </i>
   <i type="logical" name="LRPA"> F  </i>
   <i type="logical" name="LNABLA"> F  </i>
   <i type="logical" name="LVEL"> F  </i>
   <i type="int" name="KINTER">     0</i>
   <i name="CSHIFT">      0.10000000</i>
   <i name="OMEGAMAX">     -1.00000000</i>
   <i name="DEG_THRESHOLD">      0.00200000</i>
   <i name="RTIME">     -0.10000000</i>
   <i name="WPLASMAI">      0.00000000</i>
   <v name="DFIELD">      0.00000000      0.00000000      0.00000000</v>
   <v name="WPLASMA">      0.00000000      0.00000000      0.00000000      0.00000000      0.00000000      0.00000000      0.00000000      0.00000000      0.00000000</v>
  </separator>
  <separator name="orbital magnetization" >
   <i type="logical" name="NUCIND"> F  </i>
   <v name="MAGPOS">      0.00000000      0.00000000      0.00000000</v>
   <i type="logical" name="LNICSALL"> T  </i>
   <i type="logical" name="ORBITALMAG"> F  </i>
   <i type="logical" name="LMAGBLOCH"> F  </i>
   <i type="logical" name="LCHIMAG"> F  </i>
   <i type="logical" name="LGAUGE"> T  </i>
   <i type="int" name="MAGATOM">     0</i>
   <v name="MAGDIPOL">      0.00000000      0.00000000      0.00000000</v>
   <v name="AVECCONST">      0.00000000      0.00000000      0.00000000</v>
  </separator>
  <separator name="response functions" >
   <i type="logical" name="LADDER"> F  </i>
   <i type="logical" name="LRPAFORCE"> F  </i>
   <i type="logical" name="LFXC"> F  </i>
   <i type="logical" name="LHARTREE"> T  </i>
   <i type="int" name="IBSE">     0</i>
   <v type="int" name="KPOINT">    -1     0     0     0</v>
   <i type="logical" name="LTCTE"> F  </i>
   <i type="logical" name="LTETE"> F  </i>
   <i type="logical" name="LTRIPLET"> F  </i>
   <i type="logical" name="LFXCEPS"> F  </i>
   <i type="logical" name="LFXHEG"> F  </i>
   <i type="int" name="NATURALO">     2</i>
   <i type="logical" name="L2ORDER"> F  </i>
   <i type="logical" name="LMP2LT"> F  </i>
   <i type="logical" name="LUSEW"> F  </i>
   <i name="ENCUTGW">     -2.00000000</i>
   <i name="ENCUTGWSOFT">     -2.00000000</i>
   <i name="ENCUTLF">     -1.00000000</i>
   <i type="int" name="LMAXMP2">    -1</i>
   <i name="SCISSOR">      0.00000000</i>
   <i type="int" name="NOMEGA">     0</i>
   <i type="int" name="NOMEGAR">     0</i>
   <i type="int" name="NBANDSGW">    -1</i>
   <i type="int" name="NBANDSO">    -1</i>
   <i type="int" name="NBANDSV">    -1</i>
   <i type="int" name="NELM">     1</i>
   <i type="int" name="NELMHF">     1</i>
   <i type="int" name="DIM">     3</i>
   <i type="int" name="ANTIRES">     0</i>
   <i name="OMEGAMAX">    -30.00000000</i>
   <i name="OMEGAMIN">    -30.00000000</i>
   <i name="OMEGATL">   -200.00000000</i>
   <i type="int" name="OMEGAGRID">   140</i>
   <i name="CSHIFT">     -0.10000000</i>
   <i type="logical" name="SELFENERGY"> F  </i>
   <i type="logical" name="LSPECTRAL"> F  </i>
   <i type="logical" name="LSPECTRALGW"> F  </i>
   <i type="logical" name="LSINGLES"> F  </i>
   <i type="logical" name="LFERMIGW"> F  </i>
   <i type="logical" name="ODDONLYGW"> F  </i>
   <i type="logical" name="EVENONLYGW"> F  </i>
   <i type="int" name="NKREDLFX">     1</i>
   <i type="int" name="NKREDLFY">     1</i>
   <i type="int" name="NKREDLFZ">     1</i>
   <i type="int" name="MAXMEM">  2800</i>
   <i type="int" name="TELESCOPE">     0</i>
   <i type="int" name="TAUPAR">     1</i>
   <i type="int" name="OMEGAPAR">    -1</i>
   <i name="LAMBDA">      1.00000000</i>
  </separator>
  <separator name="External order field" >
   <i name="OFIELD_KAPPA">      0.00000000</i>
   <v name="OFIELD_K">      0.00000000      0.00000000      0.00000000</v>
   <i name="OFIELD_Q6_NEAR">      0.00000000</i>
   <i name="OFIELD_Q6_FAR">      0.00000000</i>
   <i name="OFIELD_A">      0.00000000</i>
  </separator>
 </parameters>
 <atominfo>
  <atoms>      62 </atoms>
  <types>       5 </types>
  <array name="atoms" >
   <dimension dim="1">ion</dimension>
   <field type="string">element</field>
   <field type="int">atomtype</field>
   <set>
    <rc><c>Li</c><c>   1</c></rc>
    <rc><c>Li</c><c>   1</c></rc>
    <rc><c>Li</c><c>   1</c></rc>
    <rc><c>Li</c><c>   1</c></rc>
    <rc><c>Li</c><c>   1</c></rc>
    <rc><c>Li</c><c>   1</c></rc>
    <rc><c>Li</c><c>   1</c></rc>
    <rc><c>Li</c><c>   1</c></rc>
    <rc><c>Li</c><c>   1</c></rc>
    <rc><c>Li</c><c>   1</c></rc>
    <rc><c>Li</c><c>   1</c></rc>
    <rc><c>Li</c><c>   1</c></rc>
    <rc><c>Mg</c><c>   2</c></rc>
    <rc><c>Mg</c><c>   2</c></rc>
    <rc><c>Bi</c><c>   3</c></rc>
    <rc><c>Bi</c><c>   3</c></rc>
    <rc><c>Bi</c><c>   3</c></rc>
    <rc><c>Bi</c><c>   3</c></rc>
    <rc><c>Bi</c><c>   3</c></rc>
    <rc><c>Bi</c><c>   3</c></rc>
    <rc><c>Bi</c><c>   3</c></rc>
    <rc><c>Bi</c><c>   3</c></rc>
    <rc><c>Bi</c><c>   3</c></rc>
    <rc><c>Bi</c><c>   3</c></rc>
    <rc><c>Bi</c><c>   3</c></rc>
    <rc><c>Bi</c><c>   3</c></rc>
    <rc><c>Bi</c><c>   3</c></rc>
    <rc><c>Bi</c><c>   3</c></rc>
    <rc><c>Bi</c><c>   3</c></rc>
    <rc><c>Bi</c><c>   3</c></rc>
    <rc><c>S </c><c>   4</c></rc>
    <rc><c>S </c><c>   4</c></rc>
    <rc><c>S </c><c>   4</c></rc>
    <rc><c>S </c><c>   4</c></rc>
    <rc><c>S </c><c>   4</c></rc>
    <rc><c>S </c><c>   4</c></rc>
    <rc><c>S </c><c>   4</c></rc>
    <rc><c>S </c><c>   4</c></rc>
    <rc><c>S </c><c>   4</c></rc>
    <rc><c>S </c><c>   4</c></rc>
    <rc><c>S </c><c>   4</c></rc>
    <rc><c>S </c><c>   4</c></rc>
    <rc><c>S </c><c>   4</c></rc>
    <rc><c>S </c><c>   4</c></rc>
    <rc><c>S </c><c>   4</c></rc>
    <rc><c>S </c><c>   4</c></rc>
    <rc><c>O </c><c>   5</c></rc>
    <rc><c>O </c><c>   5</c></rc>
    <rc><c>O </c><c>   5</c></rc>
    <rc><c>O </c><c>   5</c></rc>
    <rc><c>O </c><c>   5</c></rc>
    <rc><c>O </c><c>   5</c></rc>
    <rc><c>O </c><c>   5</c></rc>
    <rc><c>O </c><c>   5</c></rc>
    <rc><c>O </c><c>   5</c></rc>
    <rc><c>O </c><c>   5</c></rc>
    <rc><c>O </c><c>   5</c></rc>
    <rc><c>O </c><c>   5</c></rc>
    <rc><c>O </c><c>   5</c></rc>
    <rc><c>O </c><c>   5</c></rc>
    <rc><c>O </c><c>   5</c></rc>
    <rc><c>O </c><c>   5</c></rc>
   </set>
  </array>
  <array name="atomtypes" >
   <dimension dim="1">type</dimension>
   <field type="int">atomspertype</field>
   <field type="string">element</field>
   <field>mass</field>
   <field>valence</field>
   <field type="string">pseudopotential</field>
   <set>
    <rc><c>  12</c><c>Li</c><c>      7.01000000</c><c>      3.00000000</c><c>  PAW_PBE Li_sv 10Sep2004               </c></rc>
    <rc><c>   2</c><c>Mg</c><c>     24.30500000</c><c>      2.00000000</c><c>  PAW_PBE Mg 13Apr2007                  </c></rc>
    <rc><c>  16</c><c>Bi</c><c>    208.98000000</c><c>     15.00000000</c><c>  PAW_PBE Bi_d 06Sep2000                </c></rc>
    <rc><c>  16</c><c>S </c><c>     32.06600000</c><c>      6.00000000</c><c>  PAW_PBE S 06Sep2000                   </c></rc>
    <rc><c>  16</c><c>O </c><c>     16.00000000</c><c>      6.00000000</c><c>  PAW_PBE O 08Apr2002                   </c></rc>
   </set>
  </array>
 </atominfo>
 <structure name="initialpos" >
  <crystal>
   <varray name="basis" >
    <v>      11.17850000       0.00000000       0.00000000 </v>
    <v>       0.00000000       9.57460000       0.00000000 </v>
    <v>       0.00000000       0.00000000      11.18240000 </v>
   </varray>
   <i name="volume">   1196.84853820 </i>
   <varray name="rec_basis" >
    <v>       0.08945744       0.00000000       0.00000000 </v>
    <v>       0.00000000       0.10444301       0.00000000 </v>
    <v>       0.00000000       0.00000000       0.08942624 </v>
   </varray>
  </crystal>
  <varray name="positions" >
   <v>       0.37539000       0.00017000       0.43687000 </v>
   <v>       0.12461000       0.99984000       0.18687000 </v>
   <v>       0.37461000       0.00017000       0.18687000 </v>
   <v>       0.62539000       0.99984000       0.43687000 </v>
   <v>       0.87539000       0.00017000       0.43687000 </v>
   <v>       0.62461000       0.99984000       0.18687000 </v>
   <v>       0.87461000       0.00017000       0.18687000 </v>
   <v>       0.12539000       0.99984000       0.93687000 </v>
   <v>       0.12461000       0.99984000       0.68687000 </v>
   <v>       0.62539000       0.99984000       0.93687000 </v>
   <v>       0.87539000       0.00017000       0.93687000 </v>
   <v>       0.87461000       0.00017000       0.68687000 </v>
   <v>       0.37539000       0.00017000       0.93687000 </v>
   <v>       0.37461000       0.00017000       0.68687000 </v>
   <v>       0.00013000       0.29519000       0.06281000 </v>
   <v>       0.25013000       0.70481000       0.06281000 </v>
   <v>       0.24987000       0.29519000       0.31282000 </v>
   <v>       0.49987000       0.70481000       0.31282000 </v>
   <v>       0.50013000       0.29519000       0.06281000 </v>
   <v>       0.75013000       0.70481000       0.06281000 </v>
   <v>       0.74987000       0.29519000       0.31282000 </v>
   <v>       0.99987000       0.70481000       0.31282000 </v>
   <v>       0.00013000       0.29519000       0.56281000 </v>
   <v>       0.25013000       0.70481000       0.56281000 </v>
   <v>       0.24987000       0.29519000       0.81282000 </v>
   <v>       0.49987000       0.70481000       0.81282000 </v>
   <v>       0.50013000       0.29519000       0.56281000 </v>
   <v>       0.75013000       0.70481000       0.56281000 </v>
   <v>       0.74987000       0.29519000       0.81282000 </v>
   <v>       0.99987000       0.70481000       0.81282000 </v>
   <v>       0.25005000       0.32677000       0.06286000 </v>
   <v>       0.00005000       0.67323000       0.06286000 </v>
   <v>       0.49995000       0.32677000       0.31286000 </v>
   <v>       0.24995000       0.67323000       0.31286000 </v>
   <v>       0.75005000       0.32677000       0.06286000 </v>
   <v>       0.50005000       0.67323000       0.06286000 </v>
   <v>       0.99995000       0.32677000       0.31286000 </v>
   <v>       0.74995000       0.67323000       0.31286000 </v>
   <v>       0.25005000       0.32677000       0.56286000 </v>
   <v>       0.00005000       0.67323000       0.56286000 </v>
   <v>       0.49995000       0.32677000       0.81286000 </v>
   <v>       0.24995000       0.67323000       0.81286000 </v>
   <v>       0.75005000       0.32677000       0.56286000 </v>
   <v>       0.50005000       0.67323000       0.56286000 </v>
   <v>       0.99995000       0.32677000       0.81286000 </v>
   <v>       0.74995000       0.67323000       0.81286000 </v>
   <v>       0.49987000       0.07798000       0.06246000 </v>
   <v>       0.24987000       0.92202000       0.06246000 </v>
   <v>       0.25013000       0.07798000       0.31246000 </v>
   <v>       0.00013000       0.92202000       0.31246000 </v>
   <v>       0.99987000       0.07798000       0.06246000 </v>
   <v>       0.74987000       0.92202000       0.06246000 </v>
   <v>       0.75013000       0.07798000       0.31246000 </v>
   <v>       0.50013000       0.92202000       0.31246000 </v>
   <v>       0.49987000       0.07798000       0.56246000 </v>
   <v>       0.24987000       0.92202000       0.56246000 </v>
   <v>       0.25013000       0.07798000       0.81246000 </v>
   <v>       0.00013000       0.92202000       0.81246000 </v>
   <v>       0.99987000       0.07798000       0.56246000 </v>
   <v>       0.74987000       0.92202000       0.56246000 </v>
   <v>       0.75013000       0.07798000       0.81246000 </v>
   <v>       0.50013000       0.92202000       0.81246000 </v>
  </varray>
 </structure>
 <calculation>
  <scstep>
   <time name="dav">   64.24   64.50</time>
   <time name="total">   64.33   64.59</time>
   <energy>
    <i name="alphaZ">   1079.87189334 </i>
    <i name="ewald"> -31113.93287723 </i>
    <i name="hartreedc"> -12711.05514520 </i>
    <i name="XCdc">   1468.90604597 </i>
    <i name="pawpsdc">  36917.91861236 </i>
    <i name="pawaedc"> -36503.41947684 </i>
    <i name="eentropy">      0.00000000 </i>
    <i name="bandstr">   1587.69648559 </i>
    <i name="atom">  45173.57650906 </i>
    <i name="e_fr_energy">   5899.56204706 </i>
    <i name="e_wo_entrp">   5899.56204706 </i>
    <i name="e_0_energy">   5899.56204706 </i>
   </energy>
  </scstep>
  <scstep>
   <time name="dav">   64.09   64.42</time>
   <time name="total">   64.10   64.43</time>
   <energy>
    <i name="e_fr_energy">    762.14246450 </i>
    <i name="e_wo_entrp">    762.14246450 </i>
    <i name="e_0_energy">    762.14246450 </i>
   </energy>
  </scstep>
  <scstep>
   <time name="dav">   71.22   71.54</time>
   <time name="total">   71.22   71.54</time>
   <energy>
    <i name="e_fr_energy">   -242.47553121 </i>
    <i name="e_wo_entrp">   -242.47553121 </i>
    <i name="e_0_energy">   -242.47553121 </i>
   </energy>
  </scstep>
  <scstep>
   <time name="dav">   78.77   79.02</time>
   <time name="total">   78.77   79.03</time>
   <energy>
    <i name="e_fr_energy">   -351.77975310 </i>
    <i name="e_wo_entrp">   -351.77975310 </i>
    <i name="e_0_energy">   -351.77975310 </i>
   </energy>
  </scstep>
  <scstep>
   <time name="dav">  103.80  104.15</time>
   <time name="total">  104.52  104.87</time>
   <energy>
    <i name="e_fr_energy">   -360.83487414 </i>
    <i name="e_wo_entrp">   -360.83487414 </i>
    <i name="e_0_energy">   -360.83487414 </i>
   </energy>
  </scstep>
  <scstep>
   <time name="dav">   91.52   91.86</time>
   <time name="total">   92.31   92.66</time>
   <energy>
    <i name="e_fr_energy">   -300.63127411 </i>
    <i name="e_wo_entrp">   -300.63127411 </i>
    <i name="e_0_energy">   -300.63127411 </i>
   </energy>
  </scstep>
  <scstep>
   <time name="dav">   70.77   71.01</time>
   <time name="total">   71.56   71.80</time>
   <energy>
    <i name="e_fr_energy">   -302.73177509 </i>
    <i name="e_wo_entrp">   -302.73177509 </i>
    <i name="e_0_energy">   -302.73177509 </i>
   </energy>
  </scstep>
  <scstep>
   <time name="dav">   82.18   82.70</time>
   <time name="total">   82.96   83.49</time>
   <energy>
    <i name="e_fr_energy">   -301.28541129 </i>
    <i name="e_wo_entrp">   -301.28541129 </i>
    <i name="e_0_energy">   -301.28541129 </i>
   </energy>
  </scstep>
  <scstep>
   <time name="dav">   91.60   92.14</time>
   <time name="total">   92.39   92.94</time>
   <energy>
    <i name="e_fr_energy">   -300.64723570 </i>
    <i name="e_wo_entrp">   -300.64723570 </i>
    <i name="e_0_energy">   -300.64723570 </i>
   </energy>
  </scstep>
  <scstep>
   <time name="dav">   77.34   77.84</time>
   <time name="total">   78.13   78.63</time>
   <energy>
    <i name="e_fr_energy">   -300.60731572 </i>
    <i name="e_wo_entrp">   -300.60731572 </i>
    <i name="e_0_energy">   -300.60731572 </i>
   </energy>
  </scstep>
  <scstep>
   <time name="dav">   83.89   84.51</time>
   <time name="total">   84.68   85.30</time>
   <energy>
    <i name="e_fr_energy">   -300.62003534 </i>
    <i name="e_wo_entrp">   -300.62003534 </i>
    <i name="e_0_energy">   -300.62003534 </i>
   </energy>
  </scstep>
  <scstep>
   <time name="dav">   82.46   82.99</time>
   <time name="total">   83.25   83.78</time>
   <energy>
    <i name="e_fr_energy">   -300.62476627 </i>
    <i name="e_wo_entrp">   -300.62476627 </i>
    <i name="e_0_energy">   -300.62476627 </i>
   </energy>
  </scstep>
  <scstep>
   <time name="dav">   82.10   82.66</time>
   <time name="total">   82.88   83.44</time>
   <energy>
    <i name="e_fr_energy">   -300.62550943 </i>
    <i name="e_wo_entrp">   -300.62550943 </i>
    <i name="e_0_energy">   -300.62550943 </i>
   </energy>
  </scstep>
  <scstep>
   <time name="dav">   71.78   72.21</time>
   <time name="total">   72.56   73.00</time>
   <energy>
    <i name="e_fr_energy">   -300.62576586 </i>
    <i name="e_wo_entrp">   -300.62576586 </i>
    <i name="e_0_energy">   -300.62576586 </i>
   </energy>
  </scstep>
  <scstep>
   <time name="dav">   93.28   93.88</time>
   <time name="total">   94.06   94.67</time>
   <energy>
    <i name="e_fr_energy">   -300.62580528 </i>
    <i name="e_wo_entrp">   -300.62580528 </i>
    <i name="e_0_energy">   -300.62580528 </i>
   </energy>
  </scstep>
  <scstep>
   <time name="dav">   71.21   71.65</time>
   <time name="total">   71.99   72.44</time>
   <energy>
    <i name="e_fr_energy">   -300.62581926 </i>
    <i name="e_wo_entrp">   -300.62581926 </i>
    <i name="e_0_energy">   -300.62581926 </i>
   </energy>
  </scstep>
  <scstep>
   <time name="dav">   71.58   71.99</time>
   <time name="total">   72.36   72.78</time>
   <energy>
    <i name="e_fr_energy">   -300.62582194 </i>
    <i name="e_wo_entrp">   -300.62582194 </i>
    <i name="e_0_energy">   -300.62582194 </i>
   </energy>
  </scstep>
  <scstep>
   <time name="dav">   57.45   57.81</time>
   <time name="total">   57.52   57.88</time>
   <energy>
    <i name="alphaZ">   1079.87189334 </i>
    <i name="ewald"> -31113.93287723 </i>
    <i name="hartreedc"> -12945.23980376 </i>
    <i name="XCdc">   1491.71580263 </i>
    <i name="pawpsdc">  43942.53697079 </i>
    <i name="pawaedc"> -43503.69985195 </i>
    <i name="eentropy">      0.00000000 </i>
    <i name="bandstr">  -4425.45446562 </i>
    <i name="atom">  45173.57650906 </i>
    <i name="e_fr_energy">   -300.62582272 </i>
    <i name="e_wo_entrp">   -300.62582272 </i>
    <i name="e_0_energy">   -300.62582272 </i>
   </energy>
  </scstep>
  <structure>
   <crystal>
    <varray name="basis" >
     <v>      11.17850000       0.00000000       0.00000000 </v>
     <v>       0.00000000       9.57460000       0.00000000 </v>
     <v>       0.00000000       0.00000000      11.18240000 </v>
    </varray>
    <i name="volume">   1196.84853820 </i>
    <varray name="rec_basis" >
     <v>       0.08945744       0.00000000       0.00000000 </v>
     <v>       0.00000000       0.10444301       0.00000000 </v>
     <v>       0.00000000       0.00000000       0.08942624 </v>
    </varray>
   </crystal>
   <varray name="positions" >
    <v>       0.37539000       0.00017000       0.43687000 </v>
    <v>       0.12461000       0.99984000       0.18687000 </v>
    <v>       0.37461000       0.00017000       0.18687000 </v>
    <v>       0.62539000       0.99984000       0.43687000 </v>
    <v>       0.87539000       0.00017000       0.43687000 </v>
    <v>       0.62461000       0.99984000       0.18687000 </v>
    <v>       0.87461000       0.00017000       0.18687000 </v>
    <v>       0.12539000       0.99984000       0.93687000 </v>
    <v>       0.12461000       0.99984000       0.68687000 </v>
    <v>       0.62539000       0.99984000       0.93687000 </v>
    <v>       0.87539000       0.00017000       0.93687000 </v>
    <v>       0.87461000       0.00017000       0.68687000 </v>
    <v>       0.37539000       0.00017000       0.93687000 </v>
    <v>       0.37461000       0.00017000       0.68687000 </v>
    <v>       0.00013000       0.29519000       0.06281000 </v>
    <v>       0.25013000       0.70481000       0.06281000 </v>
    <v>       0.24987000       0.29519000       0.31282000 </v>
    <v>       0.49987000       0.70481000       0.31282000 </v>
    <v>       0.50013000       0.29519000       0.06281000 </v>
    <v>       0.75013000       0.70481000       0.06281000 </v>
    <v>       0.74987000       0.29519000       0.31282000 </v>
    <v>       0.99987000       0.70481000       0.31282000 </v>
    <v>       0.00013000       0.29519000       0.56281000 </v>
    <v>       0.25013000       0.70481000       0.56281000 </v>
    <v>       0.24987000       0.29519000       0.81282000 </v>
    <v>       0.49987000       0.70481000       0.81282000 </v>
    <v>       0.50013000       0.29519000       0.56281000 </v>
    <v>       0.75013000       0.70481000       0.56281000 </v>
    <v>       0.74987000       0.29519000       0.81282000 </v>
    <v>       0.99987000       0.70481000       0.81282000 </v>
    <v>       0.25005000       0.32677000       0.06286000 </v>
    <v>       0.00005000       0.67323000       0.06286000 </v>
    <v>       0.49995000       0.32677000       0.31286000 </v>
    <v>       0.24995000       0.67323000       0.31286000 </v>
    <v>       0.75005000       0.32677000       0.06286000 </v>
    <v>       0.50005000       0.67323000       0.06286000 </v>
    <v>       0.99995000       0.32677000       0.31286000 </v>
    <v>       0.74995000       0.67323000       0.31286000 </v>
    <v>       0.25005000       0.32677000       0.56286000 </v>
    <v>       0.00005000       0.67323000       0.56286000 </v>
    <v>       0.49995000       0.32677000       0.81286000 </v>
    <v>       0.24995000       0.67323000       0.81286000 </v>
    <v>       0.75005000       0.32677000       0.56286000 </v>
    <v>       0.50005000       0.67323000       0.56286000 </v>
    <v>       0.99995000       0.32677000       0.81286000 </v>
    <v>       0.74995000       0.67323000       0.81286000 </v>
    <v>       0.49987000       0.07798000       0.06246000 </v>
    <v>       0.24987000       0.92202000       0.06246000 </v>
    <v>       0.25013000       0.07798000       0.31246000 </v>
    <v>       0.00013000       0.92202000       0.31246000 </v>
    <v>       0.99987000       0.07798000       0.06246000 </v>
    <v>       0.74987000       0.92202000       0.06246000 </v>
    <v>       0.75013000       0.07798000       0.31246000 </v>
    <v>       0.50013000       0.92202000       0.31246000 </v>
    <v>       0.49987000       0.07798000       0.56246000 </v>
    <v>       0.24987000       0.92202000       0.56246000 </v>
    <v>       0.25013000       0.07798000       0.81246000 </v>
    <v>       0.00013000       0.92202000       0.81246000 </v>
    <v>       0.99987000       0.07798000       0.56246000 </v>
    <v>       0.74987000       0.92202000       0.56246000 </v>
    <v>       0.75013000       0.07798000       0.81246000 </v>
    <v>       0.50013000       0.92202000       0.81246000 </v>
   </varray>
  </structure>
  <varray name="forces" >
   <v>      -0.33615854       0.06618567      -0.30827927 </v>
   <v>      -0.16240283       0.07425554       0.66391824 </v>
   <v>      -0.15980148       0.06207790       0.73697730 </v>
   <v>       0.15286881      -0.06339645       0.41752688 </v>
   <v>       0.32323012      -0.06223399       0.15794942 </v>
   <v>       0.17968426      -0.06888311       0.16280305 </v>
   <v>       0.17206117      -0.05979370       0.23970107 </v>
   <v>      -0.67492097      -0.06387800       0.10204723 </v>
   <v>      -0.64820370      -0.06830843      -0.65970919 </v>
   <v>       0.65142081       0.06696891      -0.40812908 </v>
   <v>      -0.17531097       0.06348070      -0.14650438 </v>
   <v>      -0.32847559       0.06273265      -0.22661715 </v>
   <v>       0.21465025      -0.11021910       0.81147193 </v>
   <v>       0.81398482      -0.10790523      -1.34461328 </v>
   <v>      -0.21680743       0.02165308       0.18879748 </v>
   <v>      -0.30694652      -1.08659522       0.41128463 </v>
   <v>      -0.29627595      -0.99100068       0.27060766 </v>
   <v>       0.12090582      -0.03554345       0.16982790 </v>
   <v>       0.28706421       1.08114597       0.32496581 </v>
   <v>       0.21323034      -0.02056780       0.11476983 </v>
   <v>       0.20694462      -0.01550388       0.17684494 </v>
   <v>       0.00546332       1.06022642       0.27984598 </v>
   <v>      -0.10365681      -1.03408217      -0.29251859 </v>
   <v>      -0.42340673      -0.08063523      -0.50280079 </v>
   <v>      -0.42713056       2.08776198      -0.20395588 </v>
   <v>       0.62604134      -1.08953870      -0.33608814 </v>
   <v>       0.41012178       0.00487924      -0.17577018 </v>
   <v>       0.08830114       1.05628030       0.00547197 </v>
   <v>       0.12836985      -0.98915824      -0.30509350 </v>
   <v>      -0.31036488      -0.04757573      -0.19628971 </v>
   <v>       0.20004837       0.04988542      -0.36071243 </v>
   <v>       0.17893391      -0.18603541      -0.17406742 </v>
   <v>       0.03408039       0.19343871      -0.17405733 </v>
   <v>       0.18411104      -0.15843452      -0.19095712 </v>
   <v>      -0.17993878       0.18772192       0.03255478 </v>
   <v>      -0.20016602      -0.05084772      -0.19807033 </v>
   <v>      -0.03250411       0.22228245      -0.20101680 </v>
   <v>      -0.19535493      -0.25991450      -0.18861237 </v>
   <v>       0.21424798       0.10480037       0.40421916 </v>
   <v>       0.18519986      -0.23193898       0.20546654 </v>
   <v>      -0.41067568      -0.03468019       0.17256508 </v>
   <v>       0.23301658       0.00026630       0.15225890 </v>
   <v>      -0.17406103       0.23638965      -0.04139263 </v>
   <v>      -0.22812933      -0.12802392       0.20038586 </v>
   <v>       0.34822022       0.19618990       0.16966228 </v>
   <v>      -0.15410488      -0.16747574       0.18542793 </v>
   <v>      -0.65164837      -0.93875295      -0.66373463 </v>
   <v>       0.67197294       0.95874038      -0.82876725 </v>
   <v>       0.72324293       0.75456711      -0.76054211 </v>
   <v>      -0.58231689      -0.88296261      -0.74569344 </v>
   <v>       0.17029361      -0.03609084      -0.16140439 </v>
   <v>      -0.16112392       0.02900693      -0.01378907 </v>
   <v>      -0.16195766       0.08006866      -0.16268152 </v>
   <v>      -0.02216299       0.03078192      -0.17055078 </v>
   <v>      -1.23061345       0.01154409       0.04428969 </v>
   <v>       1.16081626       0.15547949       1.37127143 </v>
   <v>       1.06256066      -1.66112966       0.17568801 </v>
   <v>       0.31325532       0.04184228       0.15970256 </v>
   <v>      -0.42923606       0.88412949       0.74790254 </v>
   <v>       0.47087074      -0.91163445      -0.59706394 </v>
   <v>       0.45466870       0.78178296       0.75697274 </v>
   <v>      -1.81602512       1.01617420       0.72630389 </v>
  </varray>
  <varray name="stress" >
   <v>      -8.25435711      -0.21275743       0.04568398 </v>
   <v>      -0.21275734     -14.31695579       0.29108715 </v>
   <v>       0.04568356       0.29108754      -6.02798486 </v>
  </varray>
  <energy>
   <i name="e_fr_energy">   -316.48370102 </i>
   <i name="e_wo_entrp">   -316.48370102 </i>
   <i name="e_0_energy">      0.00000000 </i>
  </energy>
  <time name="totalsc"> 1544.05 1552.42</time>
 </calculation>
 <calculation>
  <scstep>
   <time name="dav">   66.24   66.72</time>
   <time name="total">   67.03   67.52</time>
   <energy>
    <i name="alphaZ">   1098.03093893 </i>
    <i name="ewald"> -31279.90695545 </i>
    <i name="hartreedc"> -13017.09238295 </i>
    <i name="XCdc">   1501.59563254 </i>
    <i name="pawpsdc">  43942.48645249 </i>
    <i name="pawaedc"> -43503.65243942 </i>
    <i name="eentropy">      0.00000000 </i>
    <i name="bandstr">  -4215.40617995 </i>
    <i name="atom">  45173.57650906 </i>
    <i name="e_fr_energy">   -300.36842475 </i>
    <i name="e_wo_entrp">   -300.36842475 </i>
    <i name="e_0_energy">   -300.36842475 </i>
   </energy>
  </scstep>
  <scstep>
   <time name="dav">   73.37   73.85</time>
   <time name="total">   74.16   74.64</time>
   <energy>
    <i name="e_fr_energy">   -301.94284490 </i>
    <i name="e_wo_entrp">   -301.94284490 </i>
    <i name="e_0_energy">   -301.94284490 </i>
   </energy>
  </scstep>
  <scstep>
   <time name="dav">   92.24   92.94</time>
   <time name="total">   93.02   93.74</time>
   <energy>
    <i name="e_fr_energy">   -301.70599750 </i>
    <i name="e_wo_entrp">   -301.70599750 </i>
    <i name="e_0_energy">   -301.70599750 </i>
   </energy>
  </scstep>
  <scstep>
   <time name="dav">   82.89   83.48</time>
   <time name="total">   83.68   84.28</time>
   <energy>
    <i name="e_fr_energy">   -301.61631341 </i>
    <i name="e_wo_entrp">   -301.61631341 </i>
    <i name="e_0_energy">   -301.61631341 </i>
   </energy>
  </scstep>
  <scstep>
   <time name="dav">   79.51   80.17</time>
   <time name="total">   80.30   80.96</time>
   <energy>
    <i name="e_fr_energy">   -301.61857013 </i>
    <i name="e_wo_entrp">   -301.61857013 </i>
    <i name="e_0_energy">   -301.61857013 </i>
   </energy>
  </scstep>
  <scstep>
   <time name="dav">   93.04   93.84</time>
   <time name="total">   93.82   94.64</time>
   <energy>
    <i name="e_fr_energy">   -301.61718784 </i>
    <i name="e_wo_entrp">   -301.61718784 </i>
    <i name="e_0_energy">   -301.61718784 </i>
   </energy>
  </scstep>
  <scstep>
   <time name="dav">   77.27   77.89</time>
   <time name="total">   78.05   78.68</time>
   <energy>
    <i name="e_fr_energy">   -301.61631816 </i>
    <i name="e_wo_entrp">   -301.61631816 </i>
    <i name="e_0_energy">   -301.61631816 </i>
   </energy>
  </scstep>
  <scstep>
   <time name="dav">   92.51   93.29</time>
   <time name="total">   93.30   94.08</time>
   <energy>
    <i name="e_fr_energy">   -301.61632805 </i>
    <i name="e_wo_entrp">   -301.61632805 </i>
    <i name="e_0_energy">   -301.61632805 </i>
   </energy>
  </scstep>
  <scstep>
   <time name="dav">   75.00   75.58</time>
   <time name="total">   75.79   76.37</time>
   <energy>
    <i name="e_fr_energy">   -301.61635944 </i>
    <i name="e_wo_entrp">   -301.61635944 </i>
    <i name="e_0_energy">   -301.61635944 </i>
   </energy>
  </scstep>
  <scstep>
   <time name="dav">   86.36   87.03</time>
   <time name="total">   87.14   87.82</time>
   <energy>
    <i name="e_fr_energy">   -301.61636249 </i>
    <i name="e_wo_entrp">   -301.61636249 </i>
    <i name="e_0_energy">   -301.61636249 </i>
   </energy>
  </scstep>
  <scstep>
   <time name="dav">   76.52   77.02</time>
   <time name="total">   77.31   77.81</time>
   <energy>
    <i name="e_fr_energy">   -301.61636025 </i>
    <i name="e_wo_entrp">   -301.61636025 </i>
    <i name="e_0_energy">   -301.61636025 </i>
   </energy>
  </scstep>
  <scstep>
   <time name="dav">   71.47   71.94</time>
   <time name="total">   71.56   72.03</time>
   <energy>
    <i name="alphaZ">   1098.03093893 </i>
    <i name="ewald"> -31279.90695545 </i>
    <i name="hartreedc"> -12862.89608658 </i>
    <i name="XCdc">   1494.52268023 </i>
    <i name="pawpsdc">  44305.23182511 </i>
    <i name="pawaedc"> -43869.24465935 </i>
    <i name="eentropy">      0.00000000 </i>
    <i name="bandstr">  -4360.93061213 </i>
    <i name="atom">  45173.57650906 </i>
    <i name="e_fr_energy">   -301.61636017 </i>
    <i name="e_wo_entrp">   -301.61636017 </i>
    <i name="e_0_energy">   -301.61636017 </i>
   </energy>
  </scstep>
  <structure>
   <crystal>
    <varray name="basis" >
     <v>      11.12486665      -0.00138241       0.00029684 </v>
     <v>      -0.00118406       9.49492181       0.00161999 </v>
     <v>       0.00029694       0.00189202      11.14321902 </v>
    </varray>
    <i name="volume">   1177.05526426 </i>
    <varray name="rec_basis" >
     <v>       0.08988872       0.00001121      -0.00000240 </v>
     <v>       0.00001309       0.10531946      -0.00001788 </v>
     <v>      -0.00000240      -0.00001531       0.08974068 </v>
    </varray>
   </crystal>
   <varray name="positions" >
    <v>       0.37393925       0.00050348       0.43554003 </v>
    <v>       0.12390912       0.00021414       0.18973425 </v>
    <v>       0.37392035       0.00048279       0.19004944 </v>
    <v>       0.62604973       0.99952057       0.43867128 </v>
    <v>       0.87678495      -0.00014357       0.43755142 </v>
    <v>       0.62538546       0.99949293       0.18757236 </v>
    <v>       0.87535256      -0.00013128       0.18790411 </v>
    <v>       0.12247727       0.99951814       0.93731025 </v>
    <v>       0.12181257       0.99949582       0.68402391 </v>
    <v>       0.62820131       0.00017743       0.93510927 </v>
    <v>       0.87463342       0.00048985       0.93623796 </v>
    <v>       0.87319241       0.00048609       0.68589234 </v>
    <v>       0.37631636      -0.00038535       0.94037082 </v>
    <v>       0.37812289      -0.00037369       0.68106912 </v>
    <v>      -0.00080567       0.29529910       0.06362450 </v>
    <v>       0.24880532       0.69933507       0.06458435 </v>
    <v>       0.24859137       0.29019674       0.31398744 </v>
    <v>       0.50039179       0.70463091       0.31355266 </v>
    <v>       0.50136887       0.30063747       0.06421195 </v>
    <v>       0.75105023       0.70470637       0.06330514 </v>
    <v>       0.75076310       0.29511188       0.31358294 </v>
    <v>       0.99989358       0.71015207       0.31402730 </v>
    <v>      -0.00031735       0.28997967       0.56154803 </v>
    <v>       0.24830272       0.70440371       0.56064084 </v>
    <v>       0.24802665       0.30570941       0.81194010 </v>
    <v>       0.50257178       0.69932024       0.81137006 </v>
    <v>       0.50189995       0.29521458       0.56205170 </v>
    <v>       0.75051108       0.71013218       0.56283361 </v>
    <v>       0.75042400       0.29020602       0.81150378 </v>
    <v>       0.99853057       0.70457028       0.81197317 </v>
    <v>       0.25091334       0.32702135       0.06130383 </v>
    <v>       0.00082222       0.67229264       0.06210905 </v>
    <v>       0.50009708       0.32774466       0.31210909 </v>
    <v>       0.25074456       0.67243171       0.31203618 </v>
    <v>       0.74927344       0.32771586       0.06300045 </v>
    <v>       0.49918615       0.67297380       0.06200549 </v>
    <v>       0.99980972       0.32788999       0.31199278 </v>
    <v>       0.74910691       0.67192039       0.31204630 </v>
    <v>       0.25097462       0.32729805       0.56460387 </v>
    <v>       0.00084926       0.67206135       0.56374642 </v>
    <v>       0.49817766       0.32659526       0.81360447 </v>
    <v>       0.25095562       0.67323134       0.81351687 </v>
    <v>       0.74929881       0.32796107       0.56268143 </v>
    <v>       0.49906547       0.67258494       0.56372450 </v>
    <v>       0.00145280       0.32775852       0.81359195 </v>
    <v>       0.74928494       0.67238616       0.81365997 </v>
    <v>       0.49705770       0.07324999       0.05959654 </v>
    <v>       0.25277001       0.92685072       0.05888457 </v>
    <v>       0.25325127       0.08178197       0.30917890 </v>
    <v>      -0.00238308       0.91757110       0.30924296 </v>
    <v>       0.00060493       0.07779815       0.06176368 </v>
    <v>       0.74917464       0.92216615       0.06240051 </v>
    <v>       0.74943105       0.07838343       0.31175817 </v>
    <v>       0.50003435       0.92217510       0.31172422 </v>
    <v>       0.49455909       0.07803817       0.56265107 </v>
    <v>       0.25487969       0.92280340       0.56837588 </v>
    <v>       0.25471566       0.06961022       0.81321795 </v>
    <v>       0.00148190       0.92223083       0.81314898 </v>
    <v>       0.99801756       0.08243478       0.56568657 </v>
    <v>       0.75190212       0.91742663       0.55988417 </v>
    <v>       0.75209220       0.08191910       0.81572570 </v>
    <v>       0.49229265       0.92714010       0.81559339 </v>
   </varray>
  </structure>
  <varray name="forces" >
   <v>      -0.26398805       0.03214072      -0.23380417 </v>
   <v>      -0.03718038       0.04830854       0.34849272 </v>
   <v>      -0.06813298       0.02872999       0.35782340 </v>
   <v>       0.04157317      -0.02671564       0.30289432 </v>
   <v>       0.22522762      -0.02929396       0.06992159 </v>
   <v>       0.04870299      -0.03493730       0.03054653 </v>
   <v>       0.08140867      -0.02773132       0.11643417 </v>
   <v>      -0.24511449      -0.02791188      -0.01489695 </v>
   <v>      -0.21251464      -0.04578293      -0.31772536 </v>
   <v>       0.25507558       0.02671966      -0.30630610 </v>
   <v>      -0.07607801       0.03224778      -0.05997575 </v>
   <v>      -0.24027157       0.03670205      -0.09699661 </v>
   <v>      -0.13902956      -0.00128161       0.14960020 </v>
   <v>       0.40351572      -0.03958919       0.13382091 </v>
   <v>      -0.06054630       0.26920148       0.04534746 </v>
   <v>      -0.09685930       0.08052099       0.03894752 </v>
   <v>      -0.15812682       0.96940964       0.13410344 </v>
   <v>       0.10032459      -0.28814468       0.01262336 </v>
   <v>       0.07587859      -0.05961191       0.08824571 </v>
   <v>       0.06192083      -0.27437615       0.09458187 </v>
   <v>       0.07594864       0.41157193       0.03578387 </v>
   <v>       0.00452438      -1.18103316       0.14586881 </v>
   <v>       0.03213271       1.19233316      -0.14843129 </v>
   <v>      -0.21395387      -0.12755121      -0.12657471 </v>
   <v>      -0.11174207      -0.11338136      -0.05768315 </v>
   <v>       0.15171137       0.19880565      -0.10821366 </v>
   <v>       0.18428473       0.35621245      -0.01837919 </v>
   <v>      -0.01918966      -1.23411127       0.01600428 </v>
   <v>      -0.01861275       1.01439332      -0.15097630 </v>
   <v>      -0.01138486      -0.26015177      -0.05252664 </v>
   <v>       0.08578651       0.19132713      -0.12476556 </v>
   <v>       0.08650824      -0.18318833      -0.06359374 </v>
   <v>       0.02032530       0.18734126      -0.06962180 </v>
   <v>       0.08258993      -0.09306292      -0.09599269 </v>
   <v>      -0.09013378       0.18615263       0.02062003 </v>
   <v>      -0.08340442      -0.17810788      -0.08536291 </v>
   <v>      -0.02591958       0.13064472      -0.10903409 </v>
   <v>      -0.09735523      -0.23277781      -0.08646523 </v>
   <v>       0.11023531       0.13665742       0.18071884 </v>
   <v>       0.08569147      -0.14151521       0.10748097 </v>
   <v>      -0.15086347       0.13597093       0.05901264 </v>
   <v>       0.09117569      -0.27257381       0.05087120 </v>
   <v>      -0.07824442       0.14071535      -0.04177113 </v>
   <v>      -0.11800546      -0.12235417       0.09659252 </v>
   <v>       0.13358958       0.20542305       0.06623870 </v>
   <v>      -0.06015818      -0.10320891       0.08739069 </v>
   <v>      -0.09063329       0.39273361      -0.08850130 </v>
   <v>       0.14624590      -0.40260699      -0.11416853 </v>
   <v>       0.50524072      -1.12905443      -0.53371316 </v>
   <v>      -0.49203216       1.32292558      -0.54080930 </v>
   <v>       0.02164348      -0.25563647      -0.00339234 </v>
   <v>      -0.01914859       0.25321013      -0.00889058 </v>
   <v>      -0.03139622      -0.36060738      -0.01173729 </v>
   <v>      -0.00524139       0.25408850      -0.00433878 </v>
   <v>      -0.54790793      -0.11108400      -0.42313731 </v>
   <v>       0.57295659      -0.04461554       0.53962253 </v>
   <v>       0.47149068       0.61982044      -0.07183193 </v>
   <v>       0.00132594       0.21712091       0.00669020 </v>
   <v>      -0.48791457      -1.31222484       0.52768778 </v>
   <v>       0.47167121       1.35738043      -0.51119355 </v>
   <v>       0.47704726      -1.15686653       0.52027268 </v>
   <v>      -0.75466942      -0.55771890       0.29657215 </v>
  </varray>
  <varray name="stress" >
   <v>       6.03530894       0.55781726      -0.11323294 </v>
   <v>       0.55781719       8.28161136      -0.05775886 </v>
   <v>      -0.11323272      -0.05775867       4.60274105 </v>
  </varray>
  <energy>
   <i name="e_fr_energy">   -317.66672828 </i>
   <i name="e_wo_entrp">   -317.66672828 </i>
   <i name="e_0_energy">      0.00000000 </i>
  </energy>
  <time name="totalsc"> 1087.53 1095.72</time>
 </calculation>
 <calculation>
  <scstep>
   <time name="dav">   70.49   71.03</time>
   <time name="total">   71.28   71.82</time>
   <energy>
    <i name="alphaZ">   1096.72366139 </i>
    <i name="ewald"> -31269.15446779 </i>
    <i name="hartreedc"> -12856.82537271 </i>
    <i name="XCdc">   1493.80152681 </i>
    <i name="pawpsdc">  44305.13762609 </i>
    <i name="pawaedc"> -43869.15287095 </i>
    <i name="eentropy">      0.00000000 </i>
    <i name="bandstr">  -4375.74084945 </i>
    <i name="atom">  45173.57650906 </i>
    <i name="e_fr_energy">   -301.63423755 </i>
    <i name="e_wo_entrp">   -301.63423755 </i>
    <i name="e_0_energy">   -301.63423755 </i>
   </energy>
  </scstep>
  <scstep>
   <time name="dav">   71.25   71.58</time>
   <time name="total">   72.04   72.37</time>
   <energy>
    <i name="e_fr_energy">   -301.64026294 </i>
    <i name="e_wo_entrp">   -301.64026294 </i>
    <i name="e_0_energy">   -301.64026294 </i>
   </energy>
  </scstep>
  <scstep>
   <time name="dav">   90.19   90.62</time>
   <time name="total">   90.98   91.42</time>
   <energy>
    <i name="e_fr_energy">   -301.63920291 </i>
    <i name="e_wo_entrp">   -301.63920291 </i>
    <i name="e_0_energy">   -301.63920291 </i>
   </energy>
  </scstep>
  <scstep>
   <time name="dav">   82.16   82.61</time>
   <time name="total">   82.95   83.41</time>
   <energy>
    <i name="e_fr_energy">   -301.63882041 </i>
    <i name="e_wo_entrp">   -301.63882041 </i>
    <i name="e_0_energy">   -301.63882041 </i>
   </energy>
  </scstep>
  <scstep>
   <time name="dav">   83.71   84.09</time>
   <time name="total">   84.50   84.89</time>
   <energy>
    <i name="e_fr_energy">   -301.63880640 </i>
    <i name="e_wo_entrp">   -301.63880640 </i>
    <i name="e_0_energy">   -301.63880640 </i>
   </energy>
  </scstep>
  <scstep>
   <time name="dav">   78.62   78.99</time>
   <time name="total">   79.40   79.78</time>
   <energy>
    <i name="e_fr_energy">   -301.63879287 </i>
    <i name="e_wo_entrp">   -301.63879287 </i>
    <i name="e_0_energy">   -301.63879287 </i>
   </energy>
  </scstep>
  <scstep>
   <time name="dav">   74.88   75.24</time>
   <time name="total">   75.66   76.03</time>
   <energy>
    <i name="e_fr_energy">   -301.63877903 </i>
    <i name="e_wo_entrp">   -301.63877903 </i>
    <i name="e_0_energy">   -301.63877903 </i>
   </energy>
  </scstep>
  <scstep>
   <time name="dav">   88.03   88.44</time>
   <time name="total">   88.10   88.52</time>
   <energy>
    <i name="alphaZ">   1096.72366139 </i>
    <i name="ewald"> -31269.15446779 </i>
    <i name="hartreedc"> -12867.88947954 </i>
    <i name="XCdc">   1494.31127933 </i>
    <i name="pawpsdc">  44275.23751362 </i>
    <i name="pawaedc"> -43838.98532521 </i>
    <i name="eentropy">      0.00000000 </i>
    <i name="bandstr">  -4365.45846906 </i>
    <i name="atom">  45173.57650906 </i>
    <i name="e_fr_energy">   -301.63877819 </i>
    <i name="e_wo_entrp">   -301.63877819 </i>
    <i name="e_0_energy">   -301.63877819 </i>
   </energy>
  </scstep>
  <structure>
   <crystal>
    <varray name="basis" >
     <v>      11.12868677      -0.00128394       0.00027569 </v>
     <v>      -0.00109972       9.50059702       0.00150460 </v>
     <v>       0.00027579       0.00175726      11.14600975 </v>
    </varray>
    <i name="volume">   1178.45829583 </i>
    <varray name="rec_basis" >
     <v>       0.08985786       0.00001040      -0.00000222 </v>
     <v>       0.00001214       0.10525655      -0.00001659 </v>
     <v>      -0.00000222      -0.00001421       0.08971821 </v>
    </varray>
   </crystal>
   <varray name="positions" >
    <v>       0.37404308       0.00047953       0.43563510 </v>
    <v>       0.12395929       0.00018732       0.18952952 </v>
    <v>       0.37396971       0.00046037       0.18982218 </v>
    <v>       0.62600252       0.99954353       0.43854253 </v>
    <v>       0.87668512      -0.00012106       0.43750271 </v>
    <v>       0.62532996       0.99951786       0.18752215 </v>
    <v>       0.87529942      -0.00010963       0.18783019 </v>
    <v>       0.12268574       0.99954130       0.93727877 </v>
    <v>       0.12201278       0.99952053       0.68422733 </v>
    <v>       0.62800010       0.00015314       0.93523513 </v>
    <v>       0.87468756       0.00046688       0.93628314 </v>
    <v>       0.87329386       0.00046338       0.68596222 </v>
    <v>       0.37625007      -0.00034542       0.94012059 </v>
    <v>       0.37787146      -0.00033476       0.68148375 </v>
    <v>      -0.00073870       0.29529129       0.06356628 </v>
    <v>       0.24890017       0.69972834       0.06445746 </v>
    <v>       0.24868292       0.29055540       0.31390394 </v>
    <v>       0.50035445       0.70464378       0.31350030 </v>
    <v>       0.50128017       0.30024622       0.06411181 </v>
    <v>       0.75098437       0.70471381       0.06326975 </v>
    <v>       0.75069919       0.29511749       0.31352841 </v>
    <v>       0.99989185       0.70976839       0.31394106 </v>
    <v>      -0.00028529       0.29035388       0.56163817 </v>
    <v>       0.24843350       0.70443288       0.56079587 </v>
    <v>       0.24815849       0.30495387       0.81200310 </v>
    <v>       0.50237846       0.69971449       0.81147365 </v>
    <v>       0.50177327       0.29521279       0.56210590 </v>
    <v>       0.75048376       0.70974992       0.56283198 </v>
    <v>       0.75038439       0.29056397       0.81159781 </v>
    <v>       0.99862643       0.70458750       0.81203370 </v>
    <v>       0.25085155       0.32700327       0.06141506 </v>
    <v>       0.00076696       0.67235995       0.06216271 </v>
    <v>       0.50008654       0.32767465       0.31216277 </v>
    <v>       0.25068770       0.67248903       0.31209506 </v>
    <v>       0.74932902       0.32764793       0.06299042 </v>
    <v>       0.49924798       0.67299220       0.06206657 </v>
    <v>       0.99981975       0.32780954       0.31205478 </v>
    <v>       0.74916726       0.67201445       0.31210444 </v>
    <v>       0.25090845       0.32726014       0.56447923 </v>
    <v>       0.00079207       0.67214529       0.56368305 </v>
    <v>       0.49830451       0.32660784       0.81355126 </v>
    <v>       0.25088365       0.67323124       0.81346992 </v>
    <v>       0.74935256       0.32787553       0.56269420 </v>
    <v>       0.49913594       0.67263129       0.56366270 </v>
    <v>       0.00134524       0.32768752       0.81353965 </v>
    <v>       0.74933254       0.67244678       0.81360278 </v>
    <v>       0.49725901       0.07358971       0.05980116 </v>
    <v>       0.25256241       0.92650367       0.05914018 </v>
    <v>       0.25302785       0.08150881       0.30941347 </v>
    <v>      -0.00220319       0.91789062       0.30947285 </v>
    <v>       0.00055233       0.07781120       0.06181345 </v>
    <v>       0.74922441       0.92215566       0.06240476 </v>
    <v>       0.74948106       0.07835446       0.31180833 </v>
    <v>       0.50004119       0.92216395       0.31177681 </v>
    <v>       0.49493919       0.07803405       0.56263741 </v>
    <v>       0.25452115       0.92274717       0.56795305 </v>
    <v>       0.25438753       0.07021134       0.81316369 </v>
    <v>       0.00138515       0.92221568       0.81309974 </v>
    <v>       0.99815011       0.08211489       0.56545599 </v>
    <v>       0.75175671       0.91775649       0.56006824 </v>
    <v>       0.75195174       0.08163620       0.81549232 </v>
    <v>       0.49285353       0.92677248       0.81536946 </v>
   </varray>
  </structure>
  <varray name="forces" >
   <v>      -0.26955149       0.03489949      -0.23929426 </v>
   <v>      -0.04572742       0.04964939       0.37103187 </v>
   <v>      -0.07571500       0.03190043       0.38619633 </v>
   <v>       0.05001507      -0.02978272       0.31148215 </v>
   <v>       0.23250405      -0.03205751       0.07633206 </v>
   <v>       0.05815060      -0.03722671       0.04008599 </v>
   <v>       0.08848635      -0.03068948       0.12598033 </v>
   <v>      -0.27586034      -0.03022839      -0.00702372 </v>
   <v>      -0.24289830      -0.04622966      -0.34192162 </v>
   <v>       0.28354901       0.03007427      -0.31423361 </v>
   <v>      -0.08367239       0.03496688      -0.06673554 </v>
   <v>      -0.24660114       0.03876912      -0.10660057 </v>
   <v>      -0.11062902      -0.01009664       0.19913069 </v>
   <v>       0.43229028      -0.04210334       0.01629557 </v>
   <v>      -0.07177618       0.25038107       0.05589066 </v>
   <v>      -0.11275005       0.01195413       0.06652580 </v>
   <v>      -0.16527613       0.79705436       0.14015800 </v>
   <v>       0.10200329      -0.26918064       0.02357866 </v>
   <v>       0.09189058       0.00763676       0.10624499 </v>
   <v>       0.07269764      -0.25538514       0.09615268 </v>
   <v>       0.08538962       0.37923390       0.04580518 </v>
   <v>       0.00248241      -0.97970235       0.15186001 </v>
   <v>       0.02073832       0.99212803      -0.15524337 </v>
   <v>      -0.23034808      -0.12608056      -0.15334790 </v>
   <v>      -0.13583513      -0.00376295      -0.06891584 </v>
   <v>       0.18809639       0.12322842      -0.12578876 </v>
   <v>       0.20122744       0.33094497      -0.02957094 </v>
   <v>      -0.00990821      -1.02659815       0.01288206 </v>
   <v>      -0.00686331       0.83651181      -0.15909536 </v>
   <v>      -0.03242062      -0.24396284      -0.06300418 </v>
   <v>       0.09402517       0.18205487      -0.14191339 </v>
   <v>       0.09357088      -0.18367963      -0.07143379 </v>
   <v>       0.02158857       0.18787282      -0.07756464 </v>
   <v>       0.08989534      -0.09806493      -0.10311058 </v>
   <v>      -0.09703839       0.18641511       0.02170901 </v>
   <v>      -0.09179273      -0.16966464      -0.09340589 </v>
   <v>      -0.02645514       0.13782325      -0.11563150 </v>
   <v>      -0.10484949      -0.23511269      -0.09409376 </v>
   <v>       0.11762696       0.13486899       0.19781420 </v>
   <v>       0.09376890      -0.14859934       0.11447655 </v>
   <v>      -0.16995946       0.12512583       0.06706947 </v>
   <v>       0.10158749      -0.25466933       0.05779575 </v>
   <v>      -0.08613063       0.14807950      -0.04179378 </v>
   <v>      -0.12581960      -0.12301892       0.10454542 </v>
   <v>       0.15081876       0.20515867       0.07355312 </v>
   <v>      -0.06791909      -0.10809117       0.09424061 </v>
   <v>      -0.13868575       0.30737073      -0.13717477 </v>
   <v>       0.19111201      -0.31613464      -0.17208480 </v>
   <v>       0.51861048      -0.96371773      -0.54741536 </v>
   <v>      -0.49685217       1.12540502      -0.55212063 </v>
   <v>       0.03235318      -0.23889389      -0.01501259 </v>
   <v>      -0.02930530       0.23620016      -0.00914621 </v>
   <v>      -0.04090826      -0.32724391      -0.02272049 </v>
   <v>      -0.00641651       0.23716106      -0.01631619 </v>
   <v>      -0.60532442      -0.10868732      -0.38064704 </v>
   <v>       0.62470270      -0.02313759       0.60660930 </v>
   <v>       0.51815490       0.50032399      -0.05262452 </v>
   <v>       0.02381561       0.20364090       0.01798136 </v>
   <v>      -0.48231725      -1.11552321       0.53993892 </v>
   <v>       0.46997612       1.15236333      -0.51510456 </v>
   <v>       0.47462358      -0.98509400       0.53428080 </v>
   <v>      -0.84014474      -0.45677723       0.33444260 </v>
  </varray>
  <varray name="stress" >
   <v>       4.89654854       0.48581117      -0.09969308 </v>
   <v>       0.48581188       5.96187380      -0.00359472 </v>
   <v>      -0.09969297      -0.00359438       3.73489282 </v>
  </varray>
  <energy>
   <i name="e_fr_energy">   -317.67485618 </i>
   <i name="e_wo_entrp">   -317.67485618 </i>
   <i name="e_0_energy">      0.00000000 </i>
  </energy>
  <time name="totalsc">  757.42  761.27</time>
 </calculation>
 <calculation>
  <scstep>
   <time name="dav">   65.81   66.15</time>
   <time name="total">   66.59   66.94</time>
   <energy>
    <i name="alphaZ">   1094.36963392 </i>
    <i name="ewald"> -31361.53387269 </i>
    <i name="hartreedc"> -12752.44498079 </i>
    <i name="XCdc">   1492.39396271 </i>
    <i name="pawpsdc">  44275.26122738 </i>
    <i name="pawaedc"> -43839.01074203 </i>
    <i name="eentropy">      0.00000000 </i>
    <i name="bandstr">  -4383.82272486 </i>
    <i name="atom">  45173.57650906 </i>
    <i name="e_fr_energy">   -301.21098729 </i>
    <i name="e_wo_entrp">   -301.21098729 </i>
    <i name="e_0_energy">   -301.21098729 </i>
   </energy>
  </scstep>
  <scstep>
   <time name="dav">   76.63   76.99</time>
   <time name="total">   77.42   77.78</time>
   <energy>
    <i name="e_fr_energy">   -302.15238305 </i>
    <i name="e_wo_entrp">   -302.15238305 </i>
    <i name="e_0_energy">   -302.15238305 </i>
   </energy>
  </scstep>
  <scstep>
   <time name="dav">   94.34   94.68</time>
   <time name="total">   95.13   95.47</time>
   <energy>
    <i name="e_fr_energy">   -302.14334528 </i>
    <i name="e_wo_entrp">   -302.14334528 </i>
    <i name="e_0_energy">   -302.14334528 </i>
   </energy>
  </scstep>
  <scstep>
   <time name="dav">   75.21   75.52</time>
   <time name="total">   76.00   76.31</time>
   <energy>
    <i name="e_fr_energy">   -302.12457770 </i>
    <i name="e_wo_entrp">   -302.12457770 </i>
    <i name="e_0_energy">   -302.12457770 </i>
   </energy>
  </scstep>
  <scstep>
   <time name="dav">   82.20   82.42</time>
   <time name="total">   82.98   83.21</time>
   <energy>
    <i name="e_fr_energy">   -302.11553143 </i>
    <i name="e_wo_entrp">   -302.11553143 </i>
    <i name="e_0_energy">   -302.11553143 </i>
   </energy>
  </scstep>
  <scstep>
   <time name="dav">   76.50   76.72</time>
   <time name="total">   77.28   77.52</time>
   <energy>
    <i name="e_fr_energy">   -302.11595819 </i>
    <i name="e_wo_entrp">   -302.11595819 </i>
    <i name="e_0_energy">   -302.11595819 </i>
   </energy>
  </scstep>
  <scstep>
   <time name="dav">   90.41   90.66</time>
   <time name="total">   91.20   91.47</time>
   <energy>
    <i name="e_fr_energy">   -302.11594650 </i>
    <i name="e_wo_entrp">   -302.11594650 </i>
    <i name="e_0_energy">   -302.11594650 </i>
   </energy>
  </scstep>
  <scstep>
   <time name="dav">   81.58   81.82</time>
   <time name="total">   82.37   82.61</time>
   <energy>
    <i name="e_fr_energy">   -302.11590997 </i>
    <i name="e_wo_entrp">   -302.11590997 </i>
    <i name="e_0_energy">   -302.11590997 </i>
   </energy>
  </scstep>
  <scstep>
   <time name="dav">   73.33   73.53</time>
   <time name="total">   74.12   74.33</time>
   <energy>
    <i name="e_fr_energy">   -302.11591499 </i>
    <i name="e_wo_entrp">   -302.11591499 </i>
    <i name="e_0_energy">   -302.11591499 </i>
   </energy>
  </scstep>
  <scstep>
   <time name="dav">   75.64   75.85</time>
   <time name="total">   76.43   76.65</time>
   <energy>
    <i name="e_fr_energy">   -302.11591771 </i>
    <i name="e_wo_entrp">   -302.11591771 </i>
    <i name="e_0_energy">   -302.11591771 </i>
   </energy>
  </scstep>
  <scstep>
   <time name="dav">   75.70   75.94</time>
   <time name="total">   75.77   76.01</time>
   <energy>
    <i name="alphaZ">   1094.36963392 </i>
    <i name="ewald"> -31361.53387269 </i>
    <i name="hartreedc"> -12767.63027605 </i>
    <i name="XCdc">   1493.08461493 </i>
    <i name="pawpsdc">  44057.01737000 </i>
    <i name="pawaedc"> -43617.59729488 </i>
    <i name="eentropy">      0.00000000 </i>
    <i name="bandstr">  -4373.40260286 </i>
    <i name="atom">  45173.57650906 </i>
    <i name="e_fr_energy">   -302.11591856 </i>
    <i name="e_wo_entrp">   -302.11591856 </i>
    <i name="e_0_energy">   -302.11591856 </i>
   </energy>
  </scstep>
  <structure>
   <crystal>
    <varray name="basis" >
     <v>      11.13988951       0.00126218      -0.00024194 </v>
     <v>       0.00107308       9.50361909       0.00207489 </v>
     <v>      -0.00024212       0.00242542      11.15520405 </v>
    </varray>
    <i name="volume">   1180.99320095 </i>
    <varray name="rec_basis" >
     <v>       0.08976750      -0.00001014       0.00000195 </v>
     <v>      -0.00001192       0.10522308      -0.00002288 </v>
     <v>       0.00000195      -0.00001957       0.08964426 </v>
    </varray>
   </crystal>
   <varray name="positions" >
    <v>       0.37235800       0.00077726       0.43412583 </v>
    <v>       0.12350622       0.00057328       0.19216413 </v>
    <v>       0.37339261       0.00073481       0.19263723 </v>
    <v>       0.62645868       0.99927634       0.44053285 </v>
    <v>       0.87819140      -0.00039707       0.43807857 </v>
    <v>       0.62586346       0.99920351       0.18795108 </v>
    <v>       0.87595045      -0.00037444       0.18874739 </v>
    <v>       0.12043619       0.99927096       0.93741053 </v>
    <v>       0.11994653       0.99916237       0.68172365 </v>
    <v>       0.63024527       0.00042879       0.93324788 </v>
    <v>       0.87405194       0.00075988       0.93576632 </v>
    <v>       0.87171903       0.00077395       0.68514845 </v>
    <v>       0.37611777      -0.00060119       0.94225556 </v>
    <v>       0.38101006      -0.00074522       0.67942347 </v>
    <v>      -0.00138925       0.29658462       0.06410363 </v>
    <v>       0.24793121       0.69776869       0.06539304 </v>
    <v>       0.24750683       0.29270318       0.31493031 </v>
    <v>       0.50098199       0.70323036       0.31387007 </v>
    <v>       0.50212842       0.30229344       0.06507954 </v>
    <v>       0.75163315       0.70339723       0.06386194 </v>
    <v>       0.75139255       0.29698695       0.31400368 </v>
    <v>       0.99991081       0.70683446       0.31503264 </v>
    <v>      -0.00036079       0.29339859       0.56051207 </v>
    <v>       0.24677743       0.70365198       0.55934534 </v>
    <v>       0.24690083       0.30881460       0.81138552 </v>
    <v>       0.50417528       0.69830710       0.81040476 </v>
    <v>       0.50328396       0.29687869       0.56170106 </v>
    <v>       0.75058119       0.70657411       0.56289603 </v>
    <v>       0.75055897       0.29291326       0.81043544 </v>
    <v>       0.99799541       0.70327796       0.81145417 </v>
    <v>       0.25157083       0.32800756       0.06023808 </v>
    <v>       0.00145056       0.67109503       0.06158238 </v>
    <v>       0.50023301       0.32897464       0.31155596 </v>
    <v>       0.25136386       0.67170398       0.31135275 </v>
    <v>       0.74862902       0.32892975       0.06313445 </v>
    <v>       0.49853810       0.67204848       0.06135445 </v>
    <v>       0.99965527       0.32891261       0.31124288 </v>
    <v>       0.74840916       0.67035463       0.31140447 </v>
    <v>       0.25175103       0.32812981       0.56596334 </v>
    <v>       0.00148643       0.67097041       0.56449706 </v>
    <v>       0.49692678       0.32716942       0.81411070 </v>
    <v>       0.25168728       0.67195701       0.81395783 </v>
    <v>       0.74870850       0.32905598       0.56245018 </v>
    <v>       0.49823627       0.67177735       0.56442629 </v>
    <v>       0.00254227       0.32907907       0.81412198 </v>
    <v>       0.74879773       0.67159431       0.81429870 </v>
    <v>       0.49563261       0.07338389       0.05816464 </v>
    <v>       0.25444517       0.92670348       0.05709318 </v>
    <v>       0.25639110       0.07808820       0.30587360 </v>
    <v>      -0.00524967       0.92188332       0.30593558 </v>
[...]
       <r>   11.5438    0.0000 </r>
       <r>   11.6109    0.0000 </r>
       <r>   11.6190    0.0000 </r>
       <r>   11.6664    0.0000 </r>
      </set>
     </set>
    </set>
   </array>
  </eigenvalues>
  <separator name="orbital magnetization" >
   <v name="MAGDIPOLOUT">      0.00000000      0.00000000      0.00000000</v>
  </separator>
  <dos>
   <i name="efermi">      4.47675484 </i>
   <total>
    <array>
     <dimension dim="1">gridpoints</dimension>
     <dimension dim="2">spin</dimension>
     <field>energy</field>
     <field>total</field>
     <field>integrated</field>
     <set>
      <set comment="spin 1">
       <r>   -42.4793     0.0000     0.0000 </r>
       <r>   -42.2870     0.0000     0.0000 </r>
       <r>   -42.0948     0.0000     0.0000 </r>
       <r>   -41.9025     0.0000     0.0000 </r>
       <r>   -41.7103     0.0000     0.0000 </r>
       <r>   -41.5180     0.0000     0.0000 </r>
       <r>   -41.3258     0.0000     0.0000 </r>
       <r>   -41.1335     0.0000     0.0000 </r>
       <r>   -40.9413     0.0000     0.0000 </r>
       <r>   -40.7490     0.0000     0.0000 </r>
       <r>   -40.5568     0.0000     0.0000 </r>
       <r>   -40.3645     0.0000     0.0000 </r>
       <r>   -40.1723     0.0000     0.0000 </r>
       <r>   -39.9801     0.0000     0.0000 </r>
       <r>   -39.7878     0.0000     2.0000 </r>
       <r>   -39.5956     0.0000     8.0000 </r>
       <r>   -39.4033     0.0000    18.0000 </r>
       <r>   -39.2111     0.0000    20.0000 </r>
       <r>   -39.0188     0.0000    24.0000 </r>
       <r>   -38.8266     0.0000    24.0000 </r>
       <r>   -38.6343     0.0000    24.0000 </r>
       <r>   -38.4421     0.0000    24.0000 </r>
       <r>   -38.2498     0.0000    24.0000 </r>
       <r>   -38.0576     0.0000    24.0000 </r>
       <r>   -37.8654     0.0000    24.0000 </r>
       <r>   -37.6731     0.0000    24.0000 </r>
       <r>   -37.4809     0.0000    24.0000 </r>
       <r>   -37.2886     0.0000    24.0000 </r>
       <r>   -37.0964     0.0000    24.0000 </r>
       <r>   -36.9041     0.0000    24.0000 </r>
       <r>   -36.7119     0.0000    24.0000 </r>
       <r>   -36.5196     0.0000    24.0000 </r>
       <r>   -36.3274     0.0000    24.0000 </r>
       <r>   -36.1351     0.0000    24.0000 </r>
       <r>   -35.9429     0.0000    24.0000 </r>
       <r>   -35.7507     0.0000    24.0000 </r>
       <r>   -35.5584     0.0000    24.0000 </r>
       <r>   -35.3662     0.0000    24.0000 </r>
       <r>   -35.1739     0.0000    24.0000 </r>
       <r>   -34.9817     0.0000    24.0000 </r>
       <r>   -34.7894     0.0000    24.0000 </r>
       <r>   -34.5972     0.0000    24.0000 </r>
       <r>   -34.4049     0.0000    24.0000 </r>
       <r>   -34.2127     0.0000    24.0000 </r>
       <r>   -34.0204     0.0000    24.0000 </r>
       <r>   -33.8282     0.0000    24.0000 </r>
       <r>   -33.6359     0.0000    24.0000 </r>
       <r>   -33.4437     0.0000    24.0000 </r>
       <r>   -33.2515     0.0000    24.0000 </r>
       <r>   -33.0592     0.0000    24.0000 </r>
       <r>   -32.8670     0.0000    24.0000 </r>
       <r>   -32.6747     0.0000    24.0000 </r>
       <r>   -32.4825     0.0000    24.0000 </r>
       <r>   -32.2902     0.0000    24.0000 </r>
       <r>   -32.0980     0.0000    24.0000 </r>
       <r>   -31.9057     0.0000    24.0000 </r>
       <r>   -31.7135     0.0000    24.0000 </r>
       <r>   -31.5212     0.0000    24.0000 </r>
       <r>   -31.3290     0.0000    24.0000 </r>
       <r>   -31.1368     0.0000    24.0000 </r>
       <r>   -30.9445     0.0000    24.0000 </r>
       <r>   -30.7523     0.0000    24.0000 </r>
       <r>   -30.5600     0.0000    24.0000 </r>
       <r>   -30.3678     0.0000    24.0000 </r>
       <r>   -30.1755     0.0000    24.0000 </r>
       <r>   -29.9833     0.0000    24.0000 </r>
       <r>   -29.7910     0.0000    24.0000 </r>
       <r>   -29.5988     0.0000    24.0000 </r>
       <r>   -29.4065     0.0000    24.0000 </r>
       <r>   -29.2143     0.0000    24.0000 </r>
       <r>   -29.0221     0.0000    24.0000 </r>
       <r>   -28.8298     0.0000    24.0000 </r>
       <r>   -28.6376     0.0000    24.0000 </r>
       <r>   -28.4453     0.0000    24.0000 </r>
       <r>   -28.2531     0.0000    24.0000 </r>
       <r>   -28.0608     0.0000    24.0000 </r>
       <r>   -27.8686     0.0000    24.0000 </r>
       <r>   -27.6763     0.0000    24.0000 </r>
       <r>   -27.4841     0.0000    24.0000 </r>
       <r>   -27.2918     0.0000    24.0000 </r>
       <r>   -27.0996     0.0000    24.0000 </r>
       <r>   -26.9074     0.0000    24.0000 </r>
       <r>   -26.7151     0.0000    24.0000 </r>
       <r>   -26.5229     0.0000    24.0000 </r>
       <r>   -26.3306     0.0000    24.0000 </r>
       <r>   -26.1384     0.0000    24.0000 </r>
       <r>   -25.9461     0.0000    24.0000 </r>
       <r>   -25.7539     0.0000    24.0000 </r>
       <r>   -25.5616     0.0000    24.0000 </r>
       <r>   -25.3694     0.0000    24.0000 </r>
       <r>   -25.1771     0.0000    24.0000 </r>
       <r>   -24.9849     0.0000    24.0000 </r>
       <r>   -24.7926     0.0000    24.0000 </r>
       <r>   -24.6004     0.0000    24.0000 </r>
       <r>   -24.4082     0.0000    24.0000 </r>
       <r>   -24.2159     0.0000    24.0000 </r>
       <r>   -24.0237     0.0000    24.0000 </r>
       <r>   -23.8314     0.0000    24.0000 </r>
       <r>   -23.6392     0.0000    24.0000 </r>
       <r>   -23.4469     0.0000    24.0000 </r>
       <r>   -23.2547     0.0000    24.0000 </r>
       <r>   -23.0624     0.0000    24.0000 </r>
       <r>   -22.8702     0.0000    24.0000 </r>
       <r>   -22.6779     0.0000    24.0000 </r>
       <r>   -22.4857     0.0000    24.0000 </r>
       <r>   -22.2935     0.0000    24.0000 </r>
       <r>   -22.1012     0.0000    24.0000 </r>
       <r>   -21.9090     0.0000    24.0000 </r>
       <r>   -21.7167     0.0000    24.0000 </r>
       <r>   -21.5245     0.0000    24.0000 </r>
       <r>   -21.3322     0.0000    24.0000 </r>
       <r>   -21.1400     0.0000    24.0000 </r>
       <r>   -20.9477     0.0000    24.0000 </r>
       <r>   -20.7555     0.0000    24.0000 </r>
       <r>   -20.5632     0.0000    24.0000 </r>
       <r>   -20.3710     0.0000    24.0000 </r>
       <r>   -20.1788     0.0000    24.0000 </r>
       <r>   -19.9865     0.0000    24.0000 </r>
       <r>   -19.7943     0.0000    24.0000 </r>
       <r>   -19.6020     0.0000    24.0000 </r>
       <r>   -19.4098     0.0000    24.0000 </r>
       <r>   -19.2175     0.0000    24.0000 </r>
       <r>   -19.0253     0.0000    24.0000 </r>
       <r>   -18.8330     0.0000    24.0000 </r>
       <r>   -18.6408     0.0000    24.0000 </r>
       <r>   -18.4485     0.0000    64.0000 </r>
       <r>   -18.2563     0.0000   154.0000 </r>
       <r>   -18.0641     0.0000   184.0000 </r>
       <r>   -17.8718     0.0000   184.0000 </r>
       <r>   -17.6796     0.0000   184.0000 </r>
       <r>   -17.4873     0.0000   184.0000 </r>
       <r>   -17.2951     0.0000   184.0000 </r>
       <r>   -17.1028     0.0000   184.0000 </r>
       <r>   -16.9106     0.0000   184.0000 </r>
       <r>   -16.7183     0.0000   184.0000 </r>
       <r>   -16.5261     0.0000   184.0000 </r>
       <r>   -16.3338     0.0000   184.0000 </r>
       <r>   -16.1416     0.0000   184.0000 </r>
       <r>   -15.9493     0.0000   184.0000 </r>
       <r>   -15.7571     0.0000   184.0000 </r>
       <r>   -15.5649     0.0000   184.0000 </r>
       <r>   -15.3726     0.0000   184.0000 </r>
       <r>   -15.1804     0.0000   184.0000 </r>
       <r>   -14.9881     0.0000   184.0000 </r>
       <r>   -14.7959     0.0000   184.0000 </r>
       <r>   -14.6036     0.0000   184.0000 </r>
       <r>   -14.4114     0.0000   184.0000 </r>
       <r>   -14.2191     0.0000   184.0000 </r>
       <r>   -14.0269     0.0000   184.0000 </r>
       <r>   -13.8346     0.0000   184.0000 </r>
       <r>   -13.6424     0.0000   184.0000 </r>
       <r>   -13.4502     0.0000   184.0000 </r>
       <r>   -13.2579     0.0000   184.0000 </r>
       <r>   -13.0657     0.0000   186.0000 </r>
       <r>   -12.8734     0.0000   186.0000 </r>
       <r>   -12.6812     0.0000   192.0000 </r>
       <r>   -12.4889     0.0000   198.0000 </r>
       <r>   -12.2967     0.0000   210.0000 </r>
       <r>   -12.1044     0.0000   216.0000 </r>
       <r>   -11.9122     0.0000   216.0000 </r>
       <r>   -11.7199     0.0000   216.0000 </r>
       <r>   -11.5277     0.0000   216.0000 </r>
       <r>   -11.3355     0.0000   216.0000 </r>
       <r>   -11.1432     0.0000   216.0000 </r>
       <r>   -10.9510     0.0000   216.0000 </r>
       <r>   -10.7587     0.0000   216.0000 </r>
       <r>   -10.5665     0.0000   216.0000 </r>
       <r>   -10.3742     0.0000   216.0000 </r>
       <r>   -10.1820     0.0000   216.0000 </r>
       <r>    -9.9897     0.0000   216.0000 </r>
       <r>    -9.7975     0.0000   216.0000 </r>
       <r>    -9.6052     0.0000   216.0000 </r>
       <r>    -9.4130     0.0000   216.0000 </r>
       <r>    -9.2207     6.6861   216.2519 </r>
       <r>    -9.0285     2.6065   217.9644 </r>
       <r>    -8.8363     6.4258   219.7855 </r>
       <r>    -8.6440    14.3877   221.0842 </r>
       <r>    -8.4518     0.0488   224.0000 </r>
       <r>    -8.2595    20.2769   228.9157 </r>
       <r>    -8.0673     4.7961   231.8973 </r>
       <r>    -7.8750    49.7263   235.5917 </r>
       <r>    -7.6828    24.1133   241.6745 </r>
       <r>    -7.4905    12.7233   244.4767 </r>
       <r>    -7.2983     7.0443   247.8526 </r>
       <r>    -7.1060     0.0000   248.0000 </r>
       <r>    -6.9138     0.0000   248.0000 </r>
       <r>    -6.7216     0.0000   248.0000 </r>
       <r>    -6.5293     0.0000   248.0000 </r>
       <r>    -6.3371     0.0000   248.0000 </r>
       <r>    -6.1448     1.8306   248.0209 </r>
       <r>    -5.9526    27.7997   250.7888 </r>
       <r>    -5.7603    34.5694   255.4657 </r>
       <r>    -5.5681    24.2433   258.3583 </r>
       <r>    -5.3758    28.3809   263.8450 </r>
       <r>    -5.1836    22.4707   268.5471 </r>
       <r>    -4.9913    10.3370   271.2059 </r>
       <r>    -4.7991     3.0602   272.0986 </r>
       <r>    -4.6069    12.0128   273.6326 </r>
       <r>    -4.4146     8.5777   275.8442 </r>
       <r>    -4.2224     4.8909   276.7779 </r>
       <r>    -4.0301     8.5817   278.0144 </r>
       <r>    -3.8379     3.0720   279.4219 </r>
       <r>    -3.6456     1.4821   279.8334 </r>
       <r>    -3.4534     0.2058   279.9950 </r>
       <r>    -3.2611     0.0000   280.0000 </r>
       <r>    -3.0689     0.0000   280.0000 </r>
       <r>    -2.8766     0.0000   280.0000 </r>
       <r>    -2.6844     0.0000   280.0000 </r>
       <r>    -2.4922     0.0000   280.0000 </r>
       <r>    -2.2999     0.0000   280.0000 </r>
       <r>    -2.1077     0.0000   280.0000 </r>
       <r>    -1.9154     0.0000   280.0000 </r>
       <r>    -1.7232     0.0000   280.0000 </r>
       <r>    -1.5309     0.0000   280.0000 </r>
       <r>    -1.3387     0.0000   280.0000 </r>
       <r>    -1.1464     3.7949   280.1363 </r>
       <r>    -0.9542     7.3731   281.4714 </r>
       <r>    -0.7619     6.0246   282.6374 </r>
       <r>    -0.5697    13.7279   284.7119 </r>
       <r>    -0.3774     7.9826   286.8057 </r>
       <r>    -0.1852    22.9357   289.4312 </r>
       <r>     0.0070    26.3615   294.4495 </r>
       <r>     0.1993    41.5545   300.4082 </r>
       <r>     0.3915    37.0887   308.1713 </r>
       <r>     0.5838    39.7227   316.0403 </r>
       <r>     0.7760    25.7779   321.8225 </r>
       <r>     0.9683    24.9706   328.7879 </r>
       <r>     1.1605    46.9805   335.3713 </r>
       <r>     1.3528    50.8642   344.1343 </r>
       <r>     1.5450    42.1021   352.8104 </r>
       <r>     1.7373    48.5429   361.2378 </r>
       <r>     1.9295    47.7341   370.9863 </r>
       <r>     2.1217    57.3241   381.0156 </r>
       <r>     2.3140    40.6853   390.8399 </r>
       <r>     2.5062    45.3942   398.6890 </r>
       <r>     2.6985    87.2396   410.8248 </r>
       <r>     2.8907    80.2934   424.1222 </r>
       <r>     3.0830    76.0544   436.4475 </r>
       <r>     3.2752    52.4741   450.0436 </r>
       <r>     3.4675    20.6083   456.6023 </r>
       <r>     3.6597    55.3114   462.1395 </r>
       <r>     3.8520    16.0988   467.8564 </r>
       <r>     4.0442     9.7554   470.2460 </r>
       <r>     4.2364     4.4959   471.6157 </r>
       <r>     4.4287     0.0791   471.9991 </r>
       <r>     4.6209     0.0000   472.0000 </r>
       <r>     4.8132     0.0000   472.0000 </r>
       <r>     5.0054     0.0000   472.0000 </r>
       <r>     5.1977     0.0000   472.0000 </r>
       <r>     5.3899     0.1693   472.0018 </r>
       <r>     5.5822     5.6085   472.5314 </r>
       <r>     5.7744    10.8425   474.1548 </r>
       <r>     5.9667     9.4122   475.9886 </r>
       <r>     6.1589    14.7419   480.3992 </r>
       <r>     6.3512    12.7549   483.0066 </r>
       <r>     6.5434    12.4475   485.4026 </r>
       <r>     6.7356    14.1086   487.9530 </r>
       <r>     6.9279    15.9129   490.8317 </r>
       <r>     7.1201    18.2740   494.0988 </r>
       <r>     7.3124    23.4830   498.0603 </r>
       <r>     7.5046    28.6783   503.1524 </r>
       <r>     7.6969    37.6463   510.2654 </r>
       <r>     7.8891    31.7708   515.9913 </r>
       <r>     8.0814    25.9191   522.0115 </r>
       <r>     8.2736    39.5471   528.5239 </r>
       <r>     8.4659    31.7902   536.1183 </r>
       <r>     8.6581    18.1517   540.4498 </r>
       <r>     8.8503    31.9975   544.7412 </r>
       <r>     9.0426    34.7887   550.6591 </r>
       <r>     9.2348    33.7644   559.1410 </r>
       <r>     9.4271    23.3989   564.2711 </r>
       <r>     9.6193    13.0671   567.4040 </r>
       <r>     9.8116     0.0000   568.0000 </r>
       <r>    10.0038    13.9602   568.8831 </r>
       <r>    10.1961     7.9708   570.9455 </r>
       <r>    10.3883    11.5907   573.2490 </r>
       <r>    10.5806    29.9877   576.9655 </r>
       <r>    10.7728    23.9825   582.0860 </r>
       <r>    10.9650    37.8017   588.9826 </r>
       <r>    11.1573    23.4012   595.8996 </r>
       <r>    11.3495    24.7304   599.9775 </r>
       <r>    11.5418    25.0185   604.9657 </r>
       <r>    11.7340    23.9541   609.6750 </r>
       <r>    11.9263    13.4262   613.2738 </r>
       <r>    12.1185     6.3212   615.1146 </r>
       <r>    12.3108     1.7965   615.8636 </r>
       <r>    12.5030     0.0947   615.9978 </r>
       <r>    12.6953     0.0000   616.0000 </r>
       <r>    12.8875     0.0000   616.0000 </r>
       <r>    13.0797     0.0000   616.0000 </r>
       <r>    13.2720     0.0000   616.0000 </r>
       <r>    13.4642     0.0000   616.0000 </r>
       <r>    13.6565     0.0000   616.0000 </r>
       <r>    13.8487     0.0000   616.0000 </r>
       <r>    14.0410     0.0000   616.0000 </r>
       <r>    14.2332     0.0000   616.0000 </r>
       <r>    14.4255     0.0000   616.0000 </r>
       <r>    14.6177     0.0000   616.0000 </r>
       <r>    14.8100     0.0000   616.0000 </r>
       <r>    15.0022     0.0000   616.0000 </r>
       <r>    15.1945     0.0000   616.0000 </r>
      </set>
     </set>
    </array>
   </total>
  </dos>
 </calculation>
 <structure name="finalpos" >
  <crystal>
   <varray name="basis" >
    <v>      11.16784188       0.01717920       0.00614272 </v>
    <v>       0.01451428       9.45027398      -0.01737048 </v>
    <v>       0.00616595      -0.02153485      11.15901441 </v>
   </varray>
   <i name="volume">   1177.70574759 </i>
   <varray name="rec_basis" >
    <v>       0.08954305      -0.00013762      -0.00004974 </v>
    <v>      -0.00016289       0.10581766       0.00020430 </v>
    <v>      -0.00004954       0.00016479       0.08961399 </v>
   </varray>
  </crystal>
  <varray name="positions" >
   <v>       0.36147260       0.00225191       0.43092547 </v>
   <v>       0.10680726       0.01704484       0.22149582 </v>
   <v>       0.37722993       0.00158282       0.19358326 </v>
   <v>       0.61996508      -0.00080734       0.44507364 </v>
   <v>       0.87605926      -0.00245305       0.43294392 </v>
   <v>       0.62385678       0.00182523       0.18635428 </v>
   <v>       0.86473647      -0.00020544       0.18723970 </v>
   <v>       0.11715905       0.99021715       0.94638097 </v>
   <v>       0.09466120       0.97031182       0.65326020 </v>
   <v>       0.64345747      -0.01189273       0.91636407 </v>
   <v>       0.88367176       0.00149356       0.93567460 </v>
   <v>       0.83456709       0.01578443       0.67035340 </v>
   <v>       0.37883958       0.00053631       0.94602165 </v>
   <v>       0.38601157      -0.00194852       0.68673875 </v>
   <v>       0.00064884       0.29957117       0.06346195 </v>
   <v>       0.25135177       0.69061941       0.06346659 </v>
   <v>       0.25156372       0.30165779       0.31237430 </v>
   <v>       0.50135622       0.70174679       0.31278711 </v>
   <v>       0.50209095       0.30871482       0.06534238 </v>
   <v>       0.75309981       0.70037898       0.06344272 </v>
   <v>       0.75137348       0.30187776       0.31300174 </v>
   <v>       0.99748513       0.70422610       0.31346067 </v>
   <v>      -0.00382303       0.29187918       0.56368780 </v>
   <v>       0.25132464       0.69152226       0.56313670 </v>
   <v>       0.25583216       0.31491491       0.81221071 </v>
   <v>       0.50436349       0.68457798       0.81285394 </v>
   <v>       0.49950539       0.30392168       0.56043583 </v>
   <v>       0.75197636       0.70279303       0.55927502 </v>
   <v>       0.75726003       0.30073590       0.81520077 </v>
   <v>       0.00377751       0.69590126       0.81554202 </v>
   <v>       0.25497475       0.34732877       0.06260206 </v>
   <v>       0.00357575       0.65256945       0.06548846 </v>
   <v>       0.50228623       0.35163342       0.31297301 </v>
   <v>       0.25296420       0.67179421       0.31323536 </v>
   <v>       0.75343493       0.34781884       0.06302505 </v>
   <v>       0.50256848       0.65348342       0.06351638 </v>
   <v>       0.00352648       0.33345053       0.31198985 </v>
   <v>       0.75173671       0.64699432       0.31330288 </v>
   <v>       0.25382921       0.34128600       0.56450830 </v>
   <v>       0.00422884       0.67095691       0.56636690 </v>
   <v>       0.50478615       0.34611321       0.81344903 </v>
   <v>       0.25554298       0.64471522       0.81435346 </v>
   <v>       0.75280993       0.34326133       0.56417387 </v>
   <v>       0.50217042       0.65925565       0.56495664 </v>
   <v>       0.00524074       0.34232812       0.81287249 </v>
   <v>       0.75261230       0.67288088       0.81511888 </v>
   <v>       0.49345232       0.08376783       0.06358045 </v>
   <v>       0.25819561       0.91355402       0.05087858 </v>
   <v>       0.25947818       0.08491152       0.29939024 </v>
   <v>      -0.02227529       0.91873161       0.30059767 </v>
   <v>       0.00075531       0.07914569       0.06449501 </v>
   <v>       0.74753247       0.92091171       0.06157236 </v>
   <v>       0.74325721       0.08301159       0.30707216 </v>
   <v>       0.50049736       0.92185580       0.30991626 </v>
   <v>       0.47991605       0.08396373       0.55283435 </v>
   <v>       0.26078139       0.91103360       0.58400913 </v>
   <v>       0.28313828       0.09136015       0.81706511 </v>
   <v>       0.01575139       0.91393049       0.82085315 </v>
   <v>       0.97320991       0.07790415       0.57318482 </v>
   <v>       0.75123178       0.91774709       0.54076841 </v>
   <v>       0.76606402       0.08357604       0.82337035 </v>
   <v>       0.48504435       0.91034468       0.82272929 </v>
  </varray>
 </structure>
</modeling>
