<?xml version="1.0" encoding="ISO-8859-1"?>
<modeling>
 <generator>
  <i name="program" type="string">vasp </i>
  <i name="version" type="string">5.4.4.18Apr17-6-g9f103f2a35  </i>
  <i name="subversion" type="string">(build Jul 31 2017 11:33:29) complex            parallel </i>
  <i name="platform" type="string">LinuxIFC </i>
  <i name="date" type="string">2021 09 20 </i>
  <i name="time" type="string">19:41:23 </i>
 </generator>
 <incar>
  <i type="string" name="SYSTEM"> La2O2S</i>
  <i type="string" name="PREC">normal</i>
  <i type="int" name="NELMIN">     4</i>
  <i type="int" name="IBRION">     2</i>
  <i type="int" name="NFREE">    10</i>
  <i name="EDIFF">      0.00000100</i>
  <i name="EDIFFG">     -0.01000000</i>
  <i type="int" name="NSW">   200</i>
  <i type="int" name="ISIF">     3</i>
  <i name="ENCUT">    600.00000000</i>
  <i name="ENAUG">    900.00000000</i>
  <i type="int" name="ISMEAR">    -5</i>
  <i type="logical" name="LWAVE"> F  </i>
  <i type="logical" name="LCHARG"> F  </i>
  <v type="int" name="KPOINT_BSE">    -1     0     0     0</v>
 </incar>
 <structure name="primitive_cell" >
  <crystal>
   <varray name="basis" >
    <v>      11.17850000       0.00000000       0.00000000 </v>
    <v>       0.00000000       9.57460000       0.00000000 </v>
    <v>       0.00000000       0.00000000      11.18240000 </v>
   </varray>
   <i name="volume">   1196.84853820 </i>
   <varray name="rec_basis" >
    <v>       0.08945744       0.00000000       0.00000000 </v>
    <v>       0.00000000       0.10444301       0.00000000 </v>
    <v>       0.00000000       0.00000000       0.08942624 </v>
   </varray>
  </crystal>
  <varray name="positions" >
   <v>       0.12461000      -0.00016000       0.18687000 </v>
   <v>      -0.00013000       0.07798000       0.06246000 </v>
   <v>       0.24987000      -0.07798000       0.06246000 </v>
   <v>       0.00013000      -0.07798000       0.31246000 </v>
   <v>       0.25013000       0.07798000       0.31246000 </v>
   <v>       0.37461000       0.00017000       0.18687000 </v>
   <v>      -0.12539000       0.00017000       0.18687000 </v>
   <v>       0.12539000      -0.00016000      -0.06313000 </v>
   <v>       0.00013000       0.29519000       0.06281000 </v>
   <v>       0.25013000      -0.29519000       0.06281000 </v>
   <v>      -0.00013000      -0.29519000       0.31282000 </v>
   <v>       0.24987000       0.29519000       0.31282000 </v>
   <v>       0.00005000      -0.32677000       0.06286000 </v>
   <v>       0.25005000       0.32677000       0.06286000 </v>
   <v>      -0.00005000       0.32677000       0.31286000 </v>
   <v>       0.24995000      -0.32677000       0.31286000 </v>
   <v>      -0.12461000       0.00017000      -0.06313000 </v>
   <v>      -0.12461000       0.00017000       0.43687000 </v>
   <v>       0.37539000       0.00017000      -0.06313000 </v>
   <v>       0.00013000      -0.07798000      -0.18754000 </v>
   <v>      -0.25013000      -0.07798000       0.06246000 </v>
   <v>      -0.24987000       0.07798000       0.31246000 </v>
   <v>       0.25013000       0.07798000      -0.18754000 </v>
   <v>       0.49987000       0.07798000       0.06246000 </v>
   <v>      -0.00013000       0.07798000      -0.43754000 </v>
   <v>      -0.49987000      -0.07798000       0.31246000 </v>
   <v>       0.24987000      -0.07798000      -0.43754000 </v>
   <v>      -0.00013000      -0.29519000      -0.18718000 </v>
   <v>      -0.24987000      -0.29519000       0.06281000 </v>
   <v>       0.24987000       0.29519000      -0.18718000 </v>
   <v>      -0.25013000       0.29519000       0.31282000 </v>
   <v>      -0.49987000       0.29519000       0.06281000 </v>
   <v>       0.49987000      -0.29519000       0.31282000 </v>
   <v>       0.00013000       0.29519000      -0.43719000 </v>
   <v>       0.25013000      -0.29519000      -0.43719000 </v>
   <v>      -0.00005000       0.32677000      -0.18714000 </v>
   <v>       0.24995000      -0.32677000      -0.18714000 </v>
   <v>      -0.24995000       0.32677000       0.06286000 </v>
   <v>      -0.25005000      -0.32677000       0.31286000 </v>
   <v>      -0.49995000      -0.32677000       0.06286000 </v>
   <v>       0.49995000       0.32677000       0.31286000 </v>
   <v>       0.00005000      -0.32677000      -0.43714000 </v>
   <v>       0.25005000       0.32677000      -0.43714000 </v>
   <v>       0.12461000      -0.00016000      -0.31313000 </v>
   <v>      -0.24987000       0.07798000      -0.18754000 </v>
   <v>      -0.49987000      -0.07798000      -0.18754000 </v>
   <v>      -0.25013000      -0.07798000      -0.43754000 </v>
   <v>       0.49987000       0.07798000      -0.43754000 </v>
   <v>      -0.37461000      -0.00016000       0.43687000 </v>
   <v>      -0.37461000      -0.00016000      -0.06313000 </v>
   <v>      -0.25013000       0.29519000      -0.18718000 </v>
   <v>       0.49987000      -0.29519000      -0.18718000 </v>
   <v>      -0.24987000      -0.29519000      -0.43719000 </v>
   <v>      -0.49987000       0.29519000      -0.43719000 </v>
   <v>      -0.25005000      -0.32677000      -0.18714000 </v>
   <v>       0.49995000       0.32677000      -0.18714000 </v>
   <v>      -0.24995000       0.32677000      -0.43714000 </v>
   <v>      -0.49995000      -0.32677000      -0.43714000 </v>
   <v>      -0.37539000      -0.00016000      -0.31313000 </v>
  </varray>
 </structure>
 <varray name="primitive_index" >
  <v type="int" >        1 </v>
  <v type="int" >       48 </v>
  <v type="int" >       45 </v>
  <v type="int" >       47 </v>
  <v type="int" >       46 </v>
  <v type="int" >        7 </v>
  <v type="int" >        9 </v>
  <v type="int" >        3 </v>
  <v type="int" >       12 </v>
  <v type="int" >       13 </v>
  <v type="int" >       19 </v>
  <v type="int" >       14 </v>
  <v type="int" >       29 </v>
  <v type="int" >       28 </v>
  <v type="int" >       34 </v>
  <v type="int" >       31 </v>
  <v type="int" >        6 </v>
  <v type="int" >        8 </v>
  <v type="int" >       10 </v>
  <v type="int" >       55 </v>
  <v type="int" >       49 </v>
  <v type="int" >       50 </v>
  <v type="int" >       54 </v>
  <v type="int" >       44 </v>
  <v type="int" >       56 </v>
  <v type="int" >       51 </v>
  <v type="int" >       53 </v>
  <v type="int" >       27 </v>
  <v type="int" >       17 </v>
  <v type="int" >       22 </v>
  <v type="int" >       18 </v>
  <v type="int" >       16 </v>
  <v type="int" >       15 </v>
  <v type="int" >       20 </v>
  <v type="int" >       21 </v>
  <v type="int" >       42 </v>
  <v type="int" >       39 </v>
  <v type="int" >       32 </v>
  <v type="int" >       35 </v>
  <v type="int" >       33 </v>
  <v type="int" >       30 </v>
  <v type="int" >       37 </v>
  <v type="int" >       36 </v>
  <v type="int" >        4 </v>
  <v type="int" >       58 </v>
  <v type="int" >       59 </v>
  <v type="int" >       57 </v>
  <v type="int" >       52 </v>
  <v type="int" >        2 </v>
  <v type="int" >        5 </v>
  <v type="int" >       26 </v>
  <v type="int" >       23 </v>
  <v type="int" >       25 </v>
  <v type="int" >       24 </v>
  <v type="int" >       43 </v>
  <v type="int" >       38 </v>
  <v type="int" >       40 </v>
  <v type="int" >       41 </v>
  <v type="int" >       11 </v>
 </varray>
 <kpoints>
  <generation param="Gamma">
   <v type="int" name="divisions">       2        2        2 </v>
   <v name="usershift">      0.00000000       0.00000000       0.00000000 </v>
   <v name="genvec1">      0.50000000       0.00000000       0.00000000 </v>
   <v name="genvec2">      0.00000000       0.50000000       0.00000000 </v>
   <v name="genvec3">      0.00000000       0.00000000       0.50000000 </v>
   <v name="shift">      0.00000000       0.00000000       0.00000000 </v>
  </generation>
  <varray name="kpointlist" >
   <v>       0.00000000       0.00000000       0.00000000 </v>
   <v>       0.50000000       0.00000000       0.00000000 </v>
   <v>       0.00000000       0.50000000       0.00000000 </v>
   <v>       0.50000000       0.50000000       0.00000000 </v>
   <v>       0.00000000       0.00000000       0.50000000 </v>
   <v>       0.50000000       0.00000000       0.50000000 </v>
   <v>       0.00000000       0.50000000       0.50000000 </v>
   <v>       0.50000000       0.50000000       0.50000000 </v>
  </varray>
  <varray name="weights" >
   <v>       0.12500000 </v>
   <v>       0.12500000 </v>
   <v>       0.12500000 </v>
   <v>       0.12500000 </v>
   <v>       0.12500000 </v>
   <v>       0.12500000 </v>
   <v>       0.12500000 </v>
   <v>       0.12500000 </v>
  </varray>
  <varray name="tetrahedronlist"  type="int" >
   <v type="int" >        2        1        2        4        5 </v>
   <v type="int" >        2        1        3        4        5 </v>
   <v type="int" >        2        3        4        5        7 </v>
   <v type="int" >        2        2        4        5        6 </v>
   <v type="int" >        2        4        5        6        8 </v>
   <v type="int" >        2        4        5        7        8 </v>
   <v type="int" >        2        1        2        3        6 </v>
   <v type="int" >        2        2        3        4        6 </v>
   <v type="int" >        2        3        4        6        8 </v>
   <v type="int" >        2        1        3        5        6 </v>
   <v type="int" >        2        3        5        6        7 </v>
   <v type="int" >        2        3        6        7        8 </v>
   <v type="int" >        2        2        3        4        7 </v>
   <v type="int" >        2        1        2        3        7 </v>
   <v type="int" >        2        1        2        5        7 </v>
   <v type="int" >        2        2        4        7        8 </v>
   <v type="int" >        2        2        6        7        8 </v>
   <v type="int" >        2        2        5        6        7 </v>
   <v type="int" >        2        1        3        4        8 </v>
   <v type="int" >        2        1        2        4        8 </v>
   <v type="int" >        2        1        2        6        8 </v>
   <v type="int" >        2        1        3        7        8 </v>
   <v type="int" >        2        1        5        7        8 </v>
   <v type="int" >        2        1        5        6        8 </v>
  </varray>
  <i name="volumeweight">      0.02083333 </i>
 </kpoints>
 <parameters>
  <separator name="general" >
   <i type="string" name="SYSTEM">La2O2S</i>
   <i type="logical" name="LCOMPAT"> F  </i>
  </separator>
  <separator name="electronic" >
   <i type="string" name="PREC">normal</i>
   <i name="ENMAX">    600.00000000</i>
   <i name="ENAUG">    900.00000000</i>
   <i name="EDIFF">      0.00000100</i>
   <i type="int" name="IALGO">    38</i>
   <i type="int" name="IWAVPR">    11</i>
   <i type="int" name="NBANDS">   280</i>
   <i name="NELECT">    460.00000000</i>
   <i type="int" name="TURBO">     0</i>
   <i type="int" name="IRESTART">     0</i>
   <i type="int" name="NREBOOT">     0</i>
   <i type="int" name="NMIN">     0</i>
   <i name="EREF">      0.00000000</i>
   <separator name="electronic smearing" >
    <i type="int" name="ISMEAR">    -5</i>
    <i name="SIGMA">      0.20000000</i>
    <i name="KSPACING">      0.50000000</i>
    <i type="logical" name="KGAMMA"> T  </i>
   </separator>
   <separator name="electronic projectors" >
    <i type="logical" name="LREAL"> F  </i>
    <v name="ROPT">      0.00000000      0.00000000      0.00000000      0.00000000      0.00000000</v>
    <i type="int" name="LMAXPAW">  -100</i>
    <i type="int" name="LMAXMIX">     2</i>
    <i type="logical" name="NLSPLINE"> F  </i>
   </separator>
   <separator name="electronic startup" >
    <i type="int" name="ISTART">     0</i>
    <i type="int" name="ICHARG">     2</i>
    <i type="int" name="INIWAV">     1</i>
   </separator>
   <separator name="electronic spin" >
    <i type="int" name="ISPIN">     1</i>
    <i type="logical" name="LNONCOLLINEAR"> F  </i>
    <v name="MAGMOM">      1.00000000      1.00000000      1.00000000      1.00000000      1.00000000      1.00000000      1.00000000      1.00000000      1.00000000      1.00000000      1.00000000      1.00000000      1.00000000      1.00000000      1.00000000      1.00000000      1.00000000      1.00000000      1.00000000      1.00000000
      1.00000000      1.00000000      1.00000000      1.00000000      1.00000000      1.00000000      1.00000000      1.00000000      1.00000000      1.00000000      1.00000000      1.00000000      1.00000000      1.00000000      1.00000000      1.00000000      1.00000000      1.00000000      1.00000000      1.00000000
      1.00000000      1.00000000      1.00000000      1.00000000      1.00000000      1.00000000      1.00000000      1.00000000      1.00000000      1.00000000      1.00000000      1.00000000      1.00000000      1.00000000      1.00000000      1.00000000      1.00000000      1.00000000      1.00000000</v>
    <i name="NUPDOWN">     -1.00000000</i>
    <i type="logical" name="LSORBIT"> F  </i>
    <v name="SAXIS">      0.00000000      0.00000000      1.00000000</v>
    <i type="logical" name="LSPIRAL"> F  </i>
    <v name="QSPIRAL">      0.00000000      0.00000000      0.00000000</v>
    <i type="logical" name="LZEROZ"> F  </i>
   </separator>
   <separator name="electronic exchange-correlation" >
    <i type="logical" name="LASPH"> F  </i>
    <i type="logical" name="LMETAGGA"> F  </i>
   </separator>
   <separator name="electronic convergence" >
    <i type="int" name="NELM">    60</i>
    <i type="int" name="NELMDL">    -5</i>
    <i type="int" name="NELMIN">     4</i>
    <i name="ENINI">    600.00000000</i>
    <separator name="electronic convergence detail" >
     <i type="logical" name="LDIAG"> T  </i>
     <i type="logical" name="LSUBROT"> F  </i>
     <i name="WEIMIN">      0.00100000</i>
     <i name="EBREAK">      0.00000000</i>
     <i name="DEPER">      0.30000000</i>
     <i type="int" name="NRMM">     4</i>
     <i name="TIME">      0.40000000</i>
    </separator>
   </separator>
   <separator name="electronic mixer" >
    <i name="AMIX">      0.40000000</i>
    <i name="BMIX">      1.00000000</i>
    <i name="AMIN">      0.10000000</i>
    <i name="AMIX_MAG">      1.60000000</i>
    <i name="BMIX_MAG">      1.00000000</i>
    <separator name="electronic mixer details" >
     <i type="int" name="IMIX">     4</i>
     <i type="logical" name="MIXFIRST"> F  </i>
     <i type="int" name="MAXMIX">   -45</i>
     <i name="WC">    100.00000000</i>
     <i type="int" name="INIMIX">     1</i>
     <i type="int" name="MIXPRE">     1</i>
     <i type="int" name="MREMOVE">     5</i>
    </separator>
   </separator>
   <separator name="electronic dipolcorrection" >
    <i type="logical" name="LDIPOL"> F  </i>
    <i type="logical" name="LMONO"> F  </i>
    <i type="int" name="IDIPOL">     0</i>
    <i name="EPSILON">      1.00000000</i>
    <v name="DIPOL">   -100.00000000   -100.00000000   -100.00000000</v>
    <i name="EFIELD">      0.00000000</i>
   </separator>
  </separator>
  <separator name="grids" >
   <i type="int" name="NGX">    70</i>
   <i type="int" name="NGY">    60</i>
   <i type="int" name="NGZ">    70</i>
   <i type="int" name="NGXF">   140</i>
   <i type="int" name="NGYF">   120</i>
   <i type="int" name="NGZF">   140</i>
   <i type="logical" name="ADDGRID"> F  </i>
  </separator>
  <separator name="ionic" >
   <i type="int" name="NSW">   200</i>
   <i type="int" name="IBRION">     2</i>
   <i type="int" name="MDALGO">     0</i>
   <i type="int" name="ISIF">     3</i>
   <i name="PSTRESS">      0.00000000</i>
   <i name="EDIFFG">     -0.01000000</i>
   <i type="int" name="NFREE">    10</i>
   <i name="POTIM">      0.50000000</i>
   <i name="SMASS">     -3.00000000</i>
   <i name="SCALEE">      1.00000000</i>
  </separator>
  <separator name="ionic md" >
   <i name="TEBEG">      0.00010000</i>
   <i name="TEEND">      0.00010000</i>
   <i type="int" name="NBLOCK">     1</i>
   <i type="int" name="KBLOCK">   200</i>
   <i type="int" name="NPACO">   256</i>
   <i name="APACO">     16.00000000</i>
  </separator>
  <separator name="symmetry" >
   <i type="int" name="ISYM">     2</i>
   <i name="SYMPREC">      0.00001000</i>
  </separator>
  <separator name="dos" >
   <i type="int" name="LORBIT">     0</i>
   <v name="RWIGS">     -1.00000000     -1.00000000     -1.00000000     -1.00000000     -1.00000000</v>
   <i type="int" name="NEDOS">   301</i>
   <i name="EMIN">     10.00000000</i>
   <i name="EMAX">    -10.00000000</i>
   <i name="EFERMI">      0.00000000</i>
  </separator>
  <separator name="writing" >
   <i type="int" name="NWRITE">     2</i>
   <i type="logical" name="LWAVE"> F  </i>
   <i type="logical" name="LDOWNSAMPLE"> F  </i>
   <i type="logical" name="LCHARG"> F  </i>
   <i type="logical" name="LPARD"> F  </i>
   <i type="logical" name="LVTOT"> F  </i>
   <i type="logical" name="LVHAR"> F  </i>
   <i type="logical" name="LELF"> F  </i>
   <i type="logical" name="LOPTICS"> F  </i>
   <v name="STM">      0.00000000      0.00000000      0.00000000      0.00000000      0.00000000      0.00000000      0.00000000</v>
  </separator>
  <separator name="performance" >
   <i type="int" name="NPAR">    28</i>
   <i type="int" name="NSIM">     4</i>
   <i type="int" name="NBLK">    -1</i>
   <i type="logical" name="LPLANE"> T  </i>
   <i type="logical" name="LSCALAPACK"> T  </i>
   <i type="logical" name="LSCAAWARE"> F  </i>
   <i type="logical" name="LSCALU"> F  </i>
   <i type="logical" name="LASYNC"> F  </i>
   <i type="logical" name="LORBITALREAL"> F  </i>
  </separator>
  <separator name="miscellaneous" >
   <i type="int" name="IDIOT">     3</i>
   <i type="int" name="ISPECIAL">     0</i>
   <i type="logical" name="LMUSIC"> F  </i>
   <v name="POMASS">      7.01000000     24.30500000    208.98000000     32.06600000     16.00000000</v>
   <v name="DARWINR">      0.00000000      0.00000000      0.00000000      0.00000000      0.00000000</v>
   <v name="DARWINV">      1.00000000      1.00000000      1.00000000      1.00000000      1.00000000</v>
   <i type="logical" name="LCORR"> T  </i>
  </separator>
  <i type="logical" name="GGA_COMPAT"> T  </i>
  <i type="logical" name="LBERRY"> F  </i>
  <i type="int" name="ICORELEVEL">     0</i>
  <i type="logical" name="LDAU"> F  </i>
  <i type="int" name="I_CONSTRAINED_M">     0</i>
  <separator name="electronic exchange-correlation" >
   <i type="string" name="GGA">--</i>
   <i type="int" name="VOSKOWN">     0</i>
   <i type="logical" name="LHFCALC"> F  </i>
   <i type="string" name="PRECFOCK"></i>
   <i type="logical" name="LSYMGRAD"> F  </i>
   <i type="logical" name="LHFONE"> F  </i>
   <i type="logical" name="LRHFCALC"> F  </i>
   <i type="logical" name="LTHOMAS"> F  </i>
   <i type="logical" name="LMODELHF"> F  </i>
   <i name="ENCUT4O">     -1.00000000</i>
   <i type="int" name="EXXOEP">     0</i>
   <i type="int" name="FOURORBIT">     0</i>
   <i name="AEXX">      0.00000000</i>
   <i name="HFALPHA">      0.00000000</i>
   <i name="MCALPHA">      0.00000000</i>
   <i name="ALDAX">      1.00000000</i>
   <i name="AGGAX">      1.00000000</i>
   <i name="ALDAC">      1.00000000</i>
   <i name="AGGAC">      1.00000000</i>
   <i type="int" name="NKREDX">     1</i>
   <i type="int" name="NKREDY">     1</i>
   <i type="int" name="NKREDZ">     1</i>
   <i type="logical" name="SHIFTRED"> F  </i>
   <i type="logical" name="ODDONLY"> F  </i>
   <i type="logical" name="EVENONLY"> F  </i>
   <i type="int" name="LMAXFOCK">     0</i>
   <i type="int" name="NMAXFOCKAE">     0</i>
   <i type="logical" name="LFOCKAEDFT"> F  </i>
   <i name="HFSCREEN">      0.00000000</i>
   <i name="HFSCREENC">      0.00000000</i>
   <i type="int" name="NBANDSGWLOW">     0</i>
  </separator>
  <separator name="vdW DFT" >
   <i type="logical" name="LUSE_VDW"> F  </i>
   <i name="Zab_VDW">     -0.84910000</i>
   <i name="PARAM1">      0.12340000</i>
   <i name="PARAM2">      1.00000000</i>
   <i name="PARAM3">      0.00000000</i>
  </separator>
  <separator name="model GW" >
   <i type="int" name="MODEL_GW">     0</i>
   <i name="MODEL_EPS0">     12.17134107</i>
   <i name="MODEL_ALPHA">      1.00000000</i>
  </separator>
  <separator name="linear response parameters" >
   <i type="logical" name="LEPSILON"> F  </i>
   <i type="logical" name="LRPA"> F  </i>
   <i type="logical" name="LNABLA"> F  </i>
   <i type="logical" name="LVEL"> F  </i>
   <i type="int" name="KINTER">     0</i>
   <i name="CSHIFT">      0.10000000</i>
   <i name="OMEGAMAX">     -1.00000000</i>
   <i name="DEG_THRESHOLD">      0.00200000</i>
   <i name="RTIME">     -0.10000000</i>
   <i name="WPLASMAI">      0.00000000</i>
   <v name="DFIELD">      0.00000000      0.00000000      0.00000000</v>
   <v name="WPLASMA">      0.00000000      0.00000000      0.00000000      0.00000000      0.00000000      0.00000000      0.00000000      0.00000000      0.00000000</v>
  </separator>
  <separator name="orbital magnetization" >
   <i type="logical" name="NUCIND"> F  </i>
   <v name="MAGPOS">      0.00000000      0.00000000      0.00000000</v>
   <i type="logical" name="LNICSALL"> T  </i>
   <i type="logical" name="ORBITALMAG"> F  </i>
   <i type="logical" name="LMAGBLOCH"> F  </i>
   <i type="logical" name="LCHIMAG"> F  </i>
   <i type="logical" name="LGAUGE"> T  </i>
   <i type="int" name="MAGATOM">     0</i>
   <v name="MAGDIPOL">      0.00000000      0.00000000      0.00000000</v>
   <v name="AVECCONST">      0.00000000      0.00000000      0.00000000</v>
  </separator>
  <separator name="response functions" >
   <i type="logical" name="LADDER"> F  </i>
   <i type="logical" name="LRPAFORCE"> F  </i>
   <i type="logical" name="LFXC"> F  </i>
   <i type="logical" name="LHARTREE"> T  </i>
   <i type="int" name="IBSE">     0</i>
   <v type="int" name="KPOINT">    -1     0     0     0</v>
   <i type="logical" name="LTCTE"> F  </i>
   <i type="logical" name="LTETE"> F  </i>
   <i type="logical" name="LTRIPLET"> F  </i>
   <i type="logical" name="LFXCEPS"> F  </i>
   <i type="logical" name="LFXHEG"> F  </i>
   <i type="int" name="NATURALO">     2</i>
   <i type="logical" name="L2ORDER"> F  </i>
   <i type="logical" name="LMP2LT"> F  </i>
   <i type="logical" name="LUSEW"> F  </i>
   <i name="ENCUTGW">     -2.00000000</i>
   <i name="ENCUTGWSOFT">     -2.00000000</i>
   <i name="ENCUTLF">     -1.00000000</i>
   <i type="int" name="LMAXMP2">    -1</i>
   <i name="SCISSOR">      0.00000000</i>
   <i type="int" name="NOMEGA">     0</i>
   <i type="int" name="NOMEGAR">     0</i>
   <i type="int" name="NBANDSGW">    -1</i>
   <i type="int" name="NBANDSO">    -1</i>
   <i type="int" name="NBANDSV">    -1</i>
   <i type="int" name="NELM">     1</i>
   <i type="int" name="NELMHF">     1</i>
   <i type="int" name="DIM">     3</i>
   <i type="int" name="ANTIRES">     0</i>
   <i name="OMEGAMAX">    -30.00000000</i>
   <i name="OMEGAMIN">    -30.00000000</i>
   <i name="OMEGATL">   -200.00000000</i>
   <i type="int" name="OMEGAGRID">   140</i>
   <i name="CSHIFT">     -0.10000000</i>
   <i type="logical" name="SELFENERGY"> F  </i>
   <i type="logical" name="LSPECTRAL"> F  </i>
   <i type="logical" name="LSPECTRALGW"> F  </i>
   <i type="logical" name="LSINGLES"> F  </i>
   <i type="logical" name="LFERMIGW"> F  </i>
   <i type="logical" name="ODDONLYGW"> F  </i>
   <i type="logical" name="EVENONLYGW"> F  </i>
   <i type="int" name="NKREDLFX">     1</i>
   <i type="int" name="NKREDLFY">     1</i>
   <i type="int" name="NKREDLFZ">     1</i>
   <i type="int" name="MAXMEM">  2800</i>
   <i type="int" name="TELESCOPE">     0</i>
   <i type="int" name="TAUPAR">     1</i>
   <i type="int" name="OMEGAPAR">    -1</i>
   <i name="LAMBDA">      1.00000000</i>
  </separator>
  <separator name="External order field" >
   <i name="OFIELD_KAPPA">      0.00000000</i>
   <v name="OFIELD_K">      0.00000000      0.00000000      0.00000000</v>
   <i name="OFIELD_Q6_NEAR">      0.00000000</i>
   <i name="OFIELD_Q6_FAR">      0.00000000</i>
   <i name="OFIELD_A">      0.00000000</i>
  </separator>
 </parameters>
 <atominfo>
  <atoms>      59 </atoms>
  <types>       5 </types>
  <array name="atoms" >
   <dimension dim="1">ion</dimension>
   <field type="string">element</field>
   <field type="int">atomtype</field>
   <set>
    <rc><c>Li</c><c>   1</c></rc>
    <rc><c>Li</c><c>   1</c></rc>
    <rc><c>Li</c><c>   1</c></rc>
    <rc><c>Li</c><c>   1</c></rc>
    <rc><c>Li</c><c>   1</c></rc>
    <rc><c>Li</c><c>   1</c></rc>
    <rc><c>Mg</c><c>   2</c></rc>
    <rc><c>Mg</c><c>   2</c></rc>
    <rc><c>Mg</c><c>   2</c></rc>
    <rc><c>Mg</c><c>   2</c></rc>
    <rc><c>Mg</c><c>   2</c></rc>
    <rc><c>Bi</c><c>   3</c></rc>
    <rc><c>Bi</c><c>   3</c></rc>
    <rc><c>Bi</c><c>   3</c></rc>
    <rc><c>Bi</c><c>   3</c></rc>
    <rc><c>Bi</c><c>   3</c></rc>
    <rc><c>Bi</c><c>   3</c></rc>
    <rc><c>Bi</c><c>   3</c></rc>
    <rc><c>Bi</c><c>   3</c></rc>
    <rc><c>Bi</c><c>   3</c></rc>
    <rc><c>Bi</c><c>   3</c></rc>
    <rc><c>Bi</c><c>   3</c></rc>
    <rc><c>Bi</c><c>   3</c></rc>
    <rc><c>Bi</c><c>   3</c></rc>
    <rc><c>Bi</c><c>   3</c></rc>
    <rc><c>Bi</c><c>   3</c></rc>
    <rc><c>Bi</c><c>   3</c></rc>
    <rc><c>S </c><c>   4</c></rc>
    <rc><c>S </c><c>   4</c></rc>
    <rc><c>S </c><c>   4</c></rc>
    <rc><c>S </c><c>   4</c></rc>
    <rc><c>S </c><c>   4</c></rc>
    <rc><c>S </c><c>   4</c></rc>
    <rc><c>S </c><c>   4</c></rc>
    <rc><c>S </c><c>   4</c></rc>
    <rc><c>S </c><c>   4</c></rc>
    <rc><c>S </c><c>   4</c></rc>
    <rc><c>S </c><c>   4</c></rc>
    <rc><c>S </c><c>   4</c></rc>
    <rc><c>S </c><c>   4</c></rc>
    <rc><c>S </c><c>   4</c></rc>
    <rc><c>S </c><c>   4</c></rc>
    <rc><c>S </c><c>   4</c></rc>
    <rc><c>O </c><c>   5</c></rc>
    <rc><c>O </c><c>   5</c></rc>
    <rc><c>O </c><c>   5</c></rc>
    <rc><c>O </c><c>   5</c></rc>
    <rc><c>O </c><c>   5</c></rc>
    <rc><c>O </c><c>   5</c></rc>
    <rc><c>O </c><c>   5</c></rc>
    <rc><c>O </c><c>   5</c></rc>
    <rc><c>O </c><c>   5</c></rc>
    <rc><c>O </c><c>   5</c></rc>
    <rc><c>O </c><c>   5</c></rc>
    <rc><c>O </c><c>   5</c></rc>
    <rc><c>O </c><c>   5</c></rc>
    <rc><c>O </c><c>   5</c></rc>
    <rc><c>O </c><c>   5</c></rc>
    <rc><c>O </c><c>   5</c></rc>
   </set>
  </array>
  <array name="atomtypes" >
   <dimension dim="1">type</dimension>
   <field type="int">atomspertype</field>
   <field type="string">element</field>
   <field>mass</field>
   <field>valence</field>
   <field type="string">pseudopotential</field>
   <set>
    <rc><c>   6</c><c>Li</c><c>      7.01000000</c><c>      3.00000000</c><c>  PAW_PBE Li_sv 10Sep2004               </c></rc>
    <rc><c>   5</c><c>Mg</c><c>     24.30500000</c><c>      2.00000000</c><c>  PAW_PBE Mg 13Apr2007                  </c></rc>
    <rc><c>  16</c><c>Bi</c><c>    208.98000000</c><c>     15.00000000</c><c>  PAW_PBE Bi_d 06Sep2000                </c></rc>
    <rc><c>  16</c><c>S </c><c>     32.06600000</c><c>      6.00000000</c><c>  PAW_PBE S 06Sep2000                   </c></rc>
    <rc><c>  16</c><c>O </c><c>     16.00000000</c><c>      6.00000000</c><c>  PAW_PBE O 08Apr2002                   </c></rc>
   </set>
  </array>
 </atominfo>
 <structure name="initialpos" >
  <crystal>
   <varray name="basis" >
    <v>      11.17850000       0.00000000       0.00000000 </v>
    <v>       0.00000000       9.57460000       0.00000000 </v>
    <v>       0.00000000       0.00000000      11.18240000 </v>
   </varray>
   <i name="volume">   1196.84853820 </i>
   <varray name="rec_basis" >
    <v>       0.08945744       0.00000000       0.00000000 </v>
    <v>       0.00000000       0.10444301       0.00000000 </v>
    <v>       0.00000000       0.00000000       0.08942624 </v>
   </varray>
  </crystal>
  <varray name="positions" >
   <v>       0.12461000       0.99984000       0.18687000 </v>
   <v>       0.62539000       0.99984000       0.43687000 </v>
   <v>       0.12539000       0.99984000       0.93687000 </v>
   <v>       0.12461000       0.99984000       0.68687000 </v>
   <v>       0.62539000       0.99984000       0.93687000 </v>
   <v>       0.87539000       0.00017000       0.93687000 </v>
   <v>       0.37461000       0.00017000       0.18687000 </v>
   <v>       0.87539000       0.00017000       0.43687000 </v>
   <v>       0.87461000       0.00017000       0.18687000 </v>
   <v>       0.37539000       0.00017000       0.93687000 </v>
   <v>       0.62461000       0.99984000       0.68687000 </v>
   <v>       0.00013000       0.29519000       0.06281000 </v>
   <v>       0.25013000       0.70481000       0.06281000 </v>
   <v>       0.24987000       0.29519000       0.31282000 </v>
   <v>       0.49987000       0.70481000       0.31282000 </v>
   <v>       0.50013000       0.29519000       0.06281000 </v>
   <v>       0.75013000       0.70481000       0.06281000 </v>
   <v>       0.74987000       0.29519000       0.31282000 </v>
   <v>       0.99987000       0.70481000       0.31282000 </v>
   <v>       0.00013000       0.29519000       0.56281000 </v>
   <v>       0.25013000       0.70481000       0.56281000 </v>
   <v>       0.24987000       0.29519000       0.81282000 </v>
   <v>       0.49987000       0.70481000       0.81282000 </v>
   <v>       0.50013000       0.29519000       0.56281000 </v>
   <v>       0.75013000       0.70481000       0.56281000 </v>
   <v>       0.74987000       0.29519000       0.81282000 </v>
   <v>       0.99987000       0.70481000       0.81282000 </v>
   <v>       0.25005000       0.32677000       0.06286000 </v>
   <v>       0.00005000       0.67323000       0.06286000 </v>
   <v>       0.49995000       0.32677000       0.31286000 </v>
   <v>       0.24995000       0.67323000       0.31286000 </v>
   <v>       0.75005000       0.32677000       0.06286000 </v>
   <v>       0.50005000       0.67323000       0.06286000 </v>
   <v>       0.99995000       0.32677000       0.31286000 </v>
   <v>       0.74995000       0.67323000       0.31286000 </v>
   <v>       0.25005000       0.32677000       0.56286000 </v>
   <v>       0.00005000       0.67323000       0.56286000 </v>
   <v>       0.49995000       0.32677000       0.81286000 </v>
   <v>       0.24995000       0.67323000       0.81286000 </v>
   <v>       0.75005000       0.32677000       0.56286000 </v>
   <v>       0.50005000       0.67323000       0.56286000 </v>
   <v>       0.99995000       0.32677000       0.81286000 </v>
   <v>       0.74995000       0.67323000       0.81286000 </v>
   <v>       0.49987000       0.07798000       0.06246000 </v>
   <v>       0.24987000       0.92202000       0.06246000 </v>
   <v>       0.25013000       0.07798000       0.31246000 </v>
   <v>       0.00013000       0.92202000       0.31246000 </v>
   <v>       0.99987000       0.07798000       0.06246000 </v>
   <v>       0.74987000       0.92202000       0.06246000 </v>
   <v>       0.75013000       0.07798000       0.31246000 </v>
   <v>       0.50013000       0.92202000       0.31246000 </v>
   <v>       0.49987000       0.07798000       0.56246000 </v>
   <v>       0.24987000       0.92202000       0.56246000 </v>
   <v>       0.25013000       0.07798000       0.81246000 </v>
   <v>       0.00013000       0.92202000       0.81246000 </v>
   <v>       0.99987000       0.07798000       0.56246000 </v>
   <v>       0.74987000       0.92202000       0.56246000 </v>
   <v>       0.75013000       0.07798000       0.81246000 </v>
   <v>       0.50013000       0.92202000       0.81246000 </v>
  </varray>
 </structure>
 <calculation>
  <scstep>
   <time name="dav">   61.83   61.89</time>
   <time name="total">   61.92   61.98</time>
   <energy>
    <i name="alphaZ">   1060.66890660 </i>
    <i name="ewald"> -30409.21866408 </i>
    <i name="hartreedc"> -12708.20090682 </i>
    <i name="XCdc">   1247.29097179 </i>
    <i name="pawpsdc">  36635.26894311 </i>
    <i name="pawaedc"> -35972.74895369 </i>
    <i name="eentropy">      0.00000000 </i>
    <i name="bandstr">   1870.20661170 </i>
    <i name="atom">  44026.03258983 </i>
    <i name="e_fr_energy">   5749.29949843 </i>
    <i name="e_wo_entrp">   5749.29949843 </i>
    <i name="e_0_energy">   5749.29949843 </i>
   </energy>
  </scstep>
  <scstep>
   <time name="dav">   62.31   62.36</time>
   <time name="total">   62.32   62.37</time>
   <energy>
    <i name="e_fr_energy">    759.05809555 </i>
    <i name="e_wo_entrp">    759.05809555 </i>
    <i name="e_0_energy">    759.05809555 </i>
   </energy>
  </scstep>
  <scstep>
   <time name="dav">   71.70   71.86</time>
   <time name="total">   71.70   71.86</time>
   <energy>
    <i name="e_fr_energy">   -243.17314841 </i>
    <i name="e_wo_entrp">   -243.17314841 </i>
    <i name="e_0_energy">   -243.17314841 </i>
   </energy>
  </scstep>
  <scstep>
   <time name="dav">   74.59   74.71</time>
   <time name="total">   74.59   74.71</time>
   <energy>
    <i name="e_fr_energy">   -334.93893368 </i>
    <i name="e_wo_entrp">   -334.93893368 </i>
    <i name="e_0_energy">   -334.93893368 </i>
   </energy>
  </scstep>
  <scstep>
   <time name="dav">   95.91   95.96</time>
   <time name="total">   96.68   96.72</time>
   <energy>
    <i name="e_fr_energy">   -341.95079309 </i>
    <i name="e_wo_entrp">   -341.95079309 </i>
    <i name="e_0_energy">   -341.95079309 </i>
   </energy>
  </scstep>
  <scstep>
   <time name="dav">   86.27   86.26</time>
   <time name="total">   87.11   87.10</time>
   <energy>
    <i name="e_fr_energy">   -286.63282507 </i>
    <i name="e_wo_entrp">   -286.63282507 </i>
    <i name="e_0_energy">   -286.63282507 </i>
   </energy>
  </scstep>
  <scstep>
   <time name="dav">   66.19   66.20</time>
   <time name="total">   67.02   67.04</time>
   <energy>
    <i name="e_fr_energy">   -288.92554184 </i>
    <i name="e_wo_entrp">   -288.92554184 </i>
    <i name="e_0_energy">   -288.92554184 </i>
   </energy>
  </scstep>
  <scstep>
   <time name="dav">   86.57   86.59</time>
   <time name="total">   87.40   87.42</time>
   <energy>
    <i name="e_fr_energy">   -287.73361044 </i>
    <i name="e_wo_entrp">   -287.73361044 </i>
    <i name="e_0_energy">   -287.73361044 </i>
   </energy>
  </scstep>
  <scstep>
   <time name="dav">   71.28   71.29</time>
   <time name="total">   72.11   72.12</time>
   <energy>
    <i name="e_fr_energy">   -287.11324673 </i>
    <i name="e_wo_entrp">   -287.11324673 </i>
    <i name="e_0_energy">   -287.11324673 </i>
   </energy>
  </scstep>
  <scstep>
   <time name="dav">   81.77   81.79</time>
   <time name="total">   82.60   82.62</time>
   <energy>
    <i name="e_fr_energy">   -287.09637706 </i>
    <i name="e_wo_entrp">   -287.09637706 </i>
    <i name="e_0_energy">   -287.09637706 </i>
   </energy>
  </scstep>
  <scstep>
   <time name="dav">   70.20   70.22</time>
   <time name="total">   71.03   71.04</time>
   <energy>
    <i name="e_fr_energy">   -287.09598955 </i>
    <i name="e_wo_entrp">   -287.09598955 </i>
    <i name="e_0_energy">   -287.09598955 </i>
   </energy>
  </scstep>
  <scstep>
   <time name="dav">   93.22   93.24</time>
   <time name="total">   94.05   94.07</time>
   <energy>
    <i name="e_fr_energy">   -287.09916159 </i>
    <i name="e_wo_entrp">   -287.09916159 </i>
    <i name="e_0_energy">   -287.09916159 </i>
   </energy>
  </scstep>
  <scstep>
   <time name="dav">   74.01   74.04</time>
   <time name="total">   74.83   74.87</time>
   <energy>
    <i name="e_fr_energy">   -287.09946219 </i>
    <i name="e_wo_entrp">   -287.09946219 </i>
    <i name="e_0_energy">   -287.09946219 </i>
   </energy>
  </scstep>
  <scstep>
   <time name="dav">   69.91   69.89</time>
   <time name="total">   70.74   70.72</time>
   <energy>
    <i name="e_fr_energy">   -287.09934663 </i>
    <i name="e_wo_entrp">   -287.09934663 </i>
    <i name="e_0_energy">   -287.09934663 </i>
   </energy>
  </scstep>
  <scstep>
   <time name="dav">   75.85   75.83</time>
   <time name="total">   76.68   76.66</time>
   <energy>
    <i name="e_fr_energy">   -287.09941035 </i>
    <i name="e_wo_entrp">   -287.09941035 </i>
    <i name="e_0_energy">   -287.09941035 </i>
   </energy>
  </scstep>
  <scstep>
   <time name="dav">   82.38   82.36</time>
   <time name="total">   83.20   83.19</time>
   <energy>
    <i name="e_fr_energy">   -287.09946797 </i>
    <i name="e_wo_entrp">   -287.09946797 </i>
    <i name="e_0_energy">   -287.09946797 </i>
   </energy>
  </scstep>
  <scstep>
   <time name="dav">   72.25   72.23</time>
   <time name="total">   73.07   73.05</time>
   <energy>
    <i name="e_fr_energy">   -287.09947473 </i>
    <i name="e_wo_entrp">   -287.09947473 </i>
    <i name="e_0_energy">   -287.09947473 </i>
   </energy>
  </scstep>
  <scstep>
   <time name="dav">   69.34   69.32</time>
   <time name="total">   70.16   70.14</time>
   <energy>
    <i name="e_fr_energy">   -287.09947779 </i>
    <i name="e_wo_entrp">   -287.09947779 </i>
    <i name="e_0_energy">   -287.09947779 </i>
   </energy>
  </scstep>
  <scstep>
   <time name="dav">   61.87   61.85</time>
   <time name="total">   61.94   61.92</time>
   <energy>
    <i name="alphaZ">   1060.66890660 </i>
    <i name="ewald"> -30409.21866408 </i>
    <i name="hartreedc"> -12938.35169907 </i>
    <i name="XCdc">   1271.66546174 </i>
    <i name="pawpsdc">  43661.90125776 </i>
    <i name="pawaedc"> -42972.98859726 </i>
    <i name="eentropy">      0.00000000 </i>
    <i name="bandstr">  -3986.80873413 </i>
    <i name="atom">  44026.03258983 </i>
    <i name="e_fr_energy">   -287.09947861 </i>
    <i name="e_wo_entrp">   -287.09947861 </i>
    <i name="e_0_energy">   -287.09947861 </i>
   </energy>
  </scstep>
  <structure>
   <crystal>
    <varray name="basis" >
     <v>      11.17850000       0.00000000       0.00000000 </v>
     <v>       0.00000000       9.57460000       0.00000000 </v>
     <v>       0.00000000       0.00000000      11.18240000 </v>
    </varray>
    <i name="volume">   1196.84853820 </i>
    <varray name="rec_basis" >
     <v>       0.08945744       0.00000000       0.00000000 </v>
     <v>       0.00000000       0.10444301       0.00000000 </v>
     <v>       0.00000000       0.00000000       0.08942624 </v>
    </varray>
   </crystal>
   <varray name="positions" >
    <v>       0.12461000       0.99984000       0.18687000 </v>
    <v>       0.62539000       0.99984000       0.43687000 </v>
    <v>       0.12539000       0.99984000       0.93687000 </v>
    <v>       0.12461000       0.99984000       0.68687000 </v>
    <v>       0.62539000       0.99984000       0.93687000 </v>
    <v>       0.87539000       0.00017000       0.93687000 </v>
    <v>       0.37461000       0.00017000       0.18687000 </v>
    <v>       0.87539000       0.00017000       0.43687000 </v>
    <v>       0.87461000       0.00017000       0.18687000 </v>
    <v>       0.37539000       0.00017000       0.93687000 </v>
    <v>       0.62461000       0.99984000       0.68687000 </v>
    <v>       0.00013000       0.29519000       0.06281000 </v>
    <v>       0.25013000       0.70481000       0.06281000 </v>
    <v>       0.24987000       0.29519000       0.31282000 </v>
    <v>       0.49987000       0.70481000       0.31282000 </v>
    <v>       0.50013000       0.29519000       0.06281000 </v>
    <v>       0.75013000       0.70481000       0.06281000 </v>
    <v>       0.74987000       0.29519000       0.31282000 </v>
    <v>       0.99987000       0.70481000       0.31282000 </v>
    <v>       0.00013000       0.29519000       0.56281000 </v>
    <v>       0.25013000       0.70481000       0.56281000 </v>
    <v>       0.24987000       0.29519000       0.81282000 </v>
    <v>       0.49987000       0.70481000       0.81282000 </v>
    <v>       0.50013000       0.29519000       0.56281000 </v>
    <v>       0.75013000       0.70481000       0.56281000 </v>
    <v>       0.74987000       0.29519000       0.81282000 </v>
    <v>       0.99987000       0.70481000       0.81282000 </v>
    <v>       0.25005000       0.32677000       0.06286000 </v>
    <v>       0.00005000       0.67323000       0.06286000 </v>
    <v>       0.49995000       0.32677000       0.31286000 </v>
    <v>       0.24995000       0.67323000       0.31286000 </v>
    <v>       0.75005000       0.32677000       0.06286000 </v>
    <v>       0.50005000       0.67323000       0.06286000 </v>
    <v>       0.99995000       0.32677000       0.31286000 </v>
    <v>       0.74995000       0.67323000       0.31286000 </v>
    <v>       0.25005000       0.32677000       0.56286000 </v>
    <v>       0.00005000       0.67323000       0.56286000 </v>
    <v>       0.49995000       0.32677000       0.81286000 </v>
    <v>       0.24995000       0.67323000       0.81286000 </v>
    <v>       0.75005000       0.32677000       0.56286000 </v>
    <v>       0.50005000       0.67323000       0.56286000 </v>
    <v>       0.99995000       0.32677000       0.81286000 </v>
    <v>       0.74995000       0.67323000       0.81286000 </v>
    <v>       0.49987000       0.07798000       0.06246000 </v>
    <v>       0.24987000       0.92202000       0.06246000 </v>
    <v>       0.25013000       0.07798000       0.31246000 </v>
    <v>       0.00013000       0.92202000       0.31246000 </v>
    <v>       0.99987000       0.07798000       0.06246000 </v>
    <v>       0.74987000       0.92202000       0.06246000 </v>
    <v>       0.75013000       0.07798000       0.31246000 </v>
    <v>       0.50013000       0.92202000       0.31246000 </v>
    <v>       0.49987000       0.07798000       0.56246000 </v>
    <v>       0.24987000       0.92202000       0.56246000 </v>
    <v>       0.25013000       0.07798000       0.81246000 </v>
    <v>       0.00013000       0.92202000       0.81246000 </v>
    <v>       0.99987000       0.07798000       0.56246000 </v>
    <v>       0.74987000       0.92202000       0.56246000 </v>
    <v>       0.75013000       0.07798000       0.81246000 </v>
    <v>       0.50013000       0.92202000       0.81246000 </v>
   </varray>
  </structure>
  <varray name="forces" >
   <v>       0.20167706       0.17764276       0.73181346 </v>
   <v>      -1.00484343      -0.01721581      -0.40587629 </v>
   <v>      -0.45800851      -0.01193086      -0.55837044 </v>
   <v>       0.14086251      -0.16693616      -0.65979042 </v>
   <v>       0.45972523      -0.00847928       0.43022903 </v>
   <v>      -0.07305313      -0.13999493      -0.79469072 </v>
   <v>       0.74225066       0.08149356       2.33923056 </v>
   <v>       0.97193853       0.19890334       1.74644495 </v>
   <v>      -0.71289809      -0.13999935      -0.62292456 </v>
   <v>      -0.03621542       0.20012196      -1.67250537 </v>
   <v>      -0.22254414       0.32882819      -0.31372370 </v>
   <v>       0.11360464       1.11981759      -0.22521759 </v>
   <v>      -0.19271679      -2.11749313       0.03888623 </v>
   <v>       0.04468945      -0.91040206       0.79696834 </v>
   <v>      -0.18479025       1.00330732       0.41743311 </v>
   <v>       0.23192296       1.08429235       0.24209509 </v>
   <v>      -0.17097785      -0.09322224      -0.02223072 </v>
   <v>      -0.39361787       1.07853215       0.10057884 </v>
   <v>       0.56577890      -1.09703739       0.51384455 </v>
   <v>       0.37919219      -0.99816793       0.16990721 </v>
   <v>       0.09725758       2.65224454      -0.15259516 </v>
   <v>      -0.06631278       0.08585302      -0.72086878 </v>
   <v>      -0.28475886      -1.03374690      -0.53189001 </v>
   <v>      -0.63997676      -0.91771987      -0.16639965 </v>
   <v>       0.14319531      -1.01583388       0.18937946 </v>
   <v>       0.32646032       0.02230399      -0.27651680 </v>
   <v>       0.04123406       0.94534543      -0.45940061 </v>
   <v>       0.09138571       0.07526154      -0.10120541 </v>
   <v>       0.00559298      -0.08544994       0.21169017 </v>
   <v>       0.19370841       0.13087675      -0.36187206 </v>
   <v>      -0.14086619      -0.09973578      -0.66483104 </v>
   <v>       0.08031224       0.02948369       0.10900504 </v>
   <v>      -0.16852878      -0.00268737      -0.19487418 </v>
   <v>      -0.34257977       0.06446910      -0.34293530 </v>
   <v>       0.28021300      -0.04358477      -0.06799216 </v>
   <v>      -0.00578230       0.20082072       0.12229993 </v>
   <v>      -0.51803693      -0.15301977      -0.24531558 </v>
   <v>       0.06566520       0.09278110       0.33133682 </v>
   <v>       0.21919088      -0.12265923       0.65813363 </v>
   <v>      -0.00854439       0.15271924      -0.11016075 </v>
   <v>       0.52302131      -0.12550811       0.24236715 </v>
   <v>      -0.05132033       0.16066512       0.35784984 </v>
   <v>      -0.22184855      -0.09540462       0.05482056 </v>
   <v>      -1.60309841      -0.95475538      -0.76711916 </v>
   <v>       0.93301148       1.62013768      -0.12623739 </v>
   <v>       0.31353003       0.61156170      -2.02911999 </v>
   <v>      -1.69770877       0.91337979      -0.88128707 </v>
   <v>      -0.40564436      -0.90791464       0.61936390 </v>
   <v>       1.13476239       0.16127994      -0.06621701 </v>
   <v>       1.64699961      -0.88018001       0.48957278 </v>
   <v>      -0.35360182      -0.90186939      -0.72707744 </v>
   <v>       1.85874839       0.67738515       0.57279693 </v>
   <v>      -0.49890810      -2.27155647       0.56956639 </v>
   <v>       0.05173932      -0.05930176       1.57323640 </v>
   <v>       0.52408585      -0.73116117       0.91730757 </v>
   <v>      -0.77573013       0.94307752      -0.67012605 </v>
   <v>      -0.56127711       0.63362289      -0.73204819 </v>
   <v>      -1.22322262      -0.04875063       0.21801358 </v>
   <v>       0.63565626       0.70551070       0.90724808 </v>
  </varray>
  <varray name="stress" >
   <v>      -7.13390160      -0.10879757      -2.56793386 </v>
   <v>      -0.10879756     -12.35063080      -0.19076613 </v>
   <v>      -2.56793370      -0.19076601      -2.67870114 </v>
  </varray>
  <energy>
   <i name="e_fr_energy">   -299.63581841 </i>
   <i name="e_wo_entrp">   -299.63581841 </i>
   <i name="e_0_energy">      0.00000000 </i>
  </energy>
  <time name="totalsc"> 1559.74 1560.34</time>
 </calculation>
 <calculation>
  <scstep>
   <time name="dav">   66.25   66.36</time>
   <time name="total">   67.05   67.17</time>
   <energy>
    <i name="alphaZ">   1075.17053190 </i>
    <i name="ewald"> -30531.26019921 </i>
    <i name="hartreedc"> -12998.78346361 </i>
    <i name="XCdc">   1279.60920708 </i>
    <i name="pawpsdc">  43661.71719303 </i>
    <i name="pawaedc"> -42972.80651079 </i>
    <i name="eentropy">      0.00000000 </i>
    <i name="bandstr">  -3826.21090737 </i>
    <i name="atom">  44026.03258983 </i>
    <i name="e_fr_energy">   -286.53155914 </i>
    <i name="e_wo_entrp">   -286.53155914 </i>
    <i name="e_0_energy">   -286.53155914 </i>
   </energy>
  </scstep>
  <scstep>
   <time name="dav">   71.06   71.11</time>
   <time name="total">   71.87   71.92</time>
   <energy>
    <i name="e_fr_energy">   -289.51201001 </i>
    <i name="e_wo_entrp">   -289.51201001 </i>
    <i name="e_0_energy">   -289.51201001 </i>
   </energy>
  </scstep>
  <scstep>
   <time name="dav">   91.46   91.59</time>
   <time name="total">   92.27   92.40</time>
   <energy>
    <i name="e_fr_energy">   -289.28000958 </i>
    <i name="e_wo_entrp">   -289.28000958 </i>
    <i name="e_0_energy">   -289.28000958 </i>
   </energy>
  </scstep>
  <scstep>
   <time name="dav">   77.45   77.56</time>
   <time name="total">   78.26   78.37</time>
   <energy>
    <i name="e_fr_energy">   -289.14299283 </i>
    <i name="e_wo_entrp">   -289.14299283 </i>
    <i name="e_0_energy">   -289.14299283 </i>
   </energy>
  </scstep>
  <scstep>
   <time name="dav">   79.89   79.98</time>
   <time name="total">   80.69   80.80</time>
   <energy>
    <i name="e_fr_energy">   -289.13340145 </i>
    <i name="e_wo_entrp">   -289.13340145 </i>
    <i name="e_0_energy">   -289.13340145 </i>
   </energy>
  </scstep>
  <scstep>
   <time name="dav">   73.12   73.15</time>
   <time name="total">   73.92   73.96</time>
   <energy>
    <i name="e_fr_energy">   -289.13118212 </i>
    <i name="e_wo_entrp">   -289.13118212 </i>
    <i name="e_0_energy">   -289.13118212 </i>
   </energy>
  </scstep>
  <scstep>
   <time name="dav">   88.62   88.68</time>
   <time name="total">   89.42   89.49</time>
   <energy>
    <i name="e_fr_energy">   -289.13038747 </i>
    <i name="e_wo_entrp">   -289.13038747 </i>
    <i name="e_0_energy">   -289.13038747 </i>
   </energy>
  </scstep>
  <scstep>
   <time name="dav">   80.83   80.97</time>
   <time name="total">   81.64   81.78</time>
   <energy>
    <i name="e_fr_energy">   -289.13016561 </i>
    <i name="e_wo_entrp">   -289.13016561 </i>
    <i name="e_0_energy">   -289.13016561 </i>
   </energy>
  </scstep>
  <scstep>
   <time name="dav">   84.39   84.39</time>
   <time name="total">   85.20   85.20</time>
   <energy>
    <i name="e_fr_energy">   -289.13022307 </i>
    <i name="e_wo_entrp">   -289.13022307 </i>
    <i name="e_0_energy">   -289.13022307 </i>
   </energy>
  </scstep>
  <scstep>
   <time name="dav">   76.15   76.13</time>
   <time name="total">   76.96   76.94</time>
   <energy>
    <i name="e_fr_energy">   -289.13023247 </i>
    <i name="e_wo_entrp">   -289.13023247 </i>
    <i name="e_0_energy">   -289.13023247 </i>
   </energy>
  </scstep>
  <scstep>
   <time name="dav">   68.14   68.12</time>
   <time name="total">   68.95   68.93</time>
   <energy>
    <i name="e_fr_energy">   -289.13023662 </i>
    <i name="e_wo_entrp">   -289.13023662 </i>
    <i name="e_0_energy">   -289.13023662 </i>
   </energy>
  </scstep>
  <scstep>
   <time name="dav">   73.16   73.14</time>
   <time name="total">   73.97   73.96</time>
   <energy>
    <i name="e_fr_energy">   -289.13023634 </i>
    <i name="e_wo_entrp">   -289.13023634 </i>
    <i name="e_0_energy">   -289.13023634 </i>
   </energy>
  </scstep>
  <scstep>
   <time name="dav">   54.58   54.57</time>
   <time name="total">   54.65   54.64</time>
   <energy>
    <i name="alphaZ">   1075.17053190 </i>
    <i name="ewald"> -30531.26019921 </i>
    <i name="hartreedc"> -12882.31329359 </i>
    <i name="XCdc">   1274.59510371 </i>
    <i name="pawpsdc">  44010.42463924 </i>
    <i name="pawaedc"> -43324.47623603 </i>
    <i name="eentropy">      0.00000000 </i>
    <i name="bandstr">  -3937.30337234 </i>
    <i name="atom">  44026.03258983 </i>
    <i name="e_fr_energy">   -289.13023650 </i>
    <i name="e_wo_entrp">   -289.13023650 </i>
    <i name="e_0_energy">   -289.13023650 </i>
   </energy>
  </scstep>
  <structure>
   <crystal>
    <varray name="basis" >
     <v>      11.12978997      -0.00074287      -0.01753376 </v>
     <v>      -0.00063628       9.50237001      -0.00111565 </v>
     <v>      -0.01753988      -0.00130300      11.16410354 </v>
    </varray>
    <i name="volume">   1180.70575105 </i>
    <varray name="rec_basis" >
     <v>       0.08984918       0.00000603       0.00014116 </v>
     <v>       0.00000704       0.10523691       0.00001229 </v>
     <v>       0.00014111       0.00001053       0.08957302 </v>
    </varray>
   </crystal>
   <varray name="positions" >
    <v>       0.12548037       0.00073507       0.19002716 </v>
    <v>       0.62105343       0.99975326       0.43511899 </v>
    <v>       0.12341339       0.99977989       0.93446110 </v>
    <v>       0.12521792       0.99899887       0.68402356 </v>
    <v>       0.62737402       0.99979728       0.93872608 </v>
    <v>       0.87507473      -0.00053538       0.93344158 </v>
    <v>       0.37781330       0.00058061       0.19696181 </v>
    <v>       0.87958456       0.00117220       0.44440444 </v>
    <v>       0.87153337      -0.00053540       0.18418260 </v>
    <v>       0.37523371       0.00117834       0.92965455 </v>
    <v>       0.62364957       0.00149684       0.68551655 </v>
    <v>       0.00062028       0.30083232       0.06183838 </v>
    <v>       0.24929830       0.69414078       0.06297776 </v>
    <v>       0.25006286       0.29060284       0.31625825 </v>
    <v>       0.49907251       0.70986527       0.31462087 </v>
    <v>       0.50113090       0.30065332       0.06385444 </v>
    <v>       0.74939212       0.70434029       0.06271409 </v>
    <v>       0.74817128       0.30062430       0.31325391 </v>
    <v>       0.00231171       0.69928246       0.31503681 </v>
    <v>       0.00176647       0.29016062       0.56354301 </v>
    <v>       0.25054973       0.71817362       0.56215168 </v>
    <v>       0.24958382       0.29562258       0.80971006 </v>
    <v>       0.49864108       0.69960135       0.81052534 </v>
    <v>       0.49736808       0.29056597       0.56209213 </v>
    <v>       0.75074798       0.69969161       0.56362701 </v>
    <v>       0.75127889       0.29530238       0.81162706 </v>
    <v>       0.00004795       0.70957322       0.81083807 </v>
    <v>       0.25044439       0.32714921       0.06242338 </v>
    <v>       0.00007414       0.67279945       0.06377327 </v>
    <v>       0.50078598       0.32742944       0.31129883 </v>
    <v>       0.24934207       0.67272747       0.30999181 </v>
    <v>       0.75039660       0.32691856       0.06333027 </v>
    <v>       0.49932269       0.67321646       0.06201928 </v>
    <v>       0.99847154       0.32709483       0.31138052 </v>
    <v>       0.75115931       0.67301039       0.31256667 </v>
    <v>       0.25002505       0.32778186       0.56338762 </v>
    <v>      -0.00218567       0.67245899       0.56180167 </v>
    <v>       0.50023339       0.32723749       0.81428944 </v>
    <v>       0.25089595       0.67261197       0.81569929 </v>
    <v>       0.75001313       0.32753949       0.56238475 </v>
    <v>       0.50230718       0.67259761       0.56390561 </v>
    <v>       0.99972852       0.32757953       0.81440382 </v>
    <v>       0.74899258       0.67274929       0.81309650 </v>
    <v>       0.49295157       0.07316936       0.05915053 </v>
    <v>       0.25389656       0.93018324       0.06191539 </v>
    <v>       0.25148309       0.08106142       0.30370605 </v>
    <v>      -0.00719674       0.92662216       0.30865799 </v>
    <v>       0.99811938       0.07340537       0.06513203 </v>
    <v>       0.75476725       0.92283263       0.06217433 </v>
    <v>       0.75723790       0.07354512       0.31457209 </v>
    <v>       0.49860397       0.91747583       0.30932327 </v>
    <v>       0.50789173       0.08139308       0.56493114 </v>
    <v>       0.24771688       0.91057452       0.56491720 </v>
    <v>       0.25035329       0.07768120       0.81924719 </v>
    <v>       0.00239178       0.91833597       0.81641741 </v>
    <v>       0.99652221       0.08273180       0.55956897 </v>
    <v>       0.74744772       0.92521258       0.55930183 </v>
    <v>       0.74485098       0.07773436       0.81340055 </v>
    <v>       0.50287328       0.92557479       0.81637401 </v>
   </varray>
  </structure>
  <varray name="forces" >
   <v>       0.08168275       0.07700287       0.38239794 </v>
   <v>      -0.52615915      -0.00310730      -0.39791498 </v>
   <v>      -0.22042103      -0.00279063      -0.10062798 </v>
   <v>       0.15240066      -0.09766638      -0.46493279 </v>
   <v>       0.21443342      -0.00287324       0.43597226 </v>
   <v>      -0.03706284      -0.08161469      -0.52755984 </v>
   <v>       0.41562440       0.03595432       0.32880385 </v>
   <v>       0.27010858      -0.10307406       0.52936276 </v>
   <v>      -0.37995178       0.01899672      -0.07894856 </v>
   <v>       0.02034700      -0.03709953      -0.35907559 </v>
   <v>       0.04682125      -0.02284315       0.08805615 </v>
   <v>       0.13264861      -0.11004573      -0.00554657 </v>
   <v>      -0.03878329       0.14655123      -0.01602341 </v>
   <v>      -0.12208033       0.64374148       0.32878630 </v>
   <v>       0.01102585      -1.19962142       0.16883329 </v>
   <v>      -0.01523676      -0.26685515       0.02033370 </v>
   <v>      -0.10965803      -0.12719015       0.04380284 </v>
   <v>      -0.03690816      -0.18530176       0.05534743 </v>
   <v>       0.17261609       0.17864189       0.13748381 </v>
   <v>       0.11842442       1.23699099       0.04129666 </v>
   <v>       0.20421338      -4.06057381      -0.18579975 </v>
   <v>       0.04482732       0.21887706      -0.17392907 </v>
   <v>      -0.14544540      -0.07732165      -0.18058080 </v>
   <v>      -0.33363186       0.76926899      -0.03257511 </v>
   <v>       0.04526151      -0.11444813       0.04060874 </v>
   <v>       0.12937923       0.19825228      -0.15628658 </v>
   <v>      -0.01871247      -0.87016860      -0.16206943 </v>
   <v>       0.04245383       0.33307308      -0.04069022 </v>
   <v>      -0.04624896      -0.22795141       0.08984097 </v>
   <v>       0.02926827       0.04747863      -0.15968936 </v>
   <v>      -0.02110798      -0.09438357      -0.35966621 </v>
   <v>       0.06456342       0.07718577       0.04270380 </v>
   <v>      -0.06123139      -0.16983913      -0.06727535 </v>
   <v>      -0.13555376       0.20873914      -0.13482955 </v>
   <v>       0.11750837      -0.18691067      -0.04249516 </v>
   <v>      -0.02140268       0.03938082       0.09043829 </v>
   <v>      -0.27473082      -0.08340763      -0.13810596 </v>
   <v>       0.01959075       0.17780212       0.11295219 </v>
   <v>       0.10716204      -0.16586721       0.31502366 </v>
   <v>      -0.00528930       0.22275848      -0.03927328 </v>
   <v>       0.31154481      -0.09023561       0.14097391 </v>
   <v>      -0.01242873       0.09326963       0.15654703 </v>
   <v>      -0.10511506      -0.11133756       0.02030333 </v>
   <v>      -0.87977341       0.54865432      -0.34494022 </v>
   <v>       0.56662614      -0.62559493       0.03908983 </v>
   <v>       0.12426520      -0.62820484      -1.13096598 </v>
   <v>      -0.92147825      -0.50824680      -0.34578235 </v>
   <v>      -0.26700122       0.41623207       0.19052250 </v>
   <v>       0.61649355      -0.04833976      -0.36399079 </v>
   <v>       0.88547880       0.52084125       0.52718361 </v>
   <v>      -0.08523602       1.02802171      -0.17485843 </v>
   <v>       1.20331941      -0.77616955       0.19535968 </v>
   <v>      -0.59275934       4.50816016       0.61298458 </v>
   <v>      -0.38158722       0.06806063       0.57272669 </v>
   <v>       0.45456156       1.00517562       0.51968522 </v>
   <v>      -0.16304994      -1.01339754      -0.09812713 </v>
   <v>      -0.47023351      -0.27698621      -0.39177900 </v>
   <v>      -0.78832534      -0.10760868       0.14999300 </v>
   <v>       0.61395340      -0.34203480       0.29692543 </v>
  </varray>
  <varray name="stress" >
   <v>       9.14401807      -1.14113560       2.57841872 </v>
   <v>      -1.14113561      11.75199635       0.75026031 </v>
   <v>       2.57841812       0.75026019       5.10423571 </v>
  </varray>
  <energy>
   <i name="e_fr_energy">   -301.79943814 </i>
   <i name="e_wo_entrp">   -301.79943814 </i>
   <i name="e_0_energy">      0.00000000 </i>
  </energy>
  <time name="totalsc"> 1103.70 1104.39</time>
 </calculation>
 <calculation>
  <scstep>
   <time name="dav">   66.32   66.33</time>
   <time name="total">   67.13   67.14</time>
   <energy>
    <i name="alphaZ">   1073.83892815 </i>
    <i name="ewald"> -30522.57221387 </i>
    <i name="hartreedc"> -12874.72971316 </i>
    <i name="XCdc">   1273.83652365 </i>
    <i name="pawpsdc">  44010.51522697 </i>
    <i name="pawaedc"> -43324.56832587 </i>
    <i name="eentropy">      0.00000000 </i>
    <i name="bandstr">  -3951.49973785 </i>
    <i name="atom">  44026.03258983 </i>
    <i name="e_fr_energy">   -289.14672215 </i>
    <i name="e_wo_entrp">   -289.14672215 </i>
    <i name="e_0_energy">   -289.14672215 </i>
   </energy>
  </scstep>
  <scstep>
   <time name="dav">   70.53   70.53</time>
   <time name="total">   71.34   71.34</time>
   <energy>
    <i name="e_fr_energy">   -289.17224379 </i>
    <i name="e_wo_entrp">   -289.17224379 </i>
    <i name="e_0_energy">   -289.17224379 </i>
   </energy>
  </scstep>
  <scstep>
   <time name="dav">   87.47   87.46</time>
   <time name="total">   88.28   88.27</time>
   <energy>
    <i name="e_fr_energy">   -289.17043412 </i>
    <i name="e_wo_entrp">   -289.17043412 </i>
    <i name="e_0_energy">   -289.17043412 </i>
   </energy>
  </scstep>
  <scstep>
   <time name="dav">   73.34   73.41</time>
   <time name="total">   74.15   74.22</time>
   <energy>
    <i name="e_fr_energy">   -289.16921902 </i>
    <i name="e_wo_entrp">   -289.16921902 </i>
    <i name="e_0_energy">   -289.16921902 </i>
   </energy>
  </scstep>
  <scstep>
   <time name="dav">   81.41   81.46</time>
   <time name="total">   82.22   82.27</time>
   <energy>
    <i name="e_fr_energy">   -289.16915115 </i>
    <i name="e_wo_entrp">   -289.16915115 </i>
    <i name="e_0_energy">   -289.16915115 </i>
   </energy>
  </scstep>
  <scstep>
   <time name="dav">   73.23   73.23</time>
   <time name="total">   74.04   74.05</time>
   <energy>
    <i name="e_fr_energy">   -289.16913462 </i>
    <i name="e_wo_entrp">   -289.16913462 </i>
    <i name="e_0_energy">   -289.16913462 </i>
   </energy>
  </scstep>
  <scstep>
   <time name="dav">   89.08   89.24</time>
   <time name="total">   89.89   90.05</time>
   <energy>
    <i name="e_fr_energy">   -289.16912149 </i>
    <i name="e_wo_entrp">   -289.16912149 </i>
    <i name="e_0_energy">   -289.16912149 </i>
   </energy>
  </scstep>
  <scstep>
   <time name="dav">   72.49   72.59</time>
   <time name="total">   73.29   73.40</time>
   <energy>
    <i name="e_fr_energy">   -289.16911517 </i>
    <i name="e_wo_entrp">   -289.16911517 </i>
    <i name="e_0_energy">   -289.16911517 </i>
   </energy>
  </scstep>
  <scstep>
   <time name="dav">   62.75   62.86</time>
   <time name="total">   62.82   62.94</time>
   <energy>
    <i name="alphaZ">   1073.83892815 </i>
    <i name="ewald"> -30522.57221387 </i>
    <i name="hartreedc"> -12885.50191242 </i>
    <i name="XCdc">   1274.30489066 </i>
    <i name="pawpsdc">  43968.73991214 </i>
    <i name="pawaedc"> -43282.35766068 </i>
    <i name="eentropy">      0.00000000 </i>
    <i name="bandstr">  -3941.65364851 </i>
    <i name="atom">  44026.03258983 </i>
    <i name="e_fr_energy">   -289.16911471 </i>
    <i name="e_wo_entrp">   -289.16911471 </i>
    <i name="e_0_energy">   -289.16911471 </i>
   </energy>
  </scstep>
  <structure>
   <crystal>
    <varray name="basis" >
     <v>      11.13422276      -0.00067526      -0.01593813 </v>
     <v>      -0.00057838       9.50894320      -0.00101413 </v>
     <v>      -0.01594369      -0.00118442      11.16576859 </v>
    </varray>
    <i name="volume">   1182.16987399 </i>
    <varray name="rec_basis" >
     <v>       0.08981337       0.00000548       0.00012825 </v>
     <v>       0.00000639       0.10516416       0.00001116 </v>
     <v>       0.00012820       0.00000956       0.08955963 </v>
    </varray>
   </crystal>
   <varray name="positions" >
    <v>       0.12540036       0.00065295       0.18973924 </v>
    <v>       0.62145006       0.99976126       0.43527922 </v>
    <v>       0.12359440       0.99978544       0.93468096 </v>
    <v>       0.12516276       0.99907603       0.68428294 </v>
    <v>       0.62719241       0.99980116       0.93855661 </v>
    <v>       0.87510404      -0.00047065       0.93375414 </v>
    <v>       0.37751906       0.00054281       0.19604145 </v>
    <v>       0.87920008       0.00108017       0.44371704 </v>
    <v>       0.87181497      -0.00047066       0.18442802 </v>
    <v>       0.37524902       0.00108597       0.93031227 </v>
    <v>       0.62373754       0.00134494       0.68564004 </v>
    <v>       0.00057558       0.30031496       0.06192682 </v>
    <v>       0.24937435       0.69511911       0.06296269 </v>
    <v>       0.25004477       0.29102342       0.31594486 </v>
    <v>       0.49914511       0.70940171       0.31445679 </v>
    <v>       0.50103924       0.30015234       0.06375904 </v>
    <v>       0.74945958       0.70438337       0.06272295 </v>
    <v>       0.74832645       0.30012601       0.31321455 </v>
    <v>       0.00208824       0.69978926       0.31483444 </v>
    <v>       0.00161681       0.29062177       0.56347600 </v>
    <v>       0.25051139       0.71694824       0.56221151 </v>
    <v>       0.24961042       0.29558296       0.80999358 </v>
    <v>       0.49875376       0.70007900       0.81073473 </v>
    <v>       0.49762065       0.29099000       0.56215800 </v>
    <v>       0.75069141       0.70016093       0.56355250 </v>
    <v>       0.75115029       0.29529208       0.81173560 </v>
    <v>       0.00003195       0.70913648       0.81101866 </v>
    <v>       0.25040840       0.32711444       0.06246312 </v>
    <v>       0.00007180       0.67283892       0.06369002 </v>
    <v>       0.50070979       0.32736898       0.31144101 </v>
    <v>       0.24939805       0.67277359       0.31025335 </v>
    <v>       0.75036485       0.32690493       0.06328735 </v>
    <v>       0.49938929       0.67321772       0.06209602 </v>
    <v>       0.99860689       0.32706508       0.31151559 </v>
    <v>       0.75104882       0.67303053       0.31259324 </v>
    <v>       0.25002725       0.32768907       0.56333952 </v>
    <v>      -0.00198117       0.67252972       0.56189847 </v>
    <v>       0.50020728       0.32719460       0.81415910 </v>
    <v>       0.25080909       0.67266860       0.81544035 </v>
    <v>       0.75001656       0.32746894       0.56242807 </v>
    <v>       0.50210073       0.67265557       0.56380998 </v>
    <v>       0.99974854       0.32750528       0.81426312 </v>
    <v>       0.74908006       0.67279338       0.81307509 </v>
    <v>       0.49358443       0.07361057       0.05945323 </v>
    <v>       0.25352856       0.92943468       0.06196438 </v>
    <v>       0.25136066       0.08077897       0.30450378 </v>
    <v>      -0.00652654       0.92620027       0.30900556 </v>
    <v>       0.99827903       0.07382483       0.06488876 </v>
    <v>       0.75431967       0.92275808       0.06219966 </v>
    <v>       0.75658794       0.07395170       0.31437859 </v>
    <v>       0.49874393       0.91789256       0.30960946 </v>
    <v>       0.50715816       0.08108003       0.56470470 </v>
    <v>       0.24791339       0.91162400       0.56469363 </v>
    <v>       0.25033191       0.07770851       0.81862849 </v>
    <v>       0.00218450       0.91867371       0.81605639 </v>
    <v>       0.99682859       0.08229614       0.55983293 </v>
    <v>       0.74766956       0.92491989       0.55959002 </v>
    <v>       0.74533336       0.07775691       0.81331557 </v>
    <v>       0.50262196       0.92524876       0.81601681 </v>
   </varray>
  </structure>
  <varray name="forces" >
   <v>       0.09515478       0.08753716       0.41652403 </v>
   <v>      -0.56995387      -0.00437105      -0.39876810 </v>
   <v>      -0.24272890      -0.00491140      -0.14453715 </v>
   <v>       0.15335622      -0.10642576      -0.48481743 </v>
   <v>       0.23641148      -0.00338960       0.43391614 </v>
   <v>      -0.03945221      -0.08712046      -0.55258936 </v>
   <v>       0.44513859       0.03463063       0.52024631 </v>
   <v>       0.34884465      -0.06282114       0.65140203 </v>
   <v>      -0.41301257       0.00020177      -0.12776628 </v>
   <v>       0.00579101      -0.01018401      -0.48103268 </v>
   <v>       0.01499304       0.01505737       0.04426597 </v>
   <v>       0.13181441      -0.01670703      -0.02681482 </v>
   <v>      -0.05320881       0.00101794      -0.01134695 </v>
   <v>      -0.10536373       0.47916595       0.36438674 </v>
   <v>      -0.00838617      -0.94833720       0.18669340 </v>
   <v>       0.00798001      -0.16298318       0.04249751 </v>
   <v>      -0.11498849      -0.12351877       0.03797958 </v>
   <v>      -0.07206589      -0.08794545       0.05933555 </v>
   <v>       0.21185806       0.08225221       0.17533358 </v>
   <v>       0.13798916       0.98257148       0.04864148 </v>
   <v>       0.17770250      -3.04755119      -0.16478197 </v>
   <v>       0.03479289       0.20729024      -0.22493759 </v>
   <v>      -0.15996493      -0.15024267      -0.21525140 </v>
   <v>      -0.35602469       0.58843752      -0.04235538 </v>
   <v>       0.05586534      -0.18492682       0.05470625 </v>
   <v>       0.14770273       0.18286154      -0.16748016 </v>
   <v>      -0.01106342      -0.66709676      -0.18522550 </v>
   <v>       0.04730044       0.31135268      -0.04576623 </v>
   <v>      -0.04112221      -0.21580238       0.10055944 </v>
   <v>       0.04613091       0.05597961      -0.17933664 </v>
   <v>      -0.03352221      -0.09710361      -0.39114627 </v>
   <v>       0.06620354       0.07351401       0.04863128 </v>
   <v>      -0.07190616      -0.15634619      -0.07862518 </v>
   <v>      -0.15554910       0.19691954      -0.15422568 </v>
   <v>       0.13258372      -0.17501690      -0.04466311 </v>
   <v>      -0.01895091       0.05518711       0.09350401 </v>
   <v>      -0.30127858      -0.09216531      -0.14941947 </v>
   <v>       0.02440172       0.17055026       0.13347170 </v>
   <v>       0.11876971      -0.16433825       0.35028349 </v>
   <v>      -0.00570160       0.21668829      -0.04602987 </v>
   <v>       0.33371240      -0.09551227       0.15140227 </v>
   <v>      -0.01686484       0.10006117       0.17589560 </v>
   <v>      -0.11617474      -0.11035934       0.02320806 </v>
   <v>      -0.95049335       0.42918121      -0.38790959 </v>
   <v>       0.60363711      -0.47697432       0.02439485 </v>
   <v>       0.14873961      -0.50137470      -1.21354667 </v>
   <v>      -1.00103648      -0.39452147      -0.40182165 </v>
   <v>      -0.28307700       0.31251747       0.23271903 </v>
   <v>       0.67065242      -0.02582981      -0.32937661 </v>
   <v>       0.96030559       0.40761339       0.52240355 </v>
   <v>      -0.11928503       0.81209964      -0.23029841 </v>
   <v>       1.26359258      -0.62359597       0.23454064 </v>
   <v>      -0.56819758       3.49688329       0.59259175 </v>
   <v>      -0.33077562       0.04817288       0.67484647 </v>
   <v>       0.46026373       0.81226632       0.55259893 </v>
   <v>      -0.22743615      -0.79598414      -0.15795467 </v>
   <v>      -0.47878712      -0.20535160      -0.42397834 </v>
   <v>      -0.82975091      -0.10383564       0.15623180 </v>
   <v>       0.61443496      -0.25736628       0.35859175 </v>
  </varray>
  <varray name="stress" >
   <v>       7.46917413      -0.97991768       2.09791606 </v>
   <v>      -0.97991763       7.90165248       0.57791286 </v>
   <v>       2.09791611       0.57791239       4.22628996 </v>
  </varray>
  <energy>
   <i name="e_fr_energy">   -301.82551950 </i>
   <i name="e_wo_entrp">   -301.82551950 </i>
   <i name="e_0_energy">      0.00000000 </i>
  </energy>
  <time name="totalsc">  792.01  792.93</time>
 </calculation>
 <calculation>
  <scstep>
   <time name="dav">   68.38   68.43</time>
   <time name="total">   69.18   69.23</time>
   <energy>
    <i name="alphaZ">   1068.14616607 </i>
    <i name="ewald"> -30571.67823078 </i>
    <i name="hartreedc"> -12764.40490460 </i>
    <i name="XCdc">   1270.64440836 </i>
    <i name="pawpsdc">  43968.71846431 </i>
    <i name="pawaedc"> -43282.33558541 </i>
    <i name="eentropy">      0.00000000 </i>
    <i name="bandstr">  -4003.06969867 </i>
    <i name="atom">  44026.03258983 </i>
    <i name="e_fr_energy">   -287.94679090 </i>
    <i name="e_wo_entrp">   -287.94679090 </i>
    <i name="e_0_energy">   -287.94679090 </i>
   </energy>
  </scstep>
  <scstep>
   <time name="dav">   70.49   70.50</time>
   <time name="total">   71.29   71.31</time>
   <energy>
    <i name="e_fr_energy">   -290.14313759 </i>
    <i name="e_wo_entrp">   -290.14313759 </i>
    <i name="e_0_energy">   -290.14313759 </i>
   </energy>
  </scstep>
  <scstep>
   <time name="dav">   87.45   87.48</time>
   <time name="total">   88.26   88.29</time>
   <energy>
    <i name="e_fr_energy">   -290.08810472 </i>
    <i name="e_wo_entrp">   -290.08810472 </i>
    <i name="e_0_energy">   -290.08810472 </i>
   </energy>
  </scstep>
  <scstep>
   <time name="dav">   74.61   74.63</time>
   <time name="total">   75.42   75.45</time>
   <energy>
    <i name="e_fr_energy">   -290.05107457 </i>
    <i name="e_wo_entrp">   -290.05107457 </i>
    <i name="e_0_energy">   -290.05107457 </i>
   </energy>
  </scstep>
  <scstep>
   <time name="dav">   76.44   76.44</time>
   <time name="total">   77.25   77.26</time>
   <energy>
    <i name="e_fr_energy">   -290.02481802 </i>
    <i name="e_wo_entrp">   -290.02481802 </i>
    <i name="e_0_energy">   -290.02481802 </i>
   </energy>
  </scstep>
  <scstep>
   <time name="dav">   74.08   74.09</time>
   <time name="total">   74.88   74.90</time>
   <energy>
    <i name="e_fr_energy">   -290.02059267 </i>
    <i name="e_wo_entrp">   -290.02059267 </i>
    <i name="e_0_energy">   -290.02059267 </i>
   </energy>
  </scstep>
  <scstep>
   <time name="dav">   67.57   67.58</time>
   <time name="total">   68.38   68.39</time>
   <energy>
    <i name="e_fr_energy">   -290.02092467 </i>
    <i name="e_wo_entrp">   -290.02092467 </i>
    <i name="e_0_energy">   -290.02092467 </i>
   </energy>
  </scstep>
  <scstep>
   <time name="dav">   90.69   90.75</time>
   <time name="total">   91.50   91.57</time>
   <energy>
    <i name="e_fr_energy">   -290.02082773 </i>
    <i name="e_wo_entrp">   -290.02082773 </i>
    <i name="e_0_energy">   -290.02082773 </i>
   </energy>
  </scstep>
  <scstep>
   <time name="dav">   75.61   75.80</time>
   <time name="total">   76.42   76.61</time>
   <energy>
    <i name="e_fr_energy">   -290.02080312 </i>
    <i name="e_wo_entrp">   -290.02080312 </i>
    <i name="e_0_energy">   -290.02080312 </i>
   </energy>
  </scstep>
  <scstep>
   <time name="dav">   73.31   73.48</time>
   <time name="total">   74.12   74.29</time>
   <energy>
    <i name="e_fr_energy">   -290.02081134 </i>
    <i name="e_wo_entrp">   -290.02081134 </i>
    <i name="e_0_energy">   -290.02081134 </i>
   </energy>
  </scstep>
  <scstep>
   <time name="dav">   73.07   73.17</time>
   <time name="total">   73.87   73.99</time>
   <energy>
    <i name="e_fr_energy">   -290.02081404 </i>
    <i name="e_wo_entrp">   -290.02081404 </i>
    <i name="e_0_energy">   -290.02081404 </i>
   </energy>
  </scstep>
  <scstep>
   <time name="dav">   65.01   65.12</time>
   <time name="total">   65.82   65.93</time>
   <energy>
    <i name="e_fr_energy">   -290.02081567 </i>
    <i name="e_wo_entrp">   -290.02081567 </i>
    <i name="e_0_energy">   -290.02081567 </i>
   </energy>
  </scstep>
  <scstep>
   <time name="dav">   61.24   61.31</time>
   <time name="total">   62.05   62.12</time>
   <energy>
    <i name="e_fr_energy">   -290.02081702 </i>
    <i name="e_wo_entrp">   -290.02081702 </i>
    <i name="e_0_energy">   -290.02081702 </i>
   </energy>
  </scstep>
  <scstep>
   <time name="dav">   44.81   44.87</time>
   <time name="total">   44.89   44.95</time>
   <energy>
    <i name="alphaZ">   1068.14616607 </i>
    <i name="ewald"> -30571.67823078 </i>
    <i name="hartreedc"> -12810.91939375 </i>
    <i name="XCdc">   1272.82493473 </i>
    <i name="pawpsdc">  43684.90236061 </i>
    <i name="pawaedc"> -42994.30240329 </i>
    <i name="eentropy">      0.00000000 </i>
    <i name="bandstr">  -3965.02684081 </i>
    <i name="atom">  44026.03258983 </i>
    <i name="e_fr_energy">   -290.02081741 </i>
    <i name="e_wo_entrp">   -290.02081741 </i>
    <i name="e_0_energy">   -290.02081741 </i>
   </energy>
  </scstep>
  <structure>
   <crystal>
    <varray name="basis" >
     <v>      11.16094439      -0.00748708      -0.01024037 </v>
     <v>      -0.00639317       9.52013553       0.00172436 </v>
     <v>      -0.01023927       0.00204199      11.18522809 </v>
    </varray>
    <i name="volume">   1188.47033365 </i>
    <varray name="rec_basis" >
     <v>       0.08959827       0.00006015       0.00008201 </v>
     <v>       0.00007045       0.10504057      -0.00001911 </v>
     <v>       0.00008202      -0.00001614       0.08940371 </v>
    </varray>
   </crystal>
   <varray name="positions" >
    <v>       0.12621564       0.00150799       0.19297574 </v>
    <v>       0.61699995       0.99969830       0.43276691 </v>
    <v>       0.12163775       0.99973251       0.93294467 </v>
    <v>       0.12609369       0.99815224       0.68090374 </v>
    <v>       0.62912702       0.99976477       0.94126327 </v>
    <v>       0.87478353      -0.00123496       0.92981501 </v>
    <v>       0.38091613       0.00090842       0.20294687 </v>
    <v>       0.88264877       0.00123692       0.44998945 </v>
    <v>       0.86862095      -0.00079996       0.18263155 </v>
    <v>       0.37519308       0.00150608       0.92491582 </v>
    <v>       0.62335293       0.00219461       0.68519785 </v>
    <v>       0.00136423       0.30287014       0.06136253 </v>
    <v>       0.24876000       0.69013507       0.06299125 </v>
    <v>       0.24969099       0.29126552       0.31908920 </v>
    <v>       0.49873982       0.70704207       0.31608552 </v>
    <v>       0.50154090       0.30189535       0.06442595 </v>
    <v>       0.74862650       0.70354842       0.06283818 </v>
    <v>       0.74722861       0.30222907       0.31366669 </v>
    <v>       0.00413037       0.69761458       0.31661194 </v>
    <v>       0.00296774       0.29316438       0.56402542 </v>
    <v>       0.25146113       0.70801715       0.56120687 </v>
    <v>       0.24962162       0.29681746       0.80759310 </v>
    <v>       0.49749728       0.69689467       0.80875232 </v>
    <v>       0.49481768       0.29175852       0.56164052 </v>
    <v>       0.75121790       0.69684649       0.56416500 </v>
    <v>       0.75243375       0.29625541       0.81047224 </v>
    <v>       0.00006535       0.70804077       0.80931110 </v>
    <v>       0.25079302       0.32884261       0.06206662 </v>
    <v>      -0.00009072       0.67156276       0.06454100 </v>
    <v>       0.50129371       0.32795604       0.30995506 </v>
    <v>       0.24896767       0.67205452       0.30725946 </v>
    <v>       0.75080872       0.32734066       0.06371303 </v>
    <v>       0.49874321       0.67243248       0.06137049 </v>
    <v>       0.99725398       0.32819758       0.31017144 </v>
    <v>       0.75217615       0.67205610       0.31226887 </v>
    <v>       0.24993595       0.32843719       0.56398149 </v>
    <v>      -0.00430685       0.67170980       0.56076902 </v>
    <v>       0.50044503       0.32826290       0.81539054 </v>
    <v>       0.25175935       0.67156144       0.81824804 </v>
    <v>       0.74997459       0.32890805       0.56201184 </v>
    <v>       0.50457433       0.67188442       0.56494199 </v>
    <v>       0.99957567       0.32838241       0.81572712 </v>
    <v>       0.74813971       0.67201884       0.81328212 </v>
    <v>       0.48631074       0.07349791       0.05625812 </v>
    <v>       0.25797368       0.93087638       0.06182104 </v>
    <v>       0.25261102       0.07972144       0.29528623 </v>
    <v>      -0.01420601       0.92638618       0.30552180 </v>
    <v>       0.99626175       0.07324247       0.06711577 </v>
    <v>       0.75945379       0.92300959       0.06067695 </v>
    <v>       0.76399172       0.07390916       0.31758749 </v>
    <v>       0.49752159       0.91981238       0.30717209 </v>
[...]
       <r>    8.7074    0.0000 </r>
       <r>    8.7896    0.0000 </r>
       <r>    8.8339    0.0000 </r>
       <r>    8.8638    0.0000 </r>
       <r>    8.9147    0.0000 </r>
       <r>    9.0174    0.0000 </r>
       <r>    9.2659    0.0000 </r>
       <r>    9.9612    0.0000 </r>
       <r>   10.0109    0.0000 </r>
      </set>
     </set>
    </set>
   </array>
  </eigenvalues>
  <separator name="orbital magnetization" >
   <v name="MAGDIPOLOUT">      0.00000000      0.00000000      0.00000000</v>
  </separator>
  <dos>
   <i name="efermi">      4.20986277 </i>
   <total>
    <array>
     <dimension dim="1">gridpoints</dimension>
     <dimension dim="2">spin</dimension>
     <field>energy</field>
     <field>total</field>
     <field>integrated</field>
     <set>
      <set comment="spin 1">
       <r>   -42.4704     0.0000     0.0000 </r>
       <r>   -42.2868     0.0000     0.0000 </r>
       <r>   -42.1032     0.0000     0.0000 </r>
       <r>   -41.9196     0.0000     0.0000 </r>
       <r>   -41.7360     0.0000     0.0000 </r>
       <r>   -41.5524     0.0000     0.0000 </r>
       <r>   -41.3688     0.0000     0.0000 </r>
       <r>   -41.1852     0.0000     0.0000 </r>
       <r>   -41.0016     0.0000     0.0000 </r>
       <r>   -40.8180     0.0000     0.0000 </r>
       <r>   -40.6344     0.0000     0.0000 </r>
       <r>   -40.4508     0.0000     0.0000 </r>
       <r>   -40.2672     0.0000     0.0000 </r>
       <r>   -40.0836     0.0000     0.0000 </r>
       <r>   -39.9000     0.0000     2.0000 </r>
       <r>   -39.7164     0.0000    10.0000 </r>
       <r>   -39.5328     0.0000    10.0000 </r>
       <r>   -39.3492     0.0000    10.0000 </r>
       <r>   -39.1656     0.0000    10.0000 </r>
       <r>   -38.9820     0.0000    12.0000 </r>
       <r>   -38.7984     0.0000    12.0000 </r>
       <r>   -38.6148     0.0000    12.0000 </r>
       <r>   -38.4312     0.0000    12.0000 </r>
       <r>   -38.2476     0.0000    12.0000 </r>
       <r>   -38.0640     0.0000    12.0000 </r>
       <r>   -37.8804     0.0000    12.0000 </r>
       <r>   -37.6968     0.0000    12.0000 </r>
       <r>   -37.5132     0.0000    12.0000 </r>
       <r>   -37.3296     0.0000    12.0000 </r>
       <r>   -37.1460     0.0000    12.0000 </r>
       <r>   -36.9624     0.0000    12.0000 </r>
       <r>   -36.7788     0.0000    12.0000 </r>
       <r>   -36.5952     0.0000    12.0000 </r>
       <r>   -36.4116     0.0000    12.0000 </r>
       <r>   -36.2280     0.0000    12.0000 </r>
       <r>   -36.0444     0.0000    12.0000 </r>
       <r>   -35.8608     0.0000    12.0000 </r>
       <r>   -35.6772     0.0000    12.0000 </r>
       <r>   -35.4936     0.0000    12.0000 </r>
       <r>   -35.3100     0.0000    12.0000 </r>
       <r>   -35.1264     0.0000    12.0000 </r>
       <r>   -34.9428     0.0000    12.0000 </r>
       <r>   -34.7592     0.0000    12.0000 </r>
       <r>   -34.5756     0.0000    12.0000 </r>
       <r>   -34.3920     0.0000    12.0000 </r>
       <r>   -34.2084     0.0000    12.0000 </r>
       <r>   -34.0248     0.0000    12.0000 </r>
       <r>   -33.8412     0.0000    12.0000 </r>
       <r>   -33.6576     0.0000    12.0000 </r>
       <r>   -33.4740     0.0000    12.0000 </r>
       <r>   -33.2904     0.0000    12.0000 </r>
       <r>   -33.1068     0.0000    12.0000 </r>
       <r>   -32.9232     0.0000    12.0000 </r>
       <r>   -32.7396     0.0000    12.0000 </r>
       <r>   -32.5560     0.0000    12.0000 </r>
       <r>   -32.3724     0.0000    12.0000 </r>
       <r>   -32.1888     0.0000    12.0000 </r>
       <r>   -32.0052     0.0000    12.0000 </r>
       <r>   -31.8216     0.0000    12.0000 </r>
       <r>   -31.6380     0.0000    12.0000 </r>
       <r>   -31.4544     0.0000    12.0000 </r>
       <r>   -31.2708     0.0000    12.0000 </r>
       <r>   -31.0872     0.0000    12.0000 </r>
       <r>   -30.9036     0.0000    12.0000 </r>
       <r>   -30.7200     0.0000    12.0000 </r>
       <r>   -30.5364     0.0000    12.0000 </r>
       <r>   -30.3528     0.0000    12.0000 </r>
       <r>   -30.1692     0.0000    12.0000 </r>
       <r>   -29.9856     0.0000    12.0000 </r>
       <r>   -29.8020     0.0000    12.0000 </r>
       <r>   -29.6184     0.0000    12.0000 </r>
       <r>   -29.4348     0.0000    12.0000 </r>
       <r>   -29.2512     0.0000    12.0000 </r>
       <r>   -29.0676     0.0000    12.0000 </r>
       <r>   -28.8840     0.0000    12.0000 </r>
       <r>   -28.7004     0.0000    12.0000 </r>
       <r>   -28.5168     0.0000    12.0000 </r>
       <r>   -28.3332     0.0000    12.0000 </r>
       <r>   -28.1496     0.0000    12.0000 </r>
       <r>   -27.9660     0.0000    12.0000 </r>
       <r>   -27.7824     0.0000    12.0000 </r>
       <r>   -27.5988     0.0000    12.0000 </r>
       <r>   -27.4152     0.0000    12.0000 </r>
       <r>   -27.2316     0.0000    12.0000 </r>
       <r>   -27.0480     0.0000    12.0000 </r>
       <r>   -26.8644     0.0000    12.0000 </r>
       <r>   -26.6808     0.0000    12.0000 </r>
       <r>   -26.4972     0.0000    12.0000 </r>
       <r>   -26.3136     0.0000    12.0000 </r>
       <r>   -26.1300     0.0000    12.0000 </r>
       <r>   -25.9464     0.0000    12.0000 </r>
       <r>   -25.7628     0.0000    12.0000 </r>
       <r>   -25.5792     0.0000    12.0000 </r>
       <r>   -25.3956     0.0000    12.0000 </r>
       <r>   -25.2120     0.0000    12.0000 </r>
       <r>   -25.0284     0.0000    12.0000 </r>
       <r>   -24.8448     0.0000    12.0000 </r>
       <r>   -24.6612     0.0000    12.0000 </r>
       <r>   -24.4776     0.0000    12.0000 </r>
       <r>   -24.2940     0.0000    12.0000 </r>
       <r>   -24.1104     0.0000    12.0000 </r>
       <r>   -23.9268     0.0000    12.0000 </r>
       <r>   -23.7432     0.0000    12.0000 </r>
       <r>   -23.5596     0.0000    12.0000 </r>
       <r>   -23.3760     0.0000    12.0000 </r>
       <r>   -23.1924     0.0000    12.0000 </r>
       <r>   -23.0088     0.0000    12.0000 </r>
       <r>   -22.8252     0.0000    12.0000 </r>
       <r>   -22.6416     0.0000    12.0000 </r>
       <r>   -22.4580     0.0000    12.0000 </r>
       <r>   -22.2744     0.0000    12.0000 </r>
       <r>   -22.0908     0.0000    12.0000 </r>
       <r>   -21.9072     0.0000    12.0000 </r>
       <r>   -21.7236     0.0000    12.0000 </r>
       <r>   -21.5400     0.0000    12.0000 </r>
       <r>   -21.3564     0.0000    12.0000 </r>
       <r>   -21.1728     0.0000    12.0000 </r>
       <r>   -20.9892     0.0000    12.0000 </r>
       <r>   -20.8056     0.0000    12.0000 </r>
       <r>   -20.6220     0.0000    12.0000 </r>
       <r>   -20.4384     0.0000    12.0000 </r>
       <r>   -20.2548     0.0000    12.0000 </r>
       <r>   -20.0712     0.0000    12.0000 </r>
       <r>   -19.8876     0.0000    12.0000 </r>
       <r>   -19.7040     0.0000    12.0000 </r>
       <r>   -19.5204     0.0000    12.0000 </r>
       <r>   -19.3368     0.0000    12.0000 </r>
       <r>   -19.1532     0.0000    12.0000 </r>
       <r>   -18.9696     0.0000    12.0000 </r>
       <r>   -18.7860     0.0000    32.0000 </r>
       <r>   -18.6024     0.0000   108.0000 </r>
       <r>   -18.4188     0.0000   152.0000 </r>
       <r>   -18.2352     0.0000   168.0000 </r>
       <r>   -18.0516     0.0000   172.0000 </r>
       <r>   -17.8680     0.0000   172.0000 </r>
       <r>   -17.6844     0.0000   172.0000 </r>
       <r>   -17.5008     0.0000   172.0000 </r>
       <r>   -17.3172     0.0000   172.0000 </r>
       <r>   -17.1336     0.0000   172.0000 </r>
       <r>   -16.9500     0.0000   172.0000 </r>
       <r>   -16.7664     0.0000   172.0000 </r>
       <r>   -16.5828     0.0000   172.0000 </r>
       <r>   -16.3992     0.0000   172.0000 </r>
       <r>   -16.2156     0.0000   172.0000 </r>
       <r>   -16.0320     0.0000   172.0000 </r>
       <r>   -15.8484     0.0000   172.0000 </r>
       <r>   -15.6648     0.0000   172.0000 </r>
       <r>   -15.4812     0.0000   172.0000 </r>
       <r>   -15.2976     0.0000   172.0000 </r>
       <r>   -15.1140     0.0000   172.0000 </r>
       <r>   -14.9304     0.0000   172.0000 </r>
       <r>   -14.7468     0.0000   172.0000 </r>
       <r>   -14.5632     0.0000   172.0000 </r>
       <r>   -14.3796     0.0000   172.0000 </r>
       <r>   -14.1960     0.0000   172.0000 </r>
       <r>   -14.0124     0.0000   172.0000 </r>
       <r>   -13.8288     0.0000   172.0000 </r>
       <r>   -13.6452     0.0000   172.0000 </r>
       <r>   -13.4616     0.0000   172.0000 </r>
       <r>   -13.2780     0.0000   174.0000 </r>
       <r>   -13.0944     0.0000   176.0000 </r>
       <r>   -12.9108     0.0000   182.0000 </r>
       <r>   -12.7272     0.0000   192.0000 </r>
       <r>   -12.5436     0.0000   202.0000 </r>
       <r>   -12.3600     0.0000   202.0000 </r>
       <r>   -12.1764     0.0000   202.0000 </r>
       <r>   -11.9928     0.0000   204.0000 </r>
       <r>   -11.8092     0.0000   204.0000 </r>
       <r>   -11.6256     0.0000   204.0000 </r>
       <r>   -11.4420     0.0000   204.0000 </r>
       <r>   -11.2584     0.0000   204.0000 </r>
       <r>   -11.0748     0.0000   204.0000 </r>
       <r>   -10.8912     0.0000   204.0000 </r>
       <r>   -10.7076     0.0000   204.0000 </r>
       <r>   -10.5240     0.0000   204.0000 </r>
       <r>   -10.3404     0.0000   204.0000 </r>
       <r>   -10.1568     0.0000   204.0000 </r>
       <r>    -9.9732     0.0000   204.0000 </r>
       <r>    -9.7896     0.0000   204.0000 </r>
       <r>    -9.6060     0.0000   204.0000 </r>
       <r>    -9.4224     4.1644   204.1059 </r>
       <r>    -9.2388     6.3115   205.6981 </r>
       <r>    -9.0552     6.5101   207.6849 </r>
       <r>    -8.8716     8.0727   208.6467 </r>
       <r>    -8.6880     0.0000   212.0000 </r>
       <r>    -8.5044    30.2454   214.9160 </r>
       <r>    -8.3208    19.2072   219.2641 </r>
       <r>    -8.1372    12.5509   220.7215 </r>
       <r>    -7.9536    31.8229   227.0714 </r>
       <r>    -7.7700    22.3382   231.4942 </r>
       <r>    -7.5864    25.9782   234.0611 </r>
       <r>    -7.4028     0.0000   236.0000 </r>
       <r>    -7.2192     0.0000   236.0000 </r>
       <r>    -7.0356     0.0000   236.0000 </r>
       <r>    -6.8520     0.0000   236.0000 </r>
       <r>    -6.6684     0.0000   236.0000 </r>
       <r>    -6.4848     0.0000   236.0000 </r>
       <r>    -6.3012    12.1071   236.6600 </r>
       <r>    -6.1176    21.8960   241.1058 </r>
       <r>    -5.9340    11.1222   244.3995 </r>
       <r>    -5.7504    25.0305   248.1717 </r>
       <r>    -5.5668    20.9290   252.8182 </r>
       <r>    -5.3832    15.2534   256.5516 </r>
       <r>    -5.1996     9.5728   258.8808 </r>
       <r>    -5.0160     5.0905   260.0661 </r>
       <r>    -4.8324    14.6996   261.8562 </r>
       <r>    -4.6488     7.7586   263.6700 </r>
       <r>    -4.4652     5.2878   264.7581 </r>
       <r>    -4.2816     9.7485   266.0878 </r>
       <r>    -4.0980     3.2884   267.3880 </r>
       <r>    -3.9144     1.6461   267.8293 </r>
       <r>    -3.7308     0.2026   267.9950 </r>
       <r>    -3.5472     0.0000   268.0000 </r>
       <r>    -3.3636     0.0000   268.0000 </r>
       <r>    -3.1800     0.0000   268.0000 </r>
       <r>    -2.9964     0.0000   268.0000 </r>
       <r>    -2.8128     0.0000   268.0000 </r>
       <r>    -2.6292     0.0000   268.0000 </r>
       <r>    -2.4456     0.0000   268.0000 </r>
       <r>    -2.2620     0.0000   268.0000 </r>
       <r>    -2.0784     0.0000   268.0000 </r>
       <r>    -1.8948     0.0000   268.0000 </r>
       <r>    -1.7112     0.0000   268.0000 </r>
       <r>    -1.5276     0.0000   268.0000 </r>
       <r>    -1.3440     2.3460   268.0572 </r>
       <r>    -1.1604     6.6937   269.2094 </r>
       <r>    -0.9768     6.2462   270.4775 </r>
       <r>    -0.7932    13.6339   272.3476 </r>
       <r>    -0.6096    10.5531   274.6951 </r>
       <r>    -0.4260    20.4047   276.9796 </r>
       <r>    -0.2424    31.1769   282.3430 </r>
       <r>    -0.0588    37.2861   289.1217 </r>
       <r>     0.1248    39.0372   295.8533 </r>
       <r>     0.3084    44.1912   303.4708 </r>
       <r>     0.4920    37.9911   309.9635 </r>
       <r>     0.6756    38.0435   316.6363 </r>
       <r>     0.8592    50.2668   323.4398 </r>
       <r>     1.0428    60.6398   331.5316 </r>
       <r>     1.2264    47.8586   339.6309 </r>
       <r>     1.4100    44.8105   347.9395 </r>
       <r>     1.5936    43.6180   356.6022 </r>
       <r>     1.7772    42.9877   365.2189 </r>
       <r>     1.9608    39.2114   373.5975 </r>
       <r>     2.1444    46.2787   382.4030 </r>
       <r>     2.3280    61.2696   391.1886 </r>
       <r>     2.5116    63.6692   402.8219 </r>
       <r>     2.6952    52.7304   413.3418 </r>
       <r>     2.8788    51.5550   424.5739 </r>
       <r>     3.0624    42.0051   435.3275 </r>
       <r>     3.2460    35.9365   442.3183 </r>
       <r>     3.4296    31.8511   449.0772 </r>
       <r>     3.6132    16.9509   454.3532 </r>
       <r>     3.7968    13.9728   457.6171 </r>
       <r>     3.9804     6.1564   459.4651 </r>
       <r>     4.1640     0.4496   459.9939 </r>
       <r>     4.3476     0.0000   460.0000 </r>
       <r>     4.5312     0.0000   460.0000 </r>
       <r>     4.7148     0.0000   460.0000 </r>
       <r>     4.8984     0.0000   460.0000 </r>
       <r>     5.0820     0.1381   460.0017 </r>
       <r>     5.2656     3.4591   460.2942 </r>
       <r>     5.4492     9.5759   461.5047 </r>
       <r>     5.6328    10.5669   463.4211 </r>
       <r>     5.8164    17.1031   466.4686 </r>
       <r>     6.0000    16.6810   469.6348 </r>
       <r>     6.1836    13.2477   472.2481 </r>
       <r>     6.3672    13.6949   474.6957 </r>
       <r>     6.5508    15.2001   477.3331 </r>
       <r>     6.7344    17.6645   480.3303 </r>
       <r>     6.9180    21.0430   483.8730 </r>
       <r>     7.1016    24.9301   488.0911 </r>
       <r>     7.2852    29.1548   493.0066 </r>
       <r>     7.4688    35.5766   499.2185 </r>
       <r>     7.6524    27.8443   504.6945 </r>
       <r>     7.8360    34.2330   510.1448 </r>
       <r>     8.0196    34.7405   516.5462 </r>
       <r>     8.2032    28.0793   522.2653 </r>
       <r>     8.3868    22.8129   526.8788 </r>
       <r>     8.5704    29.1428   531.5220 </r>
       <r>     8.7540    37.7619   537.9866 </r>
       <r>     8.9376    34.5719   544.4934 </r>
       <r>     9.1212    23.1934   550.0884 </r>
       <r>     9.3048    13.9066   553.3327 </r>
       <r>     9.4884     9.6814   555.6679 </r>
       <r>     9.6720     9.2984   556.5924 </r>
       <r>     9.8556    13.8150   558.6344 </r>
       <r>    10.0392     1.6715   559.9628 </r>
       <r>    10.2228     0.0000   560.0000 </r>
       <r>    10.4064     0.0000   560.0000 </r>
       <r>    10.5900     0.0000   560.0000 </r>
       <r>    10.7736     0.0000   560.0000 </r>
       <r>    10.9572     0.0000   560.0000 </r>
       <r>    11.1408     0.0000   560.0000 </r>
       <r>    11.3244     0.0000   560.0000 </r>
       <r>    11.5080     0.0000   560.0000 </r>
       <r>    11.6916     0.0000   560.0000 </r>
       <r>    11.8752     0.0000   560.0000 </r>
       <r>    12.0588     0.0000   560.0000 </r>
       <r>    12.2424     0.0000   560.0000 </r>
       <r>    12.4260     0.0000   560.0000 </r>
       <r>    12.6096     0.0000   560.0000 </r>
      </set>
     </set>
    </array>
   </total>
  </dos>
 </calculation>
 <structure name="finalpos" >
  <crystal>
   <varray name="basis" >
    <v>      11.23395603      -0.02388646       0.08919755 </v>
    <v>      -0.01913084       9.55699092       0.02256297 </v>
    <v>       0.08947997       0.02897941      11.17069284 </v>
   </varray>
   <i name="volume">   1199.22821102 </i>
   <varray name="rec_basis" >
    <v>       0.08902189       0.00017989      -0.00071355 </v>
    <v>       0.00022466       0.10463654      -0.00027325 </v>
    <v>      -0.00071129      -0.00021279       0.08952621 </v>
   </varray>
  </crystal>
  <varray name="positions" >
   <v>       0.09732391       0.02084754       0.23358679 </v>
   <v>       0.58554716       0.02318105       0.40110973 </v>
   <v>       0.11107443       0.00865127       0.93877990 </v>
   <v>       0.06475347      -0.00762912       0.66788938 </v>
   <v>       0.63041324      -0.00038161       0.96108041 </v>
   <v>       0.85336491      -0.02645909       0.89296464 </v>
   <v>       0.38164869      -0.00397578       0.18042506 </v>
   <v>       0.86561911      -0.00059160       0.45234002 </v>
   <v>       0.85808550       0.00328035       0.18006946 </v>
   <v>       0.37996665      -0.00656001       0.91430087 </v>
   <v>       0.63261135      -0.00834084       0.68625420 </v>
   <v>       0.00630912       0.30479667       0.06801208 </v>
   <v>       0.26044682       0.67963664       0.06254592 </v>
   <v>       0.25588318       0.29782096       0.31342776 </v>
   <v>       0.49766482       0.69776783       0.31127602 </v>
   <v>       0.50088138       0.30604455       0.05903767 </v>
   <v>       0.75823476       0.69002895       0.06078424 </v>
   <v>       0.75490429       0.31379805       0.31618753 </v>
   <v>      -0.00089051       0.69313745       0.31557154 </v>
   <v>       0.00361297       0.30842597       0.56391438 </v>
   <v>       0.24990135       0.75174595       0.56722224 </v>
   <v>       0.24976414       0.30673742       0.81303403 </v>
   <v>       0.50464714       0.68320719       0.81026127 </v>
   <v>       0.50142350       0.29978855       0.56325824 </v>
   <v>       0.75285166       0.68408525       0.56399358 </v>
   <v>       0.75271399       0.29794413       0.81160733 </v>
   <v>       0.00853017       0.69920019       0.81563009 </v>
   <v>       0.26132319       0.36135129       0.06565792 </v>
   <v>       0.00561324       0.65254090       0.06411238 </v>
   <v>       0.50622783       0.31084372       0.31142727 </v>
   <v>       0.25354344       0.67089155       0.30815304 </v>
   <v>       0.76089200       0.32592964       0.06538498 </v>
   <v>       0.51025737       0.63830123       0.06548760 </v>
   <v>       0.00491725       0.35622351       0.31319665 </v>
   <v>       0.75445149       0.64967160       0.31144888 </v>
   <v>       0.25584196       0.31345609       0.56421523 </v>
   <v>       0.00879654       0.66471610       0.56204880 </v>
   <v>       0.50692074       0.34747002       0.81300418 </v>
   <v>       0.25883381       0.65572274       0.80882231 </v>
   <v>       0.75621758       0.35673632       0.56491277 </v>
   <v>       0.51043024       0.66475582       0.56611072 </v>
   <v>       0.00392163       0.33368116       0.81610239 </v>
   <v>       0.75824112       0.65219083       0.81433214 </v>
   <v>       0.48205117       0.08536048       0.04253637 </v>
   <v>       0.29149540       0.89734569       0.04988842 </v>
   <v>       0.25002313       0.09094815       0.26626012 </v>
   <v>      -0.03810474       0.91288520       0.30933557 </v>
   <v>       0.00233058       0.08554844       0.09098830 </v>
   <v>       0.76873798       0.91046632       0.04895732 </v>
   <v>       0.76885466       0.09173613       0.32169628 </v>
   <v>       0.49606418       0.91100397       0.29244298 </v>
   <v>       0.54508571       0.09242606       0.56231956 </v>
   <v>       0.21283083       0.94790820       0.60054096 </v>
   <v>       0.24478731       0.09842855       0.85703678 </v>
   <v>       0.00404413       0.91415593       0.82732027 </v>
   <v>       0.97206320       0.09805007       0.55827926 </v>
   <v>       0.74611649       0.90494789       0.56173987 </v>
   <v>       0.72784789       0.08079505       0.81772532 </v>
   <v>       0.51744545       0.90721348       0.81968098 </v>
  </varray>
 </structure>
</modeling>
