<?xml version="1.0" encoding="ISO-8859-1"?>
<modeling>
 <generator>
  <i name="program" type="string">vasp </i>
  <i name="version" type="string">5.4.4.18Apr17-6-g9f103f2a35  </i>
  <i name="subversion" type="string">(build Jul 31 2017 11:33:29) complex            parallel </i>
  <i name="platform" type="string">LinuxIFC </i>
  <i name="date" type="string">2021 09 29 </i>
  <i name="time" type="string">03:05:53 </i>
 </generator>
 <incar>
  <i type="string" name="SYSTEM"> La2O2S</i>
  <i type="string" name="PREC">normal</i>
  <i type="int" name="NELMIN">     4</i>
  <i type="int" name="IBRION">     2</i>
  <i type="int" name="NFREE">    10</i>
  <i name="EDIFF">      0.00000100</i>
  <i name="EDIFFG">     -0.01000000</i>
  <i type="int" name="NSW">     1</i>
  <i type="int" name="ISIF">     2</i>
  <i name="ENCUT">    600.00000000</i>
  <i name="ENAUG">    900.00000000</i>
  <i type="int" name="ISMEAR">    -5</i>
  <i type="logical" name="LWAVE"> F  </i>
  <i type="logical" name="LCHARG"> F  </i>
  <v type="int" name="KPOINT_BSE">    -1     0     0     0</v>
 </incar>
 <structure name="primitive_cell" >
  <crystal>
   <varray name="basis" >
    <v>      11.17850000       0.00000000       0.00000000 </v>
    <v>       0.00000000       9.57460000       0.00000000 </v>
    <v>       0.00000000       0.00000000      11.18240000 </v>
   </varray>
   <i name="volume">   1196.84853820 </i>
   <varray name="rec_basis" >
    <v>       0.08945744       0.00000000       0.00000000 </v>
    <v>       0.00000000       0.10444301       0.00000000 </v>
    <v>       0.00000000       0.00000000       0.08942624 </v>
   </varray>
  </crystal>
  <varray name="positions" >
   <v>       0.37539000       0.00017000       0.43687000 </v>
   <v>      -0.49987000      -0.07798000       0.31246000 </v>
   <v>       0.25013000       0.07798000       0.31246000 </v>
   <v>       0.49987000       0.07798000      -0.43754000 </v>
   <v>       0.24987000      -0.07798000      -0.43754000 </v>
   <v>      -0.37461000      -0.00016000       0.43687000 </v>
   <v>       0.37461000       0.00017000       0.18687000 </v>
   <v>       0.37461000       0.00017000      -0.31313000 </v>
   <v>       0.49987000      -0.29519000       0.31282000 </v>
   <v>       0.24987000       0.29519000       0.31282000 </v>
   <v>      -0.49987000       0.29519000      -0.43719000 </v>
   <v>       0.25013000      -0.29519000      -0.43719000 </v>
   <v>       0.49995000       0.32677000       0.31286000 </v>
   <v>       0.24995000      -0.32677000       0.31286000 </v>
   <v>      -0.49995000      -0.32677000      -0.43714000 </v>
   <v>       0.25005000       0.32677000      -0.43714000 </v>
   <v>      -0.37539000      -0.00016000      -0.31313000 </v>
   <v>       0.12461000      -0.00016000       0.18687000 </v>
   <v>       0.12461000      -0.00016000      -0.31313000 </v>
   <v>       0.49987000       0.07798000       0.06246000 </v>
   <v>      -0.24987000       0.07798000       0.31246000 </v>
   <v>      -0.25013000      -0.07798000      -0.43754000 </v>
   <v>       0.24987000      -0.07798000       0.06246000 </v>
   <v>       0.00013000      -0.07798000       0.31246000 </v>
   <v>      -0.49987000      -0.07798000      -0.18754000 </v>
   <v>      -0.00013000       0.07798000      -0.43754000 </v>
   <v>       0.25013000       0.07798000      -0.18754000 </v>
   <v>      -0.49987000       0.29519000       0.06281000 </v>
   <v>      -0.25013000       0.29519000       0.31282000 </v>
   <v>       0.25013000      -0.29519000       0.06281000 </v>
   <v>      -0.24987000      -0.29519000      -0.43719000 </v>
   <v>      -0.00013000      -0.29519000       0.31282000 </v>
   <v>       0.00013000       0.29519000      -0.43719000 </v>
   <v>       0.49987000      -0.29519000      -0.18718000 </v>
   <v>       0.24987000       0.29519000      -0.18718000 </v>
   <v>      -0.49995000      -0.32677000       0.06286000 </v>
   <v>       0.25005000       0.32677000       0.06286000 </v>
   <v>      -0.25005000      -0.32677000       0.31286000 </v>
   <v>      -0.24995000       0.32677000      -0.43714000 </v>
   <v>      -0.00005000       0.32677000       0.31286000 </v>
   <v>       0.00005000      -0.32677000      -0.43714000 </v>
   <v>       0.49995000       0.32677000      -0.18714000 </v>
   <v>       0.24995000      -0.32677000      -0.18714000 </v>
   <v>      -0.12461000       0.00017000       0.43687000 </v>
   <v>      -0.25013000      -0.07798000       0.06246000 </v>
   <v>      -0.00013000       0.07798000       0.06246000 </v>
   <v>      -0.24987000       0.07798000      -0.18754000 </v>
   <v>       0.00013000      -0.07798000      -0.18754000 </v>
   <v>      -0.12539000       0.00017000       0.18687000 </v>
   <v>      -0.12539000       0.00017000      -0.31313000 </v>
   <v>       0.12539000      -0.00016000      -0.06313000 </v>
   <v>      -0.37461000      -0.00016000      -0.06313000 </v>
   <v>      -0.24987000      -0.29519000       0.06281000 </v>
   <v>       0.00013000       0.29519000       0.06281000 </v>
   <v>      -0.25013000       0.29519000      -0.18718000 </v>
   <v>      -0.00013000      -0.29519000      -0.18718000 </v>
   <v>      -0.24995000       0.32677000       0.06286000 </v>
   <v>       0.00005000      -0.32677000       0.06286000 </v>
   <v>      -0.25005000      -0.32677000      -0.18714000 </v>
   <v>      -0.00005000       0.32677000      -0.18714000 </v>
   <v>      -0.12461000       0.00017000      -0.06313000 </v>
  </varray>
 </structure>
 <varray name="primitive_index" >
  <v type="int" >        1 </v>
  <v type="int" >       53 </v>
  <v type="int" >       48 </v>
  <v type="int" >       54 </v>
  <v type="int" >       55 </v>
  <v type="int" >        3 </v>
  <v type="int" >       11 </v>
  <v type="int" >       13 </v>
  <v type="int" >       17 </v>
  <v type="int" >       16 </v>
  <v type="int" >       26 </v>
  <v type="int" >       23 </v>
  <v type="int" >       32 </v>
  <v type="int" >       33 </v>
  <v type="int" >       43 </v>
  <v type="int" >       38 </v>
  <v type="int" >        9 </v>
  <v type="int" >        2 </v>
  <v type="int" >        6 </v>
  <v type="int" >       46 </v>
  <v type="int" >       52 </v>
  <v type="int" >       59 </v>
  <v type="int" >       47 </v>
  <v type="int" >       49 </v>
  <v type="int" >       61 </v>
  <v type="int" >       58 </v>
  <v type="int" >       56 </v>
  <v type="int" >       18 </v>
  <v type="int" >       20 </v>
  <v type="int" >       15 </v>
  <v type="int" >       27 </v>
  <v type="int" >       21 </v>
  <v type="int" >       22 </v>
  <v type="int" >       25 </v>
  <v type="int" >       24 </v>
  <v type="int" >       35 </v>
  <v type="int" >       30 </v>
  <v type="int" >       37 </v>
  <v type="int" >       42 </v>
  <v type="int" >       36 </v>
  <v type="int" >       39 </v>
  <v type="int" >       40 </v>
  <v type="int" >       41 </v>
  <v type="int" >       12 </v>
  <v type="int" >       51 </v>
  <v type="int" >       50 </v>
  <v type="int" >       60 </v>
  <v type="int" >       57 </v>
  <v type="int" >        4 </v>
  <v type="int" >       10 </v>
  <v type="int" >        5 </v>
  <v type="int" >        7 </v>
  <v type="int" >       19 </v>
  <v type="int" >       14 </v>
  <v type="int" >       28 </v>
  <v type="int" >       29 </v>
  <v type="int" >       34 </v>
  <v type="int" >       31 </v>
  <v type="int" >       45 </v>
  <v type="int" >       44 </v>
  <v type="int" >        8 </v>
 </varray>
 <kpoints>
  <generation param="Gamma">
   <v type="int" name="divisions">       2        2        2 </v>
   <v name="usershift">      0.00000000       0.00000000       0.00000000 </v>
   <v name="genvec1">      0.50000000       0.00000000       0.00000000 </v>
   <v name="genvec2">      0.00000000       0.50000000       0.00000000 </v>
   <v name="genvec3">      0.00000000       0.00000000       0.50000000 </v>
   <v name="shift">      0.00000000       0.00000000       0.00000000 </v>
  </generation>
  <varray name="kpointlist" >
   <v>       0.00000000       0.00000000       0.00000000 </v>
   <v>       0.50000000       0.00000000       0.00000000 </v>
   <v>       0.00000000       0.50000000       0.00000000 </v>
   <v>       0.50000000       0.50000000       0.00000000 </v>
   <v>       0.00000000       0.00000000       0.50000000 </v>
   <v>       0.50000000       0.00000000       0.50000000 </v>
   <v>       0.00000000       0.50000000       0.50000000 </v>
   <v>       0.50000000       0.50000000       0.50000000 </v>
  </varray>
  <varray name="weights" >
   <v>       0.12500000 </v>
   <v>       0.12500000 </v>
   <v>       0.12500000 </v>
   <v>       0.12500000 </v>
   <v>       0.12500000 </v>
   <v>       0.12500000 </v>
   <v>       0.12500000 </v>
   <v>       0.12500000 </v>
  </varray>
  <varray name="tetrahedronlist"  type="int" >
   <v type="int" >        2        1        2        4        5 </v>
   <v type="int" >        2        1        3        4        5 </v>
   <v type="int" >        2        3        4        5        7 </v>
   <v type="int" >        2        2        4        5        6 </v>
   <v type="int" >        2        4        5        6        8 </v>
   <v type="int" >        2        4        5        7        8 </v>
   <v type="int" >        2        1        2        3        6 </v>
   <v type="int" >        2        2        3        4        6 </v>
   <v type="int" >        2        3        4        6        8 </v>
   <v type="int" >        2        1        3        5        6 </v>
   <v type="int" >        2        3        5        6        7 </v>
   <v type="int" >        2        3        6        7        8 </v>
   <v type="int" >        2        2        3        4        7 </v>
   <v type="int" >        2        1        2        3        7 </v>
   <v type="int" >        2        1        2        5        7 </v>
   <v type="int" >        2        2        4        7        8 </v>
   <v type="int" >        2        2        6        7        8 </v>
   <v type="int" >        2        2        5        6        7 </v>
   <v type="int" >        2        1        3        4        8 </v>
   <v type="int" >        2        1        2        4        8 </v>
   <v type="int" >        2        1        2        6        8 </v>
   <v type="int" >        2        1        3        7        8 </v>
   <v type="int" >        2        1        5        7        8 </v>
   <v type="int" >        2        1        5        6        8 </v>
  </varray>
  <i name="volumeweight">      0.02083333 </i>
 </kpoints>
 <parameters>
  <separator name="general" >
   <i type="string" name="SYSTEM">La2O2S</i>
   <i type="logical" name="LCOMPAT"> F  </i>
  </separator>
  <separator name="electronic" >
   <i type="string" name="PREC">normal</i>
   <i name="ENMAX">    600.00000000</i>
   <i name="ENAUG">    900.00000000</i>
   <i name="EDIFF">      0.00000100</i>
   <i type="int" name="IALGO">    38</i>
   <i type="int" name="IWAVPR">    11</i>
   <i type="int" name="NBANDS">   280</i>
   <i name="NELECT">    468.00000000</i>
   <i type="int" name="TURBO">     0</i>
   <i type="int" name="IRESTART">     0</i>
   <i type="int" name="NREBOOT">     0</i>
   <i type="int" name="NMIN">     0</i>
   <i name="EREF">      0.00000000</i>
   <separator name="electronic smearing" >
    <i type="int" name="ISMEAR">    -5</i>
    <i name="SIGMA">      0.20000000</i>
    <i name="KSPACING">      0.50000000</i>
    <i type="logical" name="KGAMMA"> T  </i>
   </separator>
   <separator name="electronic projectors" >
    <i type="logical" name="LREAL"> F  </i>
    <v name="ROPT">      0.00000000      0.00000000      0.00000000      0.00000000      0.00000000</v>
    <i type="int" name="LMAXPAW">  -100</i>
    <i type="int" name="LMAXMIX">     2</i>
    <i type="logical" name="NLSPLINE"> F  </i>
   </separator>
   <separator name="electronic startup" >
    <i type="int" name="ISTART">     0</i>
    <i type="int" name="ICHARG">     2</i>
    <i type="int" name="INIWAV">     1</i>
   </separator>
   <separator name="electronic spin" >
    <i type="int" name="ISPIN">     1</i>
    <i type="logical" name="LNONCOLLINEAR"> F  </i>
    <v name="MAGMOM">      1.00000000      1.00000000      1.00000000      1.00000000      1.00000000      1.00000000      1.00000000      1.00000000      1.00000000      1.00000000      1.00000000      1.00000000      1.00000000      1.00000000      1.00000000      1.00000000      1.00000000      1.00000000      1.00000000      1.00000000
      1.00000000      1.00000000      1.00000000      1.00000000      1.00000000      1.00000000      1.00000000      1.00000000      1.00000000      1.00000000      1.00000000      1.00000000      1.00000000      1.00000000      1.00000000      1.00000000      1.00000000      1.00000000      1.00000000      1.00000000
      1.00000000      1.00000000      1.00000000      1.00000000      1.00000000      1.00000000      1.00000000      1.00000000      1.00000000      1.00000000      1.00000000      1.00000000      1.00000000      1.00000000      1.00000000      1.00000000      1.00000000      1.00000000      1.00000000      1.00000000
      1.00000000</v>
    <i name="NUPDOWN">     -1.00000000</i>
    <i type="logical" name="LSORBIT"> F  </i>
    <v name="SAXIS">      0.00000000      0.00000000      1.00000000</v>
    <i type="logical" name="LSPIRAL"> F  </i>
    <v name="QSPIRAL">      0.00000000      0.00000000      0.00000000</v>
    <i type="logical" name="LZEROZ"> F  </i>
   </separator>
   <separator name="electronic exchange-correlation" >
    <i type="logical" name="LASPH"> F  </i>
    <i type="logical" name="LMETAGGA"> F  </i>
   </separator>
   <separator name="electronic convergence" >
    <i type="int" name="NELM">    60</i>
    <i type="int" name="NELMDL">    -5</i>
    <i type="int" name="NELMIN">     4</i>
    <i name="ENINI">    600.00000000</i>
    <separator name="electronic convergence detail" >
     <i type="logical" name="LDIAG"> T  </i>
     <i type="logical" name="LSUBROT"> F  </i>
     <i name="WEIMIN">      0.00100000</i>
     <i name="EBREAK">      0.00000000</i>
     <i name="DEPER">      0.30000000</i>
     <i type="int" name="NRMM">     4</i>
     <i name="TIME">      0.40000000</i>
    </separator>
   </separator>
   <separator name="electronic mixer" >
    <i name="AMIX">      0.40000000</i>
    <i name="BMIX">      1.00000000</i>
    <i name="AMIN">      0.10000000</i>
    <i name="AMIX_MAG">      1.60000000</i>
    <i name="BMIX_MAG">      1.00000000</i>
    <separator name="electronic mixer details" >
     <i type="int" name="IMIX">     4</i>
     <i type="logical" name="MIXFIRST"> F  </i>
     <i type="int" name="MAXMIX">   -45</i>
     <i name="WC">    100.00000000</i>
     <i type="int" name="INIMIX">     1</i>
     <i type="int" name="MIXPRE">     1</i>
     <i type="int" name="MREMOVE">     5</i>
    </separator>
   </separator>
   <separator name="electronic dipolcorrection" >
    <i type="logical" name="LDIPOL"> F  </i>
    <i type="logical" name="LMONO"> F  </i>
    <i type="int" name="IDIPOL">     0</i>
    <i name="EPSILON">      1.00000000</i>
    <v name="DIPOL">   -100.00000000   -100.00000000   -100.00000000</v>
    <i name="EFIELD">      0.00000000</i>
   </separator>
  </separator>
  <separator name="grids" >
   <i type="int" name="NGX">    70</i>
   <i type="int" name="NGY">    60</i>
   <i type="int" name="NGZ">    70</i>
   <i type="int" name="NGXF">   140</i>
   <i type="int" name="NGYF">   120</i>
   <i type="int" name="NGZF">   140</i>
   <i type="logical" name="ADDGRID"> F  </i>
  </separator>
  <separator name="ionic" >
   <i type="int" name="NSW">     1</i>
   <i type="int" name="IBRION">     2</i>
   <i type="int" name="MDALGO">     0</i>
   <i type="int" name="ISIF">     2</i>
   <i name="PSTRESS">      0.00000000</i>
   <i name="EDIFFG">     -0.01000000</i>
   <i type="int" name="NFREE">    10</i>
   <i name="POTIM">      0.50000000</i>
   <i name="SMASS">     -3.00000000</i>
   <i name="SCALEE">      1.00000000</i>
  </separator>
  <separator name="ionic md" >
   <i name="TEBEG">      0.00010000</i>
   <i name="TEEND">      0.00010000</i>
   <i type="int" name="NBLOCK">     1</i>
   <i type="int" name="KBLOCK">     1</i>
   <i type="int" name="NPACO">   256</i>
   <i name="APACO">     16.00000000</i>
  </separator>
  <separator name="symmetry" >
   <i type="int" name="ISYM">     2</i>
   <i name="SYMPREC">      0.00001000</i>
  </separator>
  <separator name="dos" >
   <i type="int" name="LORBIT">     0</i>
   <v name="RWIGS">     -1.00000000     -1.00000000     -1.00000000     -1.00000000     -1.00000000</v>
   <i type="int" name="NEDOS">   301</i>
   <i name="EMIN">     10.00000000</i>
   <i name="EMAX">    -10.00000000</i>
   <i name="EFERMI">      0.00000000</i>
  </separator>
  <separator name="writing" >
   <i type="int" name="NWRITE">     2</i>
   <i type="logical" name="LWAVE"> F  </i>
   <i type="logical" name="LDOWNSAMPLE"> F  </i>
   <i type="logical" name="LCHARG"> F  </i>
   <i type="logical" name="LPARD"> F  </i>
   <i type="logical" name="LVTOT"> F  </i>
   <i type="logical" name="LVHAR"> F  </i>
   <i type="logical" name="LELF"> F  </i>
   <i type="logical" name="LOPTICS"> F  </i>
   <v name="STM">      0.00000000      0.00000000      0.00000000      0.00000000      0.00000000      0.00000000      0.00000000</v>
  </separator>
  <separator name="performance" >
   <i type="int" name="NPAR">    28</i>
   <i type="int" name="NSIM">     4</i>
   <i type="int" name="NBLK">    -1</i>
   <i type="logical" name="LPLANE"> T  </i>
   <i type="logical" name="LSCALAPACK"> T  </i>
   <i type="logical" name="LSCAAWARE"> F  </i>
   <i type="logical" name="LSCALU"> F  </i>
   <i type="logical" name="LASYNC"> F  </i>
   <i type="logical" name="LORBITALREAL"> F  </i>
  </separator>
  <separator name="miscellaneous" >
   <i type="int" name="IDIOT">     3</i>
   <i type="int" name="ISPECIAL">     0</i>
   <i type="logical" name="LMUSIC"> F  </i>
   <v name="POMASS">      7.01000000     24.30500000    208.98000000     32.06600000     16.00000000</v>
   <v name="DARWINR">      0.00000000      0.00000000      0.00000000      0.00000000      0.00000000</v>
   <v name="DARWINV">      1.00000000      1.00000000      1.00000000      1.00000000      1.00000000</v>
   <i type="logical" name="LCORR"> T  </i>
  </separator>
  <i type="logical" name="GGA_COMPAT"> T  </i>
  <i type="logical" name="LBERRY"> F  </i>
  <i type="int" name="ICORELEVEL">     0</i>
  <i type="logical" name="LDAU"> F  </i>
  <i type="int" name="I_CONSTRAINED_M">     0</i>
  <separator name="electronic exchange-correlation" >
   <i type="string" name="GGA">--</i>
   <i type="int" name="VOSKOWN">     0</i>
   <i type="logical" name="LHFCALC"> F  </i>
   <i type="string" name="PRECFOCK"></i>
   <i type="logical" name="LSYMGRAD"> F  </i>
   <i type="logical" name="LHFONE"> F  </i>
   <i type="logical" name="LRHFCALC"> F  </i>
   <i type="logical" name="LTHOMAS"> F  </i>
   <i type="logical" name="LMODELHF"> F  </i>
   <i name="ENCUT4O">     -1.00000000</i>
   <i type="int" name="EXXOEP">     0</i>
   <i type="int" name="FOURORBIT">     0</i>
   <i name="AEXX">      0.00000000</i>
   <i name="HFALPHA">      0.00000000</i>
   <i name="MCALPHA">      0.00000000</i>
   <i name="ALDAX">      1.00000000</i>
   <i name="AGGAX">      1.00000000</i>
   <i name="ALDAC">      1.00000000</i>
   <i name="AGGAC">      1.00000000</i>
   <i type="int" name="NKREDX">     1</i>
   <i type="int" name="NKREDY">     1</i>
   <i type="int" name="NKREDZ">     1</i>
   <i type="logical" name="SHIFTRED"> F  </i>
   <i type="logical" name="ODDONLY"> F  </i>
   <i type="logical" name="EVENONLY"> F  </i>
   <i type="int" name="LMAXFOCK">     0</i>
   <i type="int" name="NMAXFOCKAE">     0</i>
   <i type="logical" name="LFOCKAEDFT"> F  </i>
   <i name="HFSCREEN">      0.00000000</i>
   <i name="HFSCREENC">      0.00000000</i>
   <i type="int" name="NBANDSGWLOW">     0</i>
  </separator>
  <separator name="vdW DFT" >
   <i type="logical" name="LUSE_VDW"> F  </i>
   <i name="Zab_VDW">     -0.84910000</i>
   <i name="PARAM1">      0.12340000</i>
   <i name="PARAM2">      1.00000000</i>
   <i name="PARAM3">      0.00000000</i>
  </separator>
  <separator name="model GW" >
   <i type="int" name="MODEL_GW">     0</i>
   <i name="MODEL_EPS0">     11.77228070</i>
   <i name="MODEL_ALPHA">      1.00000000</i>
  </separator>
  <separator name="linear response parameters" >
   <i type="logical" name="LEPSILON"> F  </i>
   <i type="logical" name="LRPA"> F  </i>
   <i type="logical" name="LNABLA"> F  </i>
   <i type="logical" name="LVEL"> F  </i>
   <i type="int" name="KINTER">     0</i>
   <i name="CSHIFT">      0.10000000</i>
   <i name="OMEGAMAX">     -1.00000000</i>
   <i name="DEG_THRESHOLD">      0.00200000</i>
   <i name="RTIME">     -0.10000000</i>
   <i name="WPLASMAI">      0.00000000</i>
   <v name="DFIELD">      0.00000000      0.00000000      0.00000000</v>
   <v name="WPLASMA">      0.00000000      0.00000000      0.00000000      0.00000000      0.00000000      0.00000000      0.00000000      0.00000000      0.00000000</v>
  </separator>
  <separator name="orbital magnetization" >
   <i type="logical" name="NUCIND"> F  </i>
   <v name="MAGPOS">      0.00000000      0.00000000      0.00000000</v>
   <i type="logical" name="LNICSALL"> T  </i>
   <i type="logical" name="ORBITALMAG"> F  </i>
   <i type="logical" name="LMAGBLOCH"> F  </i>
   <i type="logical" name="LCHIMAG"> F  </i>
   <i type="logical" name="LGAUGE"> T  </i>
   <i type="int" name="MAGATOM">     0</i>
   <v name="MAGDIPOL">      0.00000000      0.00000000      0.00000000</v>
   <v name="AVECCONST">      0.00000000      0.00000000      0.00000000</v>
  </separator>
  <separator name="response functions" >
   <i type="logical" name="LADDER"> F  </i>
   <i type="logical" name="LRPAFORCE"> F  </i>
   <i type="logical" name="LFXC"> F  </i>
   <i type="logical" name="LHARTREE"> T  </i>
   <i type="int" name="IBSE">     0</i>
   <v type="int" name="KPOINT">    -1     0     0     0</v>
   <i type="logical" name="LTCTE"> F  </i>
   <i type="logical" name="LTETE"> F  </i>
   <i type="logical" name="LTRIPLET"> F  </i>
   <i type="logical" name="LFXCEPS"> F  </i>
   <i type="logical" name="LFXHEG"> F  </i>
   <i type="int" name="NATURALO">     2</i>
   <i type="logical" name="L2ORDER"> F  </i>
   <i type="logical" name="LMP2LT"> F  </i>
   <i type="logical" name="LUSEW"> F  </i>
   <i name="ENCUTGW">     -2.00000000</i>
   <i name="ENCUTGWSOFT">     -2.00000000</i>
   <i name="ENCUTLF">     -1.00000000</i>
   <i type="int" name="LMAXMP2">    -1</i>
   <i name="SCISSOR">      0.00000000</i>
   <i type="int" name="NOMEGA">     0</i>
   <i type="int" name="NOMEGAR">     0</i>
   <i type="int" name="NBANDSGW">    -1</i>
   <i type="int" name="NBANDSO">    -1</i>
   <i type="int" name="NBANDSV">    -1</i>
   <i type="int" name="NELM">     1</i>
   <i type="int" name="NELMHF">     1</i>
   <i type="int" name="DIM">     3</i>
   <i type="int" name="ANTIRES">     0</i>
   <i name="OMEGAMAX">    -30.00000000</i>
   <i name="OMEGAMIN">    -30.00000000</i>
   <i name="OMEGATL">   -200.00000000</i>
   <i type="int" name="OMEGAGRID">   140</i>
   <i name="CSHIFT">     -0.10000000</i>
   <i type="logical" name="SELFENERGY"> F  </i>
   <i type="logical" name="LSPECTRAL"> F  </i>
   <i type="logical" name="LSPECTRALGW"> F  </i>
   <i type="logical" name="LSINGLES"> F  </i>
   <i type="logical" name="LFERMIGW"> F  </i>
   <i type="logical" name="ODDONLYGW"> F  </i>
   <i type="logical" name="EVENONLYGW"> F  </i>
   <i type="int" name="NKREDLFX">     1</i>
   <i type="int" name="NKREDLFY">     1</i>
   <i type="int" name="NKREDLFZ">     1</i>
   <i type="int" name="MAXMEM">  2800</i>
   <i type="int" name="TELESCOPE">     0</i>
   <i type="int" name="TAUPAR">     1</i>
   <i type="int" name="OMEGAPAR">    -1</i>
   <i name="LAMBDA">      1.00000000</i>
  </separator>
  <separator name="External order field" >
   <i name="OFIELD_KAPPA">      0.00000000</i>
   <v name="OFIELD_K">      0.00000000      0.00000000      0.00000000</v>
   <i name="OFIELD_Q6_NEAR">      0.00000000</i>
   <i name="OFIELD_Q6_FAR">      0.00000000</i>
   <i name="OFIELD_A">      0.00000000</i>
  </separator>
 </parameters>
 <atominfo>
  <atoms>      61 </atoms>
  <types>       5 </types>
  <array name="atoms" >
   <dimension dim="1">ion</dimension>
   <field type="string">element</field>
   <field type="int">atomtype</field>
   <set>
    <rc><c>Li</c><c>   1</c></rc>
    <rc><c>Li</c><c>   1</c></rc>
    <rc><c>Li</c><c>   1</c></rc>
    <rc><c>Li</c><c>   1</c></rc>
    <rc><c>Li</c><c>   1</c></rc>
    <rc><c>Li</c><c>   1</c></rc>
    <rc><c>Li</c><c>   1</c></rc>
    <rc><c>Li</c><c>   1</c></rc>
    <rc><c>Li</c><c>   1</c></rc>
    <rc><c>Li</c><c>   1</c></rc>
    <rc><c>Mg</c><c>   2</c></rc>
    <rc><c>Mg</c><c>   2</c></rc>
    <rc><c>Mg</c><c>   2</c></rc>
    <rc><c>Bi</c><c>   3</c></rc>
    <rc><c>Bi</c><c>   3</c></rc>
    <rc><c>Bi</c><c>   3</c></rc>
    <rc><c>Bi</c><c>   3</c></rc>
    <rc><c>Bi</c><c>   3</c></rc>
    <rc><c>Bi</c><c>   3</c></rc>
    <rc><c>Bi</c><c>   3</c></rc>
    <rc><c>Bi</c><c>   3</c></rc>
    <rc><c>Bi</c><c>   3</c></rc>
    <rc><c>Bi</c><c>   3</c></rc>
    <rc><c>Bi</c><c>   3</c></rc>
    <rc><c>Bi</c><c>   3</c></rc>
    <rc><c>Bi</c><c>   3</c></rc>
    <rc><c>Bi</c><c>   3</c></rc>
    <rc><c>Bi</c><c>   3</c></rc>
    <rc><c>Bi</c><c>   3</c></rc>
    <rc><c>S </c><c>   4</c></rc>
    <rc><c>S </c><c>   4</c></rc>
    <rc><c>S </c><c>   4</c></rc>
    <rc><c>S </c><c>   4</c></rc>
    <rc><c>S </c><c>   4</c></rc>
    <rc><c>S </c><c>   4</c></rc>
    <rc><c>S </c><c>   4</c></rc>
    <rc><c>S </c><c>   4</c></rc>
    <rc><c>S </c><c>   4</c></rc>
    <rc><c>S </c><c>   4</c></rc>
    <rc><c>S </c><c>   4</c></rc>
    <rc><c>S </c><c>   4</c></rc>
    <rc><c>S </c><c>   4</c></rc>
    <rc><c>S </c><c>   4</c></rc>
    <rc><c>S </c><c>   4</c></rc>
    <rc><c>S </c><c>   4</c></rc>
    <rc><c>O </c><c>   5</c></rc>
    <rc><c>O </c><c>   5</c></rc>
    <rc><c>O </c><c>   5</c></rc>
    <rc><c>O </c><c>   5</c></rc>
    <rc><c>O </c><c>   5</c></rc>
    <rc><c>O </c><c>   5</c></rc>
    <rc><c>O </c><c>   5</c></rc>
    <rc><c>O </c><c>   5</c></rc>
    <rc><c>O </c><c>   5</c></rc>
    <rc><c>O </c><c>   5</c></rc>
    <rc><c>O </c><c>   5</c></rc>
    <rc><c>O </c><c>   5</c></rc>
    <rc><c>O </c><c>   5</c></rc>
    <rc><c>O </c><c>   5</c></rc>
    <rc><c>O </c><c>   5</c></rc>
    <rc><c>O </c><c>   5</c></rc>
   </set>
  </array>
  <array name="atomtypes" >
   <dimension dim="1">type</dimension>
   <field type="int">atomspertype</field>
   <field type="string">element</field>
   <field>mass</field>
   <field>valence</field>
   <field type="string">pseudopotential</field>
   <set>
    <rc><c>  10</c><c>Li</c><c>      7.01000000</c><c>      3.00000000</c><c>  PAW_PBE Li_sv 10Sep2004               </c></rc>
    <rc><c>   3</c><c>Mg</c><c>     24.30500000</c><c>      2.00000000</c><c>  PAW_PBE Mg 13Apr2007                  </c></rc>
    <rc><c>  16</c><c>Bi</c><c>    208.98000000</c><c>     15.00000000</c><c>  PAW_PBE Bi_d 06Sep2000                </c></rc>
    <rc><c>  16</c><c>S </c><c>     32.06600000</c><c>      6.00000000</c><c>  PAW_PBE S 06Sep2000                   </c></rc>
    <rc><c>  16</c><c>O </c><c>     16.00000000</c><c>      6.00000000</c><c>  PAW_PBE O 08Apr2002                   </c></rc>
   </set>
  </array>
 </atominfo>
 <structure name="initialpos" >
  <crystal>
   <varray name="basis" >
    <v>      11.17850000       0.00000000       0.00000000 </v>
    <v>       0.00000000       9.57460000       0.00000000 </v>
    <v>       0.00000000       0.00000000      11.18240000 </v>
   </varray>
   <i name="volume">   1196.84853820 </i>
   <varray name="rec_basis" >
    <v>       0.08945744       0.00000000       0.00000000 </v>
    <v>       0.00000000       0.10444301       0.00000000 </v>
    <v>       0.00000000       0.00000000       0.08942624 </v>
   </varray>
  </crystal>
  <varray name="positions" >
   <v>       0.37539000       0.00017000       0.43687000 </v>
   <v>       0.12461000       0.99984000       0.18687000 </v>
   <v>       0.62539000       0.99984000       0.43687000 </v>
   <v>       0.87461000       0.00017000       0.18687000 </v>
   <v>       0.12539000       0.99984000       0.93687000 </v>
   <v>       0.12461000       0.99984000       0.68687000 </v>
   <v>       0.62539000       0.99984000       0.93687000 </v>
   <v>       0.87539000       0.00017000       0.93687000 </v>
   <v>       0.62461000       0.99984000       0.68687000 </v>
   <v>       0.87461000       0.00017000       0.68687000 </v>
   <v>       0.37461000       0.00017000       0.18687000 </v>
   <v>       0.87539000       0.00017000       0.43687000 </v>
   <v>       0.37461000       0.00017000       0.68687000 </v>
   <v>       0.00013000       0.29519000       0.06281000 </v>
   <v>       0.25013000       0.70481000       0.06281000 </v>
   <v>       0.24987000       0.29519000       0.31282000 </v>
   <v>       0.49987000       0.70481000       0.31282000 </v>
   <v>       0.50013000       0.29519000       0.06281000 </v>
   <v>       0.75013000       0.70481000       0.06281000 </v>
   <v>       0.74987000       0.29519000       0.31282000 </v>
   <v>       0.99987000       0.70481000       0.31282000 </v>
   <v>       0.00013000       0.29519000       0.56281000 </v>
   <v>       0.25013000       0.70481000       0.56281000 </v>
   <v>       0.24987000       0.29519000       0.81282000 </v>
   <v>       0.49987000       0.70481000       0.81282000 </v>
   <v>       0.50013000       0.29519000       0.56281000 </v>
   <v>       0.75013000       0.70481000       0.56281000 </v>
   <v>       0.74987000       0.29519000       0.81282000 </v>
   <v>       0.99987000       0.70481000       0.81282000 </v>
   <v>       0.25005000       0.32677000       0.06286000 </v>
   <v>       0.00005000       0.67323000       0.06286000 </v>
   <v>       0.49995000       0.32677000       0.31286000 </v>
   <v>       0.24995000       0.67323000       0.31286000 </v>
   <v>       0.75005000       0.32677000       0.06286000 </v>
   <v>       0.50005000       0.67323000       0.06286000 </v>
   <v>       0.99995000       0.32677000       0.31286000 </v>
   <v>       0.74995000       0.67323000       0.31286000 </v>
   <v>       0.25005000       0.32677000       0.56286000 </v>
   <v>       0.00005000       0.67323000       0.56286000 </v>
   <v>       0.49995000       0.32677000       0.81286000 </v>
   <v>       0.24995000       0.67323000       0.81286000 </v>
   <v>       0.75005000       0.32677000       0.56286000 </v>
   <v>       0.50005000       0.67323000       0.56286000 </v>
   <v>       0.99995000       0.32677000       0.81286000 </v>
   <v>       0.74995000       0.67323000       0.81286000 </v>
   <v>       0.49987000       0.07798000       0.06246000 </v>
   <v>       0.24987000       0.92202000       0.06246000 </v>
   <v>       0.25013000       0.07798000       0.31246000 </v>
   <v>       0.00013000       0.92202000       0.31246000 </v>
   <v>       0.99987000       0.07798000       0.06246000 </v>
   <v>       0.74987000       0.92202000       0.06246000 </v>
   <v>       0.75013000       0.07798000       0.31246000 </v>
   <v>       0.50013000       0.92202000       0.31246000 </v>
   <v>       0.49987000       0.07798000       0.56246000 </v>
   <v>       0.24987000       0.92202000       0.56246000 </v>
   <v>       0.25013000       0.07798000       0.81246000 </v>
   <v>       0.00013000       0.92202000       0.81246000 </v>
   <v>       0.99987000       0.07798000       0.56246000 </v>
   <v>       0.74987000       0.92202000       0.56246000 </v>
   <v>       0.75013000       0.07798000       0.81246000 </v>
   <v>       0.50013000       0.92202000       0.81246000 </v>
  </varray>
 </structure>
 <calculation>
  <scstep>
   <time name="dav">   61.09   61.49</time>
   <time name="total">   61.17   61.59</time>
   <energy>
    <i name="alphaZ">   1073.51873187 </i>
    <i name="ewald"> -30883.19602167 </i>
    <i name="hartreedc"> -12706.18968679 </i>
    <i name="XCdc">   1394.97500766 </i>
    <i name="pawpsdc">  36823.70205594 </i>
    <i name="pawaedc"> -36326.52930246 </i>
    <i name="eentropy">      0.00000000 </i>
    <i name="bandstr">   1803.87887041 </i>
    <i name="atom">  44791.06186932 </i>
    <i name="e_fr_energy">   5971.22152429 </i>
    <i name="e_wo_entrp">   5971.22152429 </i>
    <i name="e_0_energy">   5971.22152429 </i>
   </energy>
  </scstep>
  <scstep>
   <time name="dav">   61.72   62.21</time>
   <time name="total">   61.73   62.22</time>
   <energy>
    <i name="e_fr_energy">    798.91057954 </i>
    <i name="e_wo_entrp">    798.91057954 </i>
    <i name="e_0_energy">    798.91057954 </i>
   </energy>
  </scstep>
  <scstep>
   <time name="dav">   69.89   70.38</time>
   <time name="total">   69.89   70.38</time>
   <energy>
    <i name="e_fr_energy">   -241.25349792 </i>
    <i name="e_wo_entrp">   -241.25349792 </i>
    <i name="e_0_energy">   -241.25349792 </i>
   </energy>
  </scstep>
  <scstep>
   <time name="dav">   73.27   73.43</time>
   <time name="total">   73.27   73.43</time>
   <energy>
    <i name="e_fr_energy">   -345.68195944 </i>
    <i name="e_wo_entrp">   -345.68195944 </i>
    <i name="e_0_energy">   -345.68195944 </i>
   </energy>
  </scstep>
  <scstep>
   <time name="dav">   96.15   96.60</time>
   <time name="total">   96.90   97.35</time>
   <energy>
    <i name="e_fr_energy">   -354.92684721 </i>
    <i name="e_wo_entrp">   -354.92684721 </i>
    <i name="e_0_energy">   -354.92684721 </i>
   </energy>
  </scstep>
  <scstep>
   <time name="dav">   86.81   87.03</time>
   <time name="total">   87.60   87.83</time>
   <energy>
    <i name="e_fr_energy">   -296.47264414 </i>
    <i name="e_wo_entrp">   -296.47264414 </i>
    <i name="e_0_energy">   -296.47264414 </i>
   </energy>
  </scstep>
  <scstep>
   <time name="dav">   66.12   66.25</time>
   <time name="total">   66.99   67.12</time>
   <energy>
    <i name="e_fr_energy">   -299.27268811 </i>
    <i name="e_wo_entrp">   -299.27268811 </i>
    <i name="e_0_energy">   -299.27268811 </i>
   </energy>
  </scstep>
  <scstep>
   <time name="dav">   80.50   80.98</time>
   <time name="total">   81.31   81.79</time>
   <energy>
    <i name="e_fr_energy">   -298.04152907 </i>
    <i name="e_wo_entrp">   -298.04152907 </i>
    <i name="e_0_energy">   -298.04152907 </i>
   </energy>
  </scstep>
  <scstep>
   <time name="dav">   78.75   79.43</time>
   <time name="total">   79.55   80.23</time>
   <energy>
    <i name="e_fr_energy">   -297.39496142 </i>
    <i name="e_wo_entrp">   -297.39496142 </i>
    <i name="e_0_energy">   -297.39496142 </i>
   </energy>
  </scstep>
  <scstep>
   <time name="dav">   75.47   75.59</time>
   <time name="total">   76.27   76.39</time>
   <energy>
    <i name="e_fr_energy">   -297.42497507 </i>
    <i name="e_wo_entrp">   -297.42497507 </i>
    <i name="e_0_energy">   -297.42497507 </i>
   </energy>
  </scstep>
  <scstep>
   <time name="dav">   82.15   82.28</time>
   <time name="total">   82.94   83.07</time>
   <energy>
    <i name="e_fr_energy">   -297.43362546 </i>
    <i name="e_wo_entrp">   -297.43362546 </i>
    <i name="e_0_energy">   -297.43362546 </i>
   </energy>
  </scstep>
  <scstep>
   <time name="dav">   88.38   88.92</time>
   <time name="total">   89.17   89.72</time>
   <energy>
    <i name="e_fr_energy">   -297.43712070 </i>
    <i name="e_wo_entrp">   -297.43712070 </i>
    <i name="e_0_energy">   -297.43712070 </i>
   </energy>
  </scstep>
  <scstep>
   <time name="dav">   71.45   71.57</time>
   <time name="total">   72.25   72.37</time>
   <energy>
    <i name="e_fr_energy">   -297.43835186 </i>
    <i name="e_wo_entrp">   -297.43835186 </i>
    <i name="e_0_energy">   -297.43835186 </i>
   </energy>
  </scstep>
  <scstep>
   <time name="dav">   74.51   75.30</time>
   <time name="total">   75.30   76.10</time>
   <energy>
    <i name="e_fr_energy">   -297.43856722 </i>
    <i name="e_wo_entrp">   -297.43856722 </i>
    <i name="e_0_energy">   -297.43856722 </i>
   </energy>
  </scstep>
  <scstep>
   <time name="dav">   81.83   82.29</time>
   <time name="total">   82.65   83.11</time>
   <energy>
    <i name="e_fr_energy">   -297.43860218 </i>
    <i name="e_wo_entrp">   -297.43860218 </i>
    <i name="e_0_energy">   -297.43860218 </i>
   </energy>
  </scstep>
  <scstep>
   <time name="dav">   63.75   64.08</time>
   <time name="total">   64.55   64.89</time>
   <energy>
    <i name="e_fr_energy">   -297.43861822 </i>
    <i name="e_wo_entrp">   -297.43861822 </i>
    <i name="e_0_energy">   -297.43861822 </i>
   </energy>
  </scstep>
  <scstep>
   <time name="dav">   72.23   72.43</time>
   <time name="total">   73.03   73.24</time>
   <energy>
    <i name="e_fr_energy">   -297.43862119 </i>
    <i name="e_wo_entrp">   -297.43862119 </i>
    <i name="e_0_energy">   -297.43862119 </i>
   </energy>
  </scstep>
  <scstep>
   <time name="dav">   58.52   58.57</time>
   <time name="total">   58.59   58.65</time>
   <energy>
    <i name="alphaZ">   1073.51873187 </i>
    <i name="ewald"> -30883.19602167 </i>
    <i name="hartreedc"> -12941.47396384 </i>
    <i name="XCdc">   1418.52742471 </i>
    <i name="pawpsdc">  43845.51147128 </i>
    <i name="pawaedc"> -43322.94162819 </i>
    <i name="eentropy">      0.00000000 </i>
    <i name="bandstr">  -4278.44650523 </i>
    <i name="atom">  44791.06186932 </i>
    <i name="e_fr_energy">   -297.43862175 </i>
    <i name="e_wo_entrp">   -297.43862175 </i>
    <i name="e_0_energy">   -297.43862175 </i>
   </energy>
  </scstep>
  <structure>
   <crystal>
    <varray name="basis" >
     <v>      11.17850000       0.00000000       0.00000000 </v>
     <v>       0.00000000       9.57460000       0.00000000 </v>
     <v>       0.00000000       0.00000000      11.18240000 </v>
    </varray>
    <i name="volume">   1196.84853820 </i>
    <varray name="rec_basis" >
     <v>       0.08945744       0.00000000       0.00000000 </v>
     <v>       0.00000000       0.10444301       0.00000000 </v>
     <v>       0.00000000       0.00000000       0.08942624 </v>
    </varray>
   </crystal>
   <varray name="positions" >
    <v>       0.37539000       0.00017000       0.43687000 </v>
    <v>       0.12461000       0.99984000       0.18687000 </v>
    <v>       0.62539000       0.99984000       0.43687000 </v>
    <v>       0.87461000       0.00017000       0.18687000 </v>
    <v>       0.12539000       0.99984000       0.93687000 </v>
    <v>       0.12461000       0.99984000       0.68687000 </v>
    <v>       0.62539000       0.99984000       0.93687000 </v>
    <v>       0.87539000       0.00017000       0.93687000 </v>
    <v>       0.62461000       0.99984000       0.68687000 </v>
    <v>       0.87461000       0.00017000       0.68687000 </v>
    <v>       0.37461000       0.00017000       0.18687000 </v>
    <v>       0.87539000       0.00017000       0.43687000 </v>
    <v>       0.37461000       0.00017000       0.68687000 </v>
    <v>       0.00013000       0.29519000       0.06281000 </v>
    <v>       0.25013000       0.70481000       0.06281000 </v>
    <v>       0.24987000       0.29519000       0.31282000 </v>
    <v>       0.49987000       0.70481000       0.31282000 </v>
    <v>       0.50013000       0.29519000       0.06281000 </v>
    <v>       0.75013000       0.70481000       0.06281000 </v>
    <v>       0.74987000       0.29519000       0.31282000 </v>
    <v>       0.99987000       0.70481000       0.31282000 </v>
    <v>       0.00013000       0.29519000       0.56281000 </v>
    <v>       0.25013000       0.70481000       0.56281000 </v>
    <v>       0.24987000       0.29519000       0.81282000 </v>
    <v>       0.49987000       0.70481000       0.81282000 </v>
    <v>       0.50013000       0.29519000       0.56281000 </v>
    <v>       0.75013000       0.70481000       0.56281000 </v>
    <v>       0.74987000       0.29519000       0.81282000 </v>
    <v>       0.99987000       0.70481000       0.81282000 </v>
    <v>       0.25005000       0.32677000       0.06286000 </v>
    <v>       0.00005000       0.67323000       0.06286000 </v>
    <v>       0.49995000       0.32677000       0.31286000 </v>
    <v>       0.24995000       0.67323000       0.31286000 </v>
    <v>       0.75005000       0.32677000       0.06286000 </v>
    <v>       0.50005000       0.67323000       0.06286000 </v>
    <v>       0.99995000       0.32677000       0.31286000 </v>
    <v>       0.74995000       0.67323000       0.31286000 </v>
    <v>       0.25005000       0.32677000       0.56286000 </v>
    <v>       0.00005000       0.67323000       0.56286000 </v>
    <v>       0.49995000       0.32677000       0.81286000 </v>
    <v>       0.24995000       0.67323000       0.81286000 </v>
    <v>       0.75005000       0.32677000       0.56286000 </v>
    <v>       0.50005000       0.67323000       0.56286000 </v>
    <v>       0.99995000       0.32677000       0.81286000 </v>
    <v>       0.74995000       0.67323000       0.81286000 </v>
    <v>       0.49987000       0.07798000       0.06246000 </v>
    <v>       0.24987000       0.92202000       0.06246000 </v>
    <v>       0.25013000       0.07798000       0.31246000 </v>
    <v>       0.00013000       0.92202000       0.31246000 </v>
    <v>       0.99987000       0.07798000       0.06246000 </v>
    <v>       0.74987000       0.92202000       0.06246000 </v>
    <v>       0.75013000       0.07798000       0.31246000 </v>
    <v>       0.50013000       0.92202000       0.31246000 </v>
    <v>       0.49987000       0.07798000       0.56246000 </v>
    <v>       0.24987000       0.92202000       0.56246000 </v>
    <v>       0.25013000       0.07798000       0.81246000 </v>
    <v>       0.00013000       0.92202000       0.81246000 </v>
    <v>       0.99987000       0.07798000       0.56246000 </v>
    <v>       0.74987000       0.92202000       0.56246000 </v>
    <v>       0.75013000       0.07798000       0.81246000 </v>
    <v>       0.50013000       0.92202000       0.81246000 </v>
   </varray>
  </structure>
  <varray name="forces" >
   <v>      -0.35050498      -0.06541524      -0.20457845 </v>
   <v>      -0.22798927       0.00206522       0.23159623 </v>
   <v>      -0.32333937      -0.00337732      -0.54370258 </v>
   <v>      -0.32476663      -0.06659533      -0.33672525 </v>
   <v>       0.33994316      -0.00006048       0.03696406 </v>
   <v>      -0.22998478      -0.00098876      -0.21945921 </v>
   <v>      -0.35048669      -0.00026417       0.53772426 </v>
   <v>      -0.17318533      -0.06267362       0.20201993 </v>
   <v>       0.24493951       0.00044495       0.30301011 </v>
   <v>       0.18095904       0.06421606       0.35381523 </v>
   <v>       0.78014443       0.10771034      -0.79335131 </v>
   <v>       0.77093366       0.10718888      -0.25650637 </v>
   <v>      -0.20945709      -0.12203588       0.87933281 </v>
   <v>      -0.07748706       0.01645617      -0.02243309 </v>
   <v>       0.07093670       0.01680364      -0.19211283 </v>
   <v>      -0.17767845      -0.00433050       0.03553113 </v>
   <v>       0.19151844       0.01412234      -0.29182714 </v>
   <v>       0.11157502      -1.08104012      -0.06070001 </v>
   <v>      -0.13430611       1.02339402       0.08923428 </v>
   <v>      -0.18589642       0.03958570      -0.45313068 </v>
   <v>       0.19338662       0.02529085      -0.12532325 </v>
   <v>       0.21202785      -0.00390871      -0.02952749 </v>
   <v>      -0.23281020      -0.04446347      -0.19571927 </v>
   <v>       0.04846988      -0.02270422       0.33271015 </v>
   <v>      -0.02782446       0.02134295       0.41090792 </v>
   <v>       0.02757057       1.06832065      -0.07720353 </v>
   <v>      -0.03001940      -1.04063148       0.10565005 </v>
   <v>       0.03411409       0.02325959       0.23830724 </v>
   <v>      -0.03085596      -0.01692474       0.15986042 </v>
   <v>      -0.09036997       0.18034624       0.06133052 </v>
   <v>       0.10184021      -0.23178212      -0.00782140 </v>
   <v>      -0.04715743       0.14723152       0.24537423 </v>
   <v>       0.05535408      -0.15165169       0.02260579 </v>
   <v>       0.13042384       0.19960511      -0.02235784 </v>
   <v>      -0.14119306      -0.14746940       0.04673601 </v>
   <v>      -0.06643350       0.13911933       0.10230533 </v>
   <v>       0.06030838      -0.12151233       0.31925835 </v>
   <v>       0.14798579       0.09789003       0.05714705 </v>
   <v>      -0.14617328      -0.09149830      -0.02314418 </v>
   <v>      -0.02112868       0.11989932      -0.33169624 </v>
   <v>       0.02111922      -0.13955344      -0.14123295 </v>
   <v>      -0.04113305       0.11852261      -0.03948301 </v>
   <v>       0.03721452      -0.12479964       0.04045032 </v>
   <v>      -0.00529436       0.19000109      -0.07158106 </v>
   <v>       0.00637621      -0.19367875      -0.26157081 </v>
   <v>      -0.52061354       1.00242864       0.48403604 </v>
   <v>      -0.21523402      -0.10273676       1.08317772 </v>
   <v>       1.05028669      -0.01852876      -0.97486710 </v>
   <v>      -1.11003653      -0.05661706      -0.06117167 </v>
   <v>       0.07284520       0.03146617      -0.00438445 </v>
   <v>       0.67753139      -0.84037606      -0.60551284 </v>
   <v>       1.03638752      -0.08940103       1.27203249 </v>
   <v>      -1.07312133      -0.04071403       0.35701166 </v>
   <v>      -0.38425058      -0.82668684       0.45709546 </v>
   <v>       1.14993286       0.11220212       1.04617178 </v>
   <v>      -0.13462189       0.04726985      -1.17561571 </v>
   <v>      -0.01068186       0.01961385      -0.08850432 </v>
   <v>      -1.18121246      -0.02583314       0.14312558 </v>
   <v>       0.40882260       0.82904554      -0.47056036 </v>
   <v>       0.00018628      -0.02313863      -0.23993105 </v>
   <v>       0.11211395      -0.00345076      -1.33278674 </v>
  </varray>
  <varray name="stress" >
   <v>      -7.76407350       0.00580176       0.30898382 </v>
   <v>       0.00580171     -14.23047565       0.07654687 </v>
   <v>       0.30898386       0.07654670      -8.72072248 </v>
  </varray>
  <energy>
   <i name="e_fr_energy">   -312.11150288 </i>
   <i name="e_wo_entrp">   -312.11150288 </i>
   <i name="e_0_energy">      0.00000000 </i>
  </energy>
  <time name="totalsc"> 1461.19 1467.63</time>
  <eigenvalues>
   <array>
    <dimension dim="1">band</dimension>
    <dimension dim="2">kpoint</dimension>
    <dimension dim="3">spin</dimension>
    <field>eigene</field>
    <field>occ</field>
    <set>
     <set comment="spin 1">
      <set comment="kpoint 1">
       <r>  -40.2204    1.0000 </r>
       <r>  -40.1854    1.0000 </r>
       <r>  -40.0534    1.0000 </r>
       <r>  -40.0521    1.0000 </r>
       <r>  -39.8530    1.0000 </r>
       <r>  -39.7565    1.0000 </r>
       <r>  -39.7182    1.0000 </r>
       <r>  -39.6071    1.0000 </r>
       <r>  -39.5963    1.0000 </r>
       <r>  -39.3651    1.0000 </r>
       <r>  -18.9201    1.0000 </r>
       <r>  -18.9197    1.0000 </r>
       <r>  -18.8511    1.0000 </r>
       <r>  -18.8501    1.0000 </r>
       <r>  -18.8441    1.0000 </r>
       <r>  -18.8432    1.0000 </r>
       <r>  -18.7469    1.0000 </r>
       <r>  -18.7457    1.0000 </r>
       <r>  -18.7339    1.0000 </r>
       <r>  -18.7331    1.0000 </r>
       <r>  -18.7207    1.0000 </r>
       <r>  -18.7142    1.0000 </r>
       <r>  -18.7092    1.0000 </r>
       <r>  -18.7078    1.0000 </r>
       <r>  -18.7043    1.0000 </r>
       <r>  -18.6985    1.0000 </r>
       <r>  -18.6532    1.0000 </r>
       <r>  -18.6464    1.0000 </r>
       <r>  -18.6433    1.0000 </r>
       <r>  -18.6419    1.0000 </r>
       <r>  -18.6415    1.0000 </r>
       <r>  -18.6401    1.0000 </r>
       <r>  -18.6387    1.0000 </r>
       <r>  -18.6370    1.0000 </r>
       <r>  -18.6366    1.0000 </r>
       <r>  -18.6328    1.0000 </r>
       <r>  -18.6324    1.0000 </r>
       <r>  -18.6322    1.0000 </r>
       <r>  -18.6296    1.0000 </r>
       <r>  -18.6294    1.0000 </r>
       <r>  -18.6293    1.0000 </r>
       <r>  -18.6281    1.0000 </r>
       <r>  -18.6271    1.0000 </r>
       <r>  -18.6260    1.0000 </r>
       <r>  -18.6241    1.0000 </r>
       <r>  -18.6230    1.0000 </r>
       <r>  -18.6207    1.0000 </r>
       <r>  -18.6191    1.0000 </r>
       <r>  -18.6177    1.0000 </r>
       <r>  -18.6159    1.0000 </r>
       <r>  -18.5645    1.0000 </r>
       <r>  -18.5628    1.0000 </r>
       <r>  -18.5611    1.0000 </r>
       <r>  -18.5574    1.0000 </r>
       <r>  -18.5526    1.0000 </r>
       <r>  -18.5511    1.0000 </r>
       <r>  -18.5478    1.0000 </r>
       <r>  -18.5417    1.0000 </r>
       <r>  -18.5416    1.0000 </r>
       <r>  -18.5349    1.0000 </r>
       <r>  -18.4953    1.0000 </r>
       <r>  -18.4923    1.0000 </r>
       <r>  -18.4847    1.0000 </r>
       <r>  -18.4829    1.0000 </r>
       <r>  -18.4813    1.0000 </r>
       <r>  -18.4805    1.0000 </r>
       <r>  -18.4786    1.0000 </r>
       <r>  -18.4773    1.0000 </r>
       <r>  -18.4742    1.0000 </r>
       <r>  -18.4739    1.0000 </r>
       <r>  -18.4729    1.0000 </r>
       <r>  -18.4719    1.0000 </r>
       <r>  -18.4703    1.0000 </r>
       <r>  -18.4694    1.0000 </r>
       <r>  -18.4673    1.0000 </r>
       <r>  -18.4631    1.0000 </r>
       <r>  -18.4079    1.0000 </r>
       <r>  -18.3995    1.0000 </r>
       <r>  -18.3901    1.0000 </r>
       <r>  -18.3897    1.0000 </r>
       <r>  -18.3874    1.0000 </r>
       <r>  -18.3817    1.0000 </r>
       <r>  -18.3767    1.0000 </r>
       <r>  -18.3690    1.0000 </r>
       <r>  -18.2976    1.0000 </r>
       <r>  -18.2909    1.0000 </r>
       <r>  -18.1826    1.0000 </r>
       <r>  -18.1816    1.0000 </r>
       <r>  -18.1689    1.0000 </r>
       <r>  -18.1551    1.0000 </r>
       <r>  -13.5326    1.0000 </r>
       <r>  -13.4621    1.0000 </r>
       <r>  -12.9136    1.0000 </r>
       <r>  -12.8340    1.0000 </r>
       <r>  -12.7857    1.0000 </r>
       <r>  -12.7569    1.0000 </r>
       <r>  -12.7509    1.0000 </r>
       <r>  -12.6872    1.0000 </r>
       <r>  -12.6787    1.0000 </r>
       <r>  -12.6719    1.0000 </r>
       <r>  -12.6473    1.0000 </r>
       <r>  -12.6143    1.0000 </r>
       <r>  -12.5925    1.0000 </r>
       <r>  -12.5375    1.0000 </r>
       <r>  -11.9637    1.0000 </r>
       <r>  -11.9092    1.0000 </r>
       <r>   -9.3201    1.0000 </r>
       <r>   -9.0253    1.0000 </r>
       <r>   -8.5203    1.0000 </r>
       <r>   -8.4983    1.0000 </r>
       <r>   -8.4783    1.0000 </r>
       <r>   -8.4361    1.0000 </r>
       <r>   -8.2983    1.0000 </r>
       <r>   -8.2772    1.0000 </r>
       <r>   -8.2516    1.0000 </r>
       <r>   -8.2122    1.0000 </r>
       <r>   -8.0204    1.0000 </r>
       <r>   -8.0186    1.0000 </r>
       <r>   -7.9854    1.0000 </r>
       <r>   -7.9841    1.0000 </r>
       <r>   -7.3488    1.0000 </r>
       <r>   -7.3476    1.0000 </r>
       <r>   -6.3641    1.0000 </r>
       <r>   -6.3588    1.0000 </r>
       <r>   -6.3409    1.0000 </r>
       <r>   -6.3321    1.0000 </r>
       <r>   -5.5219    1.0000 </r>
       <r>   -5.4872    1.0000 </r>
       <r>   -5.3560    1.0000 </r>
       <r>   -5.3336    1.0000 </r>
       <r>   -5.3283    1.0000 </r>
       <r>   -5.2467    1.0000 </r>
       <r>   -5.1981    1.0000 </r>
       <r>   -5.1625    1.0000 </r>
       <r>   -5.1175    1.0000 </r>
       <r>   -5.0508    1.0000 </r>
       <r>   -3.7999    1.0000 </r>
       <r>   -3.6473    1.0000 </r>
       <r>   -1.3839    1.0000 </r>
       <r>   -1.3519    1.0000 </r>
       <r>   -1.0578    1.0000 </r>
       <r>   -1.0313    1.0000 </r>
       <r>   -0.5241    1.0000 </r>
       <r>   -0.4937    1.0000 </r>
       <r>   -0.4723    1.0000 </r>
       <r>   -0.4467    1.0000 </r>
       <r>   -0.1650    1.0000 </r>
       <r>   -0.1628    1.0000 </r>
       <r>   -0.1491    1.0000 </r>
       <r>   -0.1238    1.0000 </r>
       <r>    0.0879    1.0000 </r>
       <r>    0.1605    1.0000 </r>
       <r>    0.3675    1.0000 </r>
       <r>    0.4294    1.0000 </r>
       <r>    0.5626    1.0000 </r>
       <r>    0.5832    1.0000 </r>
       <r>    0.6016    1.0000 </r>
       <r>    0.6828    1.0000 </r>
       <r>    0.7021    1.0000 </r>
       <r>    0.7096    1.0000 </r>
       <r>    0.7418    1.0000 </r>
       <r>    0.7697    1.0000 </r>
       <r>    0.8454    1.0000 </r>
       <r>    0.8874    1.0000 </r>
       <r>    0.9550    1.0000 </r>
       <r>    0.9693    1.0000 </r>
       <r>    0.9924    1.0000 </r>
       <r>    1.0198    1.0000 </r>
       <r>    1.0648    1.0000 </r>
       <r>    1.1230    1.0000 </r>
       <r>    1.1365    1.0000 </r>
       <r>    1.1854    1.0000 </r>
       <r>    1.2540    1.0000 </r>
       <r>    1.2925    1.0000 </r>
       <r>    1.3316    1.0000 </r>
       <r>    1.3586    1.0000 </r>
       <r>    1.4365    1.0000 </r>
       <r>    1.5064    1.0000 </r>
       <r>    1.5189    1.0000 </r>
       <r>    1.5597    1.0000 </r>
       <r>    1.5977    1.0000 </r>
       <r>    1.6116    1.0000 </r>
       <r>    1.7017    1.0000 </r>
       <r>    1.7376    1.0000 </r>
       <r>    1.8038    1.0000 </r>
       <r>    1.8355    1.0000 </r>
       <r>    1.8540    1.0000 </r>
       <r>    1.8692    1.0000 </r>
       <r>    1.8906    1.0000 </r>
       <r>    2.0022    1.0000 </r>
       <r>    2.1134    1.0000 </r>
       <r>    2.1514    1.0000 </r>
       <r>    2.1847    1.0000 </r>
       <r>    2.2749    1.0000 </r>
       <r>    2.3113    1.0000 </r>
       <r>    2.3644    1.0000 </r>
       <r>    2.5127    1.0000 </r>
       <r>    2.5802    1.0000 </r>
       <r>    2.5846    1.0000 </r>
       <r>    2.5856    1.0000 </r>
       <r>    2.5975    1.0000 </r>
       <r>    2.6014    1.0000 </r>
       <r>    2.6266    1.0000 </r>
       <r>    2.6657    1.0000 </r>
       <r>    2.6846    1.0000 </r>
       <r>    2.6895    1.0000 </r>
       <r>    2.7385    1.0000 </r>
       <r>    2.7530    1.0000 </r>
       <r>    2.8111    1.0000 </r>
       <r>    2.8339    1.0000 </r>
       <r>    2.8540    1.0000 </r>
       <r>    2.8968    1.0000 </r>
       <r>    2.9193    1.0000 </r>
       <r>    2.9450    1.0000 </r>
       <r>    2.9564    1.0000 </r>
       <r>    2.9829    1.0000 </r>
       <r>    3.0560    1.0000 </r>
       <r>    3.0678    1.0000 </r>
       <r>    3.1097    1.0000 </r>
       <r>    3.1444    1.0000 </r>
       <r>    3.1659    1.0000 </r>
       <r>    3.1757    1.0000 </r>
       <r>    3.1832    1.0000 </r>
       <r>    3.2418    1.0000 </r>
       <r>    3.2939    1.0000 </r>
       <r>    3.3417    1.0000 </r>
       <r>    3.3931    1.0000 </r>
       <r>    3.4530    1.0000 </r>
       <r>    3.4759    1.0000 </r>
       <r>    3.7195    1.0000 </r>
       <r>    4.1972    1.0000 </r>
       <r>    4.2057    1.0000 </r>
       <r>    4.2288    1.0000 </r>
       <r>    4.2316    1.0000 </r>
       <r>    5.0965    0.0000 </r>
       <r>    5.1016    0.0000 </r>
       <r>    5.1361    0.0000 </r>
       <r>    5.1377    0.0000 </r>
       <r>    5.7671    0.0000 </r>
       <r>    5.7743    0.0000 </r>
       <r>    5.7999    0.0000 </r>
       <r>    5.8069    0.0000 </r>
       <r>    6.1079    0.0000 </r>
       <r>    6.1229    0.0000 </r>
       <r>    6.1413    0.0000 </r>
       <r>    6.1574    0.0000 </r>
       <r>    6.2438    0.0000 </r>
       <r>    6.2496    0.0000 </r>
       <r>    6.2703    0.0000 </r>
       <r>    6.2827    0.0000 </r>
       <r>    7.1471    0.0000 </r>
       <r>    7.2203    0.0000 </r>
       <r>    7.2416    0.0000 </r>
       <r>    7.3040    0.0000 </r>
       <r>    7.8125    0.0000 </r>
       <r>    7.9042    0.0000 </r>
       <r>    7.9313    0.0000 </r>
       <r>    7.9523    0.0000 </r>
       <r>    8.0092    0.0000 </r>
       <r>    8.0695    0.0000 </r>
       <r>    8.0933    0.0000 </r>
       <r>    8.1956    0.0000 </r>
       <r>    8.4526    0.0000 </r>
       <r>    8.5431    0.0000 </r>
       <r>    8.6813    0.0000 </r>
       <r>    8.7796    0.0000 </r>
       <r>    8.7923    0.0000 </r>
       <r>    8.9370    0.0000 </r>
       <r>    8.9806    0.0000 </r>
       <r>    8.9816    0.0000 </r>
       <r>    9.0241    0.0000 </r>
       <r>    9.0363    0.0000 </r>
       <r>    9.0718    0.0000 </r>
       <r>    9.1374    0.0000 </r>
       <r>    9.1503    0.0000 </r>
       <r>    9.1602    0.0000 </r>
       <r>    9.2448    0.0000 </r>
       <r>    9.2534    0.0000 </r>
       <r>    9.4673    0.0000 </r>
       <r>    9.6044    0.0000 </r>
      </set>
      <set comment="kpoint 2">
       <r>  -40.2204    1.0000 </r>
       <r>  -40.1854    1.0000 </r>
       <r>  -40.0534    1.0000 </r>
       <r>  -40.0521    1.0000 </r>
       <r>  -39.8530    1.0000 </r>
       <r>  -39.7565    1.0000 </r>
       <r>  -39.7182    1.0000 </r>
       <r>  -39.6071    1.0000 </r>
       <r>  -39.5963    1.0000 </r>
       <r>  -39.3651    1.0000 </r>
       <r>  -18.9201    1.0000 </r>
       <r>  -18.9197    1.0000 </r>
       <r>  -18.8510    1.0000 </r>
       <r>  -18.8500    1.0000 </r>
       <r>  -18.8441    1.0000 </r>
       <r>  -18.8432    1.0000 </r>
       <r>  -18.7469    1.0000 </r>
       <r>  -18.7457    1.0000 </r>
       <r>  -18.7339    1.0000 </r>
       <r>  -18.7331    1.0000 </r>
       <r>  -18.7208    1.0000 </r>
       <r>  -18.7143    1.0000 </r>
       <r>  -18.7092    1.0000 </r>
       <r>  -18.7078    1.0000 </r>
       <r>  -18.7043    1.0000 </r>
       <r>  -18.6984    1.0000 </r>
       <r>  -18.6530    1.0000 </r>
       <r>  -18.6463    1.0000 </r>
       <r>  -18.6434    1.0000 </r>
       <r>  -18.6417    1.0000 </r>
       <r>  -18.6399    1.0000 </r>
       <r>  -18.6397    1.0000 </r>
       <r>  -18.6394    1.0000 </r>
       <r>  -18.6384    1.0000 </r>
       <r>  -18.6357    1.0000 </r>
       <r>  -18.6338    1.0000 </r>
       <r>  -18.6330    1.0000 </r>
       <r>  -18.6322    1.0000 </r>
       <r>  -18.6301    1.0000 </r>
       <r>  -18.6300    1.0000 </r>
       <r>  -18.6296    1.0000 </r>
       <r>  -18.6286    1.0000 </r>
       <r>  -18.6266    1.0000 </r>
       <r>  -18.6259    1.0000 </r>
       <r>  -18.6236    1.0000 </r>
       <r>  -18.6227    1.0000 </r>
       <r>  -18.6205    1.0000 </r>
       <r>  -18.6190    1.0000 </r>
       <r>  -18.6178    1.0000 </r>
       <r>  -18.6155    1.0000 </r>
       <r>  -18.5645    1.0000 </r>
       <r>  -18.5628    1.0000 </r>
       <r>  -18.5611    1.0000 </r>
       <r>  -18.5574    1.0000 </r>
       <r>  -18.5526    1.0000 </r>
       <r>  -18.5512    1.0000 </r>
       <r>  -18.5478    1.0000 </r>
       <r>  -18.5417    1.0000 </r>
       <r>  -18.5416    1.0000 </r>
       <r>  -18.5349    1.0000 </r>
       <r>  -18.4953    1.0000 </r>
       <r>  -18.4923    1.0000 </r>
       <r>  -18.4847    1.0000 </r>
       <r>  -18.4829    1.0000 </r>
       <r>  -18.4813    1.0000 </r>
       <r>  -18.4805    1.0000 </r>
       <r>  -18.4786    1.0000 </r>
       <r>  -18.4773    1.0000 </r>
       <r>  -18.4742    1.0000 </r>
       <r>  -18.4739    1.0000 </r>
       <r>  -18.4728    1.0000 </r>
       <r>  -18.4719    1.0000 </r>
       <r>  -18.4702    1.0000 </r>
       <r>  -18.4695    1.0000 </r>
       <r>  -18.4673    1.0000 </r>
       <r>  -18.4631    1.0000 </r>
       <r>  -18.4079    1.0000 </r>
       <r>  -18.3995    1.0000 </r>
       <r>  -18.3902    1.0000 </r>
       <r>  -18.3897    1.0000 </r>
       <r>  -18.3874    1.0000 </r>
       <r>  -18.3817    1.0000 </r>
       <r>  -18.3767    1.0000 </r>
       <r>  -18.3690    1.0000 </r>
       <r>  -18.2976    1.0000 </r>
       <r>  -18.2909    1.0000 </r>
       <r>  -18.1826    1.0000 </r>
       <r>  -18.1816    1.0000 </r>
       <r>  -18.1689    1.0000 </r>
       <r>  -18.1551    1.0000 </r>
       <r>  -13.5313    1.0000 </r>
       <r>  -13.4634    1.0000 </r>
       <r>  -12.9102    1.0000 </r>
       <r>  -12.8353    1.0000 </r>
       <r>  -12.7862    1.0000 </r>
       <r>  -12.7624    1.0000 </r>
       <r>  -12.7421    1.0000 </r>
       <r>  -12.7150    1.0000 </r>
       <r>  -12.6717    1.0000 </r>
       <r>  -12.6558    1.0000 </r>
       <r>  -12.6413    1.0000 </r>
       <r>  -12.6189    1.0000 </r>
       <r>  -12.5932    1.0000 </r>
       <r>  -12.5384    1.0000 </r>
       <r>  -11.9643    1.0000 </r>
       <r>  -11.9086    1.0000 </r>
       <r>   -9.1136    1.0000 </r>
       <r>   -9.1003    1.0000 </r>
       <r>   -8.8395    1.0000 </r>
       <r>   -8.8240    1.0000 </r>
       <r>   -8.3175    1.0000 </r>
       <r>   -8.3140    1.0000 </r>
       <r>   -8.3075    1.0000 </r>
       <r>   -8.2986    1.0000 </r>
       <r>   -8.1295    1.0000 </r>
       <r>   -8.1264    1.0000 </r>
       <r>   -8.1211    1.0000 </r>
       <r>   -8.1133    1.0000 </r>
       <r>   -7.6829    1.0000 </r>
       <r>   -7.6796    1.0000 </r>
       <r>   -7.5724    1.0000 </r>
       <r>   -7.5700    1.0000 </r>
       <r>   -5.9710    1.0000 </r>
       <r>   -5.9320    1.0000 </r>
       <r>   -5.8835    1.0000 </r>
       <r>   -5.8814    1.0000 </r>
       <r>   -5.8459    1.0000 </r>
       <r>   -5.7709    1.0000 </r>
       <r>   -5.7332    1.0000 </r>
       <r>   -5.7316    1.0000 </r>
       <r>   -5.6327    1.0000 </r>
       <r>   -5.5825    1.0000 </r>
       <r>   -5.4946    1.0000 </r>
       <r>   -5.4778    1.0000 </r>
       <r>   -4.4235    1.0000 </r>
       <r>   -4.4078    1.0000 </r>
       <r>   -4.2563    1.0000 </r>
       <r>   -4.2391    1.0000 </r>
       <r>   -1.1315    1.0000 </r>
       <r>   -1.1152    1.0000 </r>
       <r>   -0.8018    1.0000 </r>
       <r>   -0.7924    1.0000 </r>
       <r>   -0.3875    1.0000 </r>
       <r>   -0.3533    1.0000 </r>
       <r>   -0.0094    1.0000 </r>
       <r>    0.0595    1.0000 </r>
       <r>    0.0806    1.0000 </r>
       <r>    0.1221    1.0000 </r>
       <r>    0.1578    1.0000 </r>
       <r>    0.2423    1.0000 </r>
       <r>    0.2463    1.0000 </r>
       <r>    0.3000    1.0000 </r>
       <r>    0.3295    1.0000 </r>
       <r>    0.3410    1.0000 </r>
       <r>    0.5506    1.0000 </r>
       <r>    0.5649    1.0000 </r>
       <r>    0.5767    1.0000 </r>
       <r>    0.6040    1.0000 </r>
       <r>    0.6244    1.0000 </r>
       <r>    0.6383    1.0000 </r>
       <r>    0.7015    1.0000 </r>
       <r>    0.7178    1.0000 </r>
       <r>    0.7277    1.0000 </r>
       <r>    0.8065    1.0000 </r>
       <r>    0.8960    1.0000 </r>
       <r>    0.9593    1.0000 </r>
       <r>    0.9751    1.0000 </r>
       <r>    0.9969    1.0000 </r>
       <r>    1.0705    1.0000 </r>
       <r>    1.1321    1.0000 </r>
       <r>    1.1858    1.0000 </r>
       <r>    1.2300    1.0000 </r>
       <r>    1.2702    1.0000 </r>
       <r>    1.2920    1.0000 </r>
       <r>    1.3545    1.0000 </r>
       <r>    1.3662    1.0000 </r>
       <r>    1.3885    1.0000 </r>
       <r>    1.4345    1.0000 </r>
       <r>    1.4755    1.0000 </r>
       <r>    1.5003    1.0000 </r>
       <r>    1.5262    1.0000 </r>
       <r>    1.5608    1.0000 </r>
       <r>    1.6560    1.0000 </r>
       <r>    1.6844    1.0000 </r>
       <r>    1.7406    1.0000 </r>
       <r>    1.7649    1.0000 </r>
       <r>    1.8470    1.0000 </r>
       <r>    1.8845    1.0000 </r>
       <r>    1.9217    1.0000 </r>
       <r>    1.9561    1.0000 </r>
       <r>    1.9842    1.0000 </r>
       <r>    2.0031    1.0000 </r>
       <r>    2.0354    1.0000 </r>
       <r>    2.1006    1.0000 </r>
       <r>    2.1166    1.0000 </r>
       <r>    2.1666    1.0000 </r>
       <r>    2.1782    1.0000 </r>
       <r>    2.2730    1.0000 </r>
       <r>    2.3054    1.0000 </r>
       <r>    2.3451    1.0000 </r>
       <r>    2.4175    1.0000 </r>
       <r>    2.4207    1.0000 </r>
       <r>    2.4908    1.0000 </r>
       <r>    2.5471    1.0000 </r>
       <r>    2.6113    1.0000 </r>
       <r>    2.6211    1.0000 </r>
       <r>    2.6485    1.0000 </r>
       <r>    2.6606    1.0000 </r>
       <r>    2.7159    1.0000 </r>
       <r>    2.7354    1.0000 </r>
       <r>    2.7553    1.0000 </r>
       <r>    2.7847    1.0000 </r>
       <r>    2.8190    1.0000 </r>
       <r>    2.8752    1.0000 </r>
       <r>    2.8858    1.0000 </r>
       <r>    2.9063    1.0000 </r>
       <r>    2.9325    1.0000 </r>
       <r>    2.9502    1.0000 </r>
       <r>    3.0448    1.0000 </r>
       <r>    3.0774    1.0000 </r>
       <r>    3.0939    1.0000 </r>
       <r>    3.1277    1.0000 </r>
       <r>    3.1394    1.0000 </r>
       <r>    3.1724    1.0000 </r>
       <r>    3.2746    1.0000 </r>
       <r>    3.3944    1.0000 </r>
       <r>    3.4957    1.0000 </r>
       <r>    3.5208    1.0000 </r>
       <r>    3.5404    1.0000 </r>
       <r>    3.5570    1.0000 </r>
       <r>    3.5729    1.0000 </r>
       <r>    3.5853    1.0000 </r>
       <r>    3.6335    1.0000 </r>
       <r>    3.8764    1.0000 </r>
       <r>    5.6814    0.0000 </r>
       <r>    5.6927    0.0000 </r>
       <r>    5.6994    0.0000 </r>
       <r>    5.7078    0.0000 </r>
       <r>    5.7626    0.0000 </r>
       <r>    5.7691    0.0000 </r>
       <r>    5.8013    0.0000 </r>
       <r>    5.8060    0.0000 </r>
       <r>    7.2390    0.0000 </r>
       <r>    7.2544    0.0000 </r>
       <r>    7.2892    0.0000 </r>
       <r>    7.3773    0.0000 </r>
       <r>    7.3896    0.0000 </r>
       <r>    7.4478    0.0000 </r>
       <r>    7.4526    0.0000 </r>
       <r>    7.4619    0.0000 </r>
       <r>    7.4816    0.0000 </r>
       <r>    7.4845    0.0000 </r>
       <r>    7.5178    0.0000 </r>
       <r>    7.5317    0.0000 </r>
       <r>    7.8480    0.0000 </r>
       <r>    7.8509    0.0000 </r>
       <r>    7.8734    0.0000 </r>
       <r>    7.8748    0.0000 </r>
       <r>    7.8933    0.0000 </r>
       <r>    7.9168    0.0000 </r>
       <r>    7.9574    0.0000 </r>
       <r>    7.9681    0.0000 </r>
       <r>    8.0055    0.0000 </r>
       <r>    8.0505    0.0000 </r>
       <r>    8.0529    0.0000 </r>
       <r>    8.1307    0.0000 </r>
       <r>    8.3188    0.0000 </r>
       <r>    8.3812    0.0000 </r>
       <r>    8.4087    0.0000 </r>
       <r>    8.5595    0.0000 </r>
       <r>    8.6768    0.0000 </r>
       <r>    8.6965    0.0000 </r>
       <r>    8.7687    0.0000 </r>
       <r>    8.7766    0.0000 </r>
       <r>    8.8342    0.0000 </r>
       <r>    8.8422    0.0000 </r>
       <r>    8.9358    0.0000 </r>
       <r>    8.9417    0.0000 </r>
       <r>    9.2009    0.0000 </r>
       <r>    9.2189    0.0000 </r>
      </set>
      <set comment="kpoint 3">
       <r>  -40.2204    1.0000 </r>
       <r>  -40.1854    1.0000 </r>
       <r>  -40.0534    1.0000 </r>
       <r>  -40.0521    1.0000 </r>
       <r>  -39.8530    1.0000 </r>
       <r>  -39.7565    1.0000 </r>
       <r>  -39.7182    1.0000 </r>
       <r>  -39.6071    1.0000 </r>
       <r>  -39.5963    1.0000 </r>
       <r>  -39.3651    1.0000 </r>
       <r>  -18.9205    1.0000 </r>
       <r>  -18.9193    1.0000 </r>
       <r>  -18.8511    1.0000 </r>
       <r>  -18.8501    1.0000 </r>
       <r>  -18.8441    1.0000 </r>
       <r>  -18.8432    1.0000 </r>
       <r>  -18.7469    1.0000 </r>
       <r>  -18.7457    1.0000 </r>
       <r>  -18.7339    1.0000 </r>
       <r>  -18.7331    1.0000 </r>
       <r>  -18.7207    1.0000 </r>
       <r>  -18.7142    1.0000 </r>
       <r>  -18.7092    1.0000 </r>
       <r>  -18.7078    1.0000 </r>
       <r>  -18.7043    1.0000 </r>
       <r>  -18.6985    1.0000 </r>
       <r>  -18.6532    1.0000 </r>
       <r>  -18.6464    1.0000 </r>
       <r>  -18.6433    1.0000 </r>
       <r>  -18.6419    1.0000 </r>
       <r>  -18.6414    1.0000 </r>
       <r>  -18.6401    1.0000 </r>
       <r>  -18.6387    1.0000 </r>
       <r>  -18.6370    1.0000 </r>
       <r>  -18.6366    1.0000 </r>
       <r>  -18.6328    1.0000 </r>
       <r>  -18.6324    1.0000 </r>
       <r>  -18.6322    1.0000 </r>
       <r>  -18.6296    1.0000 </r>
       <r>  -18.6295    1.0000 </r>
       <r>  -18.6292    1.0000 </r>
       <r>  -18.6281    1.0000 </r>
       <r>  -18.6271    1.0000 </r>
       <r>  -18.6259    1.0000 </r>
       <r>  -18.6242    1.0000 </r>
       <r>  -18.6229    1.0000 </r>
       <r>  -18.6207    1.0000 </r>
       <r>  -18.6191    1.0000 </r>
       <r>  -18.6177    1.0000 </r>
       <r>  -18.6159    1.0000 </r>
       <r>  -18.5645    1.0000 </r>
       <r>  -18.5628    1.0000 </r>
       <r>  -18.5611    1.0000 </r>
       <r>  -18.5574    1.0000 </r>
       <r>  -18.5526    1.0000 </r>
       <r>  -18.5511    1.0000 </r>
       <r>  -18.5478    1.0000 </r>
       <r>  -18.5417    1.0000 </r>
       <r>  -18.5416    1.0000 </r>
       <r>  -18.5349    1.0000 </r>
       <r>  -18.4953    1.0000 </r>
       <r>  -18.4923    1.0000 </r>
       <r>  -18.4847    1.0000 </r>
       <r>  -18.4829    1.0000 </r>
       <r>  -18.4813    1.0000 </r>
       <r>  -18.4805    1.0000 </r>
       <r>  -18.4786    1.0000 </r>
       <r>  -18.4773    1.0000 </r>
       <r>  -18.4741    1.0000 </r>
       <r>  -18.4739    1.0000 </r>
       <r>  -18.4728    1.0000 </r>
       <r>  -18.4719    1.0000 </r>
       <r>  -18.4703    1.0000 </r>
       <r>  -18.4694    1.0000 </r>
       <r>  -18.4673    1.0000 </r>
       <r>  -18.4631    1.0000 </r>
       <r>  -18.4079    1.0000 </r>
       <r>  -18.3995    1.0000 </r>
       <r>  -18.3901    1.0000 </r>
       <r>  -18.3897    1.0000 </r>
       <r>  -18.3874    1.0000 </r>
       <r>  -18.3817    1.0000 </r>
       <r>  -18.3767    1.0000 </r>
       <r>  -18.3690    1.0000 </r>
       <r>  -18.2976    1.0000 </r>
       <r>  -18.2909    1.0000 </r>
       <r>  -18.1826    1.0000 </r>
       <r>  -18.1816    1.0000 </r>
       <r>  -18.1689    1.0000 </r>
       <r>  -18.1551    1.0000 </r>
       <r>  -13.5323    1.0000 </r>
       <r>  -13.4622    1.0000 </r>
       <r>  -12.9122    1.0000 </r>
       <r>  -12.8341    1.0000 </r>
       <r>  -12.7853    1.0000 </r>
       <r>  -12.7565    1.0000 </r>
       <r>  -12.7507    1.0000 </r>
       <r>  -12.6872    1.0000 </r>
       <r>  -12.6789    1.0000 </r>
       <r>  -12.6718    1.0000 </r>
       <r>  -12.6486    1.0000 </r>
       <r>  -12.6153    1.0000 </r>
       <r>  -12.5927    1.0000 </r>
       <r>  -12.5382    1.0000 </r>
       <r>  -11.9629    1.0000 </r>
       <r>  -11.9107    1.0000 </r>
       <r>   -9.3102    1.0000 </r>
       <r>   -9.0322    1.0000 </r>
       <r>   -8.5393    1.0000 </r>
       <r>   -8.5153    1.0000 </r>
       <r>   -8.4961    1.0000 </r>
       <r>   -8.4536    1.0000 </r>
       <r>   -8.2771    1.0000 </r>
       <r>   -8.2584    1.0000 </r>
       <r>   -8.2311    1.0000 </r>
       <r>   -8.1929    1.0000 </r>
       <r>   -8.0244    1.0000 </r>
       <r>   -8.0225    1.0000 </r>
       <r>   -7.9883    1.0000 </r>
       <r>   -7.9872    1.0000 </r>
       <r>   -7.3516    1.0000 </r>
       <r>   -7.3505    1.0000 </r>
       <r>   -6.3566    1.0000 </r>
       <r>   -6.3471    1.0000 </r>
       <r>   -6.3321    1.0000 </r>
       <r>   -6.3214    1.0000 </r>
       <r>   -5.5375    1.0000 </r>
       <r>   -5.4719    1.0000 </r>
       <r>   -5.3906    1.0000 </r>
       <r>   -5.3808    1.0000 </r>
       <r>   -5.3740    1.0000 </r>
       <r>   -5.2637    1.0000 </r>
       <r>   -5.1471    1.0000 </r>
       <r>   -5.1055    1.0000 </r>
       <r>   -5.0719    1.0000 </r>
       <r>   -5.0041    1.0000 </r>
       <r>   -3.8732    1.0000 </r>
       <r>   -3.5623    1.0000 </r>
       <r>   -1.3192    1.0000 </r>
       <r>   -1.2950    1.0000 </r>
       <r>   -1.1450    1.0000 </r>
       <r>   -1.1086    1.0000 </r>
       <r>   -0.4092    1.0000 </r>
       <r>   -0.4064    1.0000 </r>
       <r>   -0.3946    1.0000 </r>
       <r>   -0.3786    1.0000 </r>
       <r>   -0.3279    1.0000 </r>
       <r>   -0.2927    1.0000 </r>
       <r>   -0.2570    1.0000 </r>
       <r>   -0.2386    1.0000 </r>
       <r>   -0.1449    1.0000 </r>
       <r>    0.0742    1.0000 </r>
       <r>    0.1127    1.0000 </r>
       <r>    0.2189    1.0000 </r>
       <r>    0.2869    1.0000 </r>
       <r>    0.3273    1.0000 </r>
       <r>    0.4144    1.0000 </r>
       <r>    0.4696    1.0000 </r>
       <r>    0.5313    1.0000 </r>
       <r>    0.6215    1.0000 </r>
       <r>    0.7612    1.0000 </r>
       <r>    0.7679    1.0000 </r>
       <r>    0.7986    1.0000 </r>
       <r>    0.8079    1.0000 </r>
       <r>    0.8156    1.0000 </r>
       <r>    0.8482    1.0000 </r>
       <r>    1.0040    1.0000 </r>
       <r>    1.1103    1.0000 </r>
       <r>    1.2113    1.0000 </r>
       <r>    1.2280    1.0000 </r>
       <r>    1.2400    1.0000 </r>
       <r>    1.3472    1.0000 </r>
       <r>    1.3796    1.0000 </r>
       <r>    1.4080    1.0000 </r>
       <r>    1.4911    1.0000 </r>
       <r>    1.5893    1.0000 </r>
       <r>    1.6140    1.0000 </r>
       <r>    1.6361    1.0000 </r>
       <r>    1.7075    1.0000 </r>
       <r>    1.7395    1.0000 </r>
       <r>    1.7658    1.0000 </r>
       <r>    1.7848    1.0000 </r>
       <r>    1.8192    1.0000 </r>
       <r>    1.8393    1.0000 </r>
       <r>    1.8707    1.0000 </r>
       <r>    1.9194    1.0000 </r>
       <r>    1.9581    1.0000 </r>
       <r>    1.9650    1.0000 </r>
       <r>    2.0121    1.0000 </r>
       <r>    2.0553    1.0000 </r>
       <r>    2.1580    1.0000 </r>
       <r>    2.1844    1.0000 </r>
       <r>    2.2344    1.0000 </r>
       <r>    2.3212    1.0000 </r>
       <r>    2.4298    1.0000 </r>
       <r>    2.4718    1.0000 </r>
       <r>    2.5126    1.0000 </r>
       <r>    2.5396    1.0000 </r>
       <r>    2.5621    1.0000 </r>
       <r>    2.5796    1.0000 </r>
       <r>    2.5889    1.0000 </r>
       <r>    2.5907    1.0000 </r>
       <r>    2.5982    1.0000 </r>
       <r>    2.6023    1.0000 </r>
       <r>    2.6547    1.0000 </r>
       <r>    2.6799    1.0000 </r>
       <r>    2.7439    1.0000 </r>
       <r>    2.7716    1.0000 </r>
       <r>    2.7735    1.0000 </r>
       <r>    2.8174    1.0000 </r>
       <r>    2.8369    1.0000 </r>
       <r>    2.8442    1.0000 </r>
       <r>    2.8916    1.0000 </r>
       <r>    2.9272    1.0000 </r>
       <r>    2.9513    1.0000 </r>
       <r>    2.9642    1.0000 </r>
       <r>    2.9859    1.0000 </r>
       <r>    3.0287    1.0000 </r>
       <r>    3.0374    1.0000 </r>
       <r>    3.0661    1.0000 </r>
       <r>    3.1883    1.0000 </r>
       <r>    3.3098    1.0000 </r>
       <r>    3.3471    1.0000 </r>
       <r>    3.3904    1.0000 </r>
       <r>    3.4185    1.0000 </r>
       <r>    3.4394    1.0000 </r>
       <r>    3.4515    1.0000 </r>
       <r>    3.4774    1.0000 </r>
       <r>    3.5689    1.0000 </r>
       <r>    3.6689    1.0000 </r>
       <r>    4.2458    1.0000 </r>
       <r>    4.2541    1.0000 </r>
       <r>    4.2797    1.0000 </r>
       <r>    4.2824    1.0000 </r>
       <r>    5.1656    0.0000 </r>
       <r>    5.1707    0.0000 </r>
       <r>    5.2016    0.0000 </r>
       <r>    5.2043    0.0000 </r>
       <r>    5.7757    0.0000 </r>
       <r>    5.7825    0.0000 </r>
       <r>    5.8066    0.0000 </r>
       <r>    5.8157    0.0000 </r>
       <r>    6.1649    0.0000 </r>
       <r>    6.1780    0.0000 </r>
       <r>    6.1858    0.0000 </r>
       <r>    6.2081    0.0000 </r>
       <r>    6.2565    0.0000 </r>
       <r>    6.2599    0.0000 </r>
       <r>    6.2869    0.0000 </r>
       <r>    6.2952    0.0000 </r>
       <r>    6.8112    0.0000 </r>
       <r>    6.9037    0.0000 </r>
       <r>    6.9790    0.0000 </r>
       <r>    7.0744    0.0000 </r>
       <r>    7.2776    0.0000 </r>
       <r>    7.3662    0.0000 </r>
       <r>    7.4119    0.0000 </r>
       <r>    7.5398    0.0000 </r>
       <r>    7.7551    0.0000 </r>
       <r>    7.8310    0.0000 </r>
       <r>    7.9417    0.0000 </r>
       <r>    7.9738    0.0000 </r>
       <r>    8.0169    0.0000 </r>
       <r>    8.3107    0.0000 </r>
       <r>    8.3436    0.0000 </r>
       <r>    8.4760    0.0000 </r>
       <r>    8.6766    0.0000 </r>
       <r>    8.8676    0.0000 </r>
       <r>    8.9005    0.0000 </r>
       <r>    8.9512    0.0000 </r>
       <r>    9.0151    0.0000 </r>
       <r>    9.0506    0.0000 </r>
       <r>    9.0834    0.0000 </r>
       <r>    9.0920    0.0000 </r>
       <r>    9.1076    0.0000 </r>
       <r>    9.1628    0.0000 </r>
       <r>    9.2000    0.0000 </r>
       <r>    9.2058    0.0000 </r>
       <r>    9.4963    0.0000 </r>
       <r>    9.7906    0.0000 </r>
      </set>
      <set comment="kpoint 4">
       <r>  -40.2204    1.0000 </r>
       <r>  -40.1854    1.0000 </r>
       <r>  -40.0534    1.0000 </r>
       <r>  -40.0521    1.0000 </r>
       <r>  -39.8530    1.0000 </r>
       <r>  -39.7565    1.0000 </r>
       <r>  -39.7182    1.0000 </r>
       <r>  -39.6071    1.0000 </r>
       <r>  -39.5963    1.0000 </r>
       <r>  -39.3651    1.0000 </r>
       <r>  -18.9205    1.0000 </r>
       <r>  -18.9193    1.0000 </r>
       <r>  -18.8510    1.0000 </r>
       <r>  -18.8500    1.0000 </r>
       <r>  -18.8441    1.0000 </r>
       <r>  -18.8432    1.0000 </r>
       <r>  -18.7469    1.0000 </r>
       <r>  -18.7457    1.0000 </r>
       <r>  -18.7339    1.0000 </r>
       <r>  -18.7331    1.0000 </r>
       <r>  -18.7208    1.0000 </r>
       <r>  -18.7143    1.0000 </r>
       <r>  -18.7092    1.0000 </r>
       <r>  -18.7077    1.0000 </r>
       <r>  -18.7043    1.0000 </r>
       <r>  -18.6984    1.0000 </r>
       <r>  -18.6530    1.0000 </r>
       <r>  -18.6463    1.0000 </r>
       <r>  -18.6434    1.0000 </r>
       <r>  -18.6417    1.0000 </r>
       <r>  -18.6399    1.0000 </r>
       <r>  -18.6397    1.0000 </r>
       <r>  -18.6394    1.0000 </r>
       <r>  -18.6384    1.0000 </r>
       <r>  -18.6357    1.0000 </r>
       <r>  -18.6338    1.0000 </r>
       <r>  -18.6330    1.0000 </r>
       <r>  -18.6322    1.0000 </r>
       <r>  -18.6302    1.0000 </r>
       <r>  -18.6300    1.0000 </r>
       <r>  -18.6296    1.0000 </r>
       <r>  -18.6286    1.0000 </r>
       <r>  -18.6267    1.0000 </r>
       <r>  -18.6258    1.0000 </r>
       <r>  -18.6237    1.0000 </r>
       <r>  -18.6227    1.0000 </r>
       <r>  -18.6205    1.0000 </r>
       <r>  -18.6190    1.0000 </r>
       <r>  -18.6177    1.0000 </r>
       <r>  -18.6155    1.0000 </r>
       <r>  -18.5644    1.0000 </r>
       <r>  -18.5628    1.0000 </r>
       <r>  -18.5611    1.0000 </r>
       <r>  -18.5574    1.0000 </r>
       <r>  -18.5526    1.0000 </r>
       <r>  -18.5512    1.0000 </r>
       <r>  -18.5478    1.0000 </r>
       <r>  -18.5417    1.0000 </r>
       <r>  -18.5416    1.0000 </r>
       <r>  -18.5349    1.0000 </r>
       <r>  -18.4953    1.0000 </r>
       <r>  -18.4923    1.0000 </r>
       <r>  -18.4847    1.0000 </r>
       <r>  -18.4829    1.0000 </r>
       <r>  -18.4813    1.0000 </r>
       <r>  -18.4805    1.0000 </r>
       <r>  -18.4786    1.0000 </r>
       <r>  -18.4774    1.0000 </r>
       <r>  -18.4741    1.0000 </r>
       <r>  -18.4739    1.0000 </r>
[...]
       <r>    8.8756    0.0000 </r>
       <r>    8.8878    0.0000 </r>
       <r>    8.8974    0.0000 </r>
       <r>    8.9059    0.0000 </r>
       <r>    8.9264    0.0000 </r>
      </set>
     </set>
    </set>
   </array>
  </eigenvalues>
  <separator name="orbital magnetization" >
   <v name="MAGDIPOLOUT">      0.00000000      0.00000000      0.00000000</v>
  </separator>
  <dos>
   <i name="efermi">      4.31437527 </i>
   <total>
    <array>
     <dimension dim="1">gridpoints</dimension>
     <dimension dim="2">spin</dimension>
     <field>energy</field>
     <field>total</field>
     <field>integrated</field>
     <set>
      <set comment="spin 1">
       <r>   -42.7209     0.0000     0.0000 </r>
       <r>   -42.5376     0.0000     0.0000 </r>
       <r>   -42.3542     0.0000     0.0000 </r>
       <r>   -42.1708     0.0000     0.0000 </r>
       <r>   -41.9874     0.0000     0.0000 </r>
       <r>   -41.8041     0.0000     0.0000 </r>
       <r>   -41.6207     0.0000     0.0000 </r>
       <r>   -41.4373     0.0000     0.0000 </r>
       <r>   -41.2539     0.0000     0.0000 </r>
       <r>   -41.0706     0.0000     0.0000 </r>
       <r>   -40.8872     0.0000     0.0000 </r>
       <r>   -40.7038     0.0000     0.0000 </r>
       <r>   -40.5204     0.0000     0.0000 </r>
       <r>   -40.3371     0.0000     0.0000 </r>
       <r>   -40.1537     0.0000     4.0000 </r>
       <r>   -39.9703     0.0000     8.0000 </r>
       <r>   -39.7870     0.0000    10.0000 </r>
       <r>   -39.6036     0.0000    16.0000 </r>
       <r>   -39.4202     0.0000    18.0000 </r>
       <r>   -39.2368     0.0000    20.0000 </r>
       <r>   -39.0535     0.0000    20.0000 </r>
       <r>   -38.8701     0.0000    20.0000 </r>
       <r>   -38.6867     0.0000    20.0000 </r>
       <r>   -38.5033     0.0000    20.0000 </r>
       <r>   -38.3200     0.0000    20.0000 </r>
       <r>   -38.1366     0.0000    20.0000 </r>
       <r>   -37.9532     0.0000    20.0000 </r>
       <r>   -37.7698     0.0000    20.0000 </r>
       <r>   -37.5865     0.0000    20.0000 </r>
       <r>   -37.4031     0.0000    20.0000 </r>
       <r>   -37.2197     0.0000    20.0000 </r>
       <r>   -37.0363     0.0000    20.0000 </r>
       <r>   -36.8530     0.0000    20.0000 </r>
       <r>   -36.6696     0.0000    20.0000 </r>
       <r>   -36.4862     0.0000    20.0000 </r>
       <r>   -36.3029     0.0000    20.0000 </r>
       <r>   -36.1195     0.0000    20.0000 </r>
       <r>   -35.9361     0.0000    20.0000 </r>
       <r>   -35.7527     0.0000    20.0000 </r>
       <r>   -35.5694     0.0000    20.0000 </r>
       <r>   -35.3860     0.0000    20.0000 </r>
       <r>   -35.2026     0.0000    20.0000 </r>
       <r>   -35.0192     0.0000    20.0000 </r>
       <r>   -34.8359     0.0000    20.0000 </r>
       <r>   -34.6525     0.0000    20.0000 </r>
       <r>   -34.4691     0.0000    20.0000 </r>
       <r>   -34.2857     0.0000    20.0000 </r>
       <r>   -34.1024     0.0000    20.0000 </r>
       <r>   -33.9190     0.0000    20.0000 </r>
       <r>   -33.7356     0.0000    20.0000 </r>
       <r>   -33.5523     0.0000    20.0000 </r>
       <r>   -33.3689     0.0000    20.0000 </r>
       <r>   -33.1855     0.0000    20.0000 </r>
       <r>   -33.0021     0.0000    20.0000 </r>
       <r>   -32.8188     0.0000    20.0000 </r>
       <r>   -32.6354     0.0000    20.0000 </r>
       <r>   -32.4520     0.0000    20.0000 </r>
       <r>   -32.2686     0.0000    20.0000 </r>
       <r>   -32.0853     0.0000    20.0000 </r>
       <r>   -31.9019     0.0000    20.0000 </r>
       <r>   -31.7185     0.0000    20.0000 </r>
       <r>   -31.5351     0.0000    20.0000 </r>
       <r>   -31.3518     0.0000    20.0000 </r>
       <r>   -31.1684     0.0000    20.0000 </r>
       <r>   -30.9850     0.0000    20.0000 </r>
       <r>   -30.8016     0.0000    20.0000 </r>
       <r>   -30.6183     0.0000    20.0000 </r>
       <r>   -30.4349     0.0000    20.0000 </r>
       <r>   -30.2515     0.0000    20.0000 </r>
       <r>   -30.0682     0.0000    20.0000 </r>
       <r>   -29.8848     0.0000    20.0000 </r>
       <r>   -29.7014     0.0000    20.0000 </r>
       <r>   -29.5180     0.0000    20.0000 </r>
       <r>   -29.3347     0.0000    20.0000 </r>
       <r>   -29.1513     0.0000    20.0000 </r>
       <r>   -28.9679     0.0000    20.0000 </r>
       <r>   -28.7845     0.0000    20.0000 </r>
       <r>   -28.6012     0.0000    20.0000 </r>
       <r>   -28.4178     0.0000    20.0000 </r>
       <r>   -28.2344     0.0000    20.0000 </r>
       <r>   -28.0510     0.0000    20.0000 </r>
       <r>   -27.8677     0.0000    20.0000 </r>
       <r>   -27.6843     0.0000    20.0000 </r>
       <r>   -27.5009     0.0000    20.0000 </r>
       <r>   -27.3176     0.0000    20.0000 </r>
       <r>   -27.1342     0.0000    20.0000 </r>
       <r>   -26.9508     0.0000    20.0000 </r>
       <r>   -26.7674     0.0000    20.0000 </r>
       <r>   -26.5841     0.0000    20.0000 </r>
       <r>   -26.4007     0.0000    20.0000 </r>
       <r>   -26.2173     0.0000    20.0000 </r>
       <r>   -26.0339     0.0000    20.0000 </r>
       <r>   -25.8506     0.0000    20.0000 </r>
       <r>   -25.6672     0.0000    20.0000 </r>
       <r>   -25.4838     0.0000    20.0000 </r>
       <r>   -25.3004     0.0000    20.0000 </r>
       <r>   -25.1171     0.0000    20.0000 </r>
       <r>   -24.9337     0.0000    20.0000 </r>
       <r>   -24.7503     0.0000    20.0000 </r>
       <r>   -24.5670     0.0000    20.0000 </r>
       <r>   -24.3836     0.0000    20.0000 </r>
       <r>   -24.2002     0.0000    20.0000 </r>
       <r>   -24.0168     0.0000    20.0000 </r>
       <r>   -23.8335     0.0000    20.0000 </r>
       <r>   -23.6501     0.0000    20.0000 </r>
       <r>   -23.4667     0.0000    20.0000 </r>
       <r>   -23.2833     0.0000    20.0000 </r>
       <r>   -23.1000     0.0000    20.0000 </r>
       <r>   -22.9166     0.0000    20.0000 </r>
       <r>   -22.7332     0.0000    20.0000 </r>
       <r>   -22.5498     0.0000    20.0000 </r>
       <r>   -22.3665     0.0000    20.0000 </r>
       <r>   -22.1831     0.0000    20.0000 </r>
       <r>   -21.9997     0.0000    20.0000 </r>
       <r>   -21.8163     0.0000    20.0000 </r>
       <r>   -21.6330     0.0000    20.0000 </r>
       <r>   -21.4496     0.0000    20.0000 </r>
       <r>   -21.2662     0.0000    20.0000 </r>
       <r>   -21.0829     0.0000    20.0000 </r>
       <r>   -20.8995     0.0000    20.0000 </r>
       <r>   -20.7161     0.0000    20.0000 </r>
       <r>   -20.5327     0.0000    20.0000 </r>
       <r>   -20.3494     0.0000    20.0000 </r>
       <r>   -20.1660     0.0000    20.0000 </r>
       <r>   -19.9826     0.0000    20.0000 </r>
       <r>   -19.7992     0.0000    20.0000 </r>
       <r>   -19.6159     0.0000    20.0000 </r>
       <r>   -19.4325     0.0000    20.0000 </r>
       <r>   -19.2491     0.0000    20.0000 </r>
       <r>   -19.0657     0.0000    20.0000 </r>
       <r>   -18.8824     0.0000    24.0000 </r>
       <r>   -18.6990     0.0000    50.0000 </r>
       <r>   -18.5156     0.0000   120.0000 </r>
       <r>   -18.3323     0.0000   168.0000 </r>
       <r>   -18.1489     0.0000   180.0000 </r>
       <r>   -17.9655     0.0000   180.0000 </r>
       <r>   -17.7821     0.0000   180.0000 </r>
       <r>   -17.5988     0.0000   180.0000 </r>
       <r>   -17.4154     0.0000   180.0000 </r>
       <r>   -17.2320     0.0000   180.0000 </r>
       <r>   -17.0486     0.0000   180.0000 </r>
       <r>   -16.8653     0.0000   180.0000 </r>
       <r>   -16.6819     0.0000   180.0000 </r>
       <r>   -16.4985     0.0000   180.0000 </r>
       <r>   -16.3151     0.0000   180.0000 </r>
       <r>   -16.1318     0.0000   180.0000 </r>
       <r>   -15.9484     0.0000   180.0000 </r>
       <r>   -15.7650     0.0000   180.0000 </r>
       <r>   -15.5816     0.0000   180.0000 </r>
       <r>   -15.3983     0.0000   180.0000 </r>
       <r>   -15.2149     0.0000   180.0000 </r>
       <r>   -15.0315     0.0000   180.0000 </r>
       <r>   -14.8482     0.0000   180.0000 </r>
       <r>   -14.6648     0.0000   180.0000 </r>
       <r>   -14.4814     0.0000   180.0000 </r>
       <r>   -14.2980     0.0000   180.0000 </r>
       <r>   -14.1147     0.0000   180.0000 </r>
       <r>   -13.9313     0.0000   180.0000 </r>
       <r>   -13.7479     0.0000   180.0000 </r>
       <r>   -13.5645     0.0000   180.0000 </r>
       <r>   -13.3812     0.0000   184.0000 </r>
       <r>   -13.1978     0.0000   184.0000 </r>
       <r>   -13.0144     0.0000   184.0000 </r>
       <r>   -12.8310     0.0000   188.0000 </r>
       <r>   -12.6477   128.9229   200.0415 </r>
       <r>   -12.4643     0.0000   208.0000 </r>
       <r>   -12.2809     0.0000   208.0000 </r>
       <r>   -12.0976     0.0000   208.0000 </r>
       <r>   -11.9142     0.0000   210.0000 </r>
       <r>   -11.7308     0.0000   212.0000 </r>
       <r>   -11.5474     0.0000   212.0000 </r>
       <r>   -11.3641     0.0000   212.0000 </r>
       <r>   -11.1807     0.0000   212.0000 </r>
       <r>   -10.9973     0.0000   212.0000 </r>
       <r>   -10.8139     0.0000   212.0000 </r>
       <r>   -10.6306     0.0000   212.0000 </r>
       <r>   -10.4472     0.0000   212.0000 </r>
       <r>   -10.2638     0.0000   212.0000 </r>
       <r>   -10.0804     0.0000   212.0000 </r>
       <r>    -9.8971     0.0000   212.0000 </r>
       <r>    -9.7137     0.0000   212.0000 </r>
       <r>    -9.5303     0.0000   212.0000 </r>
       <r>    -9.3470     0.0000   212.0000 </r>
       <r>    -9.1636    10.3646   212.8501 </r>
       <r>    -8.9802    11.3166   215.8142 </r>
       <r>    -8.7968    22.1029   217.1891 </r>
       <r>    -8.6135    12.5644   219.9617 </r>
       <r>    -8.4301    29.1551   223.1335 </r>
       <r>    -8.2467     0.1109   228.0002 </r>
       <r>    -8.0633    33.0891   230.9008 </r>
       <r>    -7.8800    19.5077   235.6987 </r>
       <r>    -7.6966    24.5432   238.9979 </r>
       <r>    -7.5132    18.4102   242.4839 </r>
       <r>    -7.3298     0.0000   244.0000 </r>
       <r>    -7.1465     0.0000   244.0000 </r>
       <r>    -6.9631     0.0000   244.0000 </r>
       <r>    -6.7797     0.0000   244.0000 </r>
       <r>    -6.5963     0.0000   244.0000 </r>
       <r>    -6.4130     0.0000   244.0000 </r>
       <r>    -6.2296    11.7128   244.6992 </r>
       <r>    -6.0462    29.2813   248.4909 </r>
       <r>    -5.8629    18.1764   252.3597 </r>
       <r>    -5.6795    24.8422   256.8774 </r>
       <r>    -5.4961    20.0757   260.8997 </r>
       <r>    -5.3127    18.7718   264.7272 </r>
       <r>    -5.1294     8.5659   267.3863 </r>
       <r>    -4.9460     4.9153   268.3029 </r>
       <r>    -4.7626     7.6680   269.6045 </r>
       <r>    -4.5792    10.0889   271.1980 </r>
       <r>    -4.3959     6.5251   272.8422 </r>
       <r>    -4.2125     7.3832   274.0455 </r>
       <r>    -4.0291     4.8588   275.2090 </r>
       <r>    -3.8457     1.7222   275.8069 </r>
       <r>    -3.6624     0.3743   275.9873 </r>
       <r>    -3.4790     0.0000   276.0000 </r>
       <r>    -3.2956     0.0000   276.0000 </r>
       <r>    -3.1123     0.0000   276.0000 </r>
       <r>    -2.9289     0.0000   276.0000 </r>
       <r>    -2.7455     0.0000   276.0000 </r>
       <r>    -2.5621     0.0000   276.0000 </r>
       <r>    -2.3788     0.0000   276.0000 </r>
       <r>    -2.1954     0.0000   276.0000 </r>
       <r>    -2.0120     0.0000   276.0000 </r>
       <r>    -1.8286     0.0000   276.0000 </r>
       <r>    -1.6453     0.0000   276.0000 </r>
       <r>    -1.4619     0.0000   276.0000 </r>
       <r>    -1.2785     3.4245   276.1206 </r>
       <r>    -1.0951     8.7840   277.4339 </r>
       <r>    -0.9118    13.8214   279.5208 </r>
       <r>    -0.7284     9.8093   281.7539 </r>
       <r>    -0.5450     5.6495   283.1698 </r>
       <r>    -0.3616    22.4030   285.0584 </r>
       <r>    -0.1783    25.6996   289.2434 </r>
       <r>     0.0051    43.5578   295.9867 </r>
       <r>     0.1885    31.3826   302.0185 </r>
       <r>     0.3718    36.2711   308.8460 </r>
       <r>     0.5552    40.6082   315.9126 </r>
       <r>     0.7386    34.1971   322.8515 </r>
       <r>     0.9220    32.2773   329.2704 </r>
       <r>     1.1053    40.9818   336.7978 </r>
       <r>     1.2887    53.4562   345.4547 </r>
       <r>     1.4721    51.4144   353.9635 </r>
       <r>     1.6555    47.3937   363.5043 </r>
       <r>     1.8388    57.0177   372.5588 </r>
       <r>     2.0222    28.8884   381.2932 </r>
       <r>     2.2056    44.4056   389.3026 </r>
       <r>     2.3890    46.6218   397.0285 </r>
       <r>     2.5723    68.9753   407.8376 </r>
       <r>     2.7557    60.7452   419.7837 </r>
       <r>     2.9391    75.2044   432.1855 </r>
       <r>     3.1224    55.9719   444.1650 </r>
       <r>     3.3058    37.0863   450.9773 </r>
       <r>     3.4892    40.5552   457.5597 </r>
       <r>     3.6726    15.3780   462.6399 </r>
       <r>     3.8559    15.4849   465.2788 </r>
       <r>     4.0393     7.3478   467.2359 </r>
       <r>     4.2227     0.8635   467.9838 </r>
       <r>     4.4061     0.0000   468.0000 </r>
       <r>     4.5894     0.0000   468.0000 </r>
       <r>     4.7728     0.0000   468.0000 </r>
       <r>     4.9562     0.0000   468.0000 </r>
       <r>     5.1396     0.1408   468.0019 </r>
       <r>     5.3229     3.7353   468.3303 </r>
       <r>     5.5063     7.7079   469.3793 </r>
       <r>     5.6897     9.1419   471.0387 </r>
       <r>     5.8731    21.5808   474.6907 </r>
       <r>     6.0564    12.7841   477.4542 </r>
       <r>     6.2398    11.4796   479.6314 </r>
       <r>     6.4232    12.9236   481.8491 </r>
       <r>     6.6065    14.6203   484.3748 </r>
       <r>     6.7899    16.3062   487.2099 </r>
       <r>     6.9733    18.5773   490.3821 </r>
       <r>     7.1567    25.6080   494.2931 </r>
       <r>     7.3400    38.5236   500.2624 </r>
       <r>     7.5234    29.5885   507.9956 </r>
       <r>     7.7068    32.2944   512.7317 </r>
       <r>     7.8902    44.5101   520.5745 </r>
       <r>     8.0735    29.6909   528.8823 </r>
       <r>     8.2569    19.6189   533.1558 </r>
       <r>     8.4403    19.5488   536.6203 </r>
       <r>     8.6237    26.1228   540.7406 </r>
       <r>     8.8070    36.7333   545.7022 </r>
       <r>     8.9904    33.8869   553.8359 </r>
       <r>     9.1738    12.0269   557.8751 </r>
       <r>     9.3571     5.3460   559.3071 </r>
       <r>     9.5405     1.4728   559.8722 </r>
       <r>     9.7239     0.1106   559.9975 </r>
       <r>     9.9073     0.0000   560.0000 </r>
       <r>    10.0906     0.0000   560.0000 </r>
       <r>    10.2740     0.0000   560.0000 </r>
       <r>    10.4574     0.0000   560.0000 </r>
       <r>    10.6408     0.0000   560.0000 </r>
       <r>    10.8241     0.0000   560.0000 </r>
       <r>    11.0075     0.0000   560.0000 </r>
       <r>    11.1909     0.0000   560.0000 </r>
       <r>    11.3743     0.0000   560.0000 </r>
       <r>    11.5576     0.0000   560.0000 </r>
       <r>    11.7410     0.0000   560.0000 </r>
       <r>    11.9244     0.0000   560.0000 </r>
       <r>    12.1077     0.0000   560.0000 </r>
       <r>    12.2911     0.0000   560.0000 </r>
      </set>
     </set>
    </array>
   </total>
  </dos>
 </calculation>
 <structure name="finalpos" >
  <crystal>
   <varray name="basis" >
    <v>      11.17850000       0.00000000       0.00000000 </v>
    <v>       0.00000000       9.57460000       0.00000000 </v>
    <v>       0.00000000       0.00000000      11.18240000 </v>
   </varray>
   <i name="volume">   1196.84853820 </i>
   <varray name="rec_basis" >
    <v>       0.08945744       0.00000000       0.00000000 </v>
    <v>       0.00000000       0.10444301       0.00000000 </v>
    <v>       0.00000000       0.00000000       0.08942624 </v>
   </varray>
  </crystal>
  <varray name="positions" >
   <v>       0.37539000       0.00017000       0.43687000 </v>
   <v>       0.12461000       0.99984000       0.18687000 </v>
   <v>       0.62539000       0.99984000       0.43687000 </v>
   <v>       0.87461000       0.00017000       0.18687000 </v>
   <v>       0.12539000       0.99984000       0.93687000 </v>
   <v>       0.12461000       0.99984000       0.68687000 </v>
   <v>       0.62539000       0.99984000       0.93687000 </v>
   <v>       0.87539000       0.00017000       0.93687000 </v>
   <v>       0.62461000       0.99984000       0.68687000 </v>
   <v>       0.87461000       0.00017000       0.68687000 </v>
   <v>       0.37461000       0.00017000       0.18687000 </v>
   <v>       0.87539000       0.00017000       0.43687000 </v>
   <v>       0.37461000       0.00017000       0.68687000 </v>
   <v>       0.00013000       0.29519000       0.06281000 </v>
   <v>       0.25013000       0.70481000       0.06281000 </v>
   <v>       0.24987000       0.29519000       0.31282000 </v>
   <v>       0.49987000       0.70481000       0.31282000 </v>
   <v>       0.50013000       0.29519000       0.06281000 </v>
   <v>       0.75013000       0.70481000       0.06281000 </v>
   <v>       0.74987000       0.29519000       0.31282000 </v>
   <v>       0.99987000       0.70481000       0.31282000 </v>
   <v>       0.00013000       0.29519000       0.56281000 </v>
   <v>       0.25013000       0.70481000       0.56281000 </v>
   <v>       0.24987000       0.29519000       0.81282000 </v>
   <v>       0.49987000       0.70481000       0.81282000 </v>
   <v>       0.50013000       0.29519000       0.56281000 </v>
   <v>       0.75013000       0.70481000       0.56281000 </v>
   <v>       0.74987000       0.29519000       0.81282000 </v>
   <v>       0.99987000       0.70481000       0.81282000 </v>
   <v>       0.25005000       0.32677000       0.06286000 </v>
   <v>       0.00005000       0.67323000       0.06286000 </v>
   <v>       0.49995000       0.32677000       0.31286000 </v>
   <v>       0.24995000       0.67323000       0.31286000 </v>
   <v>       0.75005000       0.32677000       0.06286000 </v>
   <v>       0.50005000       0.67323000       0.06286000 </v>
   <v>       0.99995000       0.32677000       0.31286000 </v>
   <v>       0.74995000       0.67323000       0.31286000 </v>
   <v>       0.25005000       0.32677000       0.56286000 </v>
   <v>       0.00005000       0.67323000       0.56286000 </v>
   <v>       0.49995000       0.32677000       0.81286000 </v>
   <v>       0.24995000       0.67323000       0.81286000 </v>
   <v>       0.75005000       0.32677000       0.56286000 </v>
   <v>       0.50005000       0.67323000       0.56286000 </v>
   <v>       0.99995000       0.32677000       0.81286000 </v>
   <v>       0.74995000       0.67323000       0.81286000 </v>
   <v>       0.49987000       0.07798000       0.06246000 </v>
   <v>       0.24987000       0.92202000       0.06246000 </v>
   <v>       0.25013000       0.07798000       0.31246000 </v>
   <v>       0.00013000       0.92202000       0.31246000 </v>
   <v>       0.99987000       0.07798000       0.06246000 </v>
   <v>       0.74987000       0.92202000       0.06246000 </v>
   <v>       0.75013000       0.07798000       0.31246000 </v>
   <v>       0.50013000       0.92202000       0.31246000 </v>
   <v>       0.49987000       0.07798000       0.56246000 </v>
   <v>       0.24987000       0.92202000       0.56246000 </v>
   <v>       0.25013000       0.07798000       0.81246000 </v>
   <v>       0.00013000       0.92202000       0.81246000 </v>
   <v>       0.99987000       0.07798000       0.56246000 </v>
   <v>       0.74987000       0.92202000       0.56246000 </v>
   <v>       0.75013000       0.07798000       0.81246000 </v>
   <v>       0.50013000       0.92202000       0.81246000 </v>
  </varray>
 </structure>
</modeling>
