<?xml version="1.0" encoding="ISO-8859-1"?>
<modeling>
 <generator>
  <i name="program" type="string">vasp </i>
  <i name="version" type="string">5.4.4.18Apr17-6-g9f103f2a35  </i>
  <i name="subversion" type="string">(build Jul 31 2017 11:33:29) complex            parallel </i>
  <i name="platform" type="string">LinuxIFC </i>
  <i name="date" type="string">2021 09 29 </i>
  <i name="time" type="string">07:38:43 </i>
 </generator>
 <incar>
  <i type="string" name="SYSTEM"> La2O2S</i>
  <i type="string" name="PREC">normal</i>
  <i type="int" name="NELMIN">     4</i>
  <i type="int" name="IBRION">     2</i>
  <i type="int" name="NFREE">    10</i>
  <i name="EDIFF">      0.00000100</i>
  <i name="EDIFFG">     -0.01000000</i>
  <i type="int" name="NSW">     1</i>
  <i type="int" name="ISIF">     2</i>
  <i name="ENCUT">    600.00000000</i>
  <i name="ENAUG">    900.00000000</i>
  <i type="int" name="ISMEAR">    -5</i>
  <i type="logical" name="LWAVE"> F  </i>
  <i type="logical" name="LCHARG"> F  </i>
  <v type="int" name="KPOINT_BSE">    -1     0     0     0</v>
 </incar>
 <structure name="primitive_cell" >
  <crystal>
   <varray name="basis" >
    <v>      11.17850000       0.00000000       0.00000000 </v>
    <v>       0.00000000       9.57460000       0.00000000 </v>
    <v>       0.00000000       0.00000000      11.18240000 </v>
   </varray>
   <i name="volume">   1196.84853820 </i>
   <varray name="rec_basis" >
    <v>       0.08945744       0.00000000       0.00000000 </v>
    <v>       0.00000000       0.10444301       0.00000000 </v>
    <v>       0.00000000       0.00000000       0.08942624 </v>
   </varray>
  </crystal>
  <varray name="positions" >
   <v>       0.37539000       0.00017000       0.43687000 </v>
   <v>      -0.49987000      -0.07798000       0.31246000 </v>
   <v>       0.25013000       0.07798000       0.31246000 </v>
   <v>       0.49987000       0.07798000      -0.43754000 </v>
   <v>       0.24987000      -0.07798000      -0.43754000 </v>
   <v>      -0.37461000      -0.00017000       0.43687000 </v>
   <v>       0.37461000       0.00017000      -0.31313000 </v>
   <v>       0.37461000       0.00017000       0.18687000 </v>
   <v>       0.49987000      -0.29519000       0.31282000 </v>
   <v>       0.24987000       0.29519000       0.31282000 </v>
   <v>      -0.49987000       0.29519000      -0.43718000 </v>
   <v>       0.25013000      -0.29519000      -0.43718000 </v>
   <v>       0.49995000       0.32677000       0.31286000 </v>
   <v>       0.24995000      -0.32677000       0.31286000 </v>
   <v>      -0.49995000      -0.32677000      -0.43714000 </v>
   <v>       0.25005000       0.32677000      -0.43714000 </v>
   <v>      -0.37539000      -0.00017000       0.18687000 </v>
   <v>      -0.37539000      -0.00017000      -0.31313000 </v>
   <v>       0.12461000      -0.00017000       0.18687000 </v>
   <v>       0.12461000      -0.00017000      -0.31313000 </v>
   <v>       0.49987000       0.07798000       0.06246000 </v>
   <v>      -0.24987000       0.07798000       0.31246000 </v>
   <v>      -0.25013000      -0.07798000      -0.43754000 </v>
   <v>       0.24987000      -0.07798000       0.06246000 </v>
   <v>       0.00013000      -0.07798000       0.31246000 </v>
   <v>      -0.49987000      -0.07798000      -0.18754000 </v>
   <v>      -0.00013000       0.07798000      -0.43754000 </v>
   <v>       0.25013000       0.07798000      -0.18754000 </v>
   <v>      -0.49987000       0.29519000       0.06282000 </v>
   <v>      -0.25013000       0.29519000       0.31282000 </v>
   <v>       0.25013000      -0.29519000       0.06282000 </v>
   <v>      -0.24987000      -0.29519000      -0.43718000 </v>
   <v>      -0.00013000      -0.29519000       0.31282000 </v>
   <v>       0.00013000       0.29519000      -0.43718000 </v>
   <v>       0.49987000      -0.29519000      -0.18718000 </v>
   <v>       0.24987000       0.29519000      -0.18718000 </v>
   <v>      -0.49995000      -0.32677000       0.06286000 </v>
   <v>       0.25005000       0.32677000       0.06286000 </v>
   <v>      -0.25005000      -0.32677000       0.31286000 </v>
   <v>      -0.24995000       0.32677000      -0.43714000 </v>
   <v>      -0.00005000       0.32677000       0.31286000 </v>
   <v>       0.00005000      -0.32677000      -0.43714000 </v>
   <v>       0.49995000       0.32677000      -0.18714000 </v>
   <v>       0.24995000      -0.32677000      -0.18714000 </v>
   <v>      -0.12461000       0.00017000       0.43687000 </v>
   <v>       0.37539000       0.00017000      -0.06313000 </v>
   <v>      -0.25013000      -0.07798000       0.06246000 </v>
   <v>      -0.00013000       0.07798000       0.06246000 </v>
   <v>      -0.24987000       0.07798000      -0.18754000 </v>
   <v>       0.00013000      -0.07798000      -0.18754000 </v>
   <v>      -0.12539000       0.00017000       0.18687000 </v>
   <v>      -0.12539000       0.00017000      -0.31313000 </v>
   <v>       0.12539000      -0.00017000      -0.06313000 </v>
   <v>      -0.37461000      -0.00017000      -0.06313000 </v>
   <v>      -0.24987000      -0.29519000       0.06282000 </v>
   <v>       0.00013000       0.29519000       0.06282000 </v>
   <v>      -0.25013000       0.29519000      -0.18718000 </v>
   <v>      -0.00013000      -0.29519000      -0.18718000 </v>
   <v>      -0.24995000       0.32677000       0.06286000 </v>
   <v>       0.00005000      -0.32677000       0.06286000 </v>
   <v>      -0.25005000      -0.32677000      -0.18714000 </v>
   <v>      -0.00005000       0.32677000      -0.18714000 </v>
   <v>      -0.12461000       0.00017000      -0.06313000 </v>
  </varray>
 </structure>
 <varray name="primitive_index" >
  <v type="int" >        1 </v>
  <v type="int" >       53 </v>
  <v type="int" >       51 </v>
  <v type="int" >       56 </v>
  <v type="int" >       58 </v>
  <v type="int" >        3 </v>
  <v type="int" >       10 </v>
  <v type="int" >       15 </v>
  <v type="int" >       19 </v>
  <v type="int" >       18 </v>
  <v type="int" >       28 </v>
  <v type="int" >       25 </v>
  <v type="int" >       34 </v>
  <v type="int" >       35 </v>
  <v type="int" >       45 </v>
  <v type="int" >       40 </v>
  <v type="int" >        5 </v>
  <v type="int" >       13 </v>
  <v type="int" >        2 </v>
  <v type="int" >        9 </v>
  <v type="int" >       48 </v>
  <v type="int" >       55 </v>
  <v type="int" >       62 </v>
  <v type="int" >       50 </v>
  <v type="int" >       49 </v>
  <v type="int" >       61 </v>
  <v type="int" >       60 </v>
  <v type="int" >       59 </v>
  <v type="int" >       20 </v>
  <v type="int" >       22 </v>
  <v type="int" >       17 </v>
  <v type="int" >       29 </v>
  <v type="int" >       23 </v>
  <v type="int" >       24 </v>
  <v type="int" >       27 </v>
  <v type="int" >       26 </v>
  <v type="int" >       37 </v>
  <v type="int" >       32 </v>
  <v type="int" >       39 </v>
  <v type="int" >       44 </v>
  <v type="int" >       38 </v>
  <v type="int" >       41 </v>
  <v type="int" >       42 </v>
  <v type="int" >       43 </v>
  <v type="int" >        4 </v>
  <v type="int" >        8 </v>
  <v type="int" >       54 </v>
  <v type="int" >       52 </v>
  <v type="int" >       63 </v>
  <v type="int" >       57 </v>
  <v type="int" >        6 </v>
  <v type="int" >       14 </v>
  <v type="int" >        7 </v>
  <v type="int" >       11 </v>
  <v type="int" >       21 </v>
  <v type="int" >       16 </v>
  <v type="int" >       30 </v>
  <v type="int" >       31 </v>
  <v type="int" >       36 </v>
  <v type="int" >       33 </v>
  <v type="int" >       47 </v>
  <v type="int" >       46 </v>
  <v type="int" >       12 </v>
 </varray>
 <kpoints>
  <generation param="Gamma">
   <v type="int" name="divisions">       2        2        2 </v>
   <v name="usershift">      0.00000000       0.00000000       0.00000000 </v>
   <v name="genvec1">      0.50000000       0.00000000       0.00000000 </v>
   <v name="genvec2">      0.00000000       0.50000000       0.00000000 </v>
   <v name="genvec3">      0.00000000       0.00000000       0.50000000 </v>
   <v name="shift">      0.00000000       0.00000000       0.00000000 </v>
  </generation>
  <varray name="kpointlist" >
   <v>       0.00000000       0.00000000       0.00000000 </v>
   <v>       0.50000000       0.00000000       0.00000000 </v>
   <v>       0.00000000       0.50000000       0.00000000 </v>
   <v>       0.50000000       0.50000000       0.00000000 </v>
   <v>       0.00000000       0.00000000       0.50000000 </v>
   <v>       0.50000000       0.00000000       0.50000000 </v>
   <v>       0.00000000       0.50000000       0.50000000 </v>
   <v>       0.50000000       0.50000000       0.50000000 </v>
  </varray>
  <varray name="weights" >
   <v>       0.12500000 </v>
   <v>       0.12500000 </v>
   <v>       0.12500000 </v>
   <v>       0.12500000 </v>
   <v>       0.12500000 </v>
   <v>       0.12500000 </v>
   <v>       0.12500000 </v>
   <v>       0.12500000 </v>
  </varray>
  <varray name="tetrahedronlist"  type="int" >
   <v type="int" >        2        1        2        4        5 </v>
   <v type="int" >        2        1        3        4        5 </v>
   <v type="int" >        2        3        4        5        7 </v>
   <v type="int" >        2        2        4        5        6 </v>
   <v type="int" >        2        4        5        6        8 </v>
   <v type="int" >        2        4        5        7        8 </v>
   <v type="int" >        2        1        2        3        6 </v>
   <v type="int" >        2        2        3        4        6 </v>
   <v type="int" >        2        3        4        6        8 </v>
   <v type="int" >        2        1        3        5        6 </v>
   <v type="int" >        2        3        5        6        7 </v>
   <v type="int" >        2        3        6        7        8 </v>
   <v type="int" >        2        2        3        4        7 </v>
   <v type="int" >        2        1        2        3        7 </v>
   <v type="int" >        2        1        2        5        7 </v>
   <v type="int" >        2        2        4        7        8 </v>
   <v type="int" >        2        2        6        7        8 </v>
   <v type="int" >        2        2        5        6        7 </v>
   <v type="int" >        2        1        3        4        8 </v>
   <v type="int" >        2        1        2        4        8 </v>
   <v type="int" >        2        1        2        6        8 </v>
   <v type="int" >        2        1        3        7        8 </v>
   <v type="int" >        2        1        5        7        8 </v>
   <v type="int" >        2        1        5        6        8 </v>
  </varray>
  <i name="volumeweight">      0.02083333 </i>
 </kpoints>
 <parameters>
  <separator name="general" >
   <i type="string" name="SYSTEM">La2O2S</i>
   <i type="logical" name="LCOMPAT"> F  </i>
  </separator>
  <separator name="electronic" >
   <i type="string" name="PREC">normal</i>
   <i name="ENMAX">    600.00000000</i>
   <i name="ENAUG">    900.00000000</i>
   <i name="EDIFF">      0.00000100</i>
   <i type="int" name="IALGO">    38</i>
   <i type="int" name="IWAVPR">    11</i>
   <i type="int" name="NBANDS">   308</i>
   <i name="NELECT">    476.00000000</i>
   <i type="int" name="TURBO">     0</i>
   <i type="int" name="IRESTART">     0</i>
   <i type="int" name="NREBOOT">     0</i>
   <i type="int" name="NMIN">     0</i>
   <i name="EREF">      0.00000000</i>
   <separator name="electronic smearing" >
    <i type="int" name="ISMEAR">    -5</i>
    <i name="SIGMA">      0.20000000</i>
    <i name="KSPACING">      0.50000000</i>
    <i type="logical" name="KGAMMA"> T  </i>
   </separator>
   <separator name="electronic projectors" >
    <i type="logical" name="LREAL"> F  </i>
    <v name="ROPT">      0.00000000      0.00000000      0.00000000      0.00000000      0.00000000</v>
    <i type="int" name="LMAXPAW">  -100</i>
    <i type="int" name="LMAXMIX">     2</i>
    <i type="logical" name="NLSPLINE"> F  </i>
   </separator>
   <separator name="electronic startup" >
    <i type="int" name="ISTART">     0</i>
    <i type="int" name="ICHARG">     2</i>
    <i type="int" name="INIWAV">     1</i>
   </separator>
   <separator name="electronic spin" >
    <i type="int" name="ISPIN">     1</i>
    <i type="logical" name="LNONCOLLINEAR"> F  </i>
    <v name="MAGMOM">      1.00000000      1.00000000      1.00000000      1.00000000      1.00000000      1.00000000      1.00000000      1.00000000      1.00000000      1.00000000      1.00000000      1.00000000      1.00000000      1.00000000      1.00000000      1.00000000      1.00000000      1.00000000      1.00000000      1.00000000
      1.00000000      1.00000000      1.00000000      1.00000000      1.00000000      1.00000000      1.00000000      1.00000000      1.00000000      1.00000000      1.00000000      1.00000000      1.00000000      1.00000000      1.00000000      1.00000000      1.00000000      1.00000000      1.00000000      1.00000000
      1.00000000      1.00000000      1.00000000      1.00000000      1.00000000      1.00000000      1.00000000      1.00000000      1.00000000      1.00000000      1.00000000      1.00000000      1.00000000      1.00000000      1.00000000      1.00000000      1.00000000      1.00000000      1.00000000      1.00000000
      1.00000000      1.00000000      1.00000000</v>
    <i name="NUPDOWN">     -1.00000000</i>
    <i type="logical" name="LSORBIT"> F  </i>
    <v name="SAXIS">      0.00000000      0.00000000      1.00000000</v>
    <i type="logical" name="LSPIRAL"> F  </i>
    <v name="QSPIRAL">      0.00000000      0.00000000      0.00000000</v>
    <i type="logical" name="LZEROZ"> F  </i>
   </separator>
   <separator name="electronic exchange-correlation" >
    <i type="logical" name="LASPH"> F  </i>
    <i type="logical" name="LMETAGGA"> F  </i>
   </separator>
   <separator name="electronic convergence" >
    <i type="int" name="NELM">    60</i>
    <i type="int" name="NELMDL">    -5</i>
    <i type="int" name="NELMIN">     4</i>
    <i name="ENINI">    600.00000000</i>
    <separator name="electronic convergence detail" >
     <i type="logical" name="LDIAG"> T  </i>
     <i type="logical" name="LSUBROT"> F  </i>
     <i name="WEIMIN">      0.00100000</i>
     <i name="EBREAK">      0.00000000</i>
     <i name="DEPER">      0.30000000</i>
     <i type="int" name="NRMM">     4</i>
     <i name="TIME">      0.40000000</i>
    </separator>
   </separator>
   <separator name="electronic mixer" >
    <i name="AMIX">      0.40000000</i>
    <i name="BMIX">      1.00000000</i>
    <i name="AMIN">      0.10000000</i>
    <i name="AMIX_MAG">      1.60000000</i>
    <i name="BMIX_MAG">      1.00000000</i>
    <separator name="electronic mixer details" >
     <i type="int" name="IMIX">     4</i>
     <i type="logical" name="MIXFIRST"> F  </i>
     <i type="int" name="MAXMIX">   -45</i>
     <i name="WC">    100.00000000</i>
     <i type="int" name="INIMIX">     1</i>
     <i type="int" name="MIXPRE">     1</i>
     <i type="int" name="MREMOVE">     5</i>
    </separator>
   </separator>
   <separator name="electronic dipolcorrection" >
    <i type="logical" name="LDIPOL"> F  </i>
    <i type="logical" name="LMONO"> F  </i>
    <i type="int" name="IDIPOL">     0</i>
    <i name="EPSILON">      1.00000000</i>
    <v name="DIPOL">   -100.00000000   -100.00000000   -100.00000000</v>
    <i name="EFIELD">      0.00000000</i>
   </separator>
  </separator>
  <separator name="grids" >
   <i type="int" name="NGX">    70</i>
   <i type="int" name="NGY">    60</i>
   <i type="int" name="NGZ">    70</i>
   <i type="int" name="NGXF">   140</i>
   <i type="int" name="NGYF">   120</i>
   <i type="int" name="NGZF">   140</i>
   <i type="logical" name="ADDGRID"> F  </i>
  </separator>
  <separator name="ionic" >
   <i type="int" name="NSW">     1</i>
   <i type="int" name="IBRION">     2</i>
   <i type="int" name="MDALGO">     0</i>
   <i type="int" name="ISIF">     2</i>
   <i name="PSTRESS">      0.00000000</i>
   <i name="EDIFFG">     -0.01000000</i>
   <i type="int" name="NFREE">    10</i>
   <i name="POTIM">      0.50000000</i>
   <i name="SMASS">     -3.00000000</i>
   <i name="SCALEE">      1.00000000</i>
  </separator>
  <separator name="ionic md" >
   <i name="TEBEG">      0.00010000</i>
   <i name="TEEND">      0.00010000</i>
   <i type="int" name="NBLOCK">     1</i>
   <i type="int" name="KBLOCK">     1</i>
   <i type="int" name="NPACO">   256</i>
   <i name="APACO">     16.00000000</i>
  </separator>
  <separator name="symmetry" >
   <i type="int" name="ISYM">     2</i>
   <i name="SYMPREC">      0.00001000</i>
  </separator>
  <separator name="dos" >
   <i type="int" name="LORBIT">     0</i>
   <v name="RWIGS">     -1.00000000     -1.00000000     -1.00000000     -1.00000000     -1.00000000</v>
   <i type="int" name="NEDOS">   301</i>
   <i name="EMIN">     10.00000000</i>
   <i name="EMAX">    -10.00000000</i>
   <i name="EFERMI">      0.00000000</i>
  </separator>
  <separator name="writing" >
   <i type="int" name="NWRITE">     2</i>
   <i type="logical" name="LWAVE"> F  </i>
   <i type="logical" name="LDOWNSAMPLE"> F  </i>
   <i type="logical" name="LCHARG"> F  </i>
   <i type="logical" name="LPARD"> F  </i>
   <i type="logical" name="LVTOT"> F  </i>
   <i type="logical" name="LVHAR"> F  </i>
   <i type="logical" name="LELF"> F  </i>
   <i type="logical" name="LOPTICS"> F  </i>
   <v name="STM">      0.00000000      0.00000000      0.00000000      0.00000000      0.00000000      0.00000000      0.00000000</v>
  </separator>
  <separator name="performance" >
   <i type="int" name="NPAR">    28</i>
   <i type="int" name="NSIM">     4</i>
   <i type="int" name="NBLK">    -1</i>
   <i type="logical" name="LPLANE"> T  </i>
   <i type="logical" name="LSCALAPACK"> T  </i>
   <i type="logical" name="LSCAAWARE"> F  </i>
   <i type="logical" name="LSCALU"> F  </i>
   <i type="logical" name="LASYNC"> F  </i>
   <i type="logical" name="LORBITALREAL"> F  </i>
  </separator>
  <separator name="miscellaneous" >
   <i type="int" name="IDIOT">     3</i>
   <i type="int" name="ISPECIAL">     0</i>
   <i type="logical" name="LMUSIC"> F  </i>
   <v name="POMASS">      7.01000000     24.30500000    208.98000000     32.06600000     16.00000000</v>
   <v name="DARWINR">      0.00000000      0.00000000      0.00000000      0.00000000      0.00000000</v>
   <v name="DARWINV">      1.00000000      1.00000000      1.00000000      1.00000000      1.00000000</v>
   <i type="logical" name="LCORR"> T  </i>
  </separator>
  <i type="logical" name="GGA_COMPAT"> T  </i>
  <i type="logical" name="LBERRY"> F  </i>
  <i type="int" name="ICORELEVEL">     0</i>
  <i type="logical" name="LDAU"> F  </i>
  <i type="int" name="I_CONSTRAINED_M">     0</i>
  <separator name="electronic exchange-correlation" >
   <i type="string" name="GGA">--</i>
   <i type="int" name="VOSKOWN">     0</i>
   <i type="logical" name="LHFCALC"> F  </i>
   <i type="string" name="PRECFOCK"></i>
   <i type="logical" name="LSYMGRAD"> F  </i>
   <i type="logical" name="LHFONE"> F  </i>
   <i type="logical" name="LRHFCALC"> F  </i>
   <i type="logical" name="LTHOMAS"> F  </i>
   <i type="logical" name="LMODELHF"> F  </i>
   <i name="ENCUT4O">     -1.00000000</i>
   <i type="int" name="EXXOEP">     0</i>
   <i type="int" name="FOURORBIT">     0</i>
   <i name="AEXX">      0.00000000</i>
   <i name="HFALPHA">      0.00000000</i>
   <i name="MCALPHA">      0.00000000</i>
   <i name="ALDAX">      1.00000000</i>
   <i name="AGGAX">      1.00000000</i>
   <i name="ALDAC">      1.00000000</i>
   <i name="AGGAC">      1.00000000</i>
   <i type="int" name="NKREDX">     1</i>
   <i type="int" name="NKREDY">     1</i>
   <i type="int" name="NKREDZ">     1</i>
   <i type="logical" name="SHIFTRED"> F  </i>
   <i type="logical" name="ODDONLY"> F  </i>
   <i type="logical" name="EVENONLY"> F  </i>
   <i type="int" name="LMAXFOCK">     0</i>
   <i type="int" name="NMAXFOCKAE">     0</i>
   <i type="logical" name="LFOCKAEDFT"> F  </i>
   <i name="HFSCREEN">      0.00000000</i>
   <i name="HFSCREENC">      0.00000000</i>
   <i type="int" name="NBANDSGWLOW">     0</i>
  </separator>
  <separator name="vdW DFT" >
   <i type="logical" name="LUSE_VDW"> F  </i>
   <i name="Zab_VDW">     -0.84910000</i>
   <i name="PARAM1">      0.12340000</i>
   <i name="PARAM2">      1.00000000</i>
   <i name="PARAM3">      0.00000000</i>
  </separator>
  <separator name="model GW" >
   <i type="int" name="MODEL_GW">     0</i>
   <i name="MODEL_EPS0">     11.39855751</i>
   <i name="MODEL_ALPHA">      1.00000000</i>
  </separator>
  <separator name="linear response parameters" >
   <i type="logical" name="LEPSILON"> F  </i>
   <i type="logical" name="LRPA"> F  </i>
   <i type="logical" name="LNABLA"> F  </i>
   <i type="logical" name="LVEL"> F  </i>
   <i type="int" name="KINTER">     0</i>
   <i name="CSHIFT">      0.10000000</i>
   <i name="OMEGAMAX">     -1.00000000</i>
   <i name="DEG_THRESHOLD">      0.00200000</i>
   <i name="RTIME">     -0.10000000</i>
   <i name="WPLASMAI">      0.00000000</i>
   <v name="DFIELD">      0.00000000      0.00000000      0.00000000</v>
   <v name="WPLASMA">      0.00000000      0.00000000      0.00000000      0.00000000      0.00000000      0.00000000      0.00000000      0.00000000      0.00000000</v>
  </separator>
  <separator name="orbital magnetization" >
   <i type="logical" name="NUCIND"> F  </i>
   <v name="MAGPOS">      0.00000000      0.00000000      0.00000000</v>
   <i type="logical" name="LNICSALL"> T  </i>
   <i type="logical" name="ORBITALMAG"> F  </i>
   <i type="logical" name="LMAGBLOCH"> F  </i>
   <i type="logical" name="LCHIMAG"> F  </i>
   <i type="logical" name="LGAUGE"> T  </i>
   <i type="int" name="MAGATOM">     0</i>
   <v name="MAGDIPOL">      0.00000000      0.00000000      0.00000000</v>
   <v name="AVECCONST">      0.00000000      0.00000000      0.00000000</v>
  </separator>
  <separator name="response functions" >
   <i type="logical" name="LADDER"> F  </i>
   <i type="logical" name="LRPAFORCE"> F  </i>
   <i type="logical" name="LFXC"> F  </i>
   <i type="logical" name="LHARTREE"> T  </i>
   <i type="int" name="IBSE">     0</i>
   <v type="int" name="KPOINT">    -1     0     0     0</v>
   <i type="logical" name="LTCTE"> F  </i>
   <i type="logical" name="LTETE"> F  </i>
   <i type="logical" name="LTRIPLET"> F  </i>
   <i type="logical" name="LFXCEPS"> F  </i>
   <i type="logical" name="LFXHEG"> F  </i>
   <i type="int" name="NATURALO">     2</i>
   <i type="logical" name="L2ORDER"> F  </i>
   <i type="logical" name="LMP2LT"> F  </i>
   <i type="logical" name="LUSEW"> F  </i>
   <i name="ENCUTGW">     -2.00000000</i>
   <i name="ENCUTGWSOFT">     -2.00000000</i>
   <i name="ENCUTLF">     -1.00000000</i>
   <i type="int" name="LMAXMP2">    -1</i>
   <i name="SCISSOR">      0.00000000</i>
   <i type="int" name="NOMEGA">     0</i>
   <i type="int" name="NOMEGAR">     0</i>
   <i type="int" name="NBANDSGW">    -1</i>
   <i type="int" name="NBANDSO">    -1</i>
   <i type="int" name="NBANDSV">    -1</i>
   <i type="int" name="NELM">     1</i>
   <i type="int" name="NELMHF">     1</i>
   <i type="int" name="DIM">     3</i>
   <i type="int" name="ANTIRES">     0</i>
   <i name="OMEGAMAX">    -30.00000000</i>
   <i name="OMEGAMIN">    -30.00000000</i>
   <i name="OMEGATL">   -200.00000000</i>
   <i type="int" name="OMEGAGRID">   140</i>
   <i name="CSHIFT">     -0.10000000</i>
   <i type="logical" name="SELFENERGY"> F  </i>
   <i type="logical" name="LSPECTRAL"> F  </i>
   <i type="logical" name="LSPECTRALGW"> F  </i>
   <i type="logical" name="LSINGLES"> F  </i>
   <i type="logical" name="LFERMIGW"> F  </i>
   <i type="logical" name="ODDONLYGW"> F  </i>
   <i type="logical" name="EVENONLYGW"> F  </i>
   <i type="int" name="NKREDLFX">     1</i>
   <i type="int" name="NKREDLFY">     1</i>
   <i type="int" name="NKREDLFZ">     1</i>
   <i type="int" name="MAXMEM">  2800</i>
   <i type="int" name="TELESCOPE">     0</i>
   <i type="int" name="TAUPAR">     1</i>
   <i type="int" name="OMEGAPAR">    -1</i>
   <i name="LAMBDA">      1.00000000</i>
  </separator>
  <separator name="External order field" >
   <i name="OFIELD_KAPPA">      0.00000000</i>
   <v name="OFIELD_K">      0.00000000      0.00000000      0.00000000</v>
   <i name="OFIELD_Q6_NEAR">      0.00000000</i>
   <i name="OFIELD_Q6_FAR">      0.00000000</i>
   <i name="OFIELD_A">      0.00000000</i>
  </separator>
 </parameters>
 <atominfo>
  <atoms>      63 </atoms>
  <types>       5 </types>
  <array name="atoms" >
   <dimension dim="1">ion</dimension>
   <field type="string">element</field>
   <field type="int">atomtype</field>
   <set>
    <rc><c>Li</c><c>   1</c></rc>
    <rc><c>Li</c><c>   1</c></rc>
    <rc><c>Li</c><c>   1</c></rc>
    <rc><c>Li</c><c>   1</c></rc>
    <rc><c>Li</c><c>   1</c></rc>
    <rc><c>Li</c><c>   1</c></rc>
    <rc><c>Li</c><c>   1</c></rc>
    <rc><c>Li</c><c>   1</c></rc>
    <rc><c>Li</c><c>   1</c></rc>
    <rc><c>Li</c><c>   1</c></rc>
    <rc><c>Li</c><c>   1</c></rc>
    <rc><c>Li</c><c>   1</c></rc>
    <rc><c>Li</c><c>   1</c></rc>
    <rc><c>Li</c><c>   1</c></rc>
    <rc><c>Mg</c><c>   2</c></rc>
    <rc><c>Bi</c><c>   3</c></rc>
    <rc><c>Bi</c><c>   3</c></rc>
    <rc><c>Bi</c><c>   3</c></rc>
    <rc><c>Bi</c><c>   3</c></rc>
    <rc><c>Bi</c><c>   3</c></rc>
    <rc><c>Bi</c><c>   3</c></rc>
    <rc><c>Bi</c><c>   3</c></rc>
    <rc><c>Bi</c><c>   3</c></rc>
    <rc><c>Bi</c><c>   3</c></rc>
    <rc><c>Bi</c><c>   3</c></rc>
    <rc><c>Bi</c><c>   3</c></rc>
    <rc><c>Bi</c><c>   3</c></rc>
    <rc><c>Bi</c><c>   3</c></rc>
    <rc><c>Bi</c><c>   3</c></rc>
    <rc><c>Bi</c><c>   3</c></rc>
    <rc><c>Bi</c><c>   3</c></rc>
    <rc><c>S </c><c>   4</c></rc>
    <rc><c>S </c><c>   4</c></rc>
    <rc><c>S </c><c>   4</c></rc>
    <rc><c>S </c><c>   4</c></rc>
    <rc><c>S </c><c>   4</c></rc>
    <rc><c>S </c><c>   4</c></rc>
    <rc><c>S </c><c>   4</c></rc>
    <rc><c>S </c><c>   4</c></rc>
    <rc><c>S </c><c>   4</c></rc>
    <rc><c>S </c><c>   4</c></rc>
    <rc><c>S </c><c>   4</c></rc>
    <rc><c>S </c><c>   4</c></rc>
    <rc><c>S </c><c>   4</c></rc>
    <rc><c>S </c><c>   4</c></rc>
    <rc><c>S </c><c>   4</c></rc>
    <rc><c>S </c><c>   4</c></rc>
    <rc><c>O </c><c>   5</c></rc>
    <rc><c>O </c><c>   5</c></rc>
    <rc><c>O </c><c>   5</c></rc>
    <rc><c>O </c><c>   5</c></rc>
    <rc><c>O </c><c>   5</c></rc>
    <rc><c>O </c><c>   5</c></rc>
    <rc><c>O </c><c>   5</c></rc>
    <rc><c>O </c><c>   5</c></rc>
    <rc><c>O </c><c>   5</c></rc>
    <rc><c>O </c><c>   5</c></rc>
    <rc><c>O </c><c>   5</c></rc>
    <rc><c>O </c><c>   5</c></rc>
    <rc><c>O </c><c>   5</c></rc>
    <rc><c>O </c><c>   5</c></rc>
    <rc><c>O </c><c>   5</c></rc>
    <rc><c>O </c><c>   5</c></rc>
   </set>
  </array>
  <array name="atomtypes" >
   <dimension dim="1">type</dimension>
   <field type="int">atomspertype</field>
   <field type="string">element</field>
   <field>mass</field>
   <field>valence</field>
   <field type="string">pseudopotential</field>
   <set>
    <rc><c>  14</c><c>Li</c><c>      7.01000000</c><c>      3.00000000</c><c>  PAW_PBE Li_sv 10Sep2004               </c></rc>
    <rc><c>   1</c><c>Mg</c><c>     24.30500000</c><c>      2.00000000</c><c>  PAW_PBE Mg 13Apr2007                  </c></rc>
    <rc><c>  16</c><c>Bi</c><c>    208.98000000</c><c>     15.00000000</c><c>  PAW_PBE Bi_d 06Sep2000                </c></rc>
    <rc><c>  16</c><c>S </c><c>     32.06600000</c><c>      6.00000000</c><c>  PAW_PBE S 06Sep2000                   </c></rc>
    <rc><c>  16</c><c>O </c><c>     16.00000000</c><c>      6.00000000</c><c>  PAW_PBE O 08Apr2002                   </c></rc>
   </set>
  </array>
 </atominfo>
 <structure name="initialpos" >
  <crystal>
   <varray name="basis" >
    <v>      11.17850000       0.00000000       0.00000000 </v>
    <v>       0.00000000       9.57460000       0.00000000 </v>
    <v>       0.00000000       0.00000000      11.18240000 </v>
   </varray>
   <i name="volume">   1196.84853820 </i>
   <varray name="rec_basis" >
    <v>       0.08945744       0.00000000       0.00000000 </v>
    <v>       0.00000000       0.10444301       0.00000000 </v>
    <v>       0.00000000       0.00000000       0.08942624 </v>
   </varray>
  </crystal>
  <varray name="positions" >
   <v>       0.37539000       0.00017000       0.43687000 </v>
   <v>       0.12461000       0.99983000       0.18687000 </v>
   <v>       0.62539000       0.99983000       0.43687000 </v>
   <v>       0.87539000       0.00017000       0.43687000 </v>
   <v>       0.62461000       0.99983000       0.18687000 </v>
   <v>       0.87461000       0.00017000       0.18687000 </v>
   <v>       0.12539000       0.99983000       0.93687000 </v>
   <v>       0.37539000       0.00017000       0.93687000 </v>
   <v>       0.12461000       0.99983000       0.68687000 </v>
   <v>       0.37461000       0.00017000       0.68687000 </v>
   <v>       0.62539000       0.99983000       0.93687000 </v>
   <v>       0.87539000       0.00017000       0.93687000 </v>
   <v>       0.62461000       0.99983000       0.68687000 </v>
   <v>       0.87461000       0.00017000       0.68687000 </v>
   <v>       0.37461000       0.00017000       0.18687000 </v>
   <v>       0.00013000       0.29519000       0.06282000 </v>
   <v>       0.25013000       0.70481000       0.06282000 </v>
   <v>       0.24987000       0.29519000       0.31282000 </v>
   <v>       0.49987000       0.70481000       0.31282000 </v>
   <v>       0.50013000       0.29519000       0.06282000 </v>
   <v>       0.75013000       0.70481000       0.06282000 </v>
   <v>       0.74987000       0.29519000       0.31282000 </v>
   <v>       0.99987000       0.70481000       0.31282000 </v>
   <v>       0.00013000       0.29519000       0.56282000 </v>
   <v>       0.25013000       0.70481000       0.56282000 </v>
   <v>       0.24987000       0.29519000       0.81282000 </v>
   <v>       0.49987000       0.70481000       0.81282000 </v>
   <v>       0.50013000       0.29519000       0.56282000 </v>
   <v>       0.75013000       0.70481000       0.56282000 </v>
   <v>       0.74987000       0.29519000       0.81282000 </v>
   <v>       0.99987000       0.70481000       0.81282000 </v>
   <v>       0.25005000       0.32677000       0.06286000 </v>
   <v>       0.00005000       0.67323000       0.06286000 </v>
   <v>       0.49995000       0.32677000       0.31286000 </v>
   <v>       0.24995000       0.67323000       0.31286000 </v>
   <v>       0.75005000       0.32677000       0.06286000 </v>
   <v>       0.50005000       0.67323000       0.06286000 </v>
   <v>       0.99995000       0.32677000       0.31286000 </v>
   <v>       0.74995000       0.67323000       0.31286000 </v>
   <v>       0.25005000       0.32677000       0.56286000 </v>
   <v>       0.00005000       0.67323000       0.56286000 </v>
   <v>       0.49995000       0.32677000       0.81286000 </v>
   <v>       0.24995000       0.67323000       0.81286000 </v>
   <v>       0.75005000       0.32677000       0.56286000 </v>
   <v>       0.50005000       0.67323000       0.56286000 </v>
   <v>       0.99995000       0.32677000       0.81286000 </v>
   <v>       0.74995000       0.67323000       0.81286000 </v>
   <v>       0.49987000       0.07798000       0.06246000 </v>
   <v>       0.00013000       0.92202000       0.31246000 </v>
   <v>       0.24987000       0.92202000       0.06246000 </v>
   <v>       0.25013000       0.07798000       0.31246000 </v>
   <v>       0.99987000       0.07798000       0.06246000 </v>
   <v>       0.50013000       0.92202000       0.31246000 </v>
   <v>       0.74987000       0.92202000       0.06246000 </v>
   <v>       0.75013000       0.07798000       0.31246000 </v>
   <v>       0.49987000       0.07798000       0.56246000 </v>
   <v>       0.00013000       0.92202000       0.81246000 </v>
   <v>       0.24987000       0.92202000       0.56246000 </v>
   <v>       0.25013000       0.07798000       0.81246000 </v>
   <v>       0.99987000       0.07798000       0.56246000 </v>
   <v>       0.50013000       0.92202000       0.81246000 </v>
   <v>       0.74987000       0.92202000       0.56246000 </v>
   <v>       0.75013000       0.07798000       0.81246000 </v>
  </varray>
 </structure>
 <calculation>
  <scstep>
   <time name="dav">   65.09   65.58</time>
   <time name="total">   65.17   65.66</time>
   <energy>
    <i name="alphaZ">   1086.17722071 </i>
    <i name="ewald"> -31340.19078059 </i>
    <i name="hartreedc"> -12721.09403838 </i>
    <i name="XCdc">   1542.80533332 </i>
    <i name="pawpsdc">  37012.13516878 </i>
    <i name="pawaedc"> -36680.30965123 </i>
    <i name="eentropy">      0.00000000 </i>
    <i name="bandstr">   1531.40987642 </i>
    <i name="atom">  45556.09114881 </i>
    <i name="e_fr_energy">   5987.02427783 </i>
    <i name="e_wo_entrp">   5987.02427783 </i>
    <i name="e_0_energy">   5987.02427783 </i>
   </energy>
  </scstep>
  <scstep>
   <time name="dav">   64.62   65.34</time>
   <time name="total">   64.63   65.35</time>
   <energy>
    <i name="e_fr_energy">    781.73767263 </i>
    <i name="e_wo_entrp">    781.73767263 </i>
    <i name="e_0_energy">    781.73767263 </i>
   </energy>
  </scstep>
  <scstep>
   <time name="dav">   71.72   72.19</time>
   <time name="total">   71.72   72.19</time>
   <energy>
    <i name="e_fr_energy">   -241.75625310 </i>
    <i name="e_wo_entrp">   -241.75625310 </i>
    <i name="e_0_energy">   -241.75625310 </i>
   </energy>
  </scstep>
  <scstep>
   <time name="dav">   79.85   80.54</time>
   <time name="total">   79.86   80.54</time>
   <energy>
    <i name="e_fr_energy">   -357.17944997 </i>
    <i name="e_wo_entrp">   -357.17944997 </i>
    <i name="e_0_energy">   -357.17944997 </i>
   </energy>
  </scstep>
  <scstep>
   <time name="dav">  105.60  105.97</time>
   <time name="total">  106.34  106.71</time>
   <energy>
    <i name="e_fr_energy">   -366.93399413 </i>
    <i name="e_wo_entrp">   -366.93399413 </i>
    <i name="e_0_energy">   -366.93399413 </i>
   </energy>
  </scstep>
  <scstep>
   <time name="dav">   92.90   92.96</time>
   <time name="total">   93.72   93.78</time>
   <energy>
    <i name="e_fr_energy">   -305.53148911 </i>
    <i name="e_wo_entrp">   -305.53148911 </i>
    <i name="e_0_energy">   -305.53148911 </i>
   </energy>
  </scstep>
  <scstep>
   <time name="dav">   74.25   74.31</time>
   <time name="total">   75.05   75.11</time>
   <energy>
    <i name="e_fr_energy">   -307.75965652 </i>
    <i name="e_wo_entrp">   -307.75965652 </i>
    <i name="e_0_energy">   -307.75965652 </i>
   </energy>
  </scstep>
  <scstep>
   <time name="dav">   82.36   82.44</time>
   <time name="total">   83.16   83.24</time>
   <energy>
    <i name="e_fr_energy">   -306.24922821 </i>
    <i name="e_wo_entrp">   -306.24922821 </i>
    <i name="e_0_energy">   -306.24922821 </i>
   </energy>
  </scstep>
  <scstep>
   <time name="dav">   91.58   91.64</time>
   <time name="total">   92.38   92.44</time>
   <energy>
    <i name="e_fr_energy">   -305.56206450 </i>
    <i name="e_wo_entrp">   -305.56206450 </i>
    <i name="e_0_energy">   -305.56206450 </i>
   </energy>
  </scstep>
  <scstep>
   <time name="dav">   79.92   79.98</time>
   <time name="total">   80.72   80.78</time>
   <energy>
    <i name="e_fr_energy">   -305.54248827 </i>
    <i name="e_wo_entrp">   -305.54248827 </i>
    <i name="e_0_energy">   -305.54248827 </i>
   </energy>
  </scstep>
  <scstep>
   <time name="dav">   85.81   85.88</time>
   <time name="total">   86.62   86.69</time>
   <energy>
    <i name="e_fr_energy">   -305.55574305 </i>
    <i name="e_wo_entrp">   -305.55574305 </i>
    <i name="e_0_energy">   -305.55574305 </i>
   </energy>
  </scstep>
  <scstep>
   <time name="dav">   88.58   88.61</time>
   <time name="total">   89.40   89.43</time>
   <energy>
    <i name="e_fr_energy">   -305.56109094 </i>
    <i name="e_wo_entrp">   -305.56109094 </i>
    <i name="e_0_energy">   -305.56109094 </i>
   </energy>
  </scstep>
  <scstep>
   <time name="dav">   79.64   79.68</time>
   <time name="total">   80.44   80.48</time>
   <energy>
    <i name="e_fr_energy">   -305.56197473 </i>
    <i name="e_wo_entrp">   -305.56197473 </i>
    <i name="e_0_energy">   -305.56197473 </i>
   </energy>
  </scstep>
  <scstep>
   <time name="dav">   75.72   75.74</time>
   <time name="total">   76.52   76.55</time>
   <energy>
    <i name="e_fr_energy">   -305.56222001 </i>
    <i name="e_wo_entrp">   -305.56222001 </i>
    <i name="e_0_energy">   -305.56222001 </i>
   </energy>
  </scstep>
  <scstep>
   <time name="dav">   94.86   94.98</time>
   <time name="total">   95.66   95.78</time>
   <energy>
    <i name="e_fr_energy">   -305.56224832 </i>
    <i name="e_wo_entrp">   -305.56224832 </i>
    <i name="e_0_energy">   -305.56224832 </i>
   </energy>
  </scstep>
  <scstep>
   <time name="dav">   67.87   68.00</time>
   <time name="total">   68.68   68.80</time>
   <energy>
    <i name="e_fr_energy">   -305.56226529 </i>
    <i name="e_wo_entrp">   -305.56226529 </i>
    <i name="e_0_energy">   -305.56226529 </i>
   </energy>
  </scstep>
  <scstep>
   <time name="dav">   75.43   75.76</time>
   <time name="total">   76.23   76.57</time>
   <energy>
    <i name="e_fr_energy">   -305.56226819 </i>
    <i name="e_wo_entrp">   -305.56226819 </i>
    <i name="e_0_energy">   -305.56226819 </i>
   </energy>
  </scstep>
  <scstep>
   <time name="dav">   65.35   65.53</time>
   <time name="total">   65.42   65.61</time>
   <energy>
    <i name="alphaZ">   1086.17722071 </i>
    <i name="ewald"> -31340.19078059 </i>
    <i name="hartreedc"> -12955.65512825 </i>
    <i name="XCdc">   1565.13755720 </i>
    <i name="pawpsdc">  44044.26284876 </i>
    <i name="pawaedc"> -43688.72476029 </i>
    <i name="eentropy">      0.00000000 </i>
    <i name="bandstr">  -4572.66037463 </i>
    <i name="atom">  45556.09114881 </i>
    <i name="e_fr_energy">   -305.56226828 </i>
    <i name="e_wo_entrp">   -305.56226828 </i>
    <i name="e_0_energy">   -305.56226828 </i>
   </energy>
  </scstep>
  <structure>
   <crystal>
    <varray name="basis" >
     <v>      11.17850000       0.00000000       0.00000000 </v>
     <v>       0.00000000       9.57460000       0.00000000 </v>
     <v>       0.00000000       0.00000000      11.18240000 </v>
    </varray>
    <i name="volume">   1196.84853820 </i>
    <varray name="rec_basis" >
     <v>       0.08945744       0.00000000       0.00000000 </v>
     <v>       0.00000000       0.10444301       0.00000000 </v>
     <v>       0.00000000       0.00000000       0.08942624 </v>
    </varray>
   </crystal>
   <varray name="positions" >
    <v>       0.37539000       0.00017000       0.43687000 </v>
    <v>       0.12461000       0.99983000       0.18687000 </v>
    <v>       0.62539000       0.99983000       0.43687000 </v>
    <v>       0.87539000       0.00017000       0.43687000 </v>
    <v>       0.62461000       0.99983000       0.18687000 </v>
    <v>       0.87461000       0.00017000       0.18687000 </v>
    <v>       0.12539000       0.99983000       0.93687000 </v>
    <v>       0.37539000       0.00017000       0.93687000 </v>
    <v>       0.12461000       0.99983000       0.68687000 </v>
    <v>       0.37461000       0.00017000       0.68687000 </v>
    <v>       0.62539000       0.99983000       0.93687000 </v>
    <v>       0.87539000       0.00017000       0.93687000 </v>
    <v>       0.62461000       0.99983000       0.68687000 </v>
    <v>       0.87461000       0.00017000       0.68687000 </v>
    <v>       0.37461000       0.00017000       0.18687000 </v>
    <v>       0.00013000       0.29519000       0.06282000 </v>
    <v>       0.25013000       0.70481000       0.06282000 </v>
    <v>       0.24987000       0.29519000       0.31282000 </v>
    <v>       0.49987000       0.70481000       0.31282000 </v>
    <v>       0.50013000       0.29519000       0.06282000 </v>
    <v>       0.75013000       0.70481000       0.06282000 </v>
    <v>       0.74987000       0.29519000       0.31282000 </v>
    <v>       0.99987000       0.70481000       0.31282000 </v>
    <v>       0.00013000       0.29519000       0.56282000 </v>
    <v>       0.25013000       0.70481000       0.56282000 </v>
    <v>       0.24987000       0.29519000       0.81282000 </v>
    <v>       0.49987000       0.70481000       0.81282000 </v>
    <v>       0.50013000       0.29519000       0.56282000 </v>
    <v>       0.75013000       0.70481000       0.56282000 </v>
    <v>       0.74987000       0.29519000       0.81282000 </v>
    <v>       0.99987000       0.70481000       0.81282000 </v>
    <v>       0.25005000       0.32677000       0.06286000 </v>
    <v>       0.00005000       0.67323000       0.06286000 </v>
    <v>       0.49995000       0.32677000       0.31286000 </v>
    <v>       0.24995000       0.67323000       0.31286000 </v>
    <v>       0.75005000       0.32677000       0.06286000 </v>
    <v>       0.50005000       0.67323000       0.06286000 </v>
    <v>       0.99995000       0.32677000       0.31286000 </v>
    <v>       0.74995000       0.67323000       0.31286000 </v>
    <v>       0.25005000       0.32677000       0.56286000 </v>
    <v>       0.00005000       0.67323000       0.56286000 </v>
    <v>       0.49995000       0.32677000       0.81286000 </v>
    <v>       0.24995000       0.67323000       0.81286000 </v>
    <v>       0.75005000       0.32677000       0.56286000 </v>
    <v>       0.50005000       0.67323000       0.56286000 </v>
    <v>       0.99995000       0.32677000       0.81286000 </v>
    <v>       0.74995000       0.67323000       0.81286000 </v>
    <v>       0.49987000       0.07798000       0.06246000 </v>
    <v>       0.00013000       0.92202000       0.31246000 </v>
    <v>       0.24987000       0.92202000       0.06246000 </v>
    <v>       0.25013000       0.07798000       0.31246000 </v>
    <v>       0.99987000       0.07798000       0.06246000 </v>
    <v>       0.50013000       0.92202000       0.31246000 </v>
    <v>       0.74987000       0.92202000       0.06246000 </v>
    <v>       0.75013000       0.07798000       0.31246000 </v>
    <v>       0.49987000       0.07798000       0.56246000 </v>
    <v>       0.00013000       0.92202000       0.81246000 </v>
    <v>       0.24987000       0.92202000       0.56246000 </v>
    <v>       0.25013000       0.07798000       0.81246000 </v>
    <v>       0.99987000       0.07798000       0.56246000 </v>
    <v>       0.50013000       0.92202000       0.81246000 </v>
    <v>       0.74987000       0.92202000       0.56246000 </v>
    <v>       0.75013000       0.07798000       0.81246000 </v>
   </varray>
  </structure>
  <varray name="forces" >
   <v>      -0.54119643      -0.00010291       0.52955884 </v>
   <v>      -0.51634481       0.00109717       0.54052662 </v>
   <v>       0.11768283       0.06684819       0.13293607 </v>
   <v>       0.52005412      -0.00395617       0.04765773 </v>
   <v>       0.53924451      -0.00269571       0.03477703 </v>
   <v>       0.20222069      -0.06325513       0.19752102 </v>
   <v>      -0.13497560       0.06718394      -0.11982993 </v>
   <v>      -0.03501991      -0.00246154      -0.52547640 </v>
   <v>      -0.03274926      -0.00218741      -0.52197250 </v>
   <v>      -0.18630203      -0.06305023      -0.19169148 </v>
   <v>       0.11893421      -0.06910542      -0.12135683 </v>
   <v>       0.02125782      -0.00133284      -0.03581411 </v>
   <v>       0.04956239      -0.00053398      -0.02404267 </v>
   <v>       0.20024810       0.05822048      -0.18594914 </v>
   <v>      -0.26613434       0.10436418       0.32255624 </v>
   <v>      -0.07892254       0.02096381       0.03542493 </v>
   <v>      -0.29793485      -1.05713302      -0.10664240 </v>
   <v>      -0.43607718       0.03410786       0.43903096 </v>
   <v>       0.10678603      -1.04210031       0.28759002 </v>
   <v>       0.14251080       1.05574523      -0.14755780 </v>
   <v>       0.20809714      -0.02331968      -0.00030682 </v>
   <v>       0.26059103       0.01098732       0.13974018 </v>
   <v>       0.09116082       1.03139126       0.28709341 </v>
   <v>       0.13356142      -1.04809406      -0.14729549 </v>
   <v>      -0.29795440       1.02728327      -0.08897688 </v>
   <v>      -0.13792231       0.01223127      -0.26013217 </v>
   <v>       0.00342939      -0.02413283      -0.21896144 </v>
   <v>      -0.04488749       0.02009944       0.06643939 </v>
   <v>       0.18827234       0.01091886       0.00144696 </v>
   <v>       0.15903839      -0.01028309      -0.15754476 </v>
   <v>      -0.00078755       0.01032997      -0.19916199 </v>
   <v>       0.20407253       0.09727519       0.04255392 </v>
   <v>       0.08598887      -0.18785726      -0.10433643 </v>
   <v>      -0.04187747       0.09990173      -0.20414181 </v>
   <v>       0.31887713      -0.09592268      -0.32032820 </v>
   <v>      -0.16394944       0.14346177       0.00040641 </v>
   <v>      -0.12420918      -0.04873294       0.12189965 </v>
   <v>      -0.01262145       0.19203517      -0.19149820 </v>
   <v>      -0.26473042      -0.18584767      -0.07672839 </v>
   <v>       0.18981934       0.19154830       0.01387509 </v>
   <v>      -0.11810222      -0.22079032       0.11795646 </v>
   <v>      -0.00053895       0.14339759       0.16351129 </v>
   <v>       0.07714840      -0.18491844       0.26592948 </v>
   <v>      -0.18111214       0.21869423      -0.00483373 </v>
   <v>       0.10231590      -0.18810239      -0.08475230 </v>
   <v>       0.00606315       0.21849221       0.18019921 </v>
   <v>      -0.07865127      -0.17911111       0.07931487 </v>
   <v>      -0.54866620      -0.91514365       0.54702191 </v>
   <v>      -0.60147903      -0.82907385      -0.73804889 </v>
   <v>       0.65142338       0.85548077       0.46194302 </v>
   <v>       1.26350074      -0.14156996      -1.27627300 </v>
   <v>       0.08270942      -0.02660738      -0.07418247 </v>
   <v>      -0.48656278       0.85694432      -0.66669251 </v>
   <v>      -0.16164170       0.08269947      -0.00021967 </v>
   <v>      -0.24324341      -0.02343239      -0.09054666 </v>
   <v>       0.07830420      -0.02585419      -0.07701215 </v>
   <v>      -0.00641265      -0.02960020       0.15700202 </v>
   <v>       0.74137104      -0.82798767       0.59628458 </v>
   <v>       0.08384990      -0.02500290       0.23753647 </v>
   <v>      -0.65560402       0.87950867       0.66267160 </v>
   <v>      -0.00727921       0.08283387       0.16603582 </v>
   <v>      -0.15221836      -0.02978874       0.00040933 </v>
   <v>      -0.09198743      -0.01495747       0.08545666 </v>
  </varray>
  <varray name="stress" >
   <v>      -8.46194368      -0.01982525       0.27082463 </v>
   <v>      -0.01982547     -14.82015065       0.07062535 </v>
   <v>       0.27082472       0.07062539      -9.09511569 </v>
  </varray>
  <energy>
   <i name="e_fr_energy">   -322.70444397 </i>
   <i name="e_wo_entrp">   -322.70444397 </i>
   <i name="e_0_energy">      0.00000000 </i>
  </energy>
  <time name="totalsc"> 1566.10 1570.48</time>
  <eigenvalues>
   <array>
    <dimension dim="1">band</dimension>
    <dimension dim="2">kpoint</dimension>
    <dimension dim="3">spin</dimension>
    <field>eigene</field>
    <field>occ</field>
    <set>
     <set comment="spin 1">
      <set comment="kpoint 1">
       <r>  -40.2285    1.0000 </r>
       <r>  -40.2278    1.0000 </r>
       <r>  -40.0070    1.0000 </r>
       <r>  -39.9224    1.0000 </r>
       <r>  -39.9205    1.0000 </r>
       <r>  -39.7817    1.0000 </r>
       <r>  -39.7812    1.0000 </r>
       <r>  -39.7509    1.0000 </r>
       <r>  -39.7507    1.0000 </r>
       <r>  -39.5977    1.0000 </r>
       <r>  -39.5950    1.0000 </r>
       <r>  -39.5041    1.0000 </r>
       <r>  -39.3139    1.0000 </r>
       <r>  -39.3139    1.0000 </r>
       <r>  -18.9617    1.0000 </r>
       <r>  -18.8865    1.0000 </r>
       <r>  -18.8849    1.0000 </r>
       <r>  -18.8786    1.0000 </r>
       <r>  -18.8756    1.0000 </r>
       <r>  -18.8159    1.0000 </r>
       <r>  -18.8092    1.0000 </r>
       <r>  -18.8008    1.0000 </r>
       <r>  -18.7923    1.0000 </r>
       <r>  -18.7823    1.0000 </r>
       <r>  -18.7774    1.0000 </r>
       <r>  -18.7086    1.0000 </r>
       <r>  -18.7025    1.0000 </r>
       <r>  -18.6953    1.0000 </r>
       <r>  -18.6906    1.0000 </r>
       <r>  -18.6639    1.0000 </r>
       <r>  -18.6545    1.0000 </r>
       <r>  -18.6506    1.0000 </r>
       <r>  -18.6414    1.0000 </r>
       <r>  -18.6400    1.0000 </r>
       <r>  -18.6309    1.0000 </r>
       <r>  -18.6231    1.0000 </r>
       <r>  -18.6170    1.0000 </r>
       <r>  -18.6087    1.0000 </r>
       <r>  -18.6057    1.0000 </r>
       <r>  -18.6018    1.0000 </r>
       <r>  -18.5956    1.0000 </r>
       <r>  -18.5917    1.0000 </r>
       <r>  -18.5895    1.0000 </r>
       <r>  -18.5856    1.0000 </r>
       <r>  -18.5837    1.0000 </r>
       <r>  -18.5792    1.0000 </r>
       <r>  -18.5785    1.0000 </r>
       <r>  -18.5762    1.0000 </r>
       <r>  -18.5758    1.0000 </r>
       <r>  -18.5724    1.0000 </r>
       <r>  -18.5590    1.0000 </r>
       <r>  -18.5537    1.0000 </r>
       <r>  -18.5523    1.0000 </r>
       <r>  -18.5199    1.0000 </r>
       <r>  -18.5104    1.0000 </r>
       <r>  -18.5063    1.0000 </r>
       <r>  -18.5002    1.0000 </r>
       <r>  -18.4969    1.0000 </r>
       <r>  -18.4948    1.0000 </r>
       <r>  -18.4900    1.0000 </r>
       <r>  -18.4893    1.0000 </r>
       <r>  -18.4862    1.0000 </r>
       <r>  -18.4805    1.0000 </r>
       <r>  -18.4601    1.0000 </r>
       <r>  -18.4575    1.0000 </r>
       <r>  -18.4360    1.0000 </r>
       <r>  -18.4331    1.0000 </r>
       <r>  -18.4309    1.0000 </r>
       <r>  -18.4303    1.0000 </r>
       <r>  -18.4299    1.0000 </r>
       <r>  -18.4274    1.0000 </r>
       <r>  -18.4250    1.0000 </r>
       <r>  -18.4245    1.0000 </r>
       <r>  -18.4101    1.0000 </r>
       <r>  -18.4093    1.0000 </r>
       <r>  -18.3521    1.0000 </r>
       <r>  -18.3510    1.0000 </r>
       <r>  -18.3477    1.0000 </r>
       <r>  -18.3401    1.0000 </r>
       <r>  -18.3396    1.0000 </r>
       <r>  -18.3381    1.0000 </r>
       <r>  -18.3361    1.0000 </r>
       <r>  -18.3246    1.0000 </r>
       <r>  -18.2796    1.0000 </r>
       <r>  -18.2672    1.0000 </r>
       <r>  -18.2579    1.0000 </r>
       <r>  -18.2489    1.0000 </r>
       <r>  -18.1850    1.0000 </r>
       <r>  -18.1394    1.0000 </r>
       <r>  -18.1373    1.0000 </r>
       <r>  -18.1270    1.0000 </r>
       <r>  -18.1218    1.0000 </r>
       <r>  -18.0680    1.0000 </r>
       <r>  -18.0589    1.0000 </r>
       <r>  -13.6111    1.0000 </r>
       <r>  -13.4512    1.0000 </r>
       <r>  -13.4327    1.0000 </r>
       <r>  -12.7676    1.0000 </r>
       <r>  -12.7475    1.0000 </r>
       <r>  -12.7135    1.0000 </r>
       <r>  -12.6320    1.0000 </r>
       <r>  -12.6301    1.0000 </r>
       <r>  -12.6039    1.0000 </r>
       <r>  -12.5926    1.0000 </r>
       <r>  -12.5827    1.0000 </r>
       <r>  -12.4999    1.0000 </r>
       <r>  -12.4824    1.0000 </r>
       <r>  -11.9253    1.0000 </r>
       <r>  -11.8702    1.0000 </r>
       <r>  -11.7970    1.0000 </r>
       <r>   -9.2835    1.0000 </r>
       <r>   -8.9919    1.0000 </r>
       <r>   -8.4765    1.0000 </r>
       <r>   -8.4697    1.0000 </r>
       <r>   -8.4170    1.0000 </r>
       <r>   -8.4076    1.0000 </r>
       <r>   -8.2535    1.0000 </r>
       <r>   -8.2481    1.0000 </r>
       <r>   -8.1995    1.0000 </r>
       <r>   -8.1833    1.0000 </r>
       <r>   -7.9714    1.0000 </r>
       <r>   -7.9456    1.0000 </r>
       <r>   -7.9415    1.0000 </r>
       <r>   -7.9054    1.0000 </r>
       <r>   -7.3003    1.0000 </r>
       <r>   -7.2950    1.0000 </r>
       <r>   -6.3291    1.0000 </r>
       <r>   -6.3167    1.0000 </r>
       <r>   -6.3047    1.0000 </r>
       <r>   -6.2937    1.0000 </r>
       <r>   -5.4958    1.0000 </r>
       <r>   -5.4895    1.0000 </r>
       <r>   -5.3201    1.0000 </r>
       <r>   -5.2900    1.0000 </r>
       <r>   -5.2220    1.0000 </r>
       <r>   -5.2152    1.0000 </r>
       <r>   -5.1304    1.0000 </r>
       <r>   -5.1014    1.0000 </r>
       <r>   -5.0224    1.0000 </r>
       <r>   -4.9939    1.0000 </r>
       <r>   -3.7414    1.0000 </r>
       <r>   -3.5828    1.0000 </r>
       <r>   -1.3478    1.0000 </r>
       <r>   -1.3062    1.0000 </r>
       <r>   -1.0151    1.0000 </r>
       <r>   -1.0026    1.0000 </r>
       <r>   -0.5067    1.0000 </r>
       <r>   -0.4374    1.0000 </r>
       <r>   -0.4130    1.0000 </r>
       <r>   -0.4119    1.0000 </r>
       <r>   -0.1282    1.0000 </r>
       <r>   -0.1154    1.0000 </r>
       <r>   -0.0946    1.0000 </r>
       <r>   -0.0923    1.0000 </r>
       <r>   -0.0104    1.0000 </r>
       <r>    0.2638    1.0000 </r>
       <r>    0.2700    1.0000 </r>
       <r>    0.3637    1.0000 </r>
       <r>    0.5038    1.0000 </r>
       <r>    0.5902    1.0000 </r>
       <r>    0.6552    1.0000 </r>
       <r>    0.7443    1.0000 </r>
       <r>    0.7785    1.0000 </r>
       <r>    0.8022    1.0000 </r>
       <r>    0.8107    1.0000 </r>
       <r>    0.8382    1.0000 </r>
       <r>    0.8885    1.0000 </r>
       <r>    0.9212    1.0000 </r>
       <r>    0.9486    1.0000 </r>
       <r>    1.0431    1.0000 </r>
       <r>    1.0629    1.0000 </r>
       <r>    1.0877    1.0000 </r>
       <r>    1.0942    1.0000 </r>
       <r>    1.1551    1.0000 </r>
       <r>    1.2022    1.0000 </r>
       <r>    1.2687    1.0000 </r>
       <r>    1.3163    1.0000 </r>
       <r>    1.3702    1.0000 </r>
       <r>    1.4324    1.0000 </r>
       <r>    1.4742    1.0000 </r>
       <r>    1.4784    1.0000 </r>
       <r>    1.5245    1.0000 </r>
       <r>    1.5705    1.0000 </r>
       <r>    1.6178    1.0000 </r>
       <r>    1.6269    1.0000 </r>
       <r>    1.7463    1.0000 </r>
       <r>    1.7675    1.0000 </r>
       <r>    1.7994    1.0000 </r>
       <r>    1.8320    1.0000 </r>
       <r>    1.8966    1.0000 </r>
       <r>    1.9081    1.0000 </r>
       <r>    1.9712    1.0000 </r>
       <r>    1.9723    1.0000 </r>
       <r>    2.0784    1.0000 </r>
       <r>    2.1048    1.0000 </r>
       <r>    2.1691    1.0000 </r>
       <r>    2.2585    1.0000 </r>
       <r>    2.3421    1.0000 </r>
       <r>    2.3535    1.0000 </r>
       <r>    2.4455    1.0000 </r>
       <r>    2.4880    1.0000 </r>
       <r>    2.5927    1.0000 </r>
       <r>    2.6201    1.0000 </r>
       <r>    2.6219    1.0000 </r>
       <r>    2.6287    1.0000 </r>
       <r>    2.6407    1.0000 </r>
       <r>    2.6531    1.0000 </r>
       <r>    2.6606    1.0000 </r>
       <r>    2.6808    1.0000 </r>
       <r>    2.7719    1.0000 </r>
       <r>    2.7910    1.0000 </r>
       <r>    2.8138    1.0000 </r>
       <r>    2.8377    1.0000 </r>
       <r>    2.8875    1.0000 </r>
       <r>    2.9024    1.0000 </r>
       <r>    2.9045    1.0000 </r>
       <r>    2.9537    1.0000 </r>
       <r>    3.0130    1.0000 </r>
       <r>    3.0471    1.0000 </r>
       <r>    3.0690    1.0000 </r>
       <r>    3.1402    1.0000 </r>
       <r>    3.1987    1.0000 </r>
       <r>    3.2046    1.0000 </r>
       <r>    3.2320    1.0000 </r>
       <r>    3.2448    1.0000 </r>
       <r>    3.2789    1.0000 </r>
       <r>    3.2815    1.0000 </r>
       <r>    3.3230    1.0000 </r>
       <r>    3.4144    1.0000 </r>
       <r>    3.4171    1.0000 </r>
       <r>    3.4617    1.0000 </r>
       <r>    3.4828    1.0000 </r>
       <r>    3.5564    1.0000 </r>
       <r>    3.6784    1.0000 </r>
       <r>    4.2471    1.0000 </r>
       <r>    4.2765    1.0000 </r>
       <r>    4.2774    1.0000 </r>
       <r>    4.2883    1.0000 </r>
       <r>    5.1545    0.0000 </r>
       <r>    5.1622    0.0000 </r>
       <r>    5.1642    0.0000 </r>
       <r>    5.1832    0.0000 </r>
       <r>    5.7908    0.0000 </r>
       <r>    5.8074    0.0000 </r>
       <r>    5.8095    0.0000 </r>
       <r>    5.8490    0.0000 </r>
       <r>    6.1656    0.0000 </r>
       <r>    6.1696    0.0000 </r>
       <r>    6.1919    0.0000 </r>
       <r>    6.1999    0.0000 </r>
       <r>    6.3044    0.0000 </r>
       <r>    6.3135    0.0000 </r>
       <r>    6.3273    0.0000 </r>
       <r>    6.3387    0.0000 </r>
       <r>    7.1553    0.0000 </r>
       <r>    7.2312    0.0000 </r>
       <r>    7.2781    0.0000 </r>
       <r>    7.3340    0.0000 </r>
       <r>    7.8856    0.0000 </r>
       <r>    7.8970    0.0000 </r>
       <r>    7.9934    0.0000 </r>
       <r>    8.0357    0.0000 </r>
       <r>    8.0561    0.0000 </r>
       <r>    8.1266    0.0000 </r>
       <r>    8.2450    0.0000 </r>
       <r>    8.2499    0.0000 </r>
       <r>    8.5318    0.0000 </r>
       <r>    8.7137    0.0000 </r>
       <r>    8.7864    0.0000 </r>
       <r>    8.8478    0.0000 </r>
       <r>    8.8688    0.0000 </r>
       <r>    8.9266    0.0000 </r>
       <r>    9.0195    0.0000 </r>
       <r>    9.0464    0.0000 </r>
       <r>    9.0604    0.0000 </r>
       <r>    9.0724    0.0000 </r>
       <r>    9.1085    0.0000 </r>
       <r>    9.1933    0.0000 </r>
       <r>    9.2184    0.0000 </r>
       <r>    9.2251    0.0000 </r>
       <r>    9.2557    0.0000 </r>
       <r>    9.3057    0.0000 </r>
       <r>    9.4579    0.0000 </r>
       <r>    9.5704    0.0000 </r>
       <r>    9.5814    0.0000 </r>
       <r>    9.7243    0.0000 </r>
       <r>    9.7280    0.0000 </r>
       <r>    9.7298    0.0000 </r>
       <r>    9.7384    0.0000 </r>
       <r>   10.1081    0.0000 </r>
       <r>   10.2752    0.0000 </r>
       <r>   10.2965    0.0000 </r>
       <r>   10.3003    0.0000 </r>
       <r>   10.3356    0.0000 </r>
       <r>   10.4408    0.0000 </r>
       <r>   10.4969    0.0000 </r>
       <r>   10.6471    0.0000 </r>
       <r>   10.6516    0.0000 </r>
       <r>   10.6885    0.0000 </r>
       <r>   10.6960    0.0000 </r>
       <r>   11.3047    0.0000 </r>
       <r>   11.3375    0.0000 </r>
       <r>   11.4942    0.0000 </r>
       <r>   11.5466    0.0000 </r>
       <r>   11.6515    0.0000 </r>
       <r>   11.7104    0.0000 </r>
       <r>   11.7583    0.0000 </r>
       <r>   11.8431    0.0000 </r>
      </set>
      <set comment="kpoint 2">
       <r>  -40.2285    1.0000 </r>
       <r>  -40.2278    1.0000 </r>
       <r>  -40.0070    1.0000 </r>
       <r>  -39.9224    1.0000 </r>
       <r>  -39.9205    1.0000 </r>
       <r>  -39.7817    1.0000 </r>
       <r>  -39.7812    1.0000 </r>
       <r>  -39.7509    1.0000 </r>
       <r>  -39.7507    1.0000 </r>
       <r>  -39.5977    1.0000 </r>
       <r>  -39.5950    1.0000 </r>
       <r>  -39.5041    1.0000 </r>
       <r>  -39.3139    1.0000 </r>
       <r>  -39.3139    1.0000 </r>
       <r>  -18.9617    1.0000 </r>
       <r>  -18.8865    1.0000 </r>
       <r>  -18.8849    1.0000 </r>
       <r>  -18.8786    1.0000 </r>
       <r>  -18.8756    1.0000 </r>
       <r>  -18.8157    1.0000 </r>
       <r>  -18.8091    1.0000 </r>
       <r>  -18.8009    1.0000 </r>
       <r>  -18.7923    1.0000 </r>
       <r>  -18.7823    1.0000 </r>
       <r>  -18.7774    1.0000 </r>
       <r>  -18.7086    1.0000 </r>
       <r>  -18.7025    1.0000 </r>
       <r>  -18.6953    1.0000 </r>
       <r>  -18.6906    1.0000 </r>
       <r>  -18.6640    1.0000 </r>
       <r>  -18.6545    1.0000 </r>
       <r>  -18.6505    1.0000 </r>
       <r>  -18.6414    1.0000 </r>
       <r>  -18.6400    1.0000 </r>
       <r>  -18.6309    1.0000 </r>
       <r>  -18.6214    1.0000 </r>
       <r>  -18.6157    1.0000 </r>
       <r>  -18.6083    1.0000 </r>
       <r>  -18.6071    1.0000 </r>
       <r>  -18.6007    1.0000 </r>
       <r>  -18.5978    1.0000 </r>
       <r>  -18.5949    1.0000 </r>
       <r>  -18.5908    1.0000 </r>
       <r>  -18.5901    1.0000 </r>
       <r>  -18.5809    1.0000 </r>
       <r>  -18.5804    1.0000 </r>
       <r>  -18.5783    1.0000 </r>
       <r>  -18.5763    1.0000 </r>
       <r>  -18.5728    1.0000 </r>
       <r>  -18.5638    1.0000 </r>
       <r>  -18.5586    1.0000 </r>
       <r>  -18.5563    1.0000 </r>
       <r>  -18.5551    1.0000 </r>
       <r>  -18.5200    1.0000 </r>
       <r>  -18.5104    1.0000 </r>
       <r>  -18.5062    1.0000 </r>
       <r>  -18.5002    1.0000 </r>
       <r>  -18.4969    1.0000 </r>
       <r>  -18.4948    1.0000 </r>
       <r>  -18.4901    1.0000 </r>
       <r>  -18.4892    1.0000 </r>
       <r>  -18.4862    1.0000 </r>
       <r>  -18.4805    1.0000 </r>
       <r>  -18.4601    1.0000 </r>
       <r>  -18.4575    1.0000 </r>
       <r>  -18.4352    1.0000 </r>
       <r>  -18.4342    1.0000 </r>
       <r>  -18.4309    1.0000 </r>
       <r>  -18.4302    1.0000 </r>
       <r>  -18.4294    1.0000 </r>
       <r>  -18.4280    1.0000 </r>
       <r>  -18.4249    1.0000 </r>
       <r>  -18.4240    1.0000 </r>
       <r>  -18.4102    1.0000 </r>
       <r>  -18.4093    1.0000 </r>
       <r>  -18.3522    1.0000 </r>
       <r>  -18.3510    1.0000 </r>
       <r>  -18.3477    1.0000 </r>
       <r>  -18.3401    1.0000 </r>
       <r>  -18.3396    1.0000 </r>
       <r>  -18.3380    1.0000 </r>
       <r>  -18.3361    1.0000 </r>
       <r>  -18.3247    1.0000 </r>
       <r>  -18.2796    1.0000 </r>
       <r>  -18.2672    1.0000 </r>
       <r>  -18.2579    1.0000 </r>
       <r>  -18.2489    1.0000 </r>
       <r>  -18.1850    1.0000 </r>
       <r>  -18.1394    1.0000 </r>
       <r>  -18.1373    1.0000 </r>
       <r>  -18.1270    1.0000 </r>
       <r>  -18.1218    1.0000 </r>
       <r>  -18.0680    1.0000 </r>
       <r>  -18.0589    1.0000 </r>
       <r>  -13.6108    1.0000 </r>
       <r>  -13.4514    1.0000 </r>
       <r>  -13.4328    1.0000 </r>
       <r>  -12.7615    1.0000 </r>
       <r>  -12.7494    1.0000 </r>
       <r>  -12.7178    1.0000 </r>
       <r>  -12.6377    1.0000 </r>
       <r>  -12.6300    1.0000 </r>
       <r>  -12.5975    1.0000 </r>
       <r>  -12.5928    1.0000 </r>
       <r>  -12.5837    1.0000 </r>
       <r>  -12.4980    1.0000 </r>
       <r>  -12.4840    1.0000 </r>
       <r>  -11.9254    1.0000 </r>
       <r>  -11.8704    1.0000 </r>
       <r>  -11.7968    1.0000 </r>
       <r>   -9.1412    1.0000 </r>
       <r>   -8.9811    1.0000 </r>
       <r>   -8.8691    1.0000 </r>
       <r>   -8.7060    1.0000 </r>
       <r>   -8.3458    1.0000 </r>
       <r>   -8.3330    1.0000 </r>
       <r>   -8.2075    1.0000 </r>
       <r>   -8.1977    1.0000 </r>
       <r>   -8.1434    1.0000 </r>
       <r>   -8.1355    1.0000 </r>
       <r>   -8.0076    1.0000 </r>
       <r>   -7.9969    1.0000 </r>
       <r>   -7.6904    1.0000 </r>
       <r>   -7.5831    1.0000 </r>
       <r>   -7.5719    1.0000 </r>
       <r>   -7.4638    1.0000 </r>
       <r>   -5.9985    1.0000 </r>
       <r>   -5.9675    1.0000 </r>
       <r>   -5.8857    1.0000 </r>
       <r>   -5.7880    1.0000 </r>
       <r>   -5.7741    1.0000 </r>
       <r>   -5.7425    1.0000 </r>
       <r>   -5.6575    1.0000 </r>
       <r>   -5.6235    1.0000 </r>
       <r>   -5.5874    1.0000 </r>
       <r>   -5.5579    1.0000 </r>
       <r>   -5.4236    1.0000 </r>
       <r>   -5.3660    1.0000 </r>
       <r>   -4.4412    1.0000 </r>
       <r>   -4.2834    1.0000 </r>
       <r>   -4.2718    1.0000 </r>
       <r>   -4.1039    1.0000 </r>
       <r>   -1.1780    1.0000 </r>
       <r>   -0.9738    1.0000 </r>
       <r>   -0.8440    1.0000 </r>
       <r>   -0.6686    1.0000 </r>
       <r>   -0.4653    1.0000 </r>
       <r>   -0.2159    1.0000 </r>
       <r>    0.0164    1.0000 </r>
       <r>    0.0573    1.0000 </r>
       <r>    0.0863    1.0000 </r>
       <r>    0.1468    1.0000 </r>
       <r>    0.1848    1.0000 </r>
       <r>    0.1889    1.0000 </r>
       <r>    0.2412    1.0000 </r>
       <r>    0.3215    1.0000 </r>
       <r>    0.4024    1.0000 </r>
       <r>    0.4196    1.0000 </r>
       <r>    0.5292    1.0000 </r>
       <r>    0.5695    1.0000 </r>
       <r>    0.6050    1.0000 </r>
       <r>    0.6504    1.0000 </r>
       <r>    0.6937    1.0000 </r>
       <r>    0.7103    1.0000 </r>
       <r>    0.7303    1.0000 </r>
       <r>    0.7489    1.0000 </r>
       <r>    0.7639    1.0000 </r>
       <r>    0.9160    1.0000 </r>
       <r>    0.9334    1.0000 </r>
       <r>    0.9466    1.0000 </r>
       <r>    1.0415    1.0000 </r>
       <r>    1.1085    1.0000 </r>
       <r>    1.1263    1.0000 </r>
       <r>    1.1341    1.0000 </r>
       <r>    1.2241    1.0000 </r>
       <r>    1.2899    1.0000 </r>
       <r>    1.3178    1.0000 </r>
       <r>    1.3332    1.0000 </r>
       <r>    1.3417    1.0000 </r>
       <r>    1.3880    1.0000 </r>
       <r>    1.5242    1.0000 </r>
       <r>    1.5465    1.0000 </r>
       <r>    1.5576    1.0000 </r>
       <r>    1.5801    1.0000 </r>
       <r>    1.6016    1.0000 </r>
       <r>    1.6336    1.0000 </r>
       <r>    1.6776    1.0000 </r>
       <r>    1.7472    1.0000 </r>
       <r>    1.8389    1.0000 </r>
       <r>    1.8513    1.0000 </r>
       <r>    1.8893    1.0000 </r>
       <r>    1.9228    1.0000 </r>
       <r>    1.9634    1.0000 </r>
       <r>    1.9902    1.0000 </r>
       <r>    2.0125    1.0000 </r>
       <r>    2.0877    1.0000 </r>
       <r>    2.0929    1.0000 </r>
       <r>    2.1379    1.0000 </r>
       <r>    2.2102    1.0000 </r>
       <r>    2.2213    1.0000 </r>
       <r>    2.2659    1.0000 </r>
       <r>    2.3075    1.0000 </r>
       <r>    2.3524    1.0000 </r>
       <r>    2.3971    1.0000 </r>
       <r>    2.4129    1.0000 </r>
       <r>    2.4867    1.0000 </r>
       <r>    2.5361    1.0000 </r>
       <r>    2.5822    1.0000 </r>
       <r>    2.6054    1.0000 </r>
       <r>    2.6301    1.0000 </r>
       <r>    2.6685    1.0000 </r>
       <r>    2.7424    1.0000 </r>
       <r>    2.7671    1.0000 </r>
       <r>    2.7726    1.0000 </r>
       <r>    2.8068    1.0000 </r>
       <r>    2.8370    1.0000 </r>
       <r>    2.8562    1.0000 </r>
       <r>    2.8956    1.0000 </r>
       <r>    2.9190    1.0000 </r>
       <r>    2.9659    1.0000 </r>
       <r>    3.0166    1.0000 </r>
       <r>    3.0669    1.0000 </r>
       <r>    3.1155    1.0000 </r>
       <r>    3.1343    1.0000 </r>
       <r>    3.1755    1.0000 </r>
       <r>    3.2116    1.0000 </r>
       <r>    3.2574    1.0000 </r>
       <r>    3.3122    1.0000 </r>
       <r>    3.3415    1.0000 </r>
       <r>    3.4300    1.0000 </r>
       <r>    3.5158    1.0000 </r>
       <r>    3.5529    1.0000 </r>
       <r>    3.5889    1.0000 </r>
       <r>    3.6115    1.0000 </r>
       <r>    3.6641    1.0000 </r>
       <r>    3.7313    1.0000 </r>
       <r>    3.7395    1.0000 </r>
       <r>    3.8549    1.0000 </r>
       <r>    5.6128    0.0000 </r>
       <r>    5.6189    0.0000 </r>
       <r>    5.7627    0.0000 </r>
       <r>    5.7772    0.0000 </r>
       <r>    5.7995    0.0000 </r>
       <r>    5.8103    0.0000 </r>
       <r>    5.9570    0.0000 </r>
       <r>    5.9619    0.0000 </r>
       <r>    7.2254    0.0000 </r>
       <r>    7.2510    0.0000 </r>
       <r>    7.2929    0.0000 </r>
       <r>    7.3631    0.0000 </r>
       <r>    7.4082    0.0000 </r>
       <r>    7.4391    0.0000 </r>
       <r>    7.4894    0.0000 </r>
       <r>    7.5253    0.0000 </r>
       <r>    7.5558    0.0000 </r>
       <r>    7.5717    0.0000 </r>
       <r>    7.6235    0.0000 </r>
       <r>    7.6505    0.0000 </r>
       <r>    7.8487    0.0000 </r>
       <r>    7.8851    0.0000 </r>
       <r>    7.9083    0.0000 </r>
       <r>    7.9202    0.0000 </r>
       <r>    7.9620    0.0000 </r>
       <r>    7.9959    0.0000 </r>
       <r>    8.0245    0.0000 </r>
       <r>    8.0425    0.0000 </r>
       <r>    8.0561    0.0000 </r>
       <r>    8.0899    0.0000 </r>
       <r>    8.1137    0.0000 </r>
       <r>    8.2192    0.0000 </r>
       <r>    8.3321    0.0000 </r>
       <r>    8.4907    0.0000 </r>
       <r>    8.5450    0.0000 </r>
       <r>    8.6834    0.0000 </r>
       <r>    8.7207    0.0000 </r>
       <r>    8.7884    0.0000 </r>
       <r>    8.8043    0.0000 </r>
       <r>    8.8156    0.0000 </r>
       <r>    8.8397    0.0000 </r>
       <r>    8.9391    0.0000 </r>
       <r>    8.9935    0.0000 </r>
       <r>    9.0022    0.0000 </r>
       <r>    9.1479    0.0000 </r>
       <r>    9.3653    0.0000 </r>
       <r>    9.4195    0.0000 </r>
       <r>    9.4339    0.0000 </r>
       <r>    9.6497    0.0000 </r>
       <r>    9.9459    0.0000 </r>
       <r>   10.2630    0.0000 </r>
       <r>   10.3814    0.0000 </r>
       <r>   10.5160    0.0000 </r>
       <r>   10.5373    0.0000 </r>
       <r>   10.5418    0.0000 </r>
       <r>   10.6170    0.0000 </r>
       <r>   10.6910    0.0000 </r>
       <r>   10.7844    0.0000 </r>
       <r>   10.8458    0.0000 </r>
       <r>   10.8503    0.0000 </r>
       <r>   10.8825    0.0000 </r>
       <r>   11.0247    0.0000 </r>
       <r>   11.0819    0.0000 </r>
       <r>   11.1634    0.0000 </r>
       <r>   11.3066    0.0000 </r>
       <r>   11.3149    0.0000 </r>
       <r>   11.3475    0.0000 </r>
       <r>   11.3983    0.0000 </r>
       <r>   11.4460    0.0000 </r>
       <r>   11.5087    0.0000 </r>
      </set>
      <set comment="kpoint 3">
       <r>  -40.2285    1.0000 </r>
       <r>  -40.2278    1.0000 </r>
       <r>  -40.0070    1.0000 </r>
       <r>  -39.9224    1.0000 </r>
       <r>  -39.9205    1.0000 </r>
       <r>  -39.7817    1.0000 </r>
       <r>  -39.7812    1.0000 </r>
       <r>  -39.7509    1.0000 </r>
       <r>  -39.7506    1.0000 </r>
       <r>  -39.5977    1.0000 </r>
       <r>  -39.5950    1.0000 </r>
       <r>  -39.5041    1.0000 </r>
       <r>  -39.3139    1.0000 </r>
       <r>  -39.3139    1.0000 </r>
       <r>  -18.9617    1.0000 </r>
       <r>  -18.8865    1.0000 </r>
       <r>  -18.8849    1.0000 </r>
       <r>  -18.8786    1.0000 </r>
       <r>  -18.8756    1.0000 </r>
       <r>  -18.8159    1.0000 </r>
       <r>  -18.8092    1.0000 </r>
       <r>  -18.8008    1.0000 </r>
       <r>  -18.7923    1.0000 </r>
       <r>  -18.7823    1.0000 </r>
       <r>  -18.7774    1.0000 </r>
       <r>  -18.7086    1.0000 </r>
       <r>  -18.7025    1.0000 </r>
       <r>  -18.6953    1.0000 </r>
       <r>  -18.6906    1.0000 </r>
       <r>  -18.6639    1.0000 </r>
       <r>  -18.6545    1.0000 </r>
       <r>  -18.6506    1.0000 </r>
       <r>  -18.6414    1.0000 </r>
       <r>  -18.6400    1.0000 </r>
       <r>  -18.6309    1.0000 </r>
       <r>  -18.6231    1.0000 </r>
       <r>  -18.6170    1.0000 </r>
       <r>  -18.6087    1.0000 </r>
       <r>  -18.6057    1.0000 </r>
       <r>  -18.6018    1.0000 </r>
       <r>  -18.5956    1.0000 </r>
       <r>  -18.5917    1.0000 </r>
       <r>  -18.5895    1.0000 </r>
       <r>  -18.5856    1.0000 </r>
       <r>  -18.5837    1.0000 </r>
       <r>  -18.5792    1.0000 </r>
       <r>  -18.5785    1.0000 </r>
       <r>  -18.5762    1.0000 </r>
       <r>  -18.5758    1.0000 </r>
       <r>  -18.5724    1.0000 </r>
       <r>  -18.5590    1.0000 </r>
       <r>  -18.5537    1.0000 </r>
       <r>  -18.5523    1.0000 </r>
       <r>  -18.5199    1.0000 </r>
       <r>  -18.5104    1.0000 </r>
       <r>  -18.5063    1.0000 </r>
       <r>  -18.5002    1.0000 </r>
       <r>  -18.4969    1.0000 </r>
       <r>  -18.4948    1.0000 </r>
       <r>  -18.4900    1.0000 </r>
       <r>  -18.4893    1.0000 </r>
       <r>  -18.4862    1.0000 </r>
       <r>  -18.4805    1.0000 </r>
       <r>  -18.4601    1.0000 </r>
       <r>  -18.4575    1.0000 </r>
       <r>  -18.4360    1.0000 </r>
       <r>  -18.4331    1.0000 </r>
       <r>  -18.4309    1.0000 </r>
       <r>  -18.4303    1.0000 </r>
       <r>  -18.4299    1.0000 </r>
       <r>  -18.4274    1.0000 </r>
       <r>  -18.4249    1.0000 </r>
       <r>  -18.4245    1.0000 </r>
       <r>  -18.4101    1.0000 </r>
       <r>  -18.4093    1.0000 </r>
       <r>  -18.3521    1.0000 </r>
       <r>  -18.3510    1.0000 </r>
       <r>  -18.3477    1.0000 </r>
       <r>  -18.3401    1.0000 </r>
       <r>  -18.3396    1.0000 </r>
       <r>  -18.3381    1.0000 </r>
       <r>  -18.3361    1.0000 </r>
       <r>  -18.3246    1.0000 </r>
       <r>  -18.2796    1.0000 </r>
       <r>  -18.2672    1.0000 </r>
       <r>  -18.2579    1.0000 </r>
       <r>  -18.2489    1.0000 </r>
       <r>  -18.1850    1.0000 </r>
       <r>  -18.1394    1.0000 </r>
       <r>  -18.1373    1.0000 </r>
       <r>  -18.1270    1.0000 </r>
       <r>  -18.1218    1.0000 </r>
       <r>  -18.0680    1.0000 </r>
       <r>  -18.0589    1.0000 </r>
       <r>  -13.6109    1.0000 </r>
       <r>  -13.4513    1.0000 </r>
       <r>  -13.4327    1.0000 </r>
       <r>  -12.7660    1.0000 </r>
       <r>  -12.7478    1.0000 </r>
       <r>  -12.7132    1.0000 </r>
       <r>  -12.6326    1.0000 </r>
       <r>  -12.6299    1.0000 </r>
       <r>  -12.6039    1.0000 </r>
       <r>  -12.5930    1.0000 </r>
       <r>  -12.5826    1.0000 </r>
       <r>  -12.5012    1.0000 </r>
       <r>  -12.4827    1.0000 </r>
       <r>  -11.9248    1.0000 </r>
       <r>  -11.8703    1.0000 </r>
       <r>  -11.7984    1.0000 </r>
       <r>   -9.2755    1.0000 </r>
       <r>   -8.9968    1.0000 </r>
       <r>   -8.4943    1.0000 </r>
       <r>   -8.4891    1.0000 </r>
       <r>   -8.4347    1.0000 </r>
       <r>   -8.4252    1.0000 </r>
       <r>   -8.2344    1.0000 </r>
       <r>   -8.2267    1.0000 </r>
       <r>   -8.1807    1.0000 </r>
       <r>   -8.1636    1.0000 </r>
       <r>   -7.9753    1.0000 </r>
       <r>   -7.9483    1.0000 </r>
       <r>   -7.9445    1.0000 </r>
       <r>   -7.9078    1.0000 </r>
       <r>   -7.3032    1.0000 </r>
       <r>   -7.2979    1.0000 </r>
       <r>   -6.3202    1.0000 </r>
       <r>   -6.3071    1.0000 </r>
       <r>   -6.2953    1.0000 </r>
       <r>   -6.2835    1.0000 </r>
       <r>   -5.4980    1.0000 </r>
       <r>   -5.4938    1.0000 </r>
       <r>   -5.3572    1.0000 </r>
       <r>   -5.3285    1.0000 </r>
       <r>   -5.2403    1.0000 </r>
       <r>   -5.2382    1.0000 </r>
       <r>   -5.0783    1.0000 </r>
       <r>   -5.0614    1.0000 </r>
       <r>   -4.9761    1.0000 </r>
       <r>   -4.9532    1.0000 </r>
       <r>   -3.8102    1.0000 </r>
       <r>   -3.5032    1.0000 </r>
       <r>   -1.2749    1.0000 </r>
       <r>   -1.2651    1.0000 </r>
       <r>   -1.1200    1.0000 </r>
       <r>   -1.0572    1.0000 </r>
       <r>   -0.3793    1.0000 </r>
       <r>   -0.3614    1.0000 </r>
       <r>   -0.3572    1.0000 </r>
       <r>   -0.3396    1.0000 </r>
       <r>   -0.3258    1.0000 </r>
       <r>   -0.2372    1.0000 </r>
       <r>   -0.2083    1.0000 </r>
       <r>   -0.1916    1.0000 </r>
       <r>   -0.1397    1.0000 </r>
       <r>   -0.0156    1.0000 </r>
       <r>    0.0384    1.0000 </r>
       <r>    0.2571    1.0000 </r>
       <r>    0.3408    1.0000 </r>
       <r>    0.3674    1.0000 </r>
       <r>    0.5311    1.0000 </r>
       <r>    0.5507    1.0000 </r>
       <r>    0.5933    1.0000 </r>
       <r>    0.7469    1.0000 </r>
       <r>    0.7597    1.0000 </r>
       <r>    0.8387    1.0000 </r>
       <r>    0.8415    1.0000 </r>
       <r>    0.8751    1.0000 </r>
       <r>    0.9086    1.0000 </r>
       <r>    0.9814    1.0000 </r>
       <r>    1.0230    1.0000 </r>
       <r>    1.1526    1.0000 </r>
       <r>    1.1835    1.0000 </r>
       <r>    1.2134    1.0000 </r>
       <r>    1.3107    1.0000 </r>
       <r>    1.3249    1.0000 </r>
       <r>    1.3649    1.0000 </r>
       <r>    1.4253    1.0000 </r>
       <r>    1.4748    1.0000 </r>
       <r>    1.5905    1.0000 </r>
       <r>    1.7243    1.0000 </r>
       <r>    1.7669    1.0000 </r>
       <r>    1.7918    1.0000 </r>
       <r>    1.8225    1.0000 </r>
       <r>    1.8298    1.0000 </r>
       <r>    1.8524    1.0000 </r>
       <r>    1.8972    1.0000 </r>
       <r>    1.9116    1.0000 </r>
       <r>    1.9211    1.0000 </r>
       <r>    1.9548    1.0000 </r>
       <r>    2.0145    1.0000 </r>
       <r>    2.0402    1.0000 </r>
       <r>    2.1020    1.0000 </r>
       <r>    2.1647    1.0000 </r>
       <r>    2.1712    1.0000 </r>
       <r>    2.2238    1.0000 </r>
       <r>    2.3000    1.0000 </r>
       <r>    2.3573    1.0000 </r>
       <r>    2.4945    1.0000 </r>
       <r>    2.5055    1.0000 </r>
       <r>    2.5183    1.0000 </r>
       <r>    2.5626    1.0000 </r>
       <r>    2.5726    1.0000 </r>
       <r>    2.6259    1.0000 </r>
       <r>    2.6328    1.0000 </r>
       <r>    2.6365    1.0000 </r>
       <r>    2.6391    1.0000 </r>
       <r>    2.6617    1.0000 </r>
       <r>    2.6943    1.0000 </r>
       <r>    2.7009    1.0000 </r>
       <r>    2.7391    1.0000 </r>
       <r>    2.7472    1.0000 </r>
       <r>    2.8027    1.0000 </r>
       <r>    2.8542    1.0000 </r>
       <r>    2.9048    1.0000 </r>
       <r>    2.9314    1.0000 </r>
       <r>    2.9743    1.0000 </r>
       <r>    3.0018    1.0000 </r>
       <r>    3.0226    1.0000 </r>
       <r>    3.0498    1.0000 </r>
       <r>    3.0795    1.0000 </r>
       <r>    3.1267    1.0000 </r>
       <r>    3.1519    1.0000 </r>
       <r>    3.1774    1.0000 </r>
       <r>    3.3434    1.0000 </r>
       <r>    3.3512    1.0000 </r>
       <r>    3.4359    1.0000 </r>
       <r>    3.4535    1.0000 </r>
       <r>    3.4841    1.0000 </r>
       <r>    3.5152    1.0000 </r>
       <r>    3.5213    1.0000 </r>
       <r>    3.5468    1.0000 </r>
       <r>    3.5897    1.0000 </r>
       <r>    3.6705    1.0000 </r>
       <r>    4.2952    1.0000 </r>
       <r>    4.3283    1.0000 </r>
       <r>    4.3303    1.0000 </r>
       <r>    4.3404    1.0000 </r>
       <r>    5.2248    0.0000 </r>
       <r>    5.2260    0.0000 </r>
       <r>    5.2276    0.0000 </r>
       <r>    5.2486    0.0000 </r>
       <r>    5.8009    0.0000 </r>
       <r>    5.8165    0.0000 </r>
       <r>    5.8189    0.0000 </r>
       <r>    5.8564    0.0000 </r>
       <r>    6.2236    0.0000 </r>
       <r>    6.2343    0.0000 </r>
       <r>    6.2471    0.0000 </r>
       <r>    6.2483    0.0000 </r>
       <r>    6.3149    0.0000 </r>
       <r>    6.3166    0.0000 </r>
       <r>    6.3357    0.0000 </r>
       <r>    6.3511    0.0000 </r>
       <r>    6.7483    0.0000 </r>
       <r>    6.9888    0.0000 </r>
       <r>    7.0023    0.0000 </r>
       <r>    7.0935    0.0000 </r>
       <r>    7.3884    0.0000 </r>
       <r>    7.4346    0.0000 </r>
       <r>    7.5698    0.0000 </r>
       <r>    7.5792    0.0000 </r>
       <r>    7.9103    0.0000 </r>
       <r>    7.9171    0.0000 </r>
       <r>    7.9330    0.0000 </r>
       <r>    8.0410    0.0000 </r>
       <r>    8.0679    0.0000 </r>
       <r>    8.3935    0.0000 </r>
       <r>    8.4187    0.0000 </r>
       <r>    8.5132    0.0000 </r>
       <r>    8.7458    0.0000 </r>
       <r>    8.8945    0.0000 </r>
       <r>    8.9329    0.0000 </r>
       <r>    8.9572    0.0000 </r>
       <r>    9.0904    0.0000 </r>
       <r>    9.0981    0.0000 </r>
       <r>    9.1387    0.0000 </r>
[...]
       <r>   11.3886    0.0000 </r>
       <r>   11.4428    0.0000 </r>
      </set>
     </set>
    </set>
   </array>
  </eigenvalues>
  <separator name="orbital magnetization" >
   <v name="MAGDIPOLOUT">      0.00000000      0.00000000      0.00000000</v>
  </separator>
  <dos>
   <i name="efermi">      4.48334754 </i>
   <total>
    <array>
     <dimension dim="1">gridpoints</dimension>
     <dimension dim="2">spin</dimension>
     <field>energy</field>
     <field>total</field>
     <field>integrated</field>
     <set>
      <set comment="spin 1">
       <r>   -42.8497     0.0000     0.0000 </r>
       <r>   -42.6574     0.0000     0.0000 </r>
       <r>   -42.4652     0.0000     0.0000 </r>
       <r>   -42.2730     0.0000     0.0000 </r>
       <r>   -42.0808     0.0000     0.0000 </r>
       <r>   -41.8886     0.0000     0.0000 </r>
       <r>   -41.6964     0.0000     0.0000 </r>
       <r>   -41.5041     0.0000     0.0000 </r>
       <r>   -41.3119     0.0000     0.0000 </r>
       <r>   -41.1197     0.0000     0.0000 </r>
       <r>   -40.9275     0.0000     0.0000 </r>
       <r>   -40.7353     0.0000     0.0000 </r>
       <r>   -40.5431     0.0000     0.0000 </r>
       <r>   -40.3509     0.0000     0.0000 </r>
       <r>   -40.1586     0.0000     4.0000 </r>
       <r>   -39.9664     0.0000     6.0000 </r>
       <r>   -39.7742     0.0000    14.0000 </r>
       <r>   -39.5820     0.0000    22.0000 </r>
       <r>   -39.3898     0.0000    24.0000 </r>
       <r>   -39.1976     0.0000    28.0000 </r>
       <r>   -39.0053     0.0000    28.0000 </r>
       <r>   -38.8131     0.0000    28.0000 </r>
       <r>   -38.6209     0.0000    28.0000 </r>
       <r>   -38.4287     0.0000    28.0000 </r>
       <r>   -38.2365     0.0000    28.0000 </r>
       <r>   -38.0443     0.0000    28.0000 </r>
       <r>   -37.8521     0.0000    28.0000 </r>
       <r>   -37.6598     0.0000    28.0000 </r>
       <r>   -37.4676     0.0000    28.0000 </r>
       <r>   -37.2754     0.0000    28.0000 </r>
       <r>   -37.0832     0.0000    28.0000 </r>
       <r>   -36.8910     0.0000    28.0000 </r>
       <r>   -36.6988     0.0000    28.0000 </r>
       <r>   -36.5065     0.0000    28.0000 </r>
       <r>   -36.3143     0.0000    28.0000 </r>
       <r>   -36.1221     0.0000    28.0000 </r>
       <r>   -35.9299     0.0000    28.0000 </r>
       <r>   -35.7377     0.0000    28.0000 </r>
       <r>   -35.5455     0.0000    28.0000 </r>
       <r>   -35.3533     0.0000    28.0000 </r>
       <r>   -35.1610     0.0000    28.0000 </r>
       <r>   -34.9688     0.0000    28.0000 </r>
       <r>   -34.7766     0.0000    28.0000 </r>
       <r>   -34.5844     0.0000    28.0000 </r>
       <r>   -34.3922     0.0000    28.0000 </r>
       <r>   -34.2000     0.0000    28.0000 </r>
       <r>   -34.0078     0.0000    28.0000 </r>
       <r>   -33.8155     0.0000    28.0000 </r>
       <r>   -33.6233     0.0000    28.0000 </r>
       <r>   -33.4311     0.0000    28.0000 </r>
       <r>   -33.2389     0.0000    28.0000 </r>
       <r>   -33.0467     0.0000    28.0000 </r>
       <r>   -32.8545     0.0000    28.0000 </r>
       <r>   -32.6622     0.0000    28.0000 </r>
       <r>   -32.4700     0.0000    28.0000 </r>
       <r>   -32.2778     0.0000    28.0000 </r>
       <r>   -32.0856     0.0000    28.0000 </r>
       <r>   -31.8934     0.0000    28.0000 </r>
       <r>   -31.7012     0.0000    28.0000 </r>
       <r>   -31.5090     0.0000    28.0000 </r>
       <r>   -31.3167     0.0000    28.0000 </r>
       <r>   -31.1245     0.0000    28.0000 </r>
       <r>   -30.9323     0.0000    28.0000 </r>
       <r>   -30.7401     0.0000    28.0000 </r>
       <r>   -30.5479     0.0000    28.0000 </r>
       <r>   -30.3557     0.0000    28.0000 </r>
       <r>   -30.1634     0.0000    28.0000 </r>
       <r>   -29.9712     0.0000    28.0000 </r>
       <r>   -29.7790     0.0000    28.0000 </r>
       <r>   -29.5868     0.0000    28.0000 </r>
       <r>   -29.3946     0.0000    28.0000 </r>
       <r>   -29.2024     0.0000    28.0000 </r>
       <r>   -29.0102     0.0000    28.0000 </r>
       <r>   -28.8179     0.0000    28.0000 </r>
       <r>   -28.6257     0.0000    28.0000 </r>
       <r>   -28.4335     0.0000    28.0000 </r>
       <r>   -28.2413     0.0000    28.0000 </r>
       <r>   -28.0491     0.0000    28.0000 </r>
       <r>   -27.8569     0.0000    28.0000 </r>
       <r>   -27.6646     0.0000    28.0000 </r>
       <r>   -27.4724     0.0000    28.0000 </r>
       <r>   -27.2802     0.0000    28.0000 </r>
       <r>   -27.0880     0.0000    28.0000 </r>
       <r>   -26.8958     0.0000    28.0000 </r>
       <r>   -26.7036     0.0000    28.0000 </r>
       <r>   -26.5114     0.0000    28.0000 </r>
       <r>   -26.3191     0.0000    28.0000 </r>
       <r>   -26.1269     0.0000    28.0000 </r>
       <r>   -25.9347     0.0000    28.0000 </r>
       <r>   -25.7425     0.0000    28.0000 </r>
       <r>   -25.5503     0.0000    28.0000 </r>
       <r>   -25.3581     0.0000    28.0000 </r>
       <r>   -25.1659     0.0000    28.0000 </r>
       <r>   -24.9736     0.0000    28.0000 </r>
       <r>   -24.7814     0.0000    28.0000 </r>
       <r>   -24.5892     0.0000    28.0000 </r>
       <r>   -24.3970     0.0000    28.0000 </r>
       <r>   -24.2048     0.0000    28.0000 </r>
       <r>   -24.0126     0.0000    28.0000 </r>
       <r>   -23.8203     0.0000    28.0000 </r>
       <r>   -23.6281     0.0000    28.0000 </r>
       <r>   -23.4359     0.0000    28.0000 </r>
       <r>   -23.2437     0.0000    28.0000 </r>
       <r>   -23.0515     0.0000    28.0000 </r>
       <r>   -22.8593     0.0000    28.0000 </r>
       <r>   -22.6671     0.0000    28.0000 </r>
       <r>   -22.4748     0.0000    28.0000 </r>
       <r>   -22.2826     0.0000    28.0000 </r>
       <r>   -22.0904     0.0000    28.0000 </r>
       <r>   -21.8982     0.0000    28.0000 </r>
       <r>   -21.7060     0.0000    28.0000 </r>
       <r>   -21.5138     0.0000    28.0000 </r>
       <r>   -21.3215     0.0000    28.0000 </r>
       <r>   -21.1293     0.0000    28.0000 </r>
       <r>   -20.9371     0.0000    28.0000 </r>
       <r>   -20.7449     0.0000    28.0000 </r>
       <r>   -20.5527     0.0000    28.0000 </r>
       <r>   -20.3605     0.0000    28.0000 </r>
       <r>   -20.1683     0.0000    28.0000 </r>
       <r>   -19.9760     0.0000    28.0000 </r>
       <r>   -19.7838     0.0000    28.0000 </r>
       <r>   -19.5916     0.0000    28.0000 </r>
       <r>   -19.3994     0.0000    28.0000 </r>
       <r>   -19.2072     0.0000    28.0000 </r>
       <r>   -19.0150     0.0000    28.0000 </r>
       <r>   -18.8227     0.0000    38.0000 </r>
       <r>   -18.6305     0.0000    70.0000 </r>
       <r>   -18.4383     0.0000   130.0000 </r>
       <r>   -18.2461     0.0000   174.0000 </r>
       <r>   -18.0539     0.0000   188.0000 </r>
       <r>   -17.8617     0.0000   188.0000 </r>
       <r>   -17.6695     0.0000   188.0000 </r>
       <r>   -17.4772     0.0000   188.0000 </r>
       <r>   -17.2850     0.0000   188.0000 </r>
       <r>   -17.0928     0.0000   188.0000 </r>
       <r>   -16.9006     0.0000   188.0000 </r>
       <r>   -16.7084     0.0000   188.0000 </r>
       <r>   -16.5162     0.0000   188.0000 </r>
       <r>   -16.3240     0.0000   188.0000 </r>
       <r>   -16.1317     0.0000   188.0000 </r>
       <r>   -15.9395     0.0000   188.0000 </r>
       <r>   -15.7473     0.0000   188.0000 </r>
       <r>   -15.5551     0.0000   188.0000 </r>
       <r>   -15.3629     0.0000   188.0000 </r>
       <r>   -15.1707     0.0000   188.0000 </r>
       <r>   -14.9784     0.0000   188.0000 </r>
       <r>   -14.7862     0.0000   188.0000 </r>
       <r>   -14.5940     0.0000   188.0000 </r>
       <r>   -14.4018     0.0000   188.0000 </r>
       <r>   -14.2096     0.0000   188.0000 </r>
       <r>   -14.0174     0.0000   188.0000 </r>
       <r>   -13.8252     0.0000   188.0000 </r>
       <r>   -13.6329     0.0000   188.0000 </r>
       <r>   -13.4407     0.0000   192.0000 </r>
       <r>   -13.2485     0.0000   194.0000 </r>
       <r>   -13.0563     0.0000   194.0000 </r>
       <r>   -12.8641     0.0000   194.0000 </r>
       <r>   -12.6719     0.0000   200.0000 </r>
       <r>   -12.4796     0.0000   214.0000 </r>
       <r>   -12.2874     0.0000   214.0000 </r>
       <r>   -12.0952     0.0000   214.0000 </r>
       <r>   -11.9030     0.0000   216.0000 </r>
       <r>   -11.7108     0.0000   220.0000 </r>
       <r>   -11.5186     0.0000   220.0000 </r>
       <r>   -11.3264     0.0000   220.0000 </r>
       <r>   -11.1341     0.0000   220.0000 </r>
       <r>   -10.9419     0.0000   220.0000 </r>
       <r>   -10.7497     0.0000   220.0000 </r>
       <r>   -10.5575     0.0000   220.0000 </r>
       <r>   -10.3653     0.0000   220.0000 </r>
       <r>   -10.1731     0.0000   220.0000 </r>
       <r>    -9.9808     0.0000   220.0000 </r>
       <r>    -9.7886     0.0000   220.0000 </r>
       <r>    -9.5964     0.0000   220.0000 </r>
       <r>    -9.4042     0.0000   220.0000 </r>
       <r>    -9.2120     7.3062   220.2468 </r>
       <r>    -9.0198     0.9740   221.9952 </r>
       <r>    -8.8276     7.3411   224.7451 </r>
       <r>    -8.6353    13.4079   227.1639 </r>
       <r>    -8.4431    20.4629   229.8430 </r>
       <r>    -8.2509    20.2109   234.3626 </r>
       <r>    -8.0587    12.7354   238.2776 </r>
       <r>    -7.8665    20.8058   242.8053 </r>
       <r>    -7.6743    19.9013   246.8931 </r>
       <r>    -7.4821    22.3669   249.7155 </r>
       <r>    -7.2898     0.0000   252.0000 </r>
       <r>    -7.0976     0.0000   252.0000 </r>
       <r>    -6.9054     0.0000   252.0000 </r>
       <r>    -6.7132     0.0000   252.0000 </r>
       <r>    -6.5210     0.0000   252.0000 </r>
       <r>    -6.3288     0.0003   252.0000 </r>
       <r>    -6.1365    21.2361   253.8744 </r>
       <r>    -5.9443    12.2942   258.1356 </r>
       <r>    -5.7521    17.0744   261.7250 </r>
       <r>    -5.5599    21.7629   266.4296 </r>
       <r>    -5.3677    17.9211   270.1692 </r>
       <r>    -5.1755    15.4435   274.0641 </r>
       <r>    -4.9833     2.6763   275.9415 </r>
       <r>    -4.7910     7.2943   276.8442 </r>
       <r>    -4.5988     9.2709   278.4492 </r>
       <r>    -4.4066     7.7663   280.2146 </r>
       <r>    -4.2144     6.7161   281.6243 </r>
       <r>    -4.0222     5.7618   282.8836 </r>
       <r>    -3.8300     2.5778   283.6844 </r>
       <r>    -3.6377     0.6864   283.9656 </r>
       <r>    -3.4455     0.0000   284.0000 </r>
       <r>    -3.2533     0.0000   284.0000 </r>
       <r>    -3.0611     0.0000   284.0000 </r>
       <r>    -2.8689     0.0000   284.0000 </r>
       <r>    -2.6767     0.0000   284.0000 </r>
       <r>    -2.4845     0.0000   284.0000 </r>
       <r>    -2.2922     0.0000   284.0000 </r>
       <r>    -2.1000     0.0000   284.0000 </r>
       <r>    -1.9078     0.0000   284.0000 </r>
       <r>    -1.7156     0.0000   284.0000 </r>
       <r>    -1.5234     0.0000   284.0000 </r>
       <r>    -1.3312     0.0946   284.0005 </r>
       <r>    -1.1389     8.2518   284.8735 </r>
       <r>    -0.9467    12.9279   286.7284 </r>
       <r>    -0.7545    11.2708   289.0946 </r>
       <r>    -0.5623     6.3799   290.8199 </r>
       <r>    -0.3701    12.3988   292.7958 </r>
       <r>    -0.1779    23.2213   296.5753 </r>
       <r>     0.0143    44.8733   303.1856 </r>
       <r>     0.2066    23.9592   309.9482 </r>
       <r>     0.3988    41.0143   316.6260 </r>
       <r>     0.5910    38.2661   323.1120 </r>
       <r>     0.7832    44.6716   330.7054 </r>
       <r>     0.9754    42.4273   338.0735 </r>
       <r>     1.1676    39.4984   347.0749 </r>
       <r>     1.3599    49.3776   354.9348 </r>
       <r>     1.5521    32.9821   363.0063 </r>
       <r>     1.7443    47.4031   372.3671 </r>
       <r>     1.9365    50.0593   382.6919 </r>
       <r>     2.1287    40.5810   391.3456 </r>
       <r>     2.3209    43.7881   400.0778 </r>
       <r>     2.5131    52.4136   409.5492 </r>
       <r>     2.7054    55.7278   422.0471 </r>
       <r>     2.8976    55.2046   434.2390 </r>
       <r>     3.0898    56.4047   445.4511 </r>
       <r>     3.2820    44.2579   455.0018 </r>
       <r>     3.4742    34.0500   462.6332 </r>
       <r>     3.6664    32.2304   469.0390 </r>
       <r>     3.8586    15.5194   472.5609 </r>
       <r>     4.0509     8.7764   474.8962 </r>
       <r>     4.2431     2.0193   475.9339 </r>
       <r>     4.4353     0.0000   476.0000 </r>
       <r>     4.6275     0.0000   476.0000 </r>
       <r>     4.8197     0.0000   476.0000 </r>
       <r>     5.0119     0.0000   476.0000 </r>
       <r>     5.2042     0.3085   476.0045 </r>
       <r>     5.3964     4.8363   476.4867 </r>
       <r>     5.5886     9.5166   477.8660 </r>
       <r>     5.7808     8.4606   479.5699 </r>
       <r>     5.9730    21.5805   483.6135 </r>
       <r>     6.1652    12.0412   486.2642 </r>
       <r>     6.3574    11.8862   488.4985 </r>
       <r>     6.5497    13.9163   490.9787 </r>
       <r>     6.7419    15.8717   493.8455 </r>
       <r>     6.9341    17.8309   497.0777 </r>
       <r>     7.1263    22.2127   500.8292 </r>
       <r>     7.3185    33.4480   506.2244 </r>
       <r>     7.5107    39.9457   513.4167 </r>
       <r>     7.7030    28.6724   518.8560 </r>
       <r>     7.8952    45.5471   525.9613 </r>
       <r>     8.0874    37.5120   535.1006 </r>
       <r>     8.2796    21.0117   540.1665 </r>
       <r>     8.4718    19.3289   543.8711 </r>
       <r>     8.6640    25.0763   548.0409 </r>
       <r>     8.8562    39.2214   553.7192 </r>
       <r>     9.0485    36.5137   562.1745 </r>
       <r>     9.2407    15.0148   566.7420 </r>
       <r>     9.4329    13.9588   569.5335 </r>
       <r>     9.6251    13.4726   572.1404 </r>
       <r>     9.8173     1.9943   574.0569 </r>
       <r>    10.0095    14.6106   575.6366 </r>
       <r>    10.2018    11.7191   577.6308 </r>
       <r>    10.3940    28.7127   581.4628 </r>
       <r>    10.5862    24.9399   587.2094 </r>
       <r>    10.7784    44.3082   594.5058 </r>
       <r>    10.9706    15.4852   600.1066 </r>
       <r>    11.1628    20.0564   603.4158 </r>
       <r>    11.3550    24.0445   608.1644 </r>
       <r>    11.5473    18.5874   612.4285 </r>
       <r>    11.7395     8.3009   614.9916 </r>
       <r>    11.9317     1.8582   615.8551 </r>
       <r>    12.1239     0.0947   615.9978 </r>
       <r>    12.3161     0.0000   616.0000 </r>
       <r>    12.5083     0.0000   616.0000 </r>
       <r>    12.7005     0.0000   616.0000 </r>
       <r>    12.8928     0.0000   616.0000 </r>
       <r>    13.0850     0.0000   616.0000 </r>
       <r>    13.2772     0.0000   616.0000 </r>
       <r>    13.4694     0.0000   616.0000 </r>
       <r>    13.6616     0.0000   616.0000 </r>
       <r>    13.8538     0.0000   616.0000 </r>
       <r>    14.0461     0.0000   616.0000 </r>
       <r>    14.2383     0.0000   616.0000 </r>
       <r>    14.4305     0.0000   616.0000 </r>
       <r>    14.6227     0.0000   616.0000 </r>
       <r>    14.8149     0.0000   616.0000 </r>
      </set>
     </set>
    </array>
   </total>
  </dos>
 </calculation>
 <structure name="finalpos" >
  <crystal>
   <varray name="basis" >
    <v>      11.17850000       0.00000000       0.00000000 </v>
    <v>       0.00000000       9.57460000       0.00000000 </v>
    <v>       0.00000000       0.00000000      11.18240000 </v>
   </varray>
   <i name="volume">   1196.84853820 </i>
   <varray name="rec_basis" >
    <v>       0.08945744       0.00000000       0.00000000 </v>
    <v>       0.00000000       0.10444301       0.00000000 </v>
    <v>       0.00000000       0.00000000       0.08942624 </v>
   </varray>
  </crystal>
  <varray name="positions" >
   <v>       0.37539000       0.00017000       0.43687000 </v>
   <v>       0.12461000       0.99983000       0.18687000 </v>
   <v>       0.62539000       0.99983000       0.43687000 </v>
   <v>       0.87539000       0.00017000       0.43687000 </v>
   <v>       0.62461000       0.99983000       0.18687000 </v>
   <v>       0.87461000       0.00017000       0.18687000 </v>
   <v>       0.12539000       0.99983000       0.93687000 </v>
   <v>       0.37539000       0.00017000       0.93687000 </v>
   <v>       0.12461000       0.99983000       0.68687000 </v>
   <v>       0.37461000       0.00017000       0.68687000 </v>
   <v>       0.62539000       0.99983000       0.93687000 </v>
   <v>       0.87539000       0.00017000       0.93687000 </v>
   <v>       0.62461000       0.99983000       0.68687000 </v>
   <v>       0.87461000       0.00017000       0.68687000 </v>
   <v>       0.37461000       0.00017000       0.18687000 </v>
   <v>       0.00013000       0.29519000       0.06282000 </v>
   <v>       0.25013000       0.70481000       0.06282000 </v>
   <v>       0.24987000       0.29519000       0.31282000 </v>
   <v>       0.49987000       0.70481000       0.31282000 </v>
   <v>       0.50013000       0.29519000       0.06282000 </v>
   <v>       0.75013000       0.70481000       0.06282000 </v>
   <v>       0.74987000       0.29519000       0.31282000 </v>
   <v>       0.99987000       0.70481000       0.31282000 </v>
   <v>       0.00013000       0.29519000       0.56282000 </v>
   <v>       0.25013000       0.70481000       0.56282000 </v>
   <v>       0.24987000       0.29519000       0.81282000 </v>
   <v>       0.49987000       0.70481000       0.81282000 </v>
   <v>       0.50013000       0.29519000       0.56282000 </v>
   <v>       0.75013000       0.70481000       0.56282000 </v>
   <v>       0.74987000       0.29519000       0.81282000 </v>
   <v>       0.99987000       0.70481000       0.81282000 </v>
   <v>       0.25005000       0.32677000       0.06286000 </v>
   <v>       0.00005000       0.67323000       0.06286000 </v>
   <v>       0.49995000       0.32677000       0.31286000 </v>
   <v>       0.24995000       0.67323000       0.31286000 </v>
   <v>       0.75005000       0.32677000       0.06286000 </v>
   <v>       0.50005000       0.67323000       0.06286000 </v>
   <v>       0.99995000       0.32677000       0.31286000 </v>
   <v>       0.74995000       0.67323000       0.31286000 </v>
   <v>       0.25005000       0.32677000       0.56286000 </v>
   <v>       0.00005000       0.67323000       0.56286000 </v>
   <v>       0.49995000       0.32677000       0.81286000 </v>
   <v>       0.24995000       0.67323000       0.81286000 </v>
   <v>       0.75005000       0.32677000       0.56286000 </v>
   <v>       0.50005000       0.67323000       0.56286000 </v>
   <v>       0.99995000       0.32677000       0.81286000 </v>
   <v>       0.74995000       0.67323000       0.81286000 </v>
   <v>       0.49987000       0.07798000       0.06246000 </v>
   <v>       0.00013000       0.92202000       0.31246000 </v>
   <v>       0.24987000       0.92202000       0.06246000 </v>
   <v>       0.25013000       0.07798000       0.31246000 </v>
   <v>       0.99987000       0.07798000       0.06246000 </v>
   <v>       0.50013000       0.92202000       0.31246000 </v>
   <v>       0.74987000       0.92202000       0.06246000 </v>
   <v>       0.75013000       0.07798000       0.31246000 </v>
   <v>       0.49987000       0.07798000       0.56246000 </v>
   <v>       0.00013000       0.92202000       0.81246000 </v>
   <v>       0.24987000       0.92202000       0.56246000 </v>
   <v>       0.25013000       0.07798000       0.81246000 </v>
   <v>       0.99987000       0.07798000       0.56246000 </v>
   <v>       0.50013000       0.92202000       0.81246000 </v>
   <v>       0.74987000       0.92202000       0.56246000 </v>
   <v>       0.75013000       0.07798000       0.81246000 </v>
  </varray>
 </structure>
</modeling>
