<?xml version="1.0" encoding="ISO-8859-1"?>
<modeling>
 <generator>
  <i name="program" type="string">vasp </i>
  <i name="version" type="string">5.4.4.18Apr17-6-g9f103f2a35  </i>
  <i name="subversion" type="string">(build Jul 31 2017 11:33:29) complex            parallel </i>
  <i name="platform" type="string">LinuxIFC </i>
  <i name="date" type="string">2021 09 29 </i>
  <i name="time" type="string">02:50:15 </i>
 </generator>
 <incar>
  <i type="string" name="SYSTEM"> La2O2S</i>
  <i type="string" name="PREC">normal</i>
  <i type="int" name="NELMIN">     4</i>
  <i type="int" name="IBRION">     2</i>
  <i type="int" name="NFREE">    10</i>
  <i name="EDIFF">      0.00000100</i>
  <i name="EDIFFG">     -0.01000000</i>
  <i type="int" name="NSW">     1</i>
  <i type="int" name="ISIF">     2</i>
  <i name="ENCUT">    600.00000000</i>
  <i name="ENAUG">    900.00000000</i>
  <i type="int" name="ISMEAR">    -5</i>
  <i type="logical" name="LWAVE"> F  </i>
  <i type="logical" name="LCHARG"> F  </i>
  <v type="int" name="KPOINT_BSE">    -1     0     0     0</v>
 </incar>
 <structure name="primitive_cell" >
  <crystal>
   <varray name="basis" >
    <v>      11.17850000       0.00000000       0.00000000 </v>
    <v>       0.00000000       9.57460000       0.00000000 </v>
    <v>       0.00000000       0.00000000      11.18240000 </v>
   </varray>
   <i name="volume">   1196.84853820 </i>
   <varray name="rec_basis" >
    <v>       0.08945744       0.00000000       0.00000000 </v>
    <v>       0.00000000       0.10444301       0.00000000 </v>
    <v>       0.00000000       0.00000000       0.08942624 </v>
   </varray>
  </crystal>
  <varray name="positions" >
   <v>       0.37539000       0.00017000       0.43687000 </v>
   <v>      -0.49987000      -0.07798000       0.31246000 </v>
   <v>       0.25013000       0.07798000       0.31246000 </v>
   <v>       0.49987000       0.07798000      -0.43754000 </v>
   <v>       0.24987000      -0.07798000      -0.43754000 </v>
   <v>      -0.37461000      -0.00016000       0.43687000 </v>
   <v>       0.37461000       0.00017000       0.18687000 </v>
   <v>       0.37461000       0.00017000      -0.31313000 </v>
   <v>       0.49987000      -0.29519000       0.31282000 </v>
   <v>       0.24987000       0.29519000       0.31282000 </v>
   <v>      -0.49987000       0.29519000      -0.43719000 </v>
   <v>       0.25013000      -0.29519000      -0.43719000 </v>
   <v>       0.49995000       0.32677000       0.31286000 </v>
   <v>       0.24995000      -0.32677000       0.31286000 </v>
   <v>      -0.49995000      -0.32677000      -0.43714000 </v>
   <v>       0.25005000       0.32677000      -0.43714000 </v>
   <v>      -0.37539000      -0.00016000       0.18687000 </v>
   <v>       0.12461000      -0.00016000       0.18687000 </v>
   <v>       0.12461000      -0.00016000      -0.31313000 </v>
   <v>       0.49987000       0.07798000       0.06246000 </v>
   <v>      -0.24987000       0.07798000       0.31246000 </v>
   <v>      -0.25013000      -0.07798000      -0.43754000 </v>
   <v>       0.24987000      -0.07798000       0.06246000 </v>
   <v>       0.00013000      -0.07798000       0.31246000 </v>
   <v>      -0.49987000      -0.07798000      -0.18754000 </v>
   <v>      -0.00013000       0.07798000      -0.43754000 </v>
   <v>       0.25013000       0.07798000      -0.18754000 </v>
   <v>      -0.49987000       0.29519000       0.06281000 </v>
   <v>      -0.25013000       0.29519000       0.31282000 </v>
   <v>       0.25013000      -0.29519000       0.06281000 </v>
   <v>      -0.24987000      -0.29519000      -0.43719000 </v>
   <v>      -0.00013000      -0.29519000       0.31282000 </v>
   <v>       0.00013000       0.29519000      -0.43719000 </v>
   <v>       0.49987000      -0.29519000      -0.18718000 </v>
   <v>       0.24987000       0.29519000      -0.18718000 </v>
   <v>      -0.49995000      -0.32677000       0.06286000 </v>
   <v>       0.25005000       0.32677000       0.06286000 </v>
   <v>      -0.25005000      -0.32677000       0.31286000 </v>
   <v>      -0.24995000       0.32677000      -0.43714000 </v>
   <v>      -0.00005000       0.32677000       0.31286000 </v>
   <v>       0.00005000      -0.32677000      -0.43714000 </v>
   <v>       0.49995000       0.32677000      -0.18714000 </v>
   <v>       0.24995000      -0.32677000      -0.18714000 </v>
   <v>      -0.12461000       0.00017000       0.43687000 </v>
   <v>      -0.25013000      -0.07798000       0.06246000 </v>
   <v>      -0.00013000       0.07798000       0.06246000 </v>
   <v>      -0.24987000       0.07798000      -0.18754000 </v>
   <v>       0.00013000      -0.07798000      -0.18754000 </v>
   <v>      -0.12539000       0.00017000       0.18687000 </v>
   <v>      -0.12539000       0.00017000      -0.31313000 </v>
   <v>       0.12539000      -0.00016000      -0.06313000 </v>
   <v>      -0.37461000      -0.00016000      -0.06313000 </v>
   <v>      -0.24987000      -0.29519000       0.06281000 </v>
   <v>       0.00013000       0.29519000       0.06281000 </v>
   <v>      -0.25013000       0.29519000      -0.18718000 </v>
   <v>      -0.00013000      -0.29519000      -0.18718000 </v>
   <v>      -0.24995000       0.32677000       0.06286000 </v>
   <v>       0.00005000      -0.32677000       0.06286000 </v>
   <v>      -0.25005000      -0.32677000      -0.18714000 </v>
   <v>      -0.00005000       0.32677000      -0.18714000 </v>
   <v>      -0.12461000       0.00017000      -0.06313000 </v>
  </varray>
 </structure>
 <varray name="primitive_index" >
  <v type="int" >        1 </v>
  <v type="int" >       53 </v>
  <v type="int" >       48 </v>
  <v type="int" >       54 </v>
  <v type="int" >       55 </v>
  <v type="int" >        3 </v>
  <v type="int" >       11 </v>
  <v type="int" >       12 </v>
  <v type="int" >       17 </v>
  <v type="int" >       16 </v>
  <v type="int" >       26 </v>
  <v type="int" >       23 </v>
  <v type="int" >       32 </v>
  <v type="int" >       33 </v>
  <v type="int" >       43 </v>
  <v type="int" >       38 </v>
  <v type="int" >        5 </v>
  <v type="int" >        2 </v>
  <v type="int" >        8 </v>
  <v type="int" >       46 </v>
  <v type="int" >       52 </v>
  <v type="int" >       59 </v>
  <v type="int" >       47 </v>
  <v type="int" >       49 </v>
  <v type="int" >       61 </v>
  <v type="int" >       58 </v>
  <v type="int" >       56 </v>
  <v type="int" >       18 </v>
  <v type="int" >       20 </v>
  <v type="int" >       15 </v>
  <v type="int" >       27 </v>
  <v type="int" >       21 </v>
  <v type="int" >       22 </v>
  <v type="int" >       25 </v>
  <v type="int" >       24 </v>
  <v type="int" >       35 </v>
  <v type="int" >       30 </v>
  <v type="int" >       37 </v>
  <v type="int" >       42 </v>
  <v type="int" >       36 </v>
  <v type="int" >       39 </v>
  <v type="int" >       40 </v>
  <v type="int" >       41 </v>
  <v type="int" >        4 </v>
  <v type="int" >       51 </v>
  <v type="int" >       50 </v>
  <v type="int" >       60 </v>
  <v type="int" >       57 </v>
  <v type="int" >        6 </v>
  <v type="int" >       10 </v>
  <v type="int" >        7 </v>
  <v type="int" >       13 </v>
  <v type="int" >       19 </v>
  <v type="int" >       14 </v>
  <v type="int" >       28 </v>
  <v type="int" >       29 </v>
  <v type="int" >       34 </v>
  <v type="int" >       31 </v>
  <v type="int" >       45 </v>
  <v type="int" >       44 </v>
  <v type="int" >        9 </v>
 </varray>
 <kpoints>
  <generation param="Gamma">
   <v type="int" name="divisions">       2        2        2 </v>
   <v name="usershift">      0.00000000       0.00000000       0.00000000 </v>
   <v name="genvec1">      0.50000000       0.00000000       0.00000000 </v>
   <v name="genvec2">      0.00000000       0.50000000       0.00000000 </v>
   <v name="genvec3">      0.00000000       0.00000000       0.50000000 </v>
   <v name="shift">      0.00000000       0.00000000       0.00000000 </v>
  </generation>
  <varray name="kpointlist" >
   <v>       0.00000000       0.00000000       0.00000000 </v>
   <v>       0.50000000       0.00000000       0.00000000 </v>
   <v>       0.00000000       0.50000000       0.00000000 </v>
   <v>       0.50000000       0.50000000       0.00000000 </v>
   <v>       0.00000000       0.00000000       0.50000000 </v>
   <v>       0.50000000       0.00000000       0.50000000 </v>
   <v>       0.00000000       0.50000000       0.50000000 </v>
   <v>       0.50000000       0.50000000       0.50000000 </v>
  </varray>
  <varray name="weights" >
   <v>       0.12500000 </v>
   <v>       0.12500000 </v>
   <v>       0.12500000 </v>
   <v>       0.12500000 </v>
   <v>       0.12500000 </v>
   <v>       0.12500000 </v>
   <v>       0.12500000 </v>
   <v>       0.12500000 </v>
  </varray>
  <varray name="tetrahedronlist"  type="int" >
   <v type="int" >        2        1        2        4        5 </v>
   <v type="int" >        2        1        3        4        5 </v>
   <v type="int" >        2        3        4        5        7 </v>
   <v type="int" >        2        2        4        5        6 </v>
   <v type="int" >        2        4        5        6        8 </v>
   <v type="int" >        2        4        5        7        8 </v>
   <v type="int" >        2        1        2        3        6 </v>
   <v type="int" >        2        2        3        4        6 </v>
   <v type="int" >        2        3        4        6        8 </v>
   <v type="int" >        2        1        3        5        6 </v>
   <v type="int" >        2        3        5        6        7 </v>
   <v type="int" >        2        3        6        7        8 </v>
   <v type="int" >        2        2        3        4        7 </v>
   <v type="int" >        2        1        2        3        7 </v>
   <v type="int" >        2        1        2        5        7 </v>
   <v type="int" >        2        2        4        7        8 </v>
   <v type="int" >        2        2        6        7        8 </v>
   <v type="int" >        2        2        5        6        7 </v>
   <v type="int" >        2        1        3        4        8 </v>
   <v type="int" >        2        1        2        4        8 </v>
   <v type="int" >        2        1        2        6        8 </v>
   <v type="int" >        2        1        3        7        8 </v>
   <v type="int" >        2        1        5        7        8 </v>
   <v type="int" >        2        1        5        6        8 </v>
  </varray>
  <i name="volumeweight">      0.02083333 </i>
 </kpoints>
 <parameters>
  <separator name="general" >
   <i type="string" name="SYSTEM">La2O2S</i>
   <i type="logical" name="LCOMPAT"> F  </i>
  </separator>
  <separator name="electronic" >
   <i type="string" name="PREC">normal</i>
   <i name="ENMAX">    600.00000000</i>
   <i name="ENAUG">    900.00000000</i>
   <i name="EDIFF">      0.00000100</i>
   <i type="int" name="IALGO">    38</i>
   <i type="int" name="IWAVPR">    11</i>
   <i type="int" name="NBANDS">   280</i>
   <i name="NELECT">    468.00000000</i>
   <i type="int" name="TURBO">     0</i>
   <i type="int" name="IRESTART">     0</i>
   <i type="int" name="NREBOOT">     0</i>
   <i type="int" name="NMIN">     0</i>
   <i name="EREF">      0.00000000</i>
   <separator name="electronic smearing" >
    <i type="int" name="ISMEAR">    -5</i>
    <i name="SIGMA">      0.20000000</i>
    <i name="KSPACING">      0.50000000</i>
    <i type="logical" name="KGAMMA"> T  </i>
   </separator>
   <separator name="electronic projectors" >
    <i type="logical" name="LREAL"> F  </i>
    <v name="ROPT">      0.00000000      0.00000000      0.00000000      0.00000000      0.00000000</v>
    <i type="int" name="LMAXPAW">  -100</i>
    <i type="int" name="LMAXMIX">     2</i>
    <i type="logical" name="NLSPLINE"> F  </i>
   </separator>
   <separator name="electronic startup" >
    <i type="int" name="ISTART">     0</i>
    <i type="int" name="ICHARG">     2</i>
    <i type="int" name="INIWAV">     1</i>
   </separator>
   <separator name="electronic spin" >
    <i type="int" name="ISPIN">     1</i>
    <i type="logical" name="LNONCOLLINEAR"> F  </i>
    <v name="MAGMOM">      1.00000000      1.00000000      1.00000000      1.00000000      1.00000000      1.00000000      1.00000000      1.00000000      1.00000000      1.00000000      1.00000000      1.00000000      1.00000000      1.00000000      1.00000000      1.00000000      1.00000000      1.00000000      1.00000000      1.00000000
      1.00000000      1.00000000      1.00000000      1.00000000      1.00000000      1.00000000      1.00000000      1.00000000      1.00000000      1.00000000      1.00000000      1.00000000      1.00000000      1.00000000      1.00000000      1.00000000      1.00000000      1.00000000      1.00000000      1.00000000
      1.00000000      1.00000000      1.00000000      1.00000000      1.00000000      1.00000000      1.00000000      1.00000000      1.00000000      1.00000000      1.00000000      1.00000000      1.00000000      1.00000000      1.00000000      1.00000000      1.00000000      1.00000000      1.00000000      1.00000000
      1.00000000</v>
    <i name="NUPDOWN">     -1.00000000</i>
    <i type="logical" name="LSORBIT"> F  </i>
    <v name="SAXIS">      0.00000000      0.00000000      1.00000000</v>
    <i type="logical" name="LSPIRAL"> F  </i>
    <v name="QSPIRAL">      0.00000000      0.00000000      0.00000000</v>
    <i type="logical" name="LZEROZ"> F  </i>
   </separator>
   <separator name="electronic exchange-correlation" >
    <i type="logical" name="LASPH"> F  </i>
    <i type="logical" name="LMETAGGA"> F  </i>
   </separator>
   <separator name="electronic convergence" >
    <i type="int" name="NELM">    60</i>
    <i type="int" name="NELMDL">    -5</i>
    <i type="int" name="NELMIN">     4</i>
    <i name="ENINI">    600.00000000</i>
    <separator name="electronic convergence detail" >
     <i type="logical" name="LDIAG"> T  </i>
     <i type="logical" name="LSUBROT"> F  </i>
     <i name="WEIMIN">      0.00100000</i>
     <i name="EBREAK">      0.00000000</i>
     <i name="DEPER">      0.30000000</i>
     <i type="int" name="NRMM">     4</i>
     <i name="TIME">      0.40000000</i>
    </separator>
   </separator>
   <separator name="electronic mixer" >
    <i name="AMIX">      0.40000000</i>
    <i name="BMIX">      1.00000000</i>
    <i name="AMIN">      0.10000000</i>
    <i name="AMIX_MAG">      1.60000000</i>
    <i name="BMIX_MAG">      1.00000000</i>
    <separator name="electronic mixer details" >
     <i type="int" name="IMIX">     4</i>
     <i type="logical" name="MIXFIRST"> F  </i>
     <i type="int" name="MAXMIX">   -45</i>
     <i name="WC">    100.00000000</i>
     <i type="int" name="INIMIX">     1</i>
     <i type="int" name="MIXPRE">     1</i>
     <i type="int" name="MREMOVE">     5</i>
    </separator>
   </separator>
   <separator name="electronic dipolcorrection" >
    <i type="logical" name="LDIPOL"> F  </i>
    <i type="logical" name="LMONO"> F  </i>
    <i type="int" name="IDIPOL">     0</i>
    <i name="EPSILON">      1.00000000</i>
    <v name="DIPOL">   -100.00000000   -100.00000000   -100.00000000</v>
    <i name="EFIELD">      0.00000000</i>
   </separator>
  </separator>
  <separator name="grids" >
   <i type="int" name="NGX">    70</i>
   <i type="int" name="NGY">    60</i>
   <i type="int" name="NGZ">    70</i>
   <i type="int" name="NGXF">   140</i>
   <i type="int" name="NGYF">   120</i>
   <i type="int" name="NGZF">   140</i>
   <i type="logical" name="ADDGRID"> F  </i>
  </separator>
  <separator name="ionic" >
   <i type="int" name="NSW">     1</i>
   <i type="int" name="IBRION">     2</i>
   <i type="int" name="MDALGO">     0</i>
   <i type="int" name="ISIF">     2</i>
   <i name="PSTRESS">      0.00000000</i>
   <i name="EDIFFG">     -0.01000000</i>
   <i type="int" name="NFREE">    10</i>
   <i name="POTIM">      0.50000000</i>
   <i name="SMASS">     -3.00000000</i>
   <i name="SCALEE">      1.00000000</i>
  </separator>
  <separator name="ionic md" >
   <i name="TEBEG">      0.00010000</i>
   <i name="TEEND">      0.00010000</i>
   <i type="int" name="NBLOCK">     1</i>
   <i type="int" name="KBLOCK">     1</i>
   <i type="int" name="NPACO">   256</i>
   <i name="APACO">     16.00000000</i>
  </separator>
  <separator name="symmetry" >
   <i type="int" name="ISYM">     2</i>
   <i name="SYMPREC">      0.00001000</i>
  </separator>
  <separator name="dos" >
   <i type="int" name="LORBIT">     0</i>
   <v name="RWIGS">     -1.00000000     -1.00000000     -1.00000000     -1.00000000     -1.00000000</v>
   <i type="int" name="NEDOS">   301</i>
   <i name="EMIN">     10.00000000</i>
   <i name="EMAX">    -10.00000000</i>
   <i name="EFERMI">      0.00000000</i>
  </separator>
  <separator name="writing" >
   <i type="int" name="NWRITE">     2</i>
   <i type="logical" name="LWAVE"> F  </i>
   <i type="logical" name="LDOWNSAMPLE"> F  </i>
   <i type="logical" name="LCHARG"> F  </i>
   <i type="logical" name="LPARD"> F  </i>
   <i type="logical" name="LVTOT"> F  </i>
   <i type="logical" name="LVHAR"> F  </i>
   <i type="logical" name="LELF"> F  </i>
   <i type="logical" name="LOPTICS"> F  </i>
   <v name="STM">      0.00000000      0.00000000      0.00000000      0.00000000      0.00000000      0.00000000      0.00000000</v>
  </separator>
  <separator name="performance" >
   <i type="int" name="NPAR">    28</i>
   <i type="int" name="NSIM">     4</i>
   <i type="int" name="NBLK">    -1</i>
   <i type="logical" name="LPLANE"> T  </i>
   <i type="logical" name="LSCALAPACK"> T  </i>
   <i type="logical" name="LSCAAWARE"> F  </i>
   <i type="logical" name="LSCALU"> F  </i>
   <i type="logical" name="LASYNC"> F  </i>
   <i type="logical" name="LORBITALREAL"> F  </i>
  </separator>
  <separator name="miscellaneous" >
   <i type="int" name="IDIOT">     3</i>
   <i type="int" name="ISPECIAL">     0</i>
   <i type="logical" name="LMUSIC"> F  </i>
   <v name="POMASS">      7.01000000     24.30500000    208.98000000     32.06600000     16.00000000</v>
   <v name="DARWINR">      0.00000000      0.00000000      0.00000000      0.00000000      0.00000000</v>
   <v name="DARWINV">      1.00000000      1.00000000      1.00000000      1.00000000      1.00000000</v>
   <i type="logical" name="LCORR"> T  </i>
  </separator>
  <i type="logical" name="GGA_COMPAT"> T  </i>
  <i type="logical" name="LBERRY"> F  </i>
  <i type="int" name="ICORELEVEL">     0</i>
  <i type="logical" name="LDAU"> F  </i>
  <i type="int" name="I_CONSTRAINED_M">     0</i>
  <separator name="electronic exchange-correlation" >
   <i type="string" name="GGA">--</i>
   <i type="int" name="VOSKOWN">     0</i>
   <i type="logical" name="LHFCALC"> F  </i>
   <i type="string" name="PRECFOCK"></i>
   <i type="logical" name="LSYMGRAD"> F  </i>
   <i type="logical" name="LHFONE"> F  </i>
   <i type="logical" name="LRHFCALC"> F  </i>
   <i type="logical" name="LTHOMAS"> F  </i>
   <i type="logical" name="LMODELHF"> F  </i>
   <i name="ENCUT4O">     -1.00000000</i>
   <i type="int" name="EXXOEP">     0</i>
   <i type="int" name="FOURORBIT">     0</i>
   <i name="AEXX">      0.00000000</i>
   <i name="HFALPHA">      0.00000000</i>
   <i name="MCALPHA">      0.00000000</i>
   <i name="ALDAX">      1.00000000</i>
   <i name="AGGAX">      1.00000000</i>
   <i name="ALDAC">      1.00000000</i>
   <i name="AGGAC">      1.00000000</i>
   <i type="int" name="NKREDX">     1</i>
   <i type="int" name="NKREDY">     1</i>
   <i type="int" name="NKREDZ">     1</i>
   <i type="logical" name="SHIFTRED"> F  </i>
   <i type="logical" name="ODDONLY"> F  </i>
   <i type="logical" name="EVENONLY"> F  </i>
   <i type="int" name="LMAXFOCK">     0</i>
   <i type="int" name="NMAXFOCKAE">     0</i>
   <i type="logical" name="LFOCKAEDFT"> F  </i>
   <i name="HFSCREEN">      0.00000000</i>
   <i name="HFSCREENC">      0.00000000</i>
   <i type="int" name="NBANDSGWLOW">     0</i>
  </separator>
  <separator name="vdW DFT" >
   <i type="logical" name="LUSE_VDW"> F  </i>
   <i name="Zab_VDW">     -0.84910000</i>
   <i name="PARAM1">      0.12340000</i>
   <i name="PARAM2">      1.00000000</i>
   <i name="PARAM3">      0.00000000</i>
  </separator>
  <separator name="model GW" >
   <i type="int" name="MODEL_GW">     0</i>
   <i name="MODEL_EPS0">     11.77228070</i>
   <i name="MODEL_ALPHA">      1.00000000</i>
  </separator>
  <separator name="linear response parameters" >
   <i type="logical" name="LEPSILON"> F  </i>
   <i type="logical" name="LRPA"> F  </i>
   <i type="logical" name="LNABLA"> F  </i>
   <i type="logical" name="LVEL"> F  </i>
   <i type="int" name="KINTER">     0</i>
   <i name="CSHIFT">      0.10000000</i>
   <i name="OMEGAMAX">     -1.00000000</i>
   <i name="DEG_THRESHOLD">      0.00200000</i>
   <i name="RTIME">     -0.10000000</i>
   <i name="WPLASMAI">      0.00000000</i>
   <v name="DFIELD">      0.00000000      0.00000000      0.00000000</v>
   <v name="WPLASMA">      0.00000000      0.00000000      0.00000000      0.00000000      0.00000000      0.00000000      0.00000000      0.00000000      0.00000000</v>
  </separator>
  <separator name="orbital magnetization" >
   <i type="logical" name="NUCIND"> F  </i>
   <v name="MAGPOS">      0.00000000      0.00000000      0.00000000</v>
   <i type="logical" name="LNICSALL"> T  </i>
   <i type="logical" name="ORBITALMAG"> F  </i>
   <i type="logical" name="LMAGBLOCH"> F  </i>
   <i type="logical" name="LCHIMAG"> F  </i>
   <i type="logical" name="LGAUGE"> T  </i>
   <i type="int" name="MAGATOM">     0</i>
   <v name="MAGDIPOL">      0.00000000      0.00000000      0.00000000</v>
   <v name="AVECCONST">      0.00000000      0.00000000      0.00000000</v>
  </separator>
  <separator name="response functions" >
   <i type="logical" name="LADDER"> F  </i>
   <i type="logical" name="LRPAFORCE"> F  </i>
   <i type="logical" name="LFXC"> F  </i>
   <i type="logical" name="LHARTREE"> T  </i>
   <i type="int" name="IBSE">     0</i>
   <v type="int" name="KPOINT">    -1     0     0     0</v>
   <i type="logical" name="LTCTE"> F  </i>
   <i type="logical" name="LTETE"> F  </i>
   <i type="logical" name="LTRIPLET"> F  </i>
   <i type="logical" name="LFXCEPS"> F  </i>
   <i type="logical" name="LFXHEG"> F  </i>
   <i type="int" name="NATURALO">     2</i>
   <i type="logical" name="L2ORDER"> F  </i>
   <i type="logical" name="LMP2LT"> F  </i>
   <i type="logical" name="LUSEW"> F  </i>
   <i name="ENCUTGW">     -2.00000000</i>
   <i name="ENCUTGWSOFT">     -2.00000000</i>
   <i name="ENCUTLF">     -1.00000000</i>
   <i type="int" name="LMAXMP2">    -1</i>
   <i name="SCISSOR">      0.00000000</i>
   <i type="int" name="NOMEGA">     0</i>
   <i type="int" name="NOMEGAR">     0</i>
   <i type="int" name="NBANDSGW">    -1</i>
   <i type="int" name="NBANDSO">    -1</i>
   <i type="int" name="NBANDSV">    -1</i>
   <i type="int" name="NELM">     1</i>
   <i type="int" name="NELMHF">     1</i>
   <i type="int" name="DIM">     3</i>
   <i type="int" name="ANTIRES">     0</i>
   <i name="OMEGAMAX">    -30.00000000</i>
   <i name="OMEGAMIN">    -30.00000000</i>
   <i name="OMEGATL">   -200.00000000</i>
   <i type="int" name="OMEGAGRID">   140</i>
   <i name="CSHIFT">     -0.10000000</i>
   <i type="logical" name="SELFENERGY"> F  </i>
   <i type="logical" name="LSPECTRAL"> F  </i>
   <i type="logical" name="LSPECTRALGW"> F  </i>
   <i type="logical" name="LSINGLES"> F  </i>
   <i type="logical" name="LFERMIGW"> F  </i>
   <i type="logical" name="ODDONLYGW"> F  </i>
   <i type="logical" name="EVENONLYGW"> F  </i>
   <i type="int" name="NKREDLFX">     1</i>
   <i type="int" name="NKREDLFY">     1</i>
   <i type="int" name="NKREDLFZ">     1</i>
   <i type="int" name="MAXMEM">  2800</i>
   <i type="int" name="TELESCOPE">     0</i>
   <i type="int" name="TAUPAR">     1</i>
   <i type="int" name="OMEGAPAR">    -1</i>
   <i name="LAMBDA">      1.00000000</i>
  </separator>
  <separator name="External order field" >
   <i name="OFIELD_KAPPA">      0.00000000</i>
   <v name="OFIELD_K">      0.00000000      0.00000000      0.00000000</v>
   <i name="OFIELD_Q6_NEAR">      0.00000000</i>
   <i name="OFIELD_Q6_FAR">      0.00000000</i>
   <i name="OFIELD_A">      0.00000000</i>
  </separator>
 </parameters>
 <atominfo>
  <atoms>      61 </atoms>
  <types>       5 </types>
  <array name="atoms" >
   <dimension dim="1">ion</dimension>
   <field type="string">element</field>
   <field type="int">atomtype</field>
   <set>
    <rc><c>Li</c><c>   1</c></rc>
    <rc><c>Li</c><c>   1</c></rc>
    <rc><c>Li</c><c>   1</c></rc>
    <rc><c>Li</c><c>   1</c></rc>
    <rc><c>Li</c><c>   1</c></rc>
    <rc><c>Li</c><c>   1</c></rc>
    <rc><c>Li</c><c>   1</c></rc>
    <rc><c>Li</c><c>   1</c></rc>
    <rc><c>Li</c><c>   1</c></rc>
    <rc><c>Li</c><c>   1</c></rc>
    <rc><c>Mg</c><c>   2</c></rc>
    <rc><c>Mg</c><c>   2</c></rc>
    <rc><c>Mg</c><c>   2</c></rc>
    <rc><c>Bi</c><c>   3</c></rc>
    <rc><c>Bi</c><c>   3</c></rc>
    <rc><c>Bi</c><c>   3</c></rc>
    <rc><c>Bi</c><c>   3</c></rc>
    <rc><c>Bi</c><c>   3</c></rc>
    <rc><c>Bi</c><c>   3</c></rc>
    <rc><c>Bi</c><c>   3</c></rc>
    <rc><c>Bi</c><c>   3</c></rc>
    <rc><c>Bi</c><c>   3</c></rc>
    <rc><c>Bi</c><c>   3</c></rc>
    <rc><c>Bi</c><c>   3</c></rc>
    <rc><c>Bi</c><c>   3</c></rc>
    <rc><c>Bi</c><c>   3</c></rc>
    <rc><c>Bi</c><c>   3</c></rc>
    <rc><c>Bi</c><c>   3</c></rc>
    <rc><c>Bi</c><c>   3</c></rc>
    <rc><c>S </c><c>   4</c></rc>
    <rc><c>S </c><c>   4</c></rc>
    <rc><c>S </c><c>   4</c></rc>
    <rc><c>S </c><c>   4</c></rc>
    <rc><c>S </c><c>   4</c></rc>
    <rc><c>S </c><c>   4</c></rc>
    <rc><c>S </c><c>   4</c></rc>
    <rc><c>S </c><c>   4</c></rc>
    <rc><c>S </c><c>   4</c></rc>
    <rc><c>S </c><c>   4</c></rc>
    <rc><c>S </c><c>   4</c></rc>
    <rc><c>S </c><c>   4</c></rc>
    <rc><c>S </c><c>   4</c></rc>
    <rc><c>S </c><c>   4</c></rc>
    <rc><c>S </c><c>   4</c></rc>
    <rc><c>S </c><c>   4</c></rc>
    <rc><c>O </c><c>   5</c></rc>
    <rc><c>O </c><c>   5</c></rc>
    <rc><c>O </c><c>   5</c></rc>
    <rc><c>O </c><c>   5</c></rc>
    <rc><c>O </c><c>   5</c></rc>
    <rc><c>O </c><c>   5</c></rc>
    <rc><c>O </c><c>   5</c></rc>
    <rc><c>O </c><c>   5</c></rc>
    <rc><c>O </c><c>   5</c></rc>
    <rc><c>O </c><c>   5</c></rc>
    <rc><c>O </c><c>   5</c></rc>
    <rc><c>O </c><c>   5</c></rc>
    <rc><c>O </c><c>   5</c></rc>
    <rc><c>O </c><c>   5</c></rc>
    <rc><c>O </c><c>   5</c></rc>
    <rc><c>O </c><c>   5</c></rc>
   </set>
  </array>
  <array name="atomtypes" >
   <dimension dim="1">type</dimension>
   <field type="int">atomspertype</field>
   <field type="string">element</field>
   <field>mass</field>
   <field>valence</field>
   <field type="string">pseudopotential</field>
   <set>
    <rc><c>  10</c><c>Li</c><c>      7.01000000</c><c>      3.00000000</c><c>  PAW_PBE Li_sv 10Sep2004               </c></rc>
    <rc><c>   3</c><c>Mg</c><c>     24.30500000</c><c>      2.00000000</c><c>  PAW_PBE Mg 13Apr2007                  </c></rc>
    <rc><c>  16</c><c>Bi</c><c>    208.98000000</c><c>     15.00000000</c><c>  PAW_PBE Bi_d 06Sep2000                </c></rc>
    <rc><c>  16</c><c>S </c><c>     32.06600000</c><c>      6.00000000</c><c>  PAW_PBE S 06Sep2000                   </c></rc>
    <rc><c>  16</c><c>O </c><c>     16.00000000</c><c>      6.00000000</c><c>  PAW_PBE O 08Apr2002                   </c></rc>
   </set>
  </array>
 </atominfo>
 <structure name="initialpos" >
  <crystal>
   <varray name="basis" >
    <v>      11.17850000       0.00000000       0.00000000 </v>
    <v>       0.00000000       9.57460000       0.00000000 </v>
    <v>       0.00000000       0.00000000      11.18240000 </v>
   </varray>
   <i name="volume">   1196.84853820 </i>
   <varray name="rec_basis" >
    <v>       0.08945744       0.00000000       0.00000000 </v>
    <v>       0.00000000       0.10444301       0.00000000 </v>
    <v>       0.00000000       0.00000000       0.08942624 </v>
   </varray>
  </crystal>
  <varray name="positions" >
   <v>       0.37539000       0.00017000       0.43687000 </v>
   <v>       0.12461000       0.99984000       0.18687000 </v>
   <v>       0.62539000       0.99984000       0.43687000 </v>
   <v>       0.87539000       0.00017000       0.43687000 </v>
   <v>       0.62461000       0.99984000       0.18687000 </v>
   <v>       0.87461000       0.00017000       0.18687000 </v>
   <v>       0.12539000       0.99984000       0.93687000 </v>
   <v>       0.12461000       0.99984000       0.68687000 </v>
   <v>       0.87539000       0.00017000       0.93687000 </v>
   <v>       0.87461000       0.00017000       0.68687000 </v>
   <v>       0.37461000       0.00017000       0.18687000 </v>
   <v>       0.37461000       0.00017000       0.68687000 </v>
   <v>       0.62539000       0.99984000       0.93687000 </v>
   <v>       0.00013000       0.29519000       0.06281000 </v>
   <v>       0.25013000       0.70481000       0.06281000 </v>
   <v>       0.24987000       0.29519000       0.31282000 </v>
   <v>       0.49987000       0.70481000       0.31282000 </v>
   <v>       0.50013000       0.29519000       0.06281000 </v>
   <v>       0.75013000       0.70481000       0.06281000 </v>
   <v>       0.74987000       0.29519000       0.31282000 </v>
   <v>       0.99987000       0.70481000       0.31282000 </v>
   <v>       0.00013000       0.29519000       0.56281000 </v>
   <v>       0.25013000       0.70481000       0.56281000 </v>
   <v>       0.24987000       0.29519000       0.81282000 </v>
   <v>       0.49987000       0.70481000       0.81282000 </v>
   <v>       0.50013000       0.29519000       0.56281000 </v>
   <v>       0.75013000       0.70481000       0.56281000 </v>
   <v>       0.74987000       0.29519000       0.81282000 </v>
   <v>       0.99987000       0.70481000       0.81282000 </v>
   <v>       0.25005000       0.32677000       0.06286000 </v>
   <v>       0.00005000       0.67323000       0.06286000 </v>
   <v>       0.49995000       0.32677000       0.31286000 </v>
   <v>       0.24995000       0.67323000       0.31286000 </v>
   <v>       0.75005000       0.32677000       0.06286000 </v>
   <v>       0.50005000       0.67323000       0.06286000 </v>
   <v>       0.99995000       0.32677000       0.31286000 </v>
   <v>       0.74995000       0.67323000       0.31286000 </v>
   <v>       0.25005000       0.32677000       0.56286000 </v>
   <v>       0.00005000       0.67323000       0.56286000 </v>
   <v>       0.49995000       0.32677000       0.81286000 </v>
   <v>       0.24995000       0.67323000       0.81286000 </v>
   <v>       0.75005000       0.32677000       0.56286000 </v>
   <v>       0.50005000       0.67323000       0.56286000 </v>
   <v>       0.99995000       0.32677000       0.81286000 </v>
   <v>       0.74995000       0.67323000       0.81286000 </v>
   <v>       0.49987000       0.07798000       0.06246000 </v>
   <v>       0.24987000       0.92202000       0.06246000 </v>
   <v>       0.25013000       0.07798000       0.31246000 </v>
   <v>       0.00013000       0.92202000       0.31246000 </v>
   <v>       0.99987000       0.07798000       0.06246000 </v>
   <v>       0.74987000       0.92202000       0.06246000 </v>
   <v>       0.75013000       0.07798000       0.31246000 </v>
   <v>       0.50013000       0.92202000       0.31246000 </v>
   <v>       0.49987000       0.07798000       0.56246000 </v>
   <v>       0.24987000       0.92202000       0.56246000 </v>
   <v>       0.25013000       0.07798000       0.81246000 </v>
   <v>       0.00013000       0.92202000       0.81246000 </v>
   <v>       0.99987000       0.07798000       0.56246000 </v>
   <v>       0.74987000       0.92202000       0.56246000 </v>
   <v>       0.75013000       0.07798000       0.81246000 </v>
   <v>       0.50013000       0.92202000       0.81246000 </v>
  </varray>
 </structure>
 <calculation>
  <scstep>
   <time name="dav">   60.20   60.25</time>
   <time name="total">   60.28   60.34</time>
   <energy>
    <i name="alphaZ">   1073.51873187 </i>
    <i name="ewald"> -30877.47477844 </i>
    <i name="hartreedc"> -12711.71032161 </i>
    <i name="XCdc">   1394.97050690 </i>
    <i name="pawpsdc">  36823.70205594 </i>
    <i name="pawaedc"> -36326.52930246 </i>
    <i name="eentropy">      0.00000000 </i>
    <i name="bandstr">   1804.94087472 </i>
    <i name="atom">  44791.06186932 </i>
    <i name="e_fr_energy">   5972.47963624 </i>
    <i name="e_wo_entrp">   5972.47963624 </i>
    <i name="e_0_energy">   5972.47963624 </i>
   </energy>
  </scstep>
  <scstep>
   <time name="dav">   60.85   60.86</time>
   <time name="total">   60.86   60.87</time>
   <energy>
    <i name="e_fr_energy">    804.78690420 </i>
    <i name="e_wo_entrp">    804.78690420 </i>
    <i name="e_0_energy">    804.78690420 </i>
   </energy>
  </scstep>
  <scstep>
   <time name="dav">   70.24   70.47</time>
   <time name="total">   70.25   70.48</time>
   <energy>
    <i name="e_fr_energy">   -243.29438508 </i>
    <i name="e_wo_entrp">   -243.29438508 </i>
    <i name="e_0_energy">   -243.29438508 </i>
   </energy>
  </scstep>
  <scstep>
   <time name="dav">   73.23   73.44</time>
   <time name="total">   73.23   73.45</time>
   <energy>
    <i name="e_fr_energy">   -346.64148829 </i>
    <i name="e_wo_entrp">   -346.64148829 </i>
    <i name="e_0_energy">   -346.64148829 </i>
   </energy>
  </scstep>
  <scstep>
   <time name="dav">   97.52   97.68</time>
   <time name="total">   98.26   98.42</time>
   <energy>
    <i name="e_fr_energy">   -355.23634568 </i>
    <i name="e_wo_entrp">   -355.23634568 </i>
    <i name="e_0_energy">   -355.23634568 </i>
   </energy>
  </scstep>
  <scstep>
   <time name="dav">   86.42   86.43</time>
   <time name="total">   87.23   87.24</time>
   <energy>
    <i name="e_fr_energy">   -296.46415009 </i>
    <i name="e_wo_entrp">   -296.46415009 </i>
    <i name="e_0_energy">   -296.46415009 </i>
   </energy>
  </scstep>
  <scstep>
   <time name="dav">   66.04   66.10</time>
   <time name="total">   66.85   66.91</time>
   <energy>
    <i name="e_fr_energy">   -299.24205071 </i>
    <i name="e_wo_entrp">   -299.24205071 </i>
    <i name="e_0_energy">   -299.24205071 </i>
   </energy>
  </scstep>
  <scstep>
   <time name="dav">   80.91   81.08</time>
   <time name="total">   81.72   81.90</time>
   <energy>
    <i name="e_fr_energy">   -297.97748079 </i>
    <i name="e_wo_entrp">   -297.97748079 </i>
    <i name="e_0_energy">   -297.97748079 </i>
   </energy>
  </scstep>
  <scstep>
   <time name="dav">   77.93   77.99</time>
   <time name="total">   78.73   78.80</time>
   <energy>
    <i name="e_fr_energy">   -297.32253412 </i>
    <i name="e_wo_entrp">   -297.32253412 </i>
    <i name="e_0_energy">   -297.32253412 </i>
   </energy>
  </scstep>
  <scstep>
   <time name="dav">   73.89   73.91</time>
   <time name="total">   74.69   74.72</time>
   <energy>
    <i name="e_fr_energy">   -297.32772763 </i>
    <i name="e_wo_entrp">   -297.32772763 </i>
    <i name="e_0_energy">   -297.32772763 </i>
   </energy>
  </scstep>
  <scstep>
   <time name="dav">   80.03   80.04</time>
   <time name="total">   80.84   80.86</time>
   <energy>
    <i name="e_fr_energy">   -297.33782575 </i>
    <i name="e_wo_entrp">   -297.33782575 </i>
    <i name="e_0_energy">   -297.33782575 </i>
   </energy>
  </scstep>
  <scstep>
   <time name="dav">   78.99   79.03</time>
   <time name="total">   79.80   79.85</time>
   <energy>
    <i name="e_fr_energy">   -297.34123327 </i>
    <i name="e_wo_entrp">   -297.34123327 </i>
    <i name="e_0_energy">   -297.34123327 </i>
   </energy>
  </scstep>
  <scstep>
   <time name="dav">   76.30   76.32</time>
   <time name="total">   77.13   77.15</time>
   <energy>
    <i name="e_fr_energy">   -297.34251256 </i>
    <i name="e_wo_entrp">   -297.34251256 </i>
    <i name="e_0_energy">   -297.34251256 </i>
   </energy>
  </scstep>
  <scstep>
   <time name="dav">   75.48   75.47</time>
   <time name="total">   76.29   76.29</time>
   <energy>
    <i name="e_fr_energy">   -297.34276145 </i>
    <i name="e_wo_entrp">   -297.34276145 </i>
    <i name="e_0_energy">   -297.34276145 </i>
   </energy>
  </scstep>
  <scstep>
   <time name="dav">   80.30   80.35</time>
   <time name="total">   81.11   81.16</time>
   <energy>
    <i name="e_fr_energy">   -297.34282165 </i>
    <i name="e_wo_entrp">   -297.34282165 </i>
    <i name="e_0_energy">   -297.34282165 </i>
   </energy>
  </scstep>
  <scstep>
   <time name="dav">   67.93   68.02</time>
   <time name="total">   68.74   68.83</time>
   <energy>
    <i name="e_fr_energy">   -297.34284127 </i>
    <i name="e_wo_entrp">   -297.34284127 </i>
    <i name="e_0_energy">   -297.34284127 </i>
   </energy>
  </scstep>
  <scstep>
   <time name="dav">   72.44   72.46</time>
   <time name="total">   73.25   73.28</time>
   <energy>
    <i name="e_fr_energy">   -297.34284441 </i>
    <i name="e_wo_entrp">   -297.34284441 </i>
    <i name="e_0_energy">   -297.34284441 </i>
   </energy>
  </scstep>
  <scstep>
   <time name="dav">   57.22   57.23</time>
   <time name="total">   57.29   57.31</time>
   <energy>
    <i name="alphaZ">   1073.51873187 </i>
    <i name="ewald"> -30877.47477844 </i>
    <i name="hartreedc"> -12949.37214565 </i>
    <i name="XCdc">   1418.53760899 </i>
    <i name="pawpsdc">  43849.88013235 </i>
    <i name="pawaedc"> -43327.41758642 </i>
    <i name="eentropy">      0.00000000 </i>
    <i name="bandstr">  -4276.07667702 </i>
    <i name="atom">  44791.06186932 </i>
    <i name="e_fr_energy">   -297.34284501 </i>
    <i name="e_wo_entrp">   -297.34284501 </i>
    <i name="e_0_energy">   -297.34284501 </i>
   </energy>
  </scstep>
  <structure>
   <crystal>
    <varray name="basis" >
     <v>      11.17850000       0.00000000       0.00000000 </v>
     <v>       0.00000000       9.57460000       0.00000000 </v>
     <v>       0.00000000       0.00000000      11.18240000 </v>
    </varray>
    <i name="volume">   1196.84853820 </i>
    <varray name="rec_basis" >
     <v>       0.08945744       0.00000000       0.00000000 </v>
     <v>       0.00000000       0.10444301       0.00000000 </v>
     <v>       0.00000000       0.00000000       0.08942624 </v>
    </varray>
   </crystal>
   <varray name="positions" >
    <v>       0.37539000       0.00017000       0.43687000 </v>
    <v>       0.12461000       0.99984000       0.18687000 </v>
    <v>       0.62539000       0.99984000       0.43687000 </v>
    <v>       0.87539000       0.00017000       0.43687000 </v>
    <v>       0.62461000       0.99984000       0.18687000 </v>
    <v>       0.87461000       0.00017000       0.18687000 </v>
    <v>       0.12539000       0.99984000       0.93687000 </v>
    <v>       0.12461000       0.99984000       0.68687000 </v>
    <v>       0.87539000       0.00017000       0.93687000 </v>
    <v>       0.87461000       0.00017000       0.68687000 </v>
    <v>       0.37461000       0.00017000       0.18687000 </v>
    <v>       0.37461000       0.00017000       0.68687000 </v>
    <v>       0.62539000       0.99984000       0.93687000 </v>
    <v>       0.00013000       0.29519000       0.06281000 </v>
    <v>       0.25013000       0.70481000       0.06281000 </v>
    <v>       0.24987000       0.29519000       0.31282000 </v>
    <v>       0.49987000       0.70481000       0.31282000 </v>
    <v>       0.50013000       0.29519000       0.06281000 </v>
    <v>       0.75013000       0.70481000       0.06281000 </v>
    <v>       0.74987000       0.29519000       0.31282000 </v>
    <v>       0.99987000       0.70481000       0.31282000 </v>
    <v>       0.00013000       0.29519000       0.56281000 </v>
    <v>       0.25013000       0.70481000       0.56281000 </v>
    <v>       0.24987000       0.29519000       0.81282000 </v>
    <v>       0.49987000       0.70481000       0.81282000 </v>
    <v>       0.50013000       0.29519000       0.56281000 </v>
    <v>       0.75013000       0.70481000       0.56281000 </v>
    <v>       0.74987000       0.29519000       0.81282000 </v>
    <v>       0.99987000       0.70481000       0.81282000 </v>
    <v>       0.25005000       0.32677000       0.06286000 </v>
    <v>       0.00005000       0.67323000       0.06286000 </v>
    <v>       0.49995000       0.32677000       0.31286000 </v>
    <v>       0.24995000       0.67323000       0.31286000 </v>
    <v>       0.75005000       0.32677000       0.06286000 </v>
    <v>       0.50005000       0.67323000       0.06286000 </v>
    <v>       0.99995000       0.32677000       0.31286000 </v>
    <v>       0.74995000       0.67323000       0.31286000 </v>
    <v>       0.25005000       0.32677000       0.56286000 </v>
    <v>       0.00005000       0.67323000       0.56286000 </v>
    <v>       0.49995000       0.32677000       0.81286000 </v>
    <v>       0.24995000       0.67323000       0.81286000 </v>
    <v>       0.75005000       0.32677000       0.56286000 </v>
    <v>       0.50005000       0.67323000       0.56286000 </v>
    <v>       0.99995000       0.32677000       0.81286000 </v>
    <v>       0.74995000       0.67323000       0.81286000 </v>
    <v>       0.49987000       0.07798000       0.06246000 </v>
    <v>       0.24987000       0.92202000       0.06246000 </v>
    <v>       0.25013000       0.07798000       0.31246000 </v>
    <v>       0.00013000       0.92202000       0.31246000 </v>
    <v>       0.99987000       0.07798000       0.06246000 </v>
    <v>       0.74987000       0.92202000       0.06246000 </v>
    <v>       0.75013000       0.07798000       0.31246000 </v>
    <v>       0.50013000       0.92202000       0.31246000 </v>
    <v>       0.49987000       0.07798000       0.56246000 </v>
    <v>       0.24987000       0.92202000       0.56246000 </v>
    <v>       0.25013000       0.07798000       0.81246000 </v>
    <v>       0.00013000       0.92202000       0.81246000 </v>
    <v>       0.99987000       0.07798000       0.56246000 </v>
    <v>       0.74987000       0.92202000       0.56246000 </v>
    <v>       0.75013000       0.07798000       0.81246000 </v>
    <v>       0.50013000       0.92202000       0.81246000 </v>
   </varray>
  </structure>
  <varray name="forces" >
   <v>      -0.38633707       0.06310037       0.21729898 </v>
   <v>      -0.34660345      -0.06529557       0.37957410 </v>
   <v>       0.20052367       0.00256662       0.54916871 </v>
   <v>       0.36652446      -0.06705664       0.20142173 </v>
   <v>       0.36478429       0.06486610       0.35328321 </v>
   <v>       0.29921688       0.00555066       0.29348029 </v>
   <v>       0.29771683       0.00091197      -0.02713202 </v>
   <v>      -0.34210803       0.06262850      -0.36726212 </v>
   <v>       0.34725637       0.06276129      -0.19430612 </v>
   <v>      -0.21087719      -0.00912437      -0.27777982 </v>
   <v>      -0.46293880      -0.01008006      -0.50124121 </v>
   <v>       0.54905171      -0.00332004       0.55636839 </v>
   <v>      -0.60002910      -0.00246210      -1.05381556 </v>
   <v>       0.02635053       0.03569206       0.04807322 </v>
   <v>      -0.18664664      -0.02364323      -0.19012907 </v>
   <v>      -0.44247604       0.03057831       0.33093962 </v>
   <v>       0.11100892      -1.06951924       0.28557300 </v>
   <v>      -0.17627165       0.99632705      -0.15171892 </v>
   <v>       0.31988356      -1.06523799       0.11329739 </v>
   <v>       0.26909285       0.03131883       0.24562011 </v>
   <v>       0.08562873       1.03458266       0.28880166 </v>
   <v>       0.03850667      -1.03857373      -0.15799052 </v>
   <v>      -0.41801430      -0.02170256      -0.19553375 </v>
   <v>      -0.12998470      -0.02417135       0.03541907 </v>
   <v>       0.00169423       0.10343349      -0.21673513 </v>
   <v>       0.25750530       0.00461540       0.07081062 </v>
   <v>       0.08810732       1.02660912       0.08122328 </v>
   <v>       0.15170873       0.02075965      -0.45602588 </v>
   <v>       0.00126880      -0.02022332      -0.20232905 </v>
   <v>       0.17626137       0.10358929       0.06865989 </v>
   <v>      -0.08381165      -0.19403436      -0.10508483 </v>
   <v>      -0.03787368       0.11240844      -0.20078951 </v>
   <v>       0.31725877      -0.12090015      -0.13508449 </v>
   <v>      -0.19598983       0.10414788      -0.03918336 </v>
   <v>       0.09650728      -0.00806247       0.11278782 </v>
   <v>      -0.01714070       0.19315980      -0.19281081 </v>
   <v>      -0.26360630      -0.19464789      -0.26409359 </v>
   <v>       0.21998343       0.17040867       0.05326950 </v>
   <v>       0.09487586      -0.23617529       0.12127405 </v>
   <v>       0.01417862       0.04858370       0.15775514 </v>
   <v>       0.08041121      -0.14726626       0.01431544 </v>
   <v>      -0.15931567       0.20801675      -0.02731756 </v>
   <v>      -0.15088611      -0.13945781      -0.07525581 </v>
   <v>      -0.00228801       0.22908125       0.18091038 </v>
   <v>      -0.08979917      -0.11547823       0.32545781 </v>
   <v>       0.72419625      -0.77181048       0.68572946 </v>
   <v>       0.01830986       0.01026315       1.10183212 </v>
   <v>       1.27309539      -0.09780202      -1.13404882 </v>
   <v>      -0.61277262      -0.83180919      -0.74716489 </v>
   <v>      -0.07699496      -0.02806751      -0.07367571 </v>
   <v>      -0.64284272       0.86146874      -0.47585452 </v>
   <v>      -0.23993036      -0.03035780      -0.24369107 </v>
   <v>      -0.48126093       0.85988729      -0.66294958 </v>
   <v>      -1.12364976       0.03210673      -0.22021015 </v>
   <v>       1.18055698       0.01671331       1.04498036 </v>
   <v>      -0.08338859       0.06756500      -1.02538040 </v>
   <v>      -0.01351507      -0.02438102       0.15799005 </v>
   <v>      -0.52752276       0.89683187       0.67078682 </v>
   <v>       0.46283288      -0.85991541      -0.61731445 </v>
   <v>       0.03732514      -0.00736552       1.33194448 </v>
   <v>       0.03325297      -0.23259235       0.15386198 </v>
  </varray>
  <varray name="stress" >
   <v>      -7.44246763      -0.02168051      -0.72703453 </v>
   <v>      -0.02168058     -14.13400604       0.08006109 </v>
   <v>      -0.72703504       0.08006124      -9.59529470 </v>
  </varray>
  <energy>
   <i name="e_fr_energy">   -312.01613112 </i>
   <i name="e_wo_entrp">   -312.01613112 </i>
   <i name="e_0_energy">      0.00000000 </i>
  </energy>
  <time name="totalsc"> 1453.89 1455.17</time>
  <eigenvalues>
   <array>
    <dimension dim="1">band</dimension>
    <dimension dim="2">kpoint</dimension>
    <dimension dim="3">spin</dimension>
    <field>eigene</field>
    <field>occ</field>
    <set>
     <set comment="spin 1">
      <set comment="kpoint 1">
       <r>  -40.4802    1.0000 </r>
       <r>  -40.0221    1.0000 </r>
       <r>  -40.0125    1.0000 </r>
       <r>  -39.8074    1.0000 </r>
       <r>  -39.7656    1.0000 </r>
       <r>  -39.7605    1.0000 </r>
       <r>  -39.6526    1.0000 </r>
       <r>  -39.5570    1.0000 </r>
       <r>  -39.3598    1.0000 </r>
       <r>  -39.2027    1.0000 </r>
       <r>  -18.9968    1.0000 </r>
       <r>  -18.9248    1.0000 </r>
       <r>  -18.9232    1.0000 </r>
       <r>  -18.9166    1.0000 </r>
       <r>  -18.9151    1.0000 </r>
       <r>  -18.8561    1.0000 </r>
       <r>  -18.8494    1.0000 </r>
       <r>  -18.8413    1.0000 </r>
       <r>  -18.8329    1.0000 </r>
       <r>  -18.8241    1.0000 </r>
       <r>  -18.8063    1.0000 </r>
       <r>  -18.7481    1.0000 </r>
       <r>  -18.7440    1.0000 </r>
       <r>  -18.7360    1.0000 </r>
       <r>  -18.7305    1.0000 </r>
       <r>  -18.7113    1.0000 </r>
       <r>  -18.6999    1.0000 </r>
       <r>  -18.6968    1.0000 </r>
       <r>  -18.6856    1.0000 </r>
       <r>  -18.6766    1.0000 </r>
       <r>  -18.6647    1.0000 </r>
       <r>  -18.6630    1.0000 </r>
       <r>  -18.6571    1.0000 </r>
       <r>  -18.6516    1.0000 </r>
       <r>  -18.6479    1.0000 </r>
       <r>  -18.6452    1.0000 </r>
       <r>  -18.6406    1.0000 </r>
       <r>  -18.6405    1.0000 </r>
       <r>  -18.6402    1.0000 </r>
       <r>  -18.6369    1.0000 </r>
       <r>  -18.6315    1.0000 </r>
       <r>  -18.6297    1.0000 </r>
       <r>  -18.6254    1.0000 </r>
       <r>  -18.6218    1.0000 </r>
       <r>  -18.6208    1.0000 </r>
       <r>  -18.6205    1.0000 </r>
       <r>  -18.6056    1.0000 </r>
       <r>  -18.6004    1.0000 </r>
       <r>  -18.5983    1.0000 </r>
       <r>  -18.5763    1.0000 </r>
       <r>  -18.5657    1.0000 </r>
       <r>  -18.5576    1.0000 </r>
       <r>  -18.5564    1.0000 </r>
       <r>  -18.5537    1.0000 </r>
       <r>  -18.5423    1.0000 </r>
       <r>  -18.5393    1.0000 </r>
       <r>  -18.5374    1.0000 </r>
       <r>  -18.5302    1.0000 </r>
       <r>  -18.5077    1.0000 </r>
       <r>  -18.4965    1.0000 </r>
       <r>  -18.4944    1.0000 </r>
       <r>  -18.4940    1.0000 </r>
       <r>  -18.4855    1.0000 </r>
       <r>  -18.4819    1.0000 </r>
       <r>  -18.4792    1.0000 </r>
       <r>  -18.4758    1.0000 </r>
       <r>  -18.4738    1.0000 </r>
       <r>  -18.4723    1.0000 </r>
       <r>  -18.4680    1.0000 </r>
       <r>  -18.4550    1.0000 </r>
       <r>  -18.4541    1.0000 </r>
       <r>  -18.4147    1.0000 </r>
       <r>  -18.4028    1.0000 </r>
       <r>  -18.3942    1.0000 </r>
       <r>  -18.3911    1.0000 </r>
       <r>  -18.3832    1.0000 </r>
       <r>  -18.3797    1.0000 </r>
       <r>  -18.3768    1.0000 </r>
       <r>  -18.3631    1.0000 </r>
       <r>  -18.3217    1.0000 </r>
       <r>  -18.3093    1.0000 </r>
       <r>  -18.2960    1.0000 </r>
       <r>  -18.2869    1.0000 </r>
       <r>  -18.2264    1.0000 </r>
       <r>  -18.1785    1.0000 </r>
       <r>  -18.1748    1.0000 </r>
       <r>  -18.1654    1.0000 </r>
       <r>  -18.1605    1.0000 </r>
       <r>  -18.1094    1.0000 </r>
       <r>  -18.1010    1.0000 </r>
       <r>  -13.6463    1.0000 </r>
       <r>  -13.4950    1.0000 </r>
       <r>  -13.4744    1.0000 </r>
       <r>  -12.8797    1.0000 </r>
       <r>  -12.8224    1.0000 </r>
       <r>  -12.7530    1.0000 </r>
       <r>  -12.7361    1.0000 </r>
       <r>  -12.6946    1.0000 </r>
       <r>  -12.6753    1.0000 </r>
       <r>  -12.6640    1.0000 </r>
       <r>  -12.6375    1.0000 </r>
       <r>  -12.6163    1.0000 </r>
       <r>  -12.5426    1.0000 </r>
       <r>  -11.9567    1.0000 </r>
       <r>  -11.9069    1.0000 </r>
       <r>  -11.8320    1.0000 </r>
       <r>   -9.3312    1.0000 </r>
       <r>   -9.0384    1.0000 </r>
       <r>   -8.5228    1.0000 </r>
       <r>   -8.5169    1.0000 </r>
       <r>   -8.4577    1.0000 </r>
       <r>   -8.4559    1.0000 </r>
       <r>   -8.3010    1.0000 </r>
       <r>   -8.2935    1.0000 </r>
       <r>   -8.2388    1.0000 </r>
       <r>   -8.2312    1.0000 </r>
       <r>   -8.0162    1.0000 </r>
       <r>   -7.9904    1.0000 </r>
       <r>   -7.9862    1.0000 </r>
       <r>   -7.9489    1.0000 </r>
       <r>   -7.3451    1.0000 </r>
       <r>   -7.3395    1.0000 </r>
       <r>   -6.3734    1.0000 </r>
       <r>   -6.3713    1.0000 </r>
       <r>   -6.3420    1.0000 </r>
       <r>   -6.3414    1.0000 </r>
       <r>   -5.5381    1.0000 </r>
       <r>   -5.5302    1.0000 </r>
       <r>   -5.3660    1.0000 </r>
       <r>   -5.3443    1.0000 </r>
       <r>   -5.2657    1.0000 </r>
       <r>   -5.2619    1.0000 </r>
       <r>   -5.1886    1.0000 </r>
       <r>   -5.1375    1.0000 </r>
       <r>   -5.0676    1.0000 </r>
       <r>   -5.0417    1.0000 </r>
       <r>   -3.7890    1.0000 </r>
       <r>   -3.6347    1.0000 </r>
       <r>   -1.4551    1.0000 </r>
       <r>   -1.3223    1.0000 </r>
       <r>   -1.0939    1.0000 </r>
       <r>   -1.0142    1.0000 </r>
       <r>   -0.5426    1.0000 </r>
       <r>   -0.5156    1.0000 </r>
       <r>   -0.4939    1.0000 </r>
       <r>   -0.4651    1.0000 </r>
       <r>   -0.1710    1.0000 </r>
       <r>   -0.1639    1.0000 </r>
       <r>   -0.1528    1.0000 </r>
       <r>   -0.1423    1.0000 </r>
       <r>   -0.0048    1.0000 </r>
       <r>    0.0327    1.0000 </r>
       <r>    0.2374    1.0000 </r>
       <r>    0.3491    1.0000 </r>
       <r>    0.4637    1.0000 </r>
       <r>    0.5091    1.0000 </r>
       <r>    0.5386    1.0000 </r>
       <r>    0.5937    1.0000 </r>
       <r>    0.6857    1.0000 </r>
       <r>    0.7348    1.0000 </r>
       <r>    0.7445    1.0000 </r>
       <r>    0.7699    1.0000 </r>
       <r>    0.7977    1.0000 </r>
       <r>    0.8314    1.0000 </r>
       <r>    0.8951    1.0000 </r>
       <r>    0.9629    1.0000 </r>
       <r>    0.9889    1.0000 </r>
       <r>    1.0445    1.0000 </r>
       <r>    1.0610    1.0000 </r>
       <r>    1.0857    1.0000 </r>
       <r>    1.1262    1.0000 </r>
       <r>    1.1600    1.0000 </r>
       <r>    1.2461    1.0000 </r>
       <r>    1.2804    1.0000 </r>
       <r>    1.3274    1.0000 </r>
       <r>    1.3692    1.0000 </r>
       <r>    1.3859    1.0000 </r>
       <r>    1.4977    1.0000 </r>
       <r>    1.5205    1.0000 </r>
       <r>    1.5787    1.0000 </r>
       <r>    1.6112    1.0000 </r>
       <r>    1.6257    1.0000 </r>
       <r>    1.6793    1.0000 </r>
       <r>    1.7384    1.0000 </r>
       <r>    1.7789    1.0000 </r>
       <r>    1.8391    1.0000 </r>
       <r>    1.8825    1.0000 </r>
       <r>    1.9162    1.0000 </r>
       <r>    1.9988    1.0000 </r>
       <r>    2.0541    1.0000 </r>
       <r>    2.0802    1.0000 </r>
       <r>    2.2035    1.0000 </r>
       <r>    2.2176    1.0000 </r>
       <r>    2.3076    1.0000 </r>
       <r>    2.3601    1.0000 </r>
       <r>    2.4061    1.0000 </r>
       <r>    2.4161    1.0000 </r>
       <r>    2.5460    1.0000 </r>
       <r>    2.5712    1.0000 </r>
       <r>    2.5771    1.0000 </r>
       <r>    2.5826    1.0000 </r>
       <r>    2.5981    1.0000 </r>
       <r>    2.6153    1.0000 </r>
       <r>    2.6338    1.0000 </r>
       <r>    2.6724    1.0000 </r>
       <r>    2.7264    1.0000 </r>
       <r>    2.7338    1.0000 </r>
       <r>    2.7672    1.0000 </r>
       <r>    2.8265    1.0000 </r>
       <r>    2.8659    1.0000 </r>
       <r>    2.8937    1.0000 </r>
       <r>    2.9107    1.0000 </r>
       <r>    2.9857    1.0000 </r>
       <r>    3.0272    1.0000 </r>
       <r>    3.0316    1.0000 </r>
       <r>    3.0725    1.0000 </r>
       <r>    3.0981    1.0000 </r>
       <r>    3.1427    1.0000 </r>
       <r>    3.1545    1.0000 </r>
       <r>    3.1758    1.0000 </r>
       <r>    3.1941    1.0000 </r>
       <r>    3.2238    1.0000 </r>
       <r>    3.2305    1.0000 </r>
       <r>    3.2849    1.0000 </r>
       <r>    3.3358    1.0000 </r>
       <r>    3.3798    1.0000 </r>
       <r>    3.4420    1.0000 </r>
       <r>    3.4862    1.0000 </r>
       <r>    3.5546    1.0000 </r>
       <r>    3.6052    1.0000 </r>
       <r>    4.1993    1.0000 </r>
       <r>    4.2242    1.0000 </r>
       <r>    4.2413    1.0000 </r>
       <r>    4.2469    1.0000 </r>
       <r>    5.0675    0.0000 </r>
       <r>    5.0781    0.0000 </r>
       <r>    5.1523    0.0000 </r>
       <r>    5.1645    0.0000 </r>
       <r>    5.7449    0.0000 </r>
       <r>    5.7477    0.0000 </r>
       <r>    5.7947    0.0000 </r>
       <r>    5.8215    0.0000 </r>
       <r>    6.1236    0.0000 </r>
       <r>    6.1350    0.0000 </r>
       <r>    6.1546    0.0000 </r>
       <r>    6.1556    0.0000 </r>
       <r>    6.2584    0.0000 </r>
       <r>    6.2746    0.0000 </r>
       <r>    6.2775    0.0000 </r>
       <r>    6.2912    0.0000 </r>
       <r>    7.0784    0.0000 </r>
       <r>    7.1057    0.0000 </r>
       <r>    7.2665    0.0000 </r>
       <r>    7.3053    0.0000 </r>
       <r>    7.8101    0.0000 </r>
       <r>    7.8383    0.0000 </r>
       <r>    7.9277    0.0000 </r>
       <r>    7.9614    0.0000 </r>
       <r>    7.9914    0.0000 </r>
       <r>    8.0363    0.0000 </r>
       <r>    8.1356    0.0000 </r>
       <r>    8.1820    0.0000 </r>
       <r>    8.4443    0.0000 </r>
       <r>    8.6384    0.0000 </r>
       <r>    8.7202    0.0000 </r>
       <r>    8.8135    0.0000 </r>
       <r>    8.8236    0.0000 </r>
       <r>    8.8419    0.0000 </r>
       <r>    8.9141    0.0000 </r>
       <r>    8.9432    0.0000 </r>
       <r>    9.0290    0.0000 </r>
       <r>    9.0560    0.0000 </r>
       <r>    9.0782    0.0000 </r>
       <r>    9.1468    0.0000 </r>
       <r>    9.1733    0.0000 </r>
       <r>    9.1915    0.0000 </r>
       <r>    9.2112    0.0000 </r>
       <r>    9.2595    0.0000 </r>
       <r>    9.4028    0.0000 </r>
       <r>    9.5752    0.0000 </r>
      </set>
      <set comment="kpoint 2">
       <r>  -40.4802    1.0000 </r>
       <r>  -40.0221    1.0000 </r>
       <r>  -40.0125    1.0000 </r>
       <r>  -39.8074    1.0000 </r>
       <r>  -39.7656    1.0000 </r>
       <r>  -39.7605    1.0000 </r>
       <r>  -39.6526    1.0000 </r>
       <r>  -39.5570    1.0000 </r>
       <r>  -39.3598    1.0000 </r>
       <r>  -39.2027    1.0000 </r>
       <r>  -18.9968    1.0000 </r>
       <r>  -18.9248    1.0000 </r>
       <r>  -18.9232    1.0000 </r>
       <r>  -18.9166    1.0000 </r>
       <r>  -18.9151    1.0000 </r>
       <r>  -18.8559    1.0000 </r>
       <r>  -18.8494    1.0000 </r>
       <r>  -18.8414    1.0000 </r>
       <r>  -18.8330    1.0000 </r>
       <r>  -18.8241    1.0000 </r>
       <r>  -18.8063    1.0000 </r>
       <r>  -18.7481    1.0000 </r>
       <r>  -18.7440    1.0000 </r>
       <r>  -18.7360    1.0000 </r>
       <r>  -18.7305    1.0000 </r>
       <r>  -18.7114    1.0000 </r>
       <r>  -18.6999    1.0000 </r>
       <r>  -18.6968    1.0000 </r>
       <r>  -18.6855    1.0000 </r>
       <r>  -18.6766    1.0000 </r>
       <r>  -18.6631    1.0000 </r>
       <r>  -18.6607    1.0000 </r>
       <r>  -18.6565    1.0000 </r>
       <r>  -18.6532    1.0000 </r>
       <r>  -18.6466    1.0000 </r>
       <r>  -18.6456    1.0000 </r>
       <r>  -18.6440    1.0000 </r>
       <r>  -18.6420    1.0000 </r>
       <r>  -18.6402    1.0000 </r>
       <r>  -18.6386    1.0000 </r>
       <r>  -18.6378    1.0000 </r>
       <r>  -18.6259    1.0000 </r>
       <r>  -18.6255    1.0000 </r>
       <r>  -18.6221    1.0000 </r>
       <r>  -18.6208    1.0000 </r>
       <r>  -18.6079    1.0000 </r>
       <r>  -18.6060    1.0000 </r>
       <r>  -18.6046    1.0000 </r>
       <r>  -18.6006    1.0000 </r>
       <r>  -18.5764    1.0000 </r>
       <r>  -18.5656    1.0000 </r>
       <r>  -18.5575    1.0000 </r>
       <r>  -18.5564    1.0000 </r>
       <r>  -18.5537    1.0000 </r>
       <r>  -18.5423    1.0000 </r>
       <r>  -18.5393    1.0000 </r>
       <r>  -18.5374    1.0000 </r>
       <r>  -18.5303    1.0000 </r>
       <r>  -18.5077    1.0000 </r>
       <r>  -18.4965    1.0000 </r>
       <r>  -18.4944    1.0000 </r>
       <r>  -18.4939    1.0000 </r>
       <r>  -18.4854    1.0000 </r>
       <r>  -18.4813    1.0000 </r>
       <r>  -18.4807    1.0000 </r>
       <r>  -18.4750    1.0000 </r>
       <r>  -18.4738    1.0000 </r>
       <r>  -18.4724    1.0000 </r>
       <r>  -18.4680    1.0000 </r>
       <r>  -18.4550    1.0000 </r>
       <r>  -18.4541    1.0000 </r>
       <r>  -18.4147    1.0000 </r>
       <r>  -18.4029    1.0000 </r>
       <r>  -18.3942    1.0000 </r>
       <r>  -18.3912    1.0000 </r>
       <r>  -18.3832    1.0000 </r>
       <r>  -18.3797    1.0000 </r>
       <r>  -18.3768    1.0000 </r>
       <r>  -18.3632    1.0000 </r>
       <r>  -18.3217    1.0000 </r>
       <r>  -18.3093    1.0000 </r>
       <r>  -18.2960    1.0000 </r>
       <r>  -18.2869    1.0000 </r>
       <r>  -18.2265    1.0000 </r>
       <r>  -18.1785    1.0000 </r>
       <r>  -18.1748    1.0000 </r>
       <r>  -18.1654    1.0000 </r>
       <r>  -18.1605    1.0000 </r>
       <r>  -18.1094    1.0000 </r>
       <r>  -18.1009    1.0000 </r>
       <r>  -13.6458    1.0000 </r>
       <r>  -13.4956    1.0000 </r>
       <r>  -13.4744    1.0000 </r>
       <r>  -12.8757    1.0000 </r>
       <r>  -12.8239    1.0000 </r>
       <r>  -12.7527    1.0000 </r>
       <r>  -12.7494    1.0000 </r>
       <r>  -12.6860    1.0000 </r>
       <r>  -12.6715    1.0000 </r>
       <r>  -12.6574    1.0000 </r>
       <r>  -12.6471    1.0000 </r>
       <r>  -12.6151    1.0000 </r>
       <r>  -12.5429    1.0000 </r>
       <r>  -11.9566    1.0000 </r>
       <r>  -11.9072    1.0000 </r>
       <r>  -11.8318    1.0000 </r>
       <r>   -9.1884    1.0000 </r>
       <r>   -9.0276    1.0000 </r>
       <r>   -8.9149    1.0000 </r>
       <r>   -8.7521    1.0000 </r>
       <r>   -8.3913    1.0000 </r>
       <r>   -8.3802    1.0000 </r>
       <r>   -8.2522    1.0000 </r>
       <r>   -8.2413    1.0000 </r>
       <r>   -8.1874    1.0000 </r>
       <r>   -8.1824    1.0000 </r>
       <r>   -8.0530    1.0000 </r>
       <r>   -8.0406    1.0000 </r>
       <r>   -7.7359    1.0000 </r>
       <r>   -7.6280    1.0000 </r>
       <r>   -7.6160    1.0000 </r>
       <r>   -7.5076    1.0000 </r>
       <r>   -6.0404    1.0000 </r>
       <r>   -6.0121    1.0000 </r>
       <r>   -5.9228    1.0000 </r>
       <r>   -5.8350    1.0000 </r>
       <r>   -5.8292    1.0000 </r>
       <r>   -5.7918    1.0000 </r>
       <r>   -5.7044    1.0000 </r>
       <r>   -5.6707    1.0000 </r>
       <r>   -5.6379    1.0000 </r>
       <r>   -5.5962    1.0000 </r>
       <r>   -5.4679    1.0000 </r>
       <r>   -5.4115    1.0000 </r>
       <r>   -4.4900    1.0000 </r>
       <r>   -4.3335    1.0000 </r>
       <r>   -4.3213    1.0000 </r>
       <r>   -4.1498    1.0000 </r>
       <r>   -1.2591    1.0000 </r>
       <r>   -1.0232    1.0000 </r>
       <r>   -0.8932    1.0000 </r>
       <r>   -0.7138    1.0000 </r>
       <r>   -0.5270    1.0000 </r>
       <r>   -0.3077    1.0000 </r>
       <r>   -0.0860    1.0000 </r>
       <r>   -0.0317    1.0000 </r>
       <r>    0.0165    1.0000 </r>
       <r>    0.0747    1.0000 </r>
       <r>    0.0977    1.0000 </r>
       <r>    0.1612    1.0000 </r>
       <r>    0.1859    1.0000 </r>
       <r>    0.2851    1.0000 </r>
       <r>    0.3349    1.0000 </r>
       <r>    0.3586    1.0000 </r>
       <r>    0.4736    1.0000 </r>
       <r>    0.5121    1.0000 </r>
       <r>    0.5224    1.0000 </r>
       <r>    0.5804    1.0000 </r>
       <r>    0.6181    1.0000 </r>
       <r>    0.6630    1.0000 </r>
       <r>    0.6863    1.0000 </r>
       <r>    0.6989    1.0000 </r>
       <r>    0.7232    1.0000 </r>
       <r>    0.7609    1.0000 </r>
       <r>    0.8817    1.0000 </r>
       <r>    0.9081    1.0000 </r>
       <r>    0.9615    1.0000 </r>
       <r>    1.0184    1.0000 </r>
       <r>    1.0325    1.0000 </r>
       <r>    1.1208    1.0000 </r>
       <r>    1.1403    1.0000 </r>
       <r>    1.2206    1.0000 </r>
       <r>    1.2538    1.0000 </r>
       <r>    1.2811    1.0000 </r>
       <r>    1.2834    1.0000 </r>
       <r>    1.3556    1.0000 </r>
       <r>    1.3893    1.0000 </r>
       <r>    1.4538    1.0000 </r>
       <r>    1.4755    1.0000 </r>
       <r>    1.5224    1.0000 </r>
       <r>    1.5464    1.0000 </r>
       <r>    1.5595    1.0000 </r>
       <r>    1.6229    1.0000 </r>
       <r>    1.6557    1.0000 </r>
       <r>    1.7267    1.0000 </r>
       <r>    1.7876    1.0000 </r>
       <r>    1.8155    1.0000 </r>
       <r>    1.8798    1.0000 </r>
       <r>    1.9062    1.0000 </r>
       <r>    1.9447    1.0000 </r>
       <r>    2.0127    1.0000 </r>
       <r>    2.0342    1.0000 </r>
       <r>    2.0603    1.0000 </r>
       <r>    2.1288    1.0000 </r>
       <r>    2.1560    1.0000 </r>
       <r>    2.1742    1.0000 </r>
       <r>    2.2246    1.0000 </r>
       <r>    2.2926    1.0000 </r>
       <r>    2.3425    1.0000 </r>
       <r>    2.3644    1.0000 </r>
       <r>    2.4193    1.0000 </r>
       <r>    2.4682    1.0000 </r>
       <r>    2.4715    1.0000 </r>
       <r>    2.5320    1.0000 </r>
       <r>    2.6013    1.0000 </r>
       <r>    2.6258    1.0000 </r>
       <r>    2.6604    1.0000 </r>
       <r>    2.6955    1.0000 </r>
       <r>    2.7120    1.0000 </r>
       <r>    2.7513    1.0000 </r>
       <r>    2.7628    1.0000 </r>
       <r>    2.8055    1.0000 </r>
       <r>    2.8583    1.0000 </r>
       <r>    2.8831    1.0000 </r>
       <r>    2.9172    1.0000 </r>
       <r>    2.9344    1.0000 </r>
       <r>    2.9766    1.0000 </r>
       <r>    3.0177    1.0000 </r>
       <r>    3.0971    1.0000 </r>
       <r>    3.1277    1.0000 </r>
       <r>    3.1552    1.0000 </r>
       <r>    3.1805    1.0000 </r>
       <r>    3.2023    1.0000 </r>
       <r>    3.2674    1.0000 </r>
       <r>    3.3185    1.0000 </r>
       <r>    3.4038    1.0000 </r>
       <r>    3.4610    1.0000 </r>
       <r>    3.4912    1.0000 </r>
       <r>    3.5611    1.0000 </r>
       <r>    3.5683    1.0000 </r>
       <r>    3.6601    1.0000 </r>
       <r>    3.6887    1.0000 </r>
       <r>    3.7565    1.0000 </r>
       <r>    3.7657    1.0000 </r>
       <r>    5.5689    0.0000 </r>
       <r>    5.5787    0.0000 </r>
       <r>    5.7160    0.0000 </r>
       <r>    5.7264    0.0000 </r>
       <r>    5.7571    0.0000 </r>
       <r>    5.7654    0.0000 </r>
       <r>    5.9132    0.0000 </r>
       <r>    5.9187    0.0000 </r>
       <r>    7.1482    0.0000 </r>
       <r>    7.1929    0.0000 </r>
       <r>    7.2365    0.0000 </r>
       <r>    7.3137    0.0000 </r>
       <r>    7.3634    0.0000 </r>
       <r>    7.4032    0.0000 </r>
       <r>    7.4455    0.0000 </r>
       <r>    7.4782    0.0000 </r>
       <r>    7.4943    0.0000 </r>
       <r>    7.5242    0.0000 </r>
       <r>    7.5787    0.0000 </r>
       <r>    7.6054    0.0000 </r>
       <r>    7.8149    0.0000 </r>
       <r>    7.8314    0.0000 </r>
       <r>    7.8514    0.0000 </r>
       <r>    7.8734    0.0000 </r>
       <r>    7.9180    0.0000 </r>
       <r>    7.9426    0.0000 </r>
       <r>    7.9642    0.0000 </r>
       <r>    7.9793    0.0000 </r>
       <r>    7.9995    0.0000 </r>
       <r>    8.0214    0.0000 </r>
       <r>    8.0514    0.0000 </r>
       <r>    8.1090    0.0000 </r>
       <r>    8.2575    0.0000 </r>
       <r>    8.3460    0.0000 </r>
       <r>    8.4762    0.0000 </r>
       <r>    8.6614    0.0000 </r>
       <r>    8.6761    0.0000 </r>
       <r>    8.7459    0.0000 </r>
       <r>    8.7592    0.0000 </r>
       <r>    8.7633    0.0000 </r>
       <r>    8.7881    0.0000 </r>
       <r>    8.8969    0.0000 </r>
       <r>    8.9541    0.0000 </r>
       <r>    8.9553    0.0000 </r>
       <r>    9.1037    0.0000 </r>
       <r>    9.2662    0.0000 </r>
      </set>
      <set comment="kpoint 3">
       <r>  -40.4802    1.0000 </r>
       <r>  -40.0221    1.0000 </r>
       <r>  -40.0125    1.0000 </r>
       <r>  -39.8074    1.0000 </r>
       <r>  -39.7656    1.0000 </r>
       <r>  -39.7605    1.0000 </r>
       <r>  -39.6526    1.0000 </r>
       <r>  -39.5570    1.0000 </r>
       <r>  -39.3598    1.0000 </r>
       <r>  -39.2026    1.0000 </r>
       <r>  -18.9969    1.0000 </r>
       <r>  -18.9248    1.0000 </r>
       <r>  -18.9232    1.0000 </r>
       <r>  -18.9166    1.0000 </r>
       <r>  -18.9151    1.0000 </r>
       <r>  -18.8561    1.0000 </r>
       <r>  -18.8494    1.0000 </r>
       <r>  -18.8413    1.0000 </r>
       <r>  -18.8329    1.0000 </r>
       <r>  -18.8241    1.0000 </r>
       <r>  -18.8063    1.0000 </r>
       <r>  -18.7481    1.0000 </r>
       <r>  -18.7440    1.0000 </r>
       <r>  -18.7360    1.0000 </r>
       <r>  -18.7305    1.0000 </r>
       <r>  -18.7113    1.0000 </r>
       <r>  -18.6999    1.0000 </r>
       <r>  -18.6968    1.0000 </r>
       <r>  -18.6856    1.0000 </r>
       <r>  -18.6766    1.0000 </r>
       <r>  -18.6647    1.0000 </r>
       <r>  -18.6630    1.0000 </r>
       <r>  -18.6571    1.0000 </r>
       <r>  -18.6516    1.0000 </r>
       <r>  -18.6479    1.0000 </r>
       <r>  -18.6452    1.0000 </r>
       <r>  -18.6406    1.0000 </r>
       <r>  -18.6404    1.0000 </r>
       <r>  -18.6402    1.0000 </r>
       <r>  -18.6369    1.0000 </r>
       <r>  -18.6315    1.0000 </r>
       <r>  -18.6297    1.0000 </r>
       <r>  -18.6254    1.0000 </r>
       <r>  -18.6218    1.0000 </r>
       <r>  -18.6208    1.0000 </r>
       <r>  -18.6205    1.0000 </r>
       <r>  -18.6056    1.0000 </r>
       <r>  -18.6004    1.0000 </r>
       <r>  -18.5983    1.0000 </r>
       <r>  -18.5763    1.0000 </r>
       <r>  -18.5657    1.0000 </r>
       <r>  -18.5576    1.0000 </r>
       <r>  -18.5564    1.0000 </r>
       <r>  -18.5537    1.0000 </r>
       <r>  -18.5423    1.0000 </r>
       <r>  -18.5393    1.0000 </r>
       <r>  -18.5374    1.0000 </r>
       <r>  -18.5302    1.0000 </r>
       <r>  -18.5077    1.0000 </r>
       <r>  -18.4965    1.0000 </r>
       <r>  -18.4944    1.0000 </r>
       <r>  -18.4940    1.0000 </r>
       <r>  -18.4855    1.0000 </r>
       <r>  -18.4819    1.0000 </r>
       <r>  -18.4792    1.0000 </r>
       <r>  -18.4758    1.0000 </r>
       <r>  -18.4738    1.0000 </r>
       <r>  -18.4723    1.0000 </r>
       <r>  -18.4680    1.0000 </r>
       <r>  -18.4550    1.0000 </r>
       <r>  -18.4541    1.0000 </r>
       <r>  -18.4147    1.0000 </r>
       <r>  -18.4028    1.0000 </r>
       <r>  -18.3942    1.0000 </r>
       <r>  -18.3911    1.0000 </r>
       <r>  -18.3832    1.0000 </r>
       <r>  -18.3797    1.0000 </r>
       <r>  -18.3768    1.0000 </r>
       <r>  -18.3631    1.0000 </r>
       <r>  -18.3217    1.0000 </r>
       <r>  -18.3093    1.0000 </r>
       <r>  -18.2960    1.0000 </r>
       <r>  -18.2869    1.0000 </r>
       <r>  -18.2264    1.0000 </r>
       <r>  -18.1785    1.0000 </r>
       <r>  -18.1748    1.0000 </r>
       <r>  -18.1654    1.0000 </r>
       <r>  -18.1605    1.0000 </r>
       <r>  -18.1094    1.0000 </r>
       <r>  -18.1010    1.0000 </r>
       <r>  -13.6460    1.0000 </r>
       <r>  -13.4950    1.0000 </r>
       <r>  -13.4746    1.0000 </r>
       <r>  -12.8783    1.0000 </r>
       <r>  -12.8220    1.0000 </r>
       <r>  -12.7532    1.0000 </r>
       <r>  -12.7364    1.0000 </r>
       <r>  -12.6949    1.0000 </r>
       <r>  -12.6753    1.0000 </r>
       <r>  -12.6642    1.0000 </r>
       <r>  -12.6375    1.0000 </r>
       <r>  -12.6173    1.0000 </r>
       <r>  -12.5432    1.0000 </r>
       <r>  -11.9560    1.0000 </r>
       <r>  -11.9070    1.0000 </r>
       <r>  -11.8335    1.0000 </r>
       <r>   -9.3221    1.0000 </r>
       <r>   -9.0445    1.0000 </r>
       <r>   -8.5412    1.0000 </r>
       <r>   -8.5348    1.0000 </r>
       <r>   -8.4745    1.0000 </r>
       <r>   -8.4734    1.0000 </r>
       <r>   -8.2805    1.0000 </r>
       <r>   -8.2744    1.0000 </r>
       <r>   -8.2210    1.0000 </r>
       <r>   -8.2115    1.0000 </r>
       <r>   -8.0202    1.0000 </r>
       <r>   -7.9936    1.0000 </r>
       <r>   -7.9889    1.0000 </r>
       <r>   -7.9513    1.0000 </r>
       <r>   -7.3479    1.0000 </r>
       <r>   -7.3423    1.0000 </r>
       <r>   -6.3651    1.0000 </r>
       <r>   -6.3603    1.0000 </r>
       <r>   -6.3326    1.0000 </r>
       <r>   -6.3316    1.0000 </r>
       <r>   -5.5408    1.0000 </r>
       <r>   -5.5355    1.0000 </r>
       <r>   -5.3993    1.0000 </r>
       <r>   -5.3856    1.0000 </r>
       <r>   -5.2888    1.0000 </r>
       <r>   -5.2857    1.0000 </r>
       <r>   -5.1321    1.0000 </r>
       <r>   -5.0996    1.0000 </r>
       <r>   -5.0170    1.0000 </r>
       <r>   -5.0009    1.0000 </r>
       <r>   -3.8611    1.0000 </r>
       <r>   -3.5512    1.0000 </r>
       <r>   -1.3499    1.0000 </r>
       <r>   -1.2805    1.0000 </r>
       <r>   -1.2397    1.0000 </r>
       <r>   -1.0701    1.0000 </r>
       <r>   -0.4355    1.0000 </r>
       <r>   -0.4190    1.0000 </r>
       <r>   -0.4027    1.0000 </r>
       <r>   -0.3925    1.0000 </r>
       <r>   -0.3582    1.0000 </r>
       <r>   -0.3411    1.0000 </r>
       <r>   -0.2881    1.0000 </r>
       <r>   -0.2579    1.0000 </r>
       <r>   -0.1729    1.0000 </r>
       <r>   -0.0451    1.0000 </r>
       <r>   -0.0286    1.0000 </r>
       <r>    0.2051    1.0000 </r>
       <r>    0.2631    1.0000 </r>
       <r>    0.3279    1.0000 </r>
       <r>    0.3392    1.0000 </r>
       <r>    0.5316    1.0000 </r>
       <r>    0.5443    1.0000 </r>
       <r>    0.5919    1.0000 </r>
       <r>    0.6540    1.0000 </r>
       <r>    0.7534    1.0000 </r>
       <r>    0.7998    1.0000 </r>
       <r>    0.8242    1.0000 </r>
       <r>    0.8296    1.0000 </r>
       <r>    0.8647    1.0000 </r>
       <r>    0.9811    1.0000 </r>
       <r>    1.0581    1.0000 </r>
       <r>    1.1060    1.0000 </r>
       <r>    1.1384    1.0000 </r>
       <r>    1.2337    1.0000 </r>
       <r>    1.2879    1.0000 </r>
       <r>    1.3725    1.0000 </r>
       <r>    1.4073    1.0000 </r>
       <r>    1.4181    1.0000 </r>
       <r>    1.4455    1.0000 </r>
       <r>    1.5256    1.0000 </r>
       <r>    1.5589    1.0000 </r>
       <r>    1.6594    1.0000 </r>
       <r>    1.6858    1.0000 </r>
       <r>    1.7790    1.0000 </r>
       <r>    1.8207    1.0000 </r>
       <r>    1.8644    1.0000 </r>
       <r>    1.8725    1.0000 </r>
       <r>    1.9459    1.0000 </r>
       <r>    1.9674    1.0000 </r>
       <r>    1.9796    1.0000 </r>
       <r>    2.0263    1.0000 </r>
       <r>    2.1040    1.0000 </r>
       <r>    2.1131    1.0000 </r>
       <r>    2.1527    1.0000 </r>
       <r>    2.2238    1.0000 </r>
       <r>    2.2716    1.0000 </r>
       <r>    2.3580    1.0000 </r>
       <r>    2.4338    1.0000 </r>
       <r>    2.4610    1.0000 </r>
       <r>    2.5026    1.0000 </r>
       <r>    2.5144    1.0000 </r>
       <r>    2.5575    1.0000 </r>
       <r>    2.5755    1.0000 </r>
       <r>    2.5868    1.0000 </r>
       <r>    2.5934    1.0000 </r>
       <r>    2.6026    1.0000 </r>
       <r>    2.6174    1.0000 </r>
       <r>    2.6407    1.0000 </r>
       <r>    2.7148    1.0000 </r>
       <r>    2.7319    1.0000 </r>
       <r>    2.7373    1.0000 </r>
       <r>    2.8136    1.0000 </r>
       <r>    2.8530    1.0000 </r>
       <r>    2.9057    1.0000 </r>
       <r>    2.9375    1.0000 </r>
       <r>    2.9464    1.0000 </r>
       <r>    2.9887    1.0000 </r>
       <r>    2.9958    1.0000 </r>
       <r>    3.0084    1.0000 </r>
       <r>    3.0558    1.0000 </r>
       <r>    3.0727    1.0000 </r>
       <r>    3.0950    1.0000 </r>
       <r>    3.1614    1.0000 </r>
       <r>    3.2628    1.0000 </r>
       <r>    3.3189    1.0000 </r>
       <r>    3.3836    1.0000 </r>
       <r>    3.4174    1.0000 </r>
       <r>    3.4327    1.0000 </r>
       <r>    3.4480    1.0000 </r>
       <r>    3.4671    1.0000 </r>
       <r>    3.5379    1.0000 </r>
       <r>    3.5828    1.0000 </r>
       <r>    3.6013    1.0000 </r>
       <r>    4.2469    1.0000 </r>
       <r>    4.2758    1.0000 </r>
       <r>    4.2925    1.0000 </r>
       <r>    4.2994    1.0000 </r>
       <r>    5.1412    0.0000 </r>
       <r>    5.1506    0.0000 </r>
       <r>    5.2145    0.0000 </r>
       <r>    5.2279    0.0000 </r>
       <r>    5.7554    0.0000 </r>
       <r>    5.7560    0.0000 </r>
       <r>    5.8024    0.0000 </r>
       <r>    5.8289    0.0000 </r>
       <r>    6.1816    0.0000 </r>
       <r>    6.1906    0.0000 </r>
       <r>    6.2007    0.0000 </r>
       <r>    6.2049    0.0000 </r>
       <r>    6.2677    0.0000 </r>
       <r>    6.2849    0.0000 </r>
       <r>    6.2940    0.0000 </r>
       <r>    6.3057    0.0000 </r>
       <r>    6.7090    0.0000 </r>
       <r>    6.7906    0.0000 </r>
       <r>    6.9986    0.0000 </r>
       <r>    7.0492    0.0000 </r>
       <r>    7.2312    0.0000 </r>
       <r>    7.3515    0.0000 </r>
       <r>    7.4607    0.0000 </r>
       <r>    7.5230    0.0000 </r>
       <r>    7.8583    0.0000 </r>
       <r>    7.8706    0.0000 </r>
       <r>    7.8891    0.0000 </r>
       <r>    7.9845    0.0000 </r>
       <r>    8.0411    0.0000 </r>
       <r>    8.3591    0.0000 </r>
       <r>    8.3824    0.0000 </r>
       <r>    8.4561    0.0000 </r>
       <r>    8.6809    0.0000 </r>
       <r>    8.7650    0.0000 </r>
       <r>    8.9218    0.0000 </r>
       <r>    8.9468    0.0000 </r>
       <r>    8.9879    0.0000 </r>
       <r>    9.0504    0.0000 </r>
       <r>    9.1027    0.0000 </r>
       <r>    9.1128    0.0000 </r>
       <r>    9.1293    0.0000 </r>
       <r>    9.1620    0.0000 </r>
       <r>    9.1745    0.0000 </r>
       <r>    9.2065    0.0000 </r>
       <r>    9.5106    0.0000 </r>
       <r>    9.7119    0.0000 </r>
      </set>
      <set comment="kpoint 4">
       <r>  -40.4802    1.0000 </r>
       <r>  -40.0221    1.0000 </r>
       <r>  -40.0125    1.0000 </r>
       <r>  -39.8074    1.0000 </r>
       <r>  -39.7656    1.0000 </r>
       <r>  -39.7605    1.0000 </r>
       <r>  -39.6526    1.0000 </r>
       <r>  -39.5570    1.0000 </r>
       <r>  -39.3598    1.0000 </r>
       <r>  -39.2026    1.0000 </r>
       <r>  -18.9969    1.0000 </r>
       <r>  -18.9248    1.0000 </r>
       <r>  -18.9231    1.0000 </r>
       <r>  -18.9166    1.0000 </r>
       <r>  -18.9151    1.0000 </r>
       <r>  -18.8559    1.0000 </r>
       <r>  -18.8494    1.0000 </r>
       <r>  -18.8414    1.0000 </r>
       <r>  -18.8330    1.0000 </r>
       <r>  -18.8241    1.0000 </r>
       <r>  -18.8063    1.0000 </r>
       <r>  -18.7481    1.0000 </r>
       <r>  -18.7440    1.0000 </r>
       <r>  -18.7360    1.0000 </r>
       <r>  -18.7305    1.0000 </r>
       <r>  -18.7114    1.0000 </r>
       <r>  -18.6999    1.0000 </r>
       <r>  -18.6968    1.0000 </r>
       <r>  -18.6855    1.0000 </r>
       <r>  -18.6766    1.0000 </r>
       <r>  -18.6632    1.0000 </r>
       <r>  -18.6607    1.0000 </r>
       <r>  -18.6565    1.0000 </r>
       <r>  -18.6532    1.0000 </r>
       <r>  -18.6466    1.0000 </r>
       <r>  -18.6456    1.0000 </r>
       <r>  -18.6440    1.0000 </r>
       <r>  -18.6420    1.0000 </r>
       <r>  -18.6402    1.0000 </r>
       <r>  -18.6386    1.0000 </r>
       <r>  -18.6378    1.0000 </r>
       <r>  -18.6259    1.0000 </r>
       <r>  -18.6255    1.0000 </r>
       <r>  -18.6221    1.0000 </r>
       <r>  -18.6208    1.0000 </r>
       <r>  -18.6079    1.0000 </r>
       <r>  -18.6060    1.0000 </r>
       <r>  -18.6046    1.0000 </r>
       <r>  -18.6006    1.0000 </r>
       <r>  -18.5764    1.0000 </r>
       <r>  -18.5656    1.0000 </r>
       <r>  -18.5575    1.0000 </r>
       <r>  -18.5564    1.0000 </r>
       <r>  -18.5537    1.0000 </r>
       <r>  -18.5423    1.0000 </r>
       <r>  -18.5393    1.0000 </r>
       <r>  -18.5374    1.0000 </r>
       <r>  -18.5303    1.0000 </r>
       <r>  -18.5077    1.0000 </r>
       <r>  -18.4965    1.0000 </r>
       <r>  -18.4944    1.0000 </r>
       <r>  -18.4939    1.0000 </r>
       <r>  -18.4854    1.0000 </r>
       <r>  -18.4813    1.0000 </r>
       <r>  -18.4807    1.0000 </r>
       <r>  -18.4750    1.0000 </r>
       <r>  -18.4738    1.0000 </r>
       <r>  -18.4724    1.0000 </r>
       <r>  -18.4680    1.0000 </r>
       <r>  -18.4550    1.0000 </r>
[...]
       <r>    8.8532    0.0000 </r>
       <r>    8.8993    0.0000 </r>
       <r>    8.9148    0.0000 </r>
       <r>    8.9352    0.0000 </r>
       <r>    8.9495    0.0000 </r>
      </set>
     </set>
    </set>
   </array>
  </eigenvalues>
  <separator name="orbital magnetization" >
   <v name="MAGDIPOLOUT">      0.00000000      0.00000000      0.00000000</v>
  </separator>
  <dos>
   <i name="efermi">      4.35386171 </i>
   <total>
    <array>
     <dimension dim="1">gridpoints</dimension>
     <dimension dim="2">spin</dimension>
     <field>energy</field>
     <field>total</field>
     <field>integrated</field>
     <set>
      <set comment="spin 1">
       <r>   -42.9898     0.0000     0.0000 </r>
       <r>   -42.8058     0.0000     0.0000 </r>
       <r>   -42.6217     0.0000     0.0000 </r>
       <r>   -42.4377     0.0000     0.0000 </r>
       <r>   -42.2537     0.0000     0.0000 </r>
       <r>   -42.0696     0.0000     0.0000 </r>
       <r>   -41.8856     0.0000     0.0000 </r>
       <r>   -41.7016     0.0000     0.0000 </r>
       <r>   -41.5175     0.0000     0.0000 </r>
       <r>   -41.3335     0.0000     0.0000 </r>
       <r>   -41.1494     0.0000     0.0000 </r>
       <r>   -40.9654     0.0000     0.0000 </r>
       <r>   -40.7814     0.0000     0.0000 </r>
       <r>   -40.5973     0.0000     0.0000 </r>
       <r>   -40.4133     0.0000     2.0000 </r>
       <r>   -40.2293     0.0000     2.0000 </r>
       <r>   -40.0452     0.0000     2.0000 </r>
       <r>   -39.8612     0.0000     6.0000 </r>
       <r>   -39.6771     0.0000    12.0000 </r>
       <r>   -39.4931     0.0000    16.0000 </r>
       <r>   -39.3091     0.0000    18.0000 </r>
       <r>   -39.1250     0.0000    20.0000 </r>
       <r>   -38.9410     0.0000    20.0000 </r>
       <r>   -38.7570     0.0000    20.0000 </r>
       <r>   -38.5729     0.0000    20.0000 </r>
       <r>   -38.3889     0.0000    20.0000 </r>
       <r>   -38.2048     0.0000    20.0000 </r>
       <r>   -38.0208     0.0000    20.0000 </r>
       <r>   -37.8368     0.0000    20.0000 </r>
       <r>   -37.6527     0.0000    20.0000 </r>
       <r>   -37.4687     0.0000    20.0000 </r>
       <r>   -37.2847     0.0000    20.0000 </r>
       <r>   -37.1006     0.0000    20.0000 </r>
       <r>   -36.9166     0.0000    20.0000 </r>
       <r>   -36.7325     0.0000    20.0000 </r>
       <r>   -36.5485     0.0000    20.0000 </r>
       <r>   -36.3645     0.0000    20.0000 </r>
       <r>   -36.1804     0.0000    20.0000 </r>
       <r>   -35.9964     0.0000    20.0000 </r>
       <r>   -35.8124     0.0000    20.0000 </r>
       <r>   -35.6283     0.0000    20.0000 </r>
       <r>   -35.4443     0.0000    20.0000 </r>
       <r>   -35.2602     0.0000    20.0000 </r>
       <r>   -35.0762     0.0000    20.0000 </r>
       <r>   -34.8922     0.0000    20.0000 </r>
       <r>   -34.7081     0.0000    20.0000 </r>
       <r>   -34.5241     0.0000    20.0000 </r>
       <r>   -34.3401     0.0000    20.0000 </r>
       <r>   -34.1560     0.0000    20.0000 </r>
       <r>   -33.9720     0.0000    20.0000 </r>
       <r>   -33.7879     0.0000    20.0000 </r>
       <r>   -33.6039     0.0000    20.0000 </r>
       <r>   -33.4199     0.0000    20.0000 </r>
       <r>   -33.2358     0.0000    20.0000 </r>
       <r>   -33.0518     0.0000    20.0000 </r>
       <r>   -32.8678     0.0000    20.0000 </r>
       <r>   -32.6837     0.0000    20.0000 </r>
       <r>   -32.4997     0.0000    20.0000 </r>
       <r>   -32.3156     0.0000    20.0000 </r>
       <r>   -32.1316     0.0000    20.0000 </r>
       <r>   -31.9476     0.0000    20.0000 </r>
       <r>   -31.7635     0.0000    20.0000 </r>
       <r>   -31.5795     0.0000    20.0000 </r>
       <r>   -31.3954     0.0000    20.0000 </r>
       <r>   -31.2114     0.0000    20.0000 </r>
       <r>   -31.0274     0.0000    20.0000 </r>
       <r>   -30.8433     0.0000    20.0000 </r>
       <r>   -30.6593     0.0000    20.0000 </r>
       <r>   -30.4753     0.0000    20.0000 </r>
       <r>   -30.2912     0.0000    20.0000 </r>
       <r>   -30.1072     0.0000    20.0000 </r>
       <r>   -29.9231     0.0000    20.0000 </r>
       <r>   -29.7391     0.0000    20.0000 </r>
       <r>   -29.5551     0.0000    20.0000 </r>
       <r>   -29.3710     0.0000    20.0000 </r>
       <r>   -29.1870     0.0000    20.0000 </r>
       <r>   -29.0030     0.0000    20.0000 </r>
       <r>   -28.8189     0.0000    20.0000 </r>
       <r>   -28.6349     0.0000    20.0000 </r>
       <r>   -28.4508     0.0000    20.0000 </r>
       <r>   -28.2668     0.0000    20.0000 </r>
       <r>   -28.0828     0.0000    20.0000 </r>
       <r>   -27.8987     0.0000    20.0000 </r>
       <r>   -27.7147     0.0000    20.0000 </r>
       <r>   -27.5307     0.0000    20.0000 </r>
       <r>   -27.3466     0.0000    20.0000 </r>
       <r>   -27.1626     0.0000    20.0000 </r>
       <r>   -26.9785     0.0000    20.0000 </r>
       <r>   -26.7945     0.0000    20.0000 </r>
       <r>   -26.6105     0.0000    20.0000 </r>
       <r>   -26.4264     0.0000    20.0000 </r>
       <r>   -26.2424     0.0000    20.0000 </r>
       <r>   -26.0584     0.0000    20.0000 </r>
       <r>   -25.8743     0.0000    20.0000 </r>
       <r>   -25.6903     0.0000    20.0000 </r>
       <r>   -25.5062     0.0000    20.0000 </r>
       <r>   -25.3222     0.0000    20.0000 </r>
       <r>   -25.1382     0.0000    20.0000 </r>
       <r>   -24.9541     0.0000    20.0000 </r>
       <r>   -24.7701     0.0000    20.0000 </r>
       <r>   -24.5861     0.0000    20.0000 </r>
       <r>   -24.4020     0.0000    20.0000 </r>
       <r>   -24.2180     0.0000    20.0000 </r>
       <r>   -24.0339     0.0000    20.0000 </r>
       <r>   -23.8499     0.0000    20.0000 </r>
       <r>   -23.6659     0.0000    20.0000 </r>
       <r>   -23.4818     0.0000    20.0000 </r>
       <r>   -23.2978     0.0000    20.0000 </r>
       <r>   -23.1138     0.0000    20.0000 </r>
       <r>   -22.9297     0.0000    20.0000 </r>
       <r>   -22.7457     0.0000    20.0000 </r>
       <r>   -22.5616     0.0000    20.0000 </r>
       <r>   -22.3776     0.0000    20.0000 </r>
       <r>   -22.1936     0.0000    20.0000 </r>
       <r>   -22.0095     0.0000    20.0000 </r>
       <r>   -21.8255     0.0000    20.0000 </r>
       <r>   -21.6415     0.0000    20.0000 </r>
       <r>   -21.4574     0.0000    20.0000 </r>
       <r>   -21.2734     0.0000    20.0000 </r>
       <r>   -21.0893     0.0000    20.0000 </r>
       <r>   -20.9053     0.0000    20.0000 </r>
       <r>   -20.7213     0.0000    20.0000 </r>
       <r>   -20.5372     0.0000    20.0000 </r>
       <r>   -20.3532     0.0000    20.0000 </r>
       <r>   -20.1692     0.0000    20.0000 </r>
       <r>   -19.9851     0.0000    20.0000 </r>
       <r>   -19.8011     0.0000    20.0000 </r>
       <r>   -19.6170     0.0000    20.0000 </r>
       <r>   -19.4330     0.0000    20.0000 </r>
       <r>   -19.2490     0.0000    20.0000 </r>
       <r>   -19.0649     0.0000    20.0000 </r>
       <r>   -18.8809     0.0000    30.0000 </r>
       <r>   -18.6969     0.0000    54.0000 </r>
       <r>   -18.5128     0.0000   116.0000 </r>
       <r>   -18.3288     0.0000   158.0000 </r>
       <r>   -18.1447     0.0000   176.0000 </r>
       <r>   -17.9607     0.0000   180.0000 </r>
       <r>   -17.7767     0.0000   180.0000 </r>
       <r>   -17.5926     0.0000   180.0000 </r>
       <r>   -17.4086     0.0000   180.0000 </r>
       <r>   -17.2246     0.0000   180.0000 </r>
       <r>   -17.0405     0.0000   180.0000 </r>
       <r>   -16.8565     0.0000   180.0000 </r>
       <r>   -16.6724     0.0000   180.0000 </r>
       <r>   -16.4884     0.0000   180.0000 </r>
       <r>   -16.3044     0.0000   180.0000 </r>
       <r>   -16.1203     0.0000   180.0000 </r>
       <r>   -15.9363     0.0000   180.0000 </r>
       <r>   -15.7523     0.0000   180.0000 </r>
       <r>   -15.5682     0.0000   180.0000 </r>
       <r>   -15.3842     0.0000   180.0000 </r>
       <r>   -15.2001     0.0000   180.0000 </r>
       <r>   -15.0161     0.0000   180.0000 </r>
       <r>   -14.8321     0.0000   180.0000 </r>
       <r>   -14.6480     0.0000   180.0000 </r>
       <r>   -14.4640     0.0000   180.0000 </r>
       <r>   -14.2799     0.0000   180.0000 </r>
       <r>   -14.0959     0.0000   180.0000 </r>
       <r>   -13.9119     0.0000   180.0000 </r>
       <r>   -13.7278     0.0000   180.0000 </r>
       <r>   -13.5438     0.0000   182.0000 </r>
       <r>   -13.3598     0.0000   186.0000 </r>
       <r>   -13.1757     0.0000   186.0000 </r>
       <r>   -12.9917     0.0000   186.0000 </r>
       <r>   -12.8076     0.0000   190.0000 </r>
       <r>   -12.6236     0.0000   202.0000 </r>
       <r>   -12.4396     0.0000   206.0000 </r>
       <r>   -12.2555     0.0000   206.0000 </r>
       <r>   -12.0715     0.0000   206.0000 </r>
       <r>   -11.8875     0.0000   210.0000 </r>
       <r>   -11.7034     0.0000   212.0000 </r>
       <r>   -11.5194     0.0000   212.0000 </r>
       <r>   -11.3353     0.0000   212.0000 </r>
       <r>   -11.1513     0.0000   212.0000 </r>
       <r>   -10.9673     0.0000   212.0000 </r>
       <r>   -10.7832     0.0000   212.0000 </r>
       <r>   -10.5992     0.0000   212.0000 </r>
       <r>   -10.4152     0.0000   212.0000 </r>
       <r>   -10.2311     0.0000   212.0000 </r>
       <r>   -10.0471     0.0000   212.0000 </r>
       <r>    -9.8630     0.0000   212.0000 </r>
       <r>    -9.6790     0.0000   212.0000 </r>
       <r>    -9.4950     0.0000   212.0000 </r>
       <r>    -9.3109     1.6588   212.0134 </r>
       <r>    -9.1269     7.9706   213.7104 </r>
       <r>    -8.9429     7.2559   215.8416 </r>
       <r>    -8.7588    31.4249   217.8378 </r>
       <r>    -8.5748    13.4944   220.4637 </r>
       <r>    -8.3907    21.5930   224.8126 </r>
       <r>    -8.2067    18.1241   228.1933 </r>
       <r>    -8.0227    49.3444   231.9542 </r>
       <r>    -7.8386    18.8549   236.2532 </r>
       <r>    -7.6546    13.9474   239.6362 </r>
       <r>    -7.4706    17.0489   242.9099 </r>
       <r>    -7.2865     0.0000   244.0000 </r>
       <r>    -7.1025     0.0000   244.0000 </r>
       <r>    -6.9184     0.0000   244.0000 </r>
       <r>    -6.7344     0.0000   244.0000 </r>
       <r>    -6.5504     0.0000   244.0000 </r>
       <r>    -6.3663     0.1756   244.0004 </r>
       <r>    -6.1823    20.6943   245.8374 </r>
       <r>    -5.9983    11.8777   250.0110 </r>
       <r>    -5.8142    15.9086   253.4748 </r>
       <r>    -5.6302    21.8107   257.9326 </r>
       <r>    -5.4461    19.7733   261.5749 </r>
       <r>    -5.2621    19.3418   265.3714 </r>
       <r>    -5.0781     5.9839   267.7375 </r>
       <r>    -4.8940     6.3919   268.4610 </r>
       <r>    -4.7100     8.6852   269.8869 </r>
       <r>    -4.5260     9.0567   271.6532 </r>
       <r>    -4.3419     6.4517   273.1143 </r>
       <r>    -4.1579     6.6591   274.3258 </r>
       <r>    -3.9738     4.1710   275.3620 </r>
       <r>    -3.7898     1.4428   275.8559 </r>
       <r>    -3.6058     0.1304   275.9976 </r>
       <r>    -3.4217     0.0000   276.0000 </r>
       <r>    -3.2377     0.0000   276.0000 </r>
       <r>    -3.0537     0.0000   276.0000 </r>
       <r>    -2.8696     0.0000   276.0000 </r>
       <r>    -2.6856     0.0000   276.0000 </r>
       <r>    -2.5015     0.0000   276.0000 </r>
       <r>    -2.3175     0.0000   276.0000 </r>
       <r>    -2.1335     0.0000   276.0000 </r>
       <r>    -1.9494     0.0000   276.0000 </r>
       <r>    -1.7654     0.0000   276.0000 </r>
       <r>    -1.5814     0.0000   276.0000 </r>
       <r>    -1.3973     0.6089   276.0117 </r>
       <r>    -1.2133     7.7730   276.7649 </r>
       <r>    -1.0292    11.1777   278.5672 </r>
       <r>    -0.8452    11.4524   280.7938 </r>
       <r>    -0.6612     7.2391   282.6100 </r>
       <r>    -0.4771    17.2827   284.1612 </r>
       <r>    -0.2931    21.2437   287.6425 </r>
       <r>    -0.1091    38.6712   292.7576 </r>
       <r>     0.0750    30.7174   299.8282 </r>
       <r>     0.2590    30.8124   304.9160 </r>
       <r>     0.4431    39.2018   312.1578 </r>
       <r>     0.6271    35.6238   319.3215 </r>
       <r>     0.8111    38.6222   326.3438 </r>
       <r>     0.9952    30.6366   333.5383 </r>
       <r>     1.1792    37.8057   341.3829 </r>
       <r>     1.3633    54.0787   350.5734 </r>
       <r>     1.5473    48.6443   358.7029 </r>
       <r>     1.7313    50.3040   367.2921 </r>
       <r>     1.9154    42.5058   375.5122 </r>
       <r>     2.0994    45.4473   383.7257 </r>
       <r>     2.2834    46.4238   391.7966 </r>
       <r>     2.4675    59.4270   401.1098 </r>
       <r>     2.6515    55.9410   412.5102 </r>
       <r>     2.8356    56.7681   423.4022 </r>
       <r>     3.0196    61.6634   434.8183 </r>
       <r>     3.2036    51.7236   445.1137 </r>
       <r>     3.3877    43.9315   452.5085 </r>
       <r>     3.5717    25.1495   459.7077 </r>
       <r>     3.7557    22.2581   463.3009 </r>
       <r>     3.9398    11.3215   466.1979 </r>
       <r>     4.1238     4.7400   467.6759 </r>
       <r>     4.3079     0.0000   468.0000 </r>
       <r>     4.4919     0.0000   468.0000 </r>
       <r>     4.6759     0.0000   468.0000 </r>
       <r>     4.8600     0.0000   468.0000 </r>
       <r>     5.0440     0.0000   468.0000 </r>
       <r>     5.2280     1.9451   468.1046 </r>
       <r>     5.4121     6.2503   468.8586 </r>
       <r>     5.5961     9.2809   470.3911 </r>
       <r>     5.7802    31.5653   472.7846 </r>
       <r>     5.9642    14.2114   476.2632 </r>
       <r>     6.1482    11.7877   478.6528 </r>
       <r>     6.3323    12.1977   480.8041 </r>
       <r>     6.5163    14.2617   483.2393 </r>
       <r>     6.7003    16.2480   486.0505 </r>
       <r>     6.8844    18.3408   489.2212 </r>
       <r>     7.0684    22.2586   492.8913 </r>
       <r>     7.2525    32.0290   497.8408 </r>
       <r>     7.4365    42.6501   504.4185 </r>
       <r>     7.6205    22.6415   510.1524 </r>
       <r>     7.8046    44.3174   516.2196 </r>
       <r>     7.9886    44.4299   525.4273 </r>
       <r>     8.1726    23.0020   531.1037 </r>
       <r>     8.3567    18.2132   534.8525 </r>
       <r>     8.5407    21.4935   538.4757 </r>
       <r>     8.7248    28.4119   543.1871 </r>
       <r>     8.9088    48.5616   549.9011 </r>
       <r>     9.0928    21.5064   556.5721 </r>
       <r>     9.2769     7.6018   558.8648 </r>
       <r>     9.4609     2.5092   559.7768 </r>
       <r>     9.6449     0.2048   559.9954 </r>
       <r>     9.8290     0.0000   560.0000 </r>
       <r>    10.0130     0.0000   560.0000 </r>
       <r>    10.1971     0.0000   560.0000 </r>
       <r>    10.3811     0.0000   560.0000 </r>
       <r>    10.5651     0.0000   560.0000 </r>
       <r>    10.7492     0.0000   560.0000 </r>
       <r>    10.9332     0.0000   560.0000 </r>
       <r>    11.1172     0.0000   560.0000 </r>
       <r>    11.3013     0.0000   560.0000 </r>
       <r>    11.4853     0.0000   560.0000 </r>
       <r>    11.6694     0.0000   560.0000 </r>
       <r>    11.8534     0.0000   560.0000 </r>
       <r>    12.0374     0.0000   560.0000 </r>
       <r>    12.2215     0.0000   560.0000 </r>
      </set>
     </set>
    </array>
   </total>
  </dos>
 </calculation>
 <structure name="finalpos" >
  <crystal>
   <varray name="basis" >
    <v>      11.17850000       0.00000000       0.00000000 </v>
    <v>       0.00000000       9.57460000       0.00000000 </v>
    <v>       0.00000000       0.00000000      11.18240000 </v>
   </varray>
   <i name="volume">   1196.84853820 </i>
   <varray name="rec_basis" >
    <v>       0.08945744       0.00000000       0.00000000 </v>
    <v>       0.00000000       0.10444301       0.00000000 </v>
    <v>       0.00000000       0.00000000       0.08942624 </v>
   </varray>
  </crystal>
  <varray name="positions" >
   <v>       0.37539000       0.00017000       0.43687000 </v>
   <v>       0.12461000       0.99984000       0.18687000 </v>
   <v>       0.62539000       0.99984000       0.43687000 </v>
   <v>       0.87539000       0.00017000       0.43687000 </v>
   <v>       0.62461000       0.99984000       0.18687000 </v>
   <v>       0.87461000       0.00017000       0.18687000 </v>
   <v>       0.12539000       0.99984000       0.93687000 </v>
   <v>       0.12461000       0.99984000       0.68687000 </v>
   <v>       0.87539000       0.00017000       0.93687000 </v>
   <v>       0.87461000       0.00017000       0.68687000 </v>
   <v>       0.37461000       0.00017000       0.18687000 </v>
   <v>       0.37461000       0.00017000       0.68687000 </v>
   <v>       0.62539000       0.99984000       0.93687000 </v>
   <v>       0.00013000       0.29519000       0.06281000 </v>
   <v>       0.25013000       0.70481000       0.06281000 </v>
   <v>       0.24987000       0.29519000       0.31282000 </v>
   <v>       0.49987000       0.70481000       0.31282000 </v>
   <v>       0.50013000       0.29519000       0.06281000 </v>
   <v>       0.75013000       0.70481000       0.06281000 </v>
   <v>       0.74987000       0.29519000       0.31282000 </v>
   <v>       0.99987000       0.70481000       0.31282000 </v>
   <v>       0.00013000       0.29519000       0.56281000 </v>
   <v>       0.25013000       0.70481000       0.56281000 </v>
   <v>       0.24987000       0.29519000       0.81282000 </v>
   <v>       0.49987000       0.70481000       0.81282000 </v>
   <v>       0.50013000       0.29519000       0.56281000 </v>
   <v>       0.75013000       0.70481000       0.56281000 </v>
   <v>       0.74987000       0.29519000       0.81282000 </v>
   <v>       0.99987000       0.70481000       0.81282000 </v>
   <v>       0.25005000       0.32677000       0.06286000 </v>
   <v>       0.00005000       0.67323000       0.06286000 </v>
   <v>       0.49995000       0.32677000       0.31286000 </v>
   <v>       0.24995000       0.67323000       0.31286000 </v>
   <v>       0.75005000       0.32677000       0.06286000 </v>
   <v>       0.50005000       0.67323000       0.06286000 </v>
   <v>       0.99995000       0.32677000       0.31286000 </v>
   <v>       0.74995000       0.67323000       0.31286000 </v>
   <v>       0.25005000       0.32677000       0.56286000 </v>
   <v>       0.00005000       0.67323000       0.56286000 </v>
   <v>       0.49995000       0.32677000       0.81286000 </v>
   <v>       0.24995000       0.67323000       0.81286000 </v>
   <v>       0.75005000       0.32677000       0.56286000 </v>
   <v>       0.50005000       0.67323000       0.56286000 </v>
   <v>       0.99995000       0.32677000       0.81286000 </v>
   <v>       0.74995000       0.67323000       0.81286000 </v>
   <v>       0.49987000       0.07798000       0.06246000 </v>
   <v>       0.24987000       0.92202000       0.06246000 </v>
   <v>       0.25013000       0.07798000       0.31246000 </v>
   <v>       0.00013000       0.92202000       0.31246000 </v>
   <v>       0.99987000       0.07798000       0.06246000 </v>
   <v>       0.74987000       0.92202000       0.06246000 </v>
   <v>       0.75013000       0.07798000       0.31246000 </v>
   <v>       0.50013000       0.92202000       0.31246000 </v>
   <v>       0.49987000       0.07798000       0.56246000 </v>
   <v>       0.24987000       0.92202000       0.56246000 </v>
   <v>       0.25013000       0.07798000       0.81246000 </v>
   <v>       0.00013000       0.92202000       0.81246000 </v>
   <v>       0.99987000       0.07798000       0.56246000 </v>
   <v>       0.74987000       0.92202000       0.56246000 </v>
   <v>       0.75013000       0.07798000       0.81246000 </v>
   <v>       0.50013000       0.92202000       0.81246000 </v>
  </varray>
 </structure>
</modeling>
