<?xml version="1.0" encoding="ISO-8859-1"?>
<modeling>
 <generator>
  <i name="program" type="string">vasp </i>
  <i name="version" type="string">5.4.4.18Apr17-6-g9f103f2a35  </i>
  <i name="subversion" type="string">(build Jul 31 2017 11:33:29) complex            parallel </i>
  <i name="platform" type="string">LinuxIFC </i>
  <i name="date" type="string">2021 09 29 </i>
  <i name="time" type="string">04:49:57 </i>
 </generator>
 <incar>
  <i type="string" name="SYSTEM"> La2O2S</i>
  <i type="string" name="PREC">normal</i>
  <i type="int" name="NELMIN">     4</i>
  <i type="int" name="IBRION">     2</i>
  <i type="int" name="NFREE">    10</i>
  <i name="EDIFF">      0.00000100</i>
  <i name="EDIFFG">     -0.01000000</i>
  <i type="int" name="NSW">     1</i>
  <i type="int" name="ISIF">     2</i>
  <i name="ENCUT">    600.00000000</i>
  <i name="ENAUG">    900.00000000</i>
  <i type="int" name="ISMEAR">    -5</i>
  <i type="logical" name="LWAVE"> F  </i>
  <i type="logical" name="LCHARG"> F  </i>
  <v type="int" name="KPOINT_BSE">    -1     0     0     0</v>
 </incar>
 <structure name="primitive_cell" >
  <crystal>
   <varray name="basis" >
    <v>      11.17850000       0.00000000       0.00000000 </v>
    <v>       0.00000000       9.57460000       0.00000000 </v>
    <v>       0.00000000       0.00000000      11.18240000 </v>
   </varray>
   <i name="volume">   1196.84853820 </i>
   <varray name="rec_basis" >
    <v>       0.08945744       0.00000000       0.00000000 </v>
    <v>       0.00000000       0.10444301       0.00000000 </v>
    <v>       0.00000000       0.00000000       0.08942624 </v>
   </varray>
  </crystal>
  <varray name="positions" >
   <v>       0.37539000       0.00017000       0.43687000 </v>
   <v>      -0.49987000      -0.07798000       0.31246000 </v>
   <v>       0.25013000       0.07798000       0.31246000 </v>
   <v>       0.49987000       0.07798000      -0.43754000 </v>
   <v>       0.24987000      -0.07798000      -0.43754000 </v>
   <v>      -0.37461000      -0.00016000       0.43687000 </v>
   <v>       0.37461000       0.00017000       0.18687000 </v>
   <v>       0.37461000       0.00017000      -0.31313000 </v>
   <v>       0.49987000      -0.29519000       0.31282000 </v>
   <v>       0.24987000       0.29519000       0.31282000 </v>
   <v>      -0.49987000       0.29519000      -0.43719000 </v>
   <v>       0.25013000      -0.29519000      -0.43719000 </v>
   <v>       0.49995000       0.32677000       0.31286000 </v>
   <v>       0.24995000      -0.32677000       0.31286000 </v>
   <v>      -0.49995000      -0.32677000      -0.43714000 </v>
   <v>       0.25005000       0.32677000      -0.43714000 </v>
   <v>      -0.37539000      -0.00016000       0.18687000 </v>
   <v>      -0.37539000      -0.00016000      -0.31313000 </v>
   <v>       0.12461000      -0.00016000       0.18687000 </v>
   <v>       0.12461000      -0.00016000      -0.31313000 </v>
   <v>       0.49987000       0.07798000       0.06246000 </v>
   <v>      -0.24987000       0.07798000       0.31246000 </v>
   <v>      -0.25013000      -0.07798000      -0.43754000 </v>
   <v>       0.24987000      -0.07798000       0.06246000 </v>
   <v>       0.00013000      -0.07798000       0.31246000 </v>
   <v>      -0.49987000      -0.07798000      -0.18754000 </v>
   <v>      -0.00013000       0.07798000      -0.43754000 </v>
   <v>       0.25013000       0.07798000      -0.18754000 </v>
   <v>      -0.49987000       0.29519000       0.06281000 </v>
   <v>      -0.25013000       0.29519000       0.31282000 </v>
   <v>       0.25013000      -0.29519000       0.06281000 </v>
   <v>      -0.24987000      -0.29519000      -0.43719000 </v>
   <v>      -0.00013000      -0.29519000       0.31282000 </v>
   <v>       0.00013000       0.29519000      -0.43719000 </v>
   <v>       0.49987000      -0.29519000      -0.18718000 </v>
   <v>       0.24987000       0.29519000      -0.18718000 </v>
   <v>      -0.49995000      -0.32677000       0.06286000 </v>
   <v>       0.25005000       0.32677000       0.06286000 </v>
   <v>      -0.25005000      -0.32677000       0.31286000 </v>
   <v>      -0.24995000       0.32677000      -0.43714000 </v>
   <v>      -0.00005000       0.32677000       0.31286000 </v>
   <v>       0.00005000      -0.32677000      -0.43714000 </v>
   <v>       0.49995000       0.32677000      -0.18714000 </v>
   <v>       0.24995000      -0.32677000      -0.18714000 </v>
   <v>      -0.12461000       0.00017000       0.43687000 </v>
   <v>       0.37539000       0.00017000      -0.06313000 </v>
   <v>      -0.25013000      -0.07798000       0.06246000 </v>
   <v>      -0.00013000       0.07798000       0.06246000 </v>
   <v>      -0.24987000       0.07798000      -0.18754000 </v>
   <v>       0.00013000      -0.07798000      -0.18754000 </v>
   <v>      -0.12539000       0.00017000       0.18687000 </v>
   <v>       0.12539000      -0.00016000      -0.06313000 </v>
   <v>      -0.37461000      -0.00016000      -0.06313000 </v>
   <v>      -0.24987000      -0.29519000       0.06281000 </v>
   <v>       0.00013000       0.29519000       0.06281000 </v>
   <v>      -0.25013000       0.29519000      -0.18718000 </v>
   <v>      -0.00013000      -0.29519000      -0.18718000 </v>
   <v>      -0.24995000       0.32677000       0.06286000 </v>
   <v>       0.00005000      -0.32677000       0.06286000 </v>
   <v>      -0.25005000      -0.32677000      -0.18714000 </v>
   <v>      -0.00005000       0.32677000      -0.18714000 </v>
   <v>      -0.12461000       0.00017000      -0.06313000 </v>
  </varray>
 </structure>
 <varray name="primitive_index" >
  <v type="int" >        1 </v>
  <v type="int" >       54 </v>
  <v type="int" >       49 </v>
  <v type="int" >       55 </v>
  <v type="int" >       56 </v>
  <v type="int" >        4 </v>
  <v type="int" >        3 </v>
  <v type="int" >       10 </v>
  <v type="int" >       18 </v>
  <v type="int" >       17 </v>
  <v type="int" >       27 </v>
  <v type="int" >       24 </v>
  <v type="int" >       33 </v>
  <v type="int" >       34 </v>
  <v type="int" >       44 </v>
  <v type="int" >       39 </v>
  <v type="int" >        6 </v>
  <v type="int" >       12 </v>
  <v type="int" >        2 </v>
  <v type="int" >       13 </v>
  <v type="int" >       47 </v>
  <v type="int" >       53 </v>
  <v type="int" >       60 </v>
  <v type="int" >       48 </v>
  <v type="int" >       50 </v>
  <v type="int" >       62 </v>
  <v type="int" >       59 </v>
  <v type="int" >       57 </v>
  <v type="int" >       19 </v>
  <v type="int" >       21 </v>
  <v type="int" >       16 </v>
  <v type="int" >       28 </v>
  <v type="int" >       22 </v>
  <v type="int" >       23 </v>
  <v type="int" >       26 </v>
  <v type="int" >       25 </v>
  <v type="int" >       36 </v>
  <v type="int" >       31 </v>
  <v type="int" >       38 </v>
  <v type="int" >       43 </v>
  <v type="int" >       37 </v>
  <v type="int" >       40 </v>
  <v type="int" >       41 </v>
  <v type="int" >       42 </v>
  <v type="int" >        5 </v>
  <v type="int" >        9 </v>
  <v type="int" >       52 </v>
  <v type="int" >       51 </v>
  <v type="int" >       61 </v>
  <v type="int" >       58 </v>
  <v type="int" >        7 </v>
  <v type="int" >        8 </v>
  <v type="int" >       14 </v>
  <v type="int" >       20 </v>
  <v type="int" >       15 </v>
  <v type="int" >       29 </v>
  <v type="int" >       30 </v>
  <v type="int" >       35 </v>
  <v type="int" >       32 </v>
  <v type="int" >       46 </v>
  <v type="int" >       45 </v>
  <v type="int" >       11 </v>
 </varray>
 <kpoints>
  <generation param="Gamma">
   <v type="int" name="divisions">       2        2        2 </v>
   <v name="usershift">      0.00000000       0.00000000       0.00000000 </v>
   <v name="genvec1">      0.50000000       0.00000000       0.00000000 </v>
   <v name="genvec2">      0.00000000       0.50000000       0.00000000 </v>
   <v name="genvec3">      0.00000000       0.00000000       0.50000000 </v>
   <v name="shift">      0.00000000       0.00000000       0.00000000 </v>
  </generation>
  <varray name="kpointlist" >
   <v>       0.00000000       0.00000000       0.00000000 </v>
   <v>       0.50000000       0.00000000       0.00000000 </v>
   <v>       0.00000000       0.50000000       0.00000000 </v>
   <v>       0.50000000       0.50000000       0.00000000 </v>
   <v>       0.00000000       0.00000000       0.50000000 </v>
   <v>       0.50000000       0.00000000       0.50000000 </v>
   <v>       0.00000000       0.50000000       0.50000000 </v>
   <v>       0.50000000       0.50000000       0.50000000 </v>
  </varray>
  <varray name="weights" >
   <v>       0.12500000 </v>
   <v>       0.12500000 </v>
   <v>       0.12500000 </v>
   <v>       0.12500000 </v>
   <v>       0.12500000 </v>
   <v>       0.12500000 </v>
   <v>       0.12500000 </v>
   <v>       0.12500000 </v>
  </varray>
  <varray name="tetrahedronlist"  type="int" >
   <v type="int" >        2        1        2        4        5 </v>
   <v type="int" >        2        1        3        4        5 </v>
   <v type="int" >        2        3        4        5        7 </v>
   <v type="int" >        2        2        4        5        6 </v>
   <v type="int" >        2        4        5        6        8 </v>
   <v type="int" >        2        4        5        7        8 </v>
   <v type="int" >        2        1        2        3        6 </v>
   <v type="int" >        2        2        3        4        6 </v>
   <v type="int" >        2        3        4        6        8 </v>
   <v type="int" >        2        1        3        5        6 </v>
   <v type="int" >        2        3        5        6        7 </v>
   <v type="int" >        2        3        6        7        8 </v>
   <v type="int" >        2        2        3        4        7 </v>
   <v type="int" >        2        1        2        3        7 </v>
   <v type="int" >        2        1        2        5        7 </v>
   <v type="int" >        2        2        4        7        8 </v>
   <v type="int" >        2        2        6        7        8 </v>
   <v type="int" >        2        2        5        6        7 </v>
   <v type="int" >        2        1        3        4        8 </v>
   <v type="int" >        2        1        2        4        8 </v>
   <v type="int" >        2        1        2        6        8 </v>
   <v type="int" >        2        1        3        7        8 </v>
   <v type="int" >        2        1        5        7        8 </v>
   <v type="int" >        2        1        5        6        8 </v>
  </varray>
  <i name="volumeweight">      0.02083333 </i>
 </kpoints>
 <parameters>
  <separator name="general" >
   <i type="string" name="SYSTEM">La2O2S</i>
   <i type="logical" name="LCOMPAT"> F  </i>
  </separator>
  <separator name="electronic" >
   <i type="string" name="PREC">normal</i>
   <i name="ENMAX">    600.00000000</i>
   <i name="ENAUG">    900.00000000</i>
   <i name="EDIFF">      0.00000100</i>
   <i type="int" name="IALGO">    38</i>
   <i type="int" name="IWAVPR">    11</i>
   <i type="int" name="NBANDS">   308</i>
   <i name="NELECT">    472.00000000</i>
   <i type="int" name="TURBO">     0</i>
   <i type="int" name="IRESTART">     0</i>
   <i type="int" name="NREBOOT">     0</i>
   <i type="int" name="NMIN">     0</i>
   <i name="EREF">      0.00000000</i>
   <separator name="electronic smearing" >
    <i type="int" name="ISMEAR">    -5</i>
    <i name="SIGMA">      0.20000000</i>
    <i name="KSPACING">      0.50000000</i>
    <i type="logical" name="KGAMMA"> T  </i>
   </separator>
   <separator name="electronic projectors" >
    <i type="logical" name="LREAL"> F  </i>
    <v name="ROPT">      0.00000000      0.00000000      0.00000000      0.00000000      0.00000000</v>
    <i type="int" name="LMAXPAW">  -100</i>
    <i type="int" name="LMAXMIX">     2</i>
    <i type="logical" name="NLSPLINE"> F  </i>
   </separator>
   <separator name="electronic startup" >
    <i type="int" name="ISTART">     0</i>
    <i type="int" name="ICHARG">     2</i>
    <i type="int" name="INIWAV">     1</i>
   </separator>
   <separator name="electronic spin" >
    <i type="int" name="ISPIN">     1</i>
    <i type="logical" name="LNONCOLLINEAR"> F  </i>
    <v name="MAGMOM">      1.00000000      1.00000000      1.00000000      1.00000000      1.00000000      1.00000000      1.00000000      1.00000000      1.00000000      1.00000000      1.00000000      1.00000000      1.00000000      1.00000000      1.00000000      1.00000000      1.00000000      1.00000000      1.00000000      1.00000000
      1.00000000      1.00000000      1.00000000      1.00000000      1.00000000      1.00000000      1.00000000      1.00000000      1.00000000      1.00000000      1.00000000      1.00000000      1.00000000      1.00000000      1.00000000      1.00000000      1.00000000      1.00000000      1.00000000      1.00000000
      1.00000000      1.00000000      1.00000000      1.00000000      1.00000000      1.00000000      1.00000000      1.00000000      1.00000000      1.00000000      1.00000000      1.00000000      1.00000000      1.00000000      1.00000000      1.00000000      1.00000000      1.00000000      1.00000000      1.00000000
      1.00000000      1.00000000</v>
    <i name="NUPDOWN">     -1.00000000</i>
    <i type="logical" name="LSORBIT"> F  </i>
    <v name="SAXIS">      0.00000000      0.00000000      1.00000000</v>
    <i type="logical" name="LSPIRAL"> F  </i>
    <v name="QSPIRAL">      0.00000000      0.00000000      0.00000000</v>
    <i type="logical" name="LZEROZ"> F  </i>
   </separator>
   <separator name="electronic exchange-correlation" >
    <i type="logical" name="LASPH"> F  </i>
    <i type="logical" name="LMETAGGA"> F  </i>
   </separator>
   <separator name="electronic convergence" >
    <i type="int" name="NELM">    60</i>
    <i type="int" name="NELMDL">    -5</i>
    <i type="int" name="NELMIN">     4</i>
    <i name="ENINI">    600.00000000</i>
    <separator name="electronic convergence detail" >
     <i type="logical" name="LDIAG"> T  </i>
     <i type="logical" name="LSUBROT"> F  </i>
     <i name="WEIMIN">      0.00100000</i>
     <i name="EBREAK">      0.00000000</i>
     <i name="DEPER">      0.30000000</i>
     <i type="int" name="NRMM">     4</i>
     <i name="TIME">      0.40000000</i>
    </separator>
   </separator>
   <separator name="electronic mixer" >
    <i name="AMIX">      0.40000000</i>
    <i name="BMIX">      1.00000000</i>
    <i name="AMIN">      0.10000000</i>
    <i name="AMIX_MAG">      1.60000000</i>
    <i name="BMIX_MAG">      1.00000000</i>
    <separator name="electronic mixer details" >
     <i type="int" name="IMIX">     4</i>
     <i type="logical" name="MIXFIRST"> F  </i>
     <i type="int" name="MAXMIX">   -45</i>
     <i name="WC">    100.00000000</i>
     <i type="int" name="INIMIX">     1</i>
     <i type="int" name="MIXPRE">     1</i>
     <i type="int" name="MREMOVE">     5</i>
    </separator>
   </separator>
   <separator name="electronic dipolcorrection" >
    <i type="logical" name="LDIPOL"> F  </i>
    <i type="logical" name="LMONO"> F  </i>
    <i type="int" name="IDIPOL">     0</i>
    <i name="EPSILON">      1.00000000</i>
    <v name="DIPOL">   -100.00000000   -100.00000000   -100.00000000</v>
    <i name="EFIELD">      0.00000000</i>
   </separator>
  </separator>
  <separator name="grids" >
   <i type="int" name="NGX">    70</i>
   <i type="int" name="NGY">    60</i>
   <i type="int" name="NGZ">    70</i>
   <i type="int" name="NGXF">   140</i>
   <i type="int" name="NGYF">   120</i>
   <i type="int" name="NGZF">   140</i>
   <i type="logical" name="ADDGRID"> F  </i>
  </separator>
  <separator name="ionic" >
   <i type="int" name="NSW">     1</i>
   <i type="int" name="IBRION">     2</i>
   <i type="int" name="MDALGO">     0</i>
   <i type="int" name="ISIF">     2</i>
   <i name="PSTRESS">      0.00000000</i>
   <i name="EDIFFG">     -0.01000000</i>
   <i type="int" name="NFREE">    10</i>
   <i name="POTIM">      0.50000000</i>
   <i name="SMASS">     -3.00000000</i>
   <i name="SCALEE">      1.00000000</i>
  </separator>
  <separator name="ionic md" >
   <i name="TEBEG">      0.00010000</i>
   <i name="TEEND">      0.00010000</i>
   <i type="int" name="NBLOCK">     1</i>
   <i type="int" name="KBLOCK">     1</i>
   <i type="int" name="NPACO">   256</i>
   <i name="APACO">     16.00000000</i>
  </separator>
  <separator name="symmetry" >
   <i type="int" name="ISYM">     2</i>
   <i name="SYMPREC">      0.00001000</i>
  </separator>
  <separator name="dos" >
   <i type="int" name="LORBIT">     0</i>
   <v name="RWIGS">     -1.00000000     -1.00000000     -1.00000000     -1.00000000     -1.00000000</v>
   <i type="int" name="NEDOS">   301</i>
   <i name="EMIN">     10.00000000</i>
   <i name="EMAX">    -10.00000000</i>
   <i name="EFERMI">      0.00000000</i>
  </separator>
  <separator name="writing" >
   <i type="int" name="NWRITE">     2</i>
   <i type="logical" name="LWAVE"> F  </i>
   <i type="logical" name="LDOWNSAMPLE"> F  </i>
   <i type="logical" name="LCHARG"> F  </i>
   <i type="logical" name="LPARD"> F  </i>
   <i type="logical" name="LVTOT"> F  </i>
   <i type="logical" name="LVHAR"> F  </i>
   <i type="logical" name="LELF"> F  </i>
   <i type="logical" name="LOPTICS"> F  </i>
   <v name="STM">      0.00000000      0.00000000      0.00000000      0.00000000      0.00000000      0.00000000      0.00000000</v>
  </separator>
  <separator name="performance" >
   <i type="int" name="NPAR">    28</i>
   <i type="int" name="NSIM">     4</i>
   <i type="int" name="NBLK">    -1</i>
   <i type="logical" name="LPLANE"> T  </i>
   <i type="logical" name="LSCALAPACK"> T  </i>
   <i type="logical" name="LSCAAWARE"> F  </i>
   <i type="logical" name="LSCALU"> F  </i>
   <i type="logical" name="LASYNC"> F  </i>
   <i type="logical" name="LORBITALREAL"> F  </i>
  </separator>
  <separator name="miscellaneous" >
   <i type="int" name="IDIOT">     3</i>
   <i type="int" name="ISPECIAL">     0</i>
   <i type="logical" name="LMUSIC"> F  </i>
   <v name="POMASS">      7.01000000     24.30500000    208.98000000     32.06600000     16.00000000</v>
   <v name="DARWINR">      0.00000000      0.00000000      0.00000000      0.00000000      0.00000000</v>
   <v name="DARWINV">      1.00000000      1.00000000      1.00000000      1.00000000      1.00000000</v>
   <i type="logical" name="LCORR"> T  </i>
  </separator>
  <i type="logical" name="GGA_COMPAT"> T  </i>
  <i type="logical" name="LBERRY"> F  </i>
  <i type="int" name="ICORELEVEL">     0</i>
  <i type="logical" name="LDAU"> F  </i>
  <i type="int" name="I_CONSTRAINED_M">     0</i>
  <separator name="electronic exchange-correlation" >
   <i type="string" name="GGA">--</i>
   <i type="int" name="VOSKOWN">     0</i>
   <i type="logical" name="LHFCALC"> F  </i>
   <i type="string" name="PRECFOCK"></i>
   <i type="logical" name="LSYMGRAD"> F  </i>
   <i type="logical" name="LHFONE"> F  </i>
   <i type="logical" name="LRHFCALC"> F  </i>
   <i type="logical" name="LTHOMAS"> F  </i>
   <i type="logical" name="LMODELHF"> F  </i>
   <i name="ENCUT4O">     -1.00000000</i>
   <i type="int" name="EXXOEP">     0</i>
   <i type="int" name="FOURORBIT">     0</i>
   <i name="AEXX">      0.00000000</i>
   <i name="HFALPHA">      0.00000000</i>
   <i name="MCALPHA">      0.00000000</i>
   <i name="ALDAX">      1.00000000</i>
   <i name="AGGAX">      1.00000000</i>
   <i name="ALDAC">      1.00000000</i>
   <i name="AGGAC">      1.00000000</i>
   <i type="int" name="NKREDX">     1</i>
   <i type="int" name="NKREDY">     1</i>
   <i type="int" name="NKREDZ">     1</i>
   <i type="logical" name="SHIFTRED"> F  </i>
   <i type="logical" name="ODDONLY"> F  </i>
   <i type="logical" name="EVENONLY"> F  </i>
   <i type="int" name="LMAXFOCK">     0</i>
   <i type="int" name="NMAXFOCKAE">     0</i>
   <i type="logical" name="LFOCKAEDFT"> F  </i>
   <i name="HFSCREEN">      0.00000000</i>
   <i name="HFSCREENC">      0.00000000</i>
   <i type="int" name="NBANDSGWLOW">     0</i>
  </separator>
  <separator name="vdW DFT" >
   <i type="logical" name="LUSE_VDW"> F  </i>
   <i name="Zab_VDW">     -0.84910000</i>
   <i name="PARAM1">      0.12340000</i>
   <i name="PARAM2">      1.00000000</i>
   <i name="PARAM3">      0.00000000</i>
  </separator>
  <separator name="model GW" >
   <i type="int" name="MODEL_GW">     0</i>
   <i name="MODEL_EPS0">     11.58240521</i>
   <i name="MODEL_ALPHA">      1.00000000</i>
  </separator>
  <separator name="linear response parameters" >
   <i type="logical" name="LEPSILON"> F  </i>
   <i type="logical" name="LRPA"> F  </i>
   <i type="logical" name="LNABLA"> F  </i>
   <i type="logical" name="LVEL"> F  </i>
   <i type="int" name="KINTER">     0</i>
   <i name="CSHIFT">      0.10000000</i>
   <i name="OMEGAMAX">     -1.00000000</i>
   <i name="DEG_THRESHOLD">      0.00200000</i>
   <i name="RTIME">     -0.10000000</i>
   <i name="WPLASMAI">      0.00000000</i>
   <v name="DFIELD">      0.00000000      0.00000000      0.00000000</v>
   <v name="WPLASMA">      0.00000000      0.00000000      0.00000000      0.00000000      0.00000000      0.00000000      0.00000000      0.00000000      0.00000000</v>
  </separator>
  <separator name="orbital magnetization" >
   <i type="logical" name="NUCIND"> F  </i>
   <v name="MAGPOS">      0.00000000      0.00000000      0.00000000</v>
   <i type="logical" name="LNICSALL"> T  </i>
   <i type="logical" name="ORBITALMAG"> F  </i>
   <i type="logical" name="LMAGBLOCH"> F  </i>
   <i type="logical" name="LCHIMAG"> F  </i>
   <i type="logical" name="LGAUGE"> T  </i>
   <i type="int" name="MAGATOM">     0</i>
   <v name="MAGDIPOL">      0.00000000      0.00000000      0.00000000</v>
   <v name="AVECCONST">      0.00000000      0.00000000      0.00000000</v>
  </separator>
  <separator name="response functions" >
   <i type="logical" name="LADDER"> F  </i>
   <i type="logical" name="LRPAFORCE"> F  </i>
   <i type="logical" name="LFXC"> F  </i>
   <i type="logical" name="LHARTREE"> T  </i>
   <i type="int" name="IBSE">     0</i>
   <v type="int" name="KPOINT">    -1     0     0     0</v>
   <i type="logical" name="LTCTE"> F  </i>
   <i type="logical" name="LTETE"> F  </i>
   <i type="logical" name="LTRIPLET"> F  </i>
   <i type="logical" name="LFXCEPS"> F  </i>
   <i type="logical" name="LFXHEG"> F  </i>
   <i type="int" name="NATURALO">     2</i>
   <i type="logical" name="L2ORDER"> F  </i>
   <i type="logical" name="LMP2LT"> F  </i>
   <i type="logical" name="LUSEW"> F  </i>
   <i name="ENCUTGW">     -2.00000000</i>
   <i name="ENCUTGWSOFT">     -2.00000000</i>
   <i name="ENCUTLF">     -1.00000000</i>
   <i type="int" name="LMAXMP2">    -1</i>
   <i name="SCISSOR">      0.00000000</i>
   <i type="int" name="NOMEGA">     0</i>
   <i type="int" name="NOMEGAR">     0</i>
   <i type="int" name="NBANDSGW">    -1</i>
   <i type="int" name="NBANDSO">    -1</i>
   <i type="int" name="NBANDSV">    -1</i>
   <i type="int" name="NELM">     1</i>
   <i type="int" name="NELMHF">     1</i>
   <i type="int" name="DIM">     3</i>
   <i type="int" name="ANTIRES">     0</i>
   <i name="OMEGAMAX">    -30.00000000</i>
   <i name="OMEGAMIN">    -30.00000000</i>
   <i name="OMEGATL">   -200.00000000</i>
   <i type="int" name="OMEGAGRID">   140</i>
   <i name="CSHIFT">     -0.10000000</i>
   <i type="logical" name="SELFENERGY"> F  </i>
   <i type="logical" name="LSPECTRAL"> F  </i>
   <i type="logical" name="LSPECTRALGW"> F  </i>
   <i type="logical" name="LSINGLES"> F  </i>
   <i type="logical" name="LFERMIGW"> F  </i>
   <i type="logical" name="ODDONLYGW"> F  </i>
   <i type="logical" name="EVENONLYGW"> F  </i>
   <i type="int" name="NKREDLFX">     1</i>
   <i type="int" name="NKREDLFY">     1</i>
   <i type="int" name="NKREDLFZ">     1</i>
   <i type="int" name="MAXMEM">  2800</i>
   <i type="int" name="TELESCOPE">     0</i>
   <i type="int" name="TAUPAR">     1</i>
   <i type="int" name="OMEGAPAR">    -1</i>
   <i name="LAMBDA">      1.00000000</i>
  </separator>
  <separator name="External order field" >
   <i name="OFIELD_KAPPA">      0.00000000</i>
   <v name="OFIELD_K">      0.00000000      0.00000000      0.00000000</v>
   <i name="OFIELD_Q6_NEAR">      0.00000000</i>
   <i name="OFIELD_Q6_FAR">      0.00000000</i>
   <i name="OFIELD_A">      0.00000000</i>
  </separator>
 </parameters>
 <atominfo>
  <atoms>      62 </atoms>
  <types>       5 </types>
  <array name="atoms" >
   <dimension dim="1">ion</dimension>
   <field type="string">element</field>
   <field type="int">atomtype</field>
   <set>
    <rc><c>Li</c><c>   1</c></rc>
    <rc><c>Li</c><c>   1</c></rc>
    <rc><c>Li</c><c>   1</c></rc>
    <rc><c>Li</c><c>   1</c></rc>
    <rc><c>Li</c><c>   1</c></rc>
    <rc><c>Li</c><c>   1</c></rc>
    <rc><c>Li</c><c>   1</c></rc>
    <rc><c>Li</c><c>   1</c></rc>
    <rc><c>Li</c><c>   1</c></rc>
    <rc><c>Li</c><c>   1</c></rc>
    <rc><c>Li</c><c>   1</c></rc>
    <rc><c>Li</c><c>   1</c></rc>
    <rc><c>Mg</c><c>   2</c></rc>
    <rc><c>Mg</c><c>   2</c></rc>
    <rc><c>Bi</c><c>   3</c></rc>
    <rc><c>Bi</c><c>   3</c></rc>
    <rc><c>Bi</c><c>   3</c></rc>
    <rc><c>Bi</c><c>   3</c></rc>
    <rc><c>Bi</c><c>   3</c></rc>
    <rc><c>Bi</c><c>   3</c></rc>
    <rc><c>Bi</c><c>   3</c></rc>
    <rc><c>Bi</c><c>   3</c></rc>
    <rc><c>Bi</c><c>   3</c></rc>
    <rc><c>Bi</c><c>   3</c></rc>
    <rc><c>Bi</c><c>   3</c></rc>
    <rc><c>Bi</c><c>   3</c></rc>
    <rc><c>Bi</c><c>   3</c></rc>
    <rc><c>Bi</c><c>   3</c></rc>
    <rc><c>Bi</c><c>   3</c></rc>
    <rc><c>Bi</c><c>   3</c></rc>
    <rc><c>S </c><c>   4</c></rc>
    <rc><c>S </c><c>   4</c></rc>
    <rc><c>S </c><c>   4</c></rc>
    <rc><c>S </c><c>   4</c></rc>
    <rc><c>S </c><c>   4</c></rc>
    <rc><c>S </c><c>   4</c></rc>
    <rc><c>S </c><c>   4</c></rc>
    <rc><c>S </c><c>   4</c></rc>
    <rc><c>S </c><c>   4</c></rc>
    <rc><c>S </c><c>   4</c></rc>
    <rc><c>S </c><c>   4</c></rc>
    <rc><c>S </c><c>   4</c></rc>
    <rc><c>S </c><c>   4</c></rc>
    <rc><c>S </c><c>   4</c></rc>
    <rc><c>S </c><c>   4</c></rc>
    <rc><c>S </c><c>   4</c></rc>
    <rc><c>O </c><c>   5</c></rc>
    <rc><c>O </c><c>   5</c></rc>
    <rc><c>O </c><c>   5</c></rc>
    <rc><c>O </c><c>   5</c></rc>
    <rc><c>O </c><c>   5</c></rc>
    <rc><c>O </c><c>   5</c></rc>
    <rc><c>O </c><c>   5</c></rc>
    <rc><c>O </c><c>   5</c></rc>
    <rc><c>O </c><c>   5</c></rc>
    <rc><c>O </c><c>   5</c></rc>
    <rc><c>O </c><c>   5</c></rc>
    <rc><c>O </c><c>   5</c></rc>
    <rc><c>O </c><c>   5</c></rc>
    <rc><c>O </c><c>   5</c></rc>
    <rc><c>O </c><c>   5</c></rc>
    <rc><c>O </c><c>   5</c></rc>
   </set>
  </array>
  <array name="atomtypes" >
   <dimension dim="1">type</dimension>
   <field type="int">atomspertype</field>
   <field type="string">element</field>
   <field>mass</field>
   <field>valence</field>
   <field type="string">pseudopotential</field>
   <set>
    <rc><c>  12</c><c>Li</c><c>      7.01000000</c><c>      3.00000000</c><c>  PAW_PBE Li_sv 10Sep2004               </c></rc>
    <rc><c>   2</c><c>Mg</c><c>     24.30500000</c><c>      2.00000000</c><c>  PAW_PBE Mg 13Apr2007                  </c></rc>
    <rc><c>  16</c><c>Bi</c><c>    208.98000000</c><c>     15.00000000</c><c>  PAW_PBE Bi_d 06Sep2000                </c></rc>
    <rc><c>  16</c><c>S </c><c>     32.06600000</c><c>      6.00000000</c><c>  PAW_PBE S 06Sep2000                   </c></rc>
    <rc><c>  16</c><c>O </c><c>     16.00000000</c><c>      6.00000000</c><c>  PAW_PBE O 08Apr2002                   </c></rc>
   </set>
  </array>
 </atominfo>
 <structure name="initialpos" >
  <crystal>
   <varray name="basis" >
    <v>      11.17850000       0.00000000       0.00000000 </v>
    <v>       0.00000000       9.57460000       0.00000000 </v>
    <v>       0.00000000       0.00000000      11.18240000 </v>
   </varray>
   <i name="volume">   1196.84853820 </i>
   <varray name="rec_basis" >
    <v>       0.08945744       0.00000000       0.00000000 </v>
    <v>       0.00000000       0.10444301       0.00000000 </v>
    <v>       0.00000000       0.00000000       0.08942624 </v>
   </varray>
  </crystal>
  <varray name="positions" >
   <v>       0.37539000       0.00017000       0.43687000 </v>
   <v>       0.12461000       0.99984000       0.18687000 </v>
   <v>       0.37461000       0.00017000       0.18687000 </v>
   <v>       0.62539000       0.99984000       0.43687000 </v>
   <v>       0.87539000       0.00017000       0.43687000 </v>
   <v>       0.62461000       0.99984000       0.18687000 </v>
   <v>       0.87461000       0.00017000       0.18687000 </v>
   <v>       0.12539000       0.99984000       0.93687000 </v>
   <v>       0.37539000       0.00017000       0.93687000 </v>
   <v>       0.37461000       0.00017000       0.68687000 </v>
   <v>       0.87539000       0.00017000       0.93687000 </v>
   <v>       0.62461000       0.99984000       0.68687000 </v>
   <v>       0.12461000       0.99984000       0.68687000 </v>
   <v>       0.62539000       0.99984000       0.93687000 </v>
   <v>       0.00013000       0.29519000       0.06281000 </v>
   <v>       0.25013000       0.70481000       0.06281000 </v>
   <v>       0.24987000       0.29519000       0.31282000 </v>
   <v>       0.49987000       0.70481000       0.31282000 </v>
   <v>       0.50013000       0.29519000       0.06281000 </v>
   <v>       0.75013000       0.70481000       0.06281000 </v>
   <v>       0.74987000       0.29519000       0.31282000 </v>
   <v>       0.99987000       0.70481000       0.31282000 </v>
   <v>       0.00013000       0.29519000       0.56281000 </v>
   <v>       0.25013000       0.70481000       0.56281000 </v>
   <v>       0.24987000       0.29519000       0.81282000 </v>
   <v>       0.49987000       0.70481000       0.81282000 </v>
   <v>       0.50013000       0.29519000       0.56281000 </v>
   <v>       0.75013000       0.70481000       0.56281000 </v>
   <v>       0.74987000       0.29519000       0.81282000 </v>
   <v>       0.99987000       0.70481000       0.81282000 </v>
   <v>       0.25005000       0.32677000       0.06286000 </v>
   <v>       0.00005000       0.67323000       0.06286000 </v>
   <v>       0.49995000       0.32677000       0.31286000 </v>
   <v>       0.24995000       0.67323000       0.31286000 </v>
   <v>       0.75005000       0.32677000       0.06286000 </v>
   <v>       0.50005000       0.67323000       0.06286000 </v>
   <v>       0.99995000       0.32677000       0.31286000 </v>
   <v>       0.74995000       0.67323000       0.31286000 </v>
   <v>       0.25005000       0.32677000       0.56286000 </v>
   <v>       0.00005000       0.67323000       0.56286000 </v>
   <v>       0.49995000       0.32677000       0.81286000 </v>
   <v>       0.24995000       0.67323000       0.81286000 </v>
   <v>       0.75005000       0.32677000       0.56286000 </v>
   <v>       0.50005000       0.67323000       0.56286000 </v>
   <v>       0.99995000       0.32677000       0.81286000 </v>
   <v>       0.74995000       0.67323000       0.81286000 </v>
   <v>       0.49987000       0.07798000       0.06246000 </v>
   <v>       0.24987000       0.92202000       0.06246000 </v>
   <v>       0.25013000       0.07798000       0.31246000 </v>
   <v>       0.00013000       0.92202000       0.31246000 </v>
   <v>       0.99987000       0.07798000       0.06246000 </v>
   <v>       0.74987000       0.92202000       0.06246000 </v>
   <v>       0.75013000       0.07798000       0.31246000 </v>
   <v>       0.50013000       0.92202000       0.31246000 </v>
   <v>       0.49987000       0.07798000       0.56246000 </v>
   <v>       0.24987000       0.92202000       0.56246000 </v>
   <v>       0.25013000       0.07798000       0.81246000 </v>
   <v>       0.00013000       0.92202000       0.81246000 </v>
   <v>       0.99987000       0.07798000       0.56246000 </v>
   <v>       0.74987000       0.92202000       0.56246000 </v>
   <v>       0.75013000       0.07798000       0.81246000 </v>
   <v>       0.50013000       0.92202000       0.81246000 </v>
  </varray>
 </structure>
 <calculation>
  <scstep>
   <time name="dav">   64.59   64.75</time>
   <time name="total">   64.67   64.84</time>
   <energy>
    <i name="alphaZ">   1079.87189334 </i>
    <i name="ewald"> -31105.91065818 </i>
    <i name="hartreedc"> -12718.94878245 </i>
    <i name="XCdc">   1468.89537723 </i>
    <i name="pawpsdc">  36917.91861236 </i>
    <i name="pawaedc"> -36503.41947684 </i>
    <i name="eentropy">      0.00000000 </i>
    <i name="bandstr">   1590.24731569 </i>
    <i name="atom">  45173.57650906 </i>
    <i name="e_fr_energy">   5902.23079022 </i>
    <i name="e_wo_entrp">   5902.23079022 </i>
    <i name="e_0_energy">   5902.23079022 </i>
   </energy>
  </scstep>
  <scstep>
   <time name="dav">   65.39   65.57</time>
   <time name="total">   65.40   65.58</time>
   <energy>
    <i name="e_fr_energy">    750.62041849 </i>
    <i name="e_wo_entrp">    750.62041849 </i>
    <i name="e_0_energy">    750.62041849 </i>
   </energy>
  </scstep>
  <scstep>
   <time name="dav">   71.35   71.79</time>
   <time name="total">   71.35   71.79</time>
   <energy>
    <i name="e_fr_energy">   -243.66197139 </i>
    <i name="e_wo_entrp">   -243.66197139 </i>
    <i name="e_0_energy">   -243.66197139 </i>
   </energy>
  </scstep>
  <scstep>
   <time name="dav">   79.67   79.79</time>
   <time name="total">   79.67   79.79</time>
   <energy>
    <i name="e_fr_energy">   -352.15027738 </i>
    <i name="e_wo_entrp">   -352.15027738 </i>
    <i name="e_0_energy">   -352.15027738 </i>
   </energy>
  </scstep>
  <scstep>
   <time name="dav">  104.26  104.42</time>
   <time name="total">  104.99  105.15</time>
   <energy>
    <i name="e_fr_energy">   -360.90714859 </i>
    <i name="e_wo_entrp">   -360.90714859 </i>
    <i name="e_0_energy">   -360.90714859 </i>
   </energy>
  </scstep>
  <scstep>
   <time name="dav">   92.28   92.34</time>
   <time name="total">   93.11   93.17</time>
   <energy>
    <i name="e_fr_energy">   -301.03804730 </i>
    <i name="e_wo_entrp">   -301.03804730 </i>
    <i name="e_0_energy">   -301.03804730 </i>
   </energy>
  </scstep>
  <scstep>
   <time name="dav">   69.95   70.03</time>
   <time name="total">   70.75   70.83</time>
   <energy>
    <i name="e_fr_energy">   -303.21684327 </i>
    <i name="e_wo_entrp">   -303.21684327 </i>
    <i name="e_0_energy">   -303.21684327 </i>
   </energy>
  </scstep>
  <scstep>
   <time name="dav">   81.90   81.96</time>
   <time name="total">   82.69   82.76</time>
   <energy>
    <i name="e_fr_energy">   -301.82524896 </i>
    <i name="e_wo_entrp">   -301.82524896 </i>
    <i name="e_0_energy">   -301.82524896 </i>
   </energy>
  </scstep>
  <scstep>
   <time name="dav">   86.69   86.77</time>
   <time name="total">   87.49   87.57</time>
   <energy>
    <i name="e_fr_energy">   -301.19823745 </i>
    <i name="e_wo_entrp">   -301.19823745 </i>
    <i name="e_0_energy">   -301.19823745 </i>
   </energy>
  </scstep>
  <scstep>
   <time name="dav">   78.25   78.37</time>
   <time name="total">   79.05   79.17</time>
   <energy>
    <i name="e_fr_energy">   -301.19518196 </i>
    <i name="e_wo_entrp">   -301.19518196 </i>
    <i name="e_0_energy">   -301.19518196 </i>
   </energy>
  </scstep>
  <scstep>
   <time name="dav">   85.45   85.58</time>
   <time name="total">   86.25   86.39</time>
   <energy>
    <i name="e_fr_energy">   -301.20487860 </i>
    <i name="e_wo_entrp">   -301.20487860 </i>
    <i name="e_0_energy">   -301.20487860 </i>
   </energy>
  </scstep>
  <scstep>
   <time name="dav">   82.11   82.31</time>
   <time name="total">   82.92   83.11</time>
   <energy>
    <i name="e_fr_energy">   -301.21016071 </i>
    <i name="e_wo_entrp">   -301.21016071 </i>
    <i name="e_0_energy">   -301.21016071 </i>
   </energy>
  </scstep>
  <scstep>
   <time name="dav">   79.70   79.79</time>
   <time name="total">   80.52   80.60</time>
   <energy>
    <i name="e_fr_energy">   -301.21078111 </i>
    <i name="e_wo_entrp">   -301.21078111 </i>
    <i name="e_0_energy">   -301.21078111 </i>
   </energy>
  </scstep>
  <scstep>
   <time name="dav">   78.55   78.81</time>
   <time name="total">   79.35   79.61</time>
   <energy>
    <i name="e_fr_energy">   -301.21109472 </i>
    <i name="e_wo_entrp">   -301.21109472 </i>
    <i name="e_0_energy">   -301.21109472 </i>
   </energy>
  </scstep>
  <scstep>
   <time name="dav">   94.42   94.67</time>
   <time name="total">   95.21   95.47</time>
   <energy>
    <i name="e_fr_energy">   -301.21110199 </i>
    <i name="e_wo_entrp">   -301.21110199 </i>
    <i name="e_0_energy">   -301.21110199 </i>
   </energy>
  </scstep>
  <scstep>
   <time name="dav">   70.94   71.21</time>
   <time name="total">   71.74   72.02</time>
   <energy>
    <i name="e_fr_energy">   -301.21112289 </i>
    <i name="e_wo_entrp">   -301.21112289 </i>
    <i name="e_0_energy">   -301.21112289 </i>
   </energy>
  </scstep>
  <scstep>
   <time name="dav">   78.35   78.65</time>
   <time name="total">   79.14   79.45</time>
   <energy>
    <i name="e_fr_energy">   -301.21112449 </i>
    <i name="e_wo_entrp">   -301.21112449 </i>
    <i name="e_0_energy">   -301.21112449 </i>
   </energy>
  </scstep>
  <scstep>
   <time name="dav">   57.48   57.61</time>
   <time name="total">   57.56   57.69</time>
   <energy>
    <i name="alphaZ">   1079.87189334 </i>
    <i name="ewald"> -31105.91065818 </i>
    <i name="hartreedc"> -12953.17880841 </i>
    <i name="XCdc">   1491.79918212 </i>
    <i name="pawpsdc">  43947.43424136 </i>
    <i name="pawaedc"> -43508.52436158 </i>
    <i name="eentropy">      0.00000000 </i>
    <i name="bandstr">  -4426.27912276 </i>
    <i name="atom">  45173.57650906 </i>
    <i name="e_fr_energy">   -301.21112504 </i>
    <i name="e_wo_entrp">   -301.21112504 </i>
    <i name="e_0_energy">   -301.21112504 </i>
   </energy>
  </scstep>
  <structure>
   <crystal>
    <varray name="basis" >
     <v>      11.17850000       0.00000000       0.00000000 </v>
     <v>       0.00000000       9.57460000       0.00000000 </v>
     <v>       0.00000000       0.00000000      11.18240000 </v>
    </varray>
    <i name="volume">   1196.84853820 </i>
    <varray name="rec_basis" >
     <v>       0.08945744       0.00000000       0.00000000 </v>
     <v>       0.00000000       0.10444301       0.00000000 </v>
     <v>       0.00000000       0.00000000       0.08942624 </v>
    </varray>
   </crystal>
   <varray name="positions" >
    <v>       0.37539000       0.00017000       0.43687000 </v>
    <v>       0.12461000       0.99984000       0.18687000 </v>
    <v>       0.37461000       0.00017000       0.18687000 </v>
    <v>       0.62539000       0.99984000       0.43687000 </v>
    <v>       0.87539000       0.00017000       0.43687000 </v>
    <v>       0.62461000       0.99984000       0.18687000 </v>
    <v>       0.87461000       0.00017000       0.18687000 </v>
    <v>       0.12539000       0.99984000       0.93687000 </v>
    <v>       0.37539000       0.00017000       0.93687000 </v>
    <v>       0.37461000       0.00017000       0.68687000 </v>
    <v>       0.87539000       0.00017000       0.93687000 </v>
    <v>       0.62461000       0.99984000       0.68687000 </v>
    <v>       0.12461000       0.99984000       0.68687000 </v>
    <v>       0.62539000       0.99984000       0.93687000 </v>
    <v>       0.00013000       0.29519000       0.06281000 </v>
    <v>       0.25013000       0.70481000       0.06281000 </v>
    <v>       0.24987000       0.29519000       0.31282000 </v>
    <v>       0.49987000       0.70481000       0.31282000 </v>
    <v>       0.50013000       0.29519000       0.06281000 </v>
    <v>       0.75013000       0.70481000       0.06281000 </v>
    <v>       0.74987000       0.29519000       0.31282000 </v>
    <v>       0.99987000       0.70481000       0.31282000 </v>
    <v>       0.00013000       0.29519000       0.56281000 </v>
    <v>       0.25013000       0.70481000       0.56281000 </v>
    <v>       0.24987000       0.29519000       0.81282000 </v>
    <v>       0.49987000       0.70481000       0.81282000 </v>
    <v>       0.50013000       0.29519000       0.56281000 </v>
    <v>       0.75013000       0.70481000       0.56281000 </v>
    <v>       0.74987000       0.29519000       0.81282000 </v>
    <v>       0.99987000       0.70481000       0.81282000 </v>
    <v>       0.25005000       0.32677000       0.06286000 </v>
    <v>       0.00005000       0.67323000       0.06286000 </v>
    <v>       0.49995000       0.32677000       0.31286000 </v>
    <v>       0.24995000       0.67323000       0.31286000 </v>
    <v>       0.75005000       0.32677000       0.06286000 </v>
    <v>       0.50005000       0.67323000       0.06286000 </v>
    <v>       0.99995000       0.32677000       0.31286000 </v>
    <v>       0.74995000       0.67323000       0.31286000 </v>
    <v>       0.25005000       0.32677000       0.56286000 </v>
    <v>       0.00005000       0.67323000       0.56286000 </v>
    <v>       0.49995000       0.32677000       0.81286000 </v>
    <v>       0.24995000       0.67323000       0.81286000 </v>
    <v>       0.75005000       0.32677000       0.56286000 </v>
    <v>       0.50005000       0.67323000       0.56286000 </v>
    <v>       0.99995000       0.32677000       0.81286000 </v>
    <v>       0.74995000       0.67323000       0.81286000 </v>
    <v>       0.49987000       0.07798000       0.06246000 </v>
    <v>       0.24987000       0.92202000       0.06246000 </v>
    <v>       0.25013000       0.07798000       0.31246000 </v>
    <v>       0.00013000       0.92202000       0.31246000 </v>
    <v>       0.99987000       0.07798000       0.06246000 </v>
    <v>       0.74987000       0.92202000       0.06246000 </v>
    <v>       0.75013000       0.07798000       0.31246000 </v>
    <v>       0.50013000       0.92202000       0.31246000 </v>
    <v>       0.49987000       0.07798000       0.56246000 </v>
    <v>       0.24987000       0.92202000       0.56246000 </v>
    <v>       0.25013000       0.07798000       0.81246000 </v>
    <v>       0.00013000       0.92202000       0.81246000 </v>
    <v>       0.99987000       0.07798000       0.56246000 </v>
    <v>       0.74987000       0.92202000       0.56246000 </v>
    <v>       0.75013000       0.07798000       0.81246000 </v>
    <v>       0.50013000       0.92202000       0.81246000 </v>
   </varray>
  </structure>
  <varray name="forces" >
   <v>      -0.46232886       0.06433306      -0.08295133 </v>
   <v>      -0.01862949       0.00159917       0.57268977 </v>
   <v>      -0.27246325      -0.00844586       0.32872821 </v>
   <v>       0.18649925      -0.06159891       0.16264422 </v>
   <v>       0.44299235      -0.06833666       0.41719255 </v>
   <v>       0.03443787      -0.00061449       0.56566301 </v>
   <v>       0.28549457       0.00823571       0.32152980 </v>
   <v>      -0.20748497      -0.06333707       0.32723979 </v>
   <v>      -0.44807193      -0.06431123       0.09849530 </v>
   <v>       0.20234883       0.00572233      -0.32322337 </v>
   <v>       0.43154852       0.06544667      -0.41705491 </v>
   <v>       0.54194745       0.00316047      -0.54765128 </v>
   <v>      -1.03008326      -0.00331888      -1.08769396 </v>
   <v>       0.26798073       0.11694695      -0.18505748 </v>
   <v>       0.06514878       0.03861870       0.21901554 </v>
   <v>      -0.21098346      -0.04445105       0.25469820 </v>
   <v>      -0.28603073      -1.02905710       0.21649746 </v>
   <v>      -0.02931442      -0.02055014       0.19149829 </v>
   <v>      -0.15383902       1.04799855       0.30274232 </v>
   <v>       0.28216452      -1.05180404       0.27062152 </v>
   <v>       0.18654132       0.01004821       0.23181322 </v>
   <v>       0.16116218       1.03820933       0.25602321 </v>
   <v>      -0.12236567      -1.07372206      -0.26626682 </v>
   <v>      -0.22447830       0.01039925      -0.44096541 </v>
   <v>      -0.11295320       1.03753379      -0.05690093 </v>
   <v>      -0.03471458      -1.07368728      -0.29981609 </v>
   <v>       0.05598426       0.03803044      -0.20999779 </v>
   <v>       0.25927286       1.02216020      -0.05588535 </v>
   <v>       0.37832425       0.07516751      -0.45482023 </v>
   <v>      -0.21187808      -0.00701230      -0.22785377 </v>
   <v>       0.15967900       0.15328321      -0.25234402 </v>
   <v>      -0.08359544      -0.19195067      -0.16827943 </v>
   <v>       0.10730328       0.18891896      -0.16783857 </v>
   <v>       0.19192329      -0.19266518      -0.10798602 </v>
   <v>      -0.20430791       0.09896193      -0.11368814 </v>
   <v>       0.12408420      -0.04866739      -0.19738056 </v>
   <v>      -0.12326394       0.22311950      -0.20991862 </v>
   <v>      -0.17852924      -0.22778551      -0.27449983 </v>
   <v>       0.15297235       0.15367637       0.32845679 </v>
   <v>       0.14967617      -0.16850984       0.22870730 </v>
   <v>      -0.02675657       0.06439864       0.19414852 </v>
   <v>       0.12441870      -0.11940220       0.03708952 </v>
   <v>      -0.20218408       0.19749908       0.06875696 </v>
   <v>      -0.09893379      -0.19240248       0.17303942 </v>
   <v>       0.14056627       0.13130152       0.14723503 </v>
   <v>      -0.23268094      -0.06567786       0.30750397 </v>
   <v>       0.57319685      -0.92583320      -0.65506691 </v>
   <v>       0.17222046       0.08816856      -0.23838835 </v>
   <v>       0.72472304       0.82930861      -0.67827222 </v>
   <v>      -0.66302237      -0.87193054      -0.74356366 </v>
   <v>      -0.07396771      -0.03482961      -0.15992896 </v>
   <v>      -0.64822073       0.85771344      -0.56306527 </v>
   <v>      -0.16708169       0.02354414      -0.24069965 </v>
   <v>       0.07100035       0.02944425      -0.16930819 </v>
   <v>      -0.06603173      -0.03393288       0.16508318 </v>
   <v>       0.27100224      -0.04304089       1.30377192 </v>
   <v>      -0.31230885      -0.82861523      -0.38020925 </v>
   <v>       1.16569458      -0.00988802       0.27964035 </v>
   <v>       0.56728131       1.02066271       0.61962852 </v>
   <v>      -0.74517961      -0.83770282      -0.51634695 </v>
   <v>      -1.22001917      -0.18578269       1.26280816 </v>
   <v>       0.39411317       0.90525287       0.63996125 </v>
  </varray>
  <varray name="stress" >
   <v>      -7.68500285       0.14845306      -0.31167382 </v>
   <v>       0.14845326     -14.28591735       0.08926686 </v>
   <v>      -0.31167407       0.08926705      -8.57086433 </v>
  </varray>
  <energy>
   <i name="e_fr_energy">   -317.09137300 </i>
   <i name="e_wo_entrp">   -317.09137300 </i>
   <i name="e_0_energy">      0.00000000 </i>
  </energy>
  <time name="totalsc"> 1546.95 1550.37</time>
  <eigenvalues>
   <array>
    <dimension dim="1">band</dimension>
    <dimension dim="2">kpoint</dimension>
    <dimension dim="3">spin</dimension>
    <field>eigene</field>
    <field>occ</field>
    <set>
     <set comment="spin 1">
      <set comment="kpoint 1">
       <r>  -40.4617    1.0000 </r>
       <r>  -40.2022    1.0000 </r>
       <r>  -40.1945    1.0000 </r>
       <r>  -40.0292    1.0000 </r>
       <r>  -40.0070    1.0000 </r>
       <r>  -39.8443    1.0000 </r>
       <r>  -39.8243    1.0000 </r>
       <r>  -39.7426    1.0000 </r>
       <r>  -39.5734    1.0000 </r>
       <r>  -39.5362    1.0000 </r>
       <r>  -39.3807    1.0000 </r>
       <r>  -39.1063    1.0000 </r>
       <r>  -18.9792    1.0000 </r>
       <r>  -18.9747    1.0000 </r>
       <r>  -18.9052    1.0000 </r>
       <r>  -18.9037    1.0000 </r>
       <r>  -18.9000    1.0000 </r>
       <r>  -18.8965    1.0000 </r>
       <r>  -18.8937    1.0000 </r>
       <r>  -18.8875    1.0000 </r>
       <r>  -18.8300    1.0000 </r>
       <r>  -18.8229    1.0000 </r>
       <r>  -18.8223    1.0000 </r>
       <r>  -18.8152    1.0000 </r>
       <r>  -18.7996    1.0000 </r>
       <r>  -18.7948    1.0000 </r>
       <r>  -18.7942    1.0000 </r>
       <r>  -18.7908    1.0000 </r>
       <r>  -18.7276    1.0000 </r>
       <r>  -18.7192    1.0000 </r>
       <r>  -18.7159    1.0000 </r>
       <r>  -18.7075    1.0000 </r>
       <r>  -18.7062    1.0000 </r>
       <r>  -18.6970    1.0000 </r>
       <r>  -18.6921    1.0000 </r>
       <r>  -18.6806    1.0000 </r>
       <r>  -18.6696    1.0000 </r>
       <r>  -18.6622    1.0000 </r>
       <r>  -18.6182    1.0000 </r>
       <r>  -18.6095    1.0000 </r>
       <r>  -18.6084    1.0000 </r>
       <r>  -18.6080    1.0000 </r>
       <r>  -18.6016    1.0000 </r>
       <r>  -18.5939    1.0000 </r>
       <r>  -18.5928    1.0000 </r>
       <r>  -18.5925    1.0000 </r>
       <r>  -18.5899    1.0000 </r>
       <r>  -18.5799    1.0000 </r>
       <r>  -18.5787    1.0000 </r>
       <r>  -18.5777    1.0000 </r>
       <r>  -18.5522    1.0000 </r>
       <r>  -18.5448    1.0000 </r>
       <r>  -18.5420    1.0000 </r>
       <r>  -18.5397    1.0000 </r>
       <r>  -18.5319    1.0000 </r>
       <r>  -18.5272    1.0000 </r>
       <r>  -18.5250    1.0000 </r>
       <r>  -18.5210    1.0000 </r>
       <r>  -18.5133    1.0000 </r>
       <r>  -18.5109    1.0000 </r>
       <r>  -18.4620    1.0000 </r>
       <r>  -18.4499    1.0000 </r>
       <r>  -18.4486    1.0000 </r>
       <r>  -18.4480    1.0000 </r>
       <r>  -18.4365    1.0000 </r>
       <r>  -18.4285    1.0000 </r>
       <r>  -18.4275    1.0000 </r>
       <r>  -18.4267    1.0000 </r>
       <r>  -18.3886    1.0000 </r>
       <r>  -18.3775    1.0000 </r>
       <r>  -18.3714    1.0000 </r>
       <r>  -18.3701    1.0000 </r>
       <r>  -18.3655    1.0000 </r>
       <r>  -18.3651    1.0000 </r>
       <r>  -18.3578    1.0000 </r>
       <r>  -18.3526    1.0000 </r>
       <r>  -18.2978    1.0000 </r>
       <r>  -18.2970    1.0000 </r>
       <r>  -18.2875    1.0000 </r>
       <r>  -18.2867    1.0000 </r>
       <r>  -18.2754    1.0000 </r>
       <r>  -18.2718    1.0000 </r>
       <r>  -18.2060    1.0000 </r>
       <r>  -18.2038    1.0000 </r>
       <r>  -18.1623    1.0000 </r>
       <r>  -18.1575    1.0000 </r>
       <r>  -18.1486    1.0000 </r>
       <r>  -18.1441    1.0000 </r>
       <r>  -18.0964    1.0000 </r>
       <r>  -18.0868    1.0000 </r>
       <r>  -18.0779    1.0000 </r>
       <r>  -18.0708    1.0000 </r>
       <r>  -13.6571    1.0000 </r>
       <r>  -13.5356    1.0000 </r>
       <r>  -13.4677    1.0000 </r>
       <r>  -13.4506    1.0000 </r>
       <r>  -12.8665    1.0000 </r>
       <r>  -12.7499    1.0000 </r>
       <r>  -12.6976    1.0000 </r>
       <r>  -12.6849    1.0000 </r>
       <r>  -12.6209    1.0000 </r>
       <r>  -12.6069    1.0000 </r>
       <r>  -12.5808    1.0000 </r>
       <r>  -12.5323    1.0000 </r>
       <r>  -11.9401    1.0000 </r>
       <r>  -11.9144    1.0000 </r>
       <r>  -11.8468    1.0000 </r>
       <r>  -11.8116    1.0000 </r>
       <r>   -9.3186    1.0000 </r>
       <r>   -9.0280    1.0000 </r>
       <r>   -8.5234    1.0000 </r>
       <r>   -8.4754    1.0000 </r>
       <r>   -8.4434    1.0000 </r>
       <r>   -8.4373    1.0000 </r>
       <r>   -8.3049    1.0000 </r>
       <r>   -8.2590    1.0000 </r>
       <r>   -8.2242    1.0000 </r>
       <r>   -8.2150    1.0000 </r>
       <r>   -7.9702    1.0000 </r>
       <r>   -7.9565    1.0000 </r>
       <r>   -7.9405    1.0000 </r>
       <r>   -7.9274    1.0000 </r>
       <r>   -7.3160    1.0000 </r>
       <r>   -7.3146    1.0000 </r>
       <r>   -6.3511    1.0000 </r>
       <r>   -6.3463    1.0000 </r>
       <r>   -6.3399    1.0000 </r>
       <r>   -6.3367    1.0000 </r>
       <r>   -5.5507    1.0000 </r>
       <r>   -5.5340    1.0000 </r>
       <r>   -5.3353    1.0000 </r>
       <r>   -5.3239    1.0000 </r>
       <r>   -5.2619    1.0000 </r>
       <r>   -5.1915    1.0000 </r>
       <r>   -5.1314    1.0000 </r>
       <r>   -5.1178    1.0000 </r>
       <r>   -5.0404    1.0000 </r>
       <r>   -4.9820    1.0000 </r>
       <r>   -3.7563    1.0000 </r>
       <r>   -3.6004    1.0000 </r>
       <r>   -1.3784    1.0000 </r>
       <r>   -1.3576    1.0000 </r>
       <r>   -1.0498    1.0000 </r>
       <r>   -1.0314    1.0000 </r>
       <r>   -0.5340    1.0000 </r>
       <r>   -0.4971    1.0000 </r>
       <r>   -0.4510    1.0000 </r>
       <r>   -0.4292    1.0000 </r>
       <r>   -0.1693    1.0000 </r>
       <r>   -0.1434    1.0000 </r>
       <r>   -0.1228    1.0000 </r>
       <r>   -0.1019    1.0000 </r>
       <r>   -0.0542    1.0000 </r>
       <r>    0.1235    1.0000 </r>
       <r>    0.1911    1.0000 </r>
       <r>    0.2406    1.0000 </r>
       <r>    0.3776    1.0000 </r>
       <r>    0.4739    1.0000 </r>
       <r>    0.4874    1.0000 </r>
       <r>    0.6453    1.0000 </r>
       <r>    0.6909    1.0000 </r>
       <r>    0.7541    1.0000 </r>
       <r>    0.7792    1.0000 </r>
       <r>    0.8186    1.0000 </r>
       <r>    0.8303    1.0000 </r>
       <r>    0.8676    1.0000 </r>
       <r>    0.8930    1.0000 </r>
       <r>    0.9598    1.0000 </r>
       <r>    1.0096    1.0000 </r>
       <r>    1.0299    1.0000 </r>
       <r>    1.0406    1.0000 </r>
       <r>    1.0738    1.0000 </r>
       <r>    1.1487    1.0000 </r>
       <r>    1.1834    1.0000 </r>
       <r>    1.2405    1.0000 </r>
       <r>    1.2715    1.0000 </r>
       <r>    1.2994    1.0000 </r>
       <r>    1.4181    1.0000 </r>
       <r>    1.4698    1.0000 </r>
       <r>    1.5496    1.0000 </r>
       <r>    1.5578    1.0000 </r>
       <r>    1.5678    1.0000 </r>
       <r>    1.6062    1.0000 </r>
       <r>    1.6491    1.0000 </r>
       <r>    1.6916    1.0000 </r>
       <r>    1.7060    1.0000 </r>
       <r>    1.8212    1.0000 </r>
       <r>    1.8724    1.0000 </r>
       <r>    1.9152    1.0000 </r>
       <r>    1.9872    1.0000 </r>
       <r>    2.0467    1.0000 </r>
       <r>    2.0876    1.0000 </r>
       <r>    2.1049    1.0000 </r>
       <r>    2.2394    1.0000 </r>
       <r>    2.2500    1.0000 </r>
       <r>    2.2910    1.0000 </r>
       <r>    2.3597    1.0000 </r>
       <r>    2.3902    1.0000 </r>
       <r>    2.4349    1.0000 </r>
       <r>    2.4901    1.0000 </r>
       <r>    2.5607    1.0000 </r>
       <r>    2.5969    1.0000 </r>
       <r>    2.5996    1.0000 </r>
       <r>    2.6068    1.0000 </r>
       <r>    2.6178    1.0000 </r>
       <r>    2.6226    1.0000 </r>
       <r>    2.6430    1.0000 </r>
       <r>    2.7168    1.0000 </r>
       <r>    2.7645    1.0000 </r>
       <r>    2.7946    1.0000 </r>
       <r>    2.8236    1.0000 </r>
       <r>    2.9259    1.0000 </r>
       <r>    2.9335    1.0000 </r>
       <r>    2.9546    1.0000 </r>
       <r>    3.0101    1.0000 </r>
       <r>    3.0407    1.0000 </r>
       <r>    3.0855    1.0000 </r>
       <r>    3.1403    1.0000 </r>
       <r>    3.1783    1.0000 </r>
       <r>    3.1875    1.0000 </r>
       <r>    3.2061    1.0000 </r>
       <r>    3.2442    1.0000 </r>
       <r>    3.2564    1.0000 </r>
       <r>    3.2782    1.0000 </r>
       <r>    3.2883    1.0000 </r>
       <r>    3.3407    1.0000 </r>
       <r>    3.3882    1.0000 </r>
       <r>    3.4540    1.0000 </r>
       <r>    3.4650    1.0000 </r>
       <r>    3.4977    1.0000 </r>
       <r>    3.6186    1.0000 </r>
       <r>    3.8107    1.0000 </r>
       <r>    4.2473    1.0000 </r>
       <r>    4.2496    1.0000 </r>
       <r>    4.2684    1.0000 </r>
       <r>    4.2742    1.0000 </r>
       <r>    5.1212    0.0000 </r>
       <r>    5.1234    0.0000 </r>
       <r>    5.1512    0.0000 </r>
       <r>    5.1551    0.0000 </r>
       <r>    5.7638    0.0000 </r>
       <r>    5.7672    0.0000 </r>
       <r>    5.7939    0.0000 </r>
       <r>    5.8042    0.0000 </r>
       <r>    6.1554    0.0000 </r>
       <r>    6.1563    0.0000 </r>
       <r>    6.1915    0.0000 </r>
       <r>    6.2059    0.0000 </r>
       <r>    6.2889    0.0000 </r>
       <r>    6.2924    0.0000 </r>
       <r>    6.3198    0.0000 </r>
       <r>    6.3333    0.0000 </r>
       <r>    7.1183    0.0000 </r>
       <r>    7.1674    0.0000 </r>
       <r>    7.2167    0.0000 </r>
       <r>    7.2364    0.0000 </r>
       <r>    7.8397    0.0000 </r>
       <r>    7.8941    0.0000 </r>
       <r>    7.9696    0.0000 </r>
       <r>    8.0183    0.0000 </r>
       <r>    8.0245    0.0000 </r>
       <r>    8.0776    0.0000 </r>
       <r>    8.1446    0.0000 </r>
       <r>    8.2414    0.0000 </r>
       <r>    8.5080    0.0000 </r>
       <r>    8.6284    0.0000 </r>
       <r>    8.7866    0.0000 </r>
       <r>    8.8442    0.0000 </r>
       <r>    8.8575    0.0000 </r>
       <r>    8.8746    0.0000 </r>
       <r>    8.9774    0.0000 </r>
       <r>    9.0048    0.0000 </r>
       <r>    9.0214    0.0000 </r>
       <r>    9.0643    0.0000 </r>
       <r>    9.0696    0.0000 </r>
       <r>    9.1399    0.0000 </r>
       <r>    9.1673    0.0000 </r>
       <r>    9.2054    0.0000 </r>
       <r>    9.2547    0.0000 </r>
       <r>    9.3228    0.0000 </r>
       <r>    9.4212    0.0000 </r>
       <r>    9.5520    0.0000 </r>
       <r>    9.5827    0.0000 </r>
       <r>    9.6628    0.0000 </r>
       <r>    9.7122    0.0000 </r>
       <r>    9.7332    0.0000 </r>
       <r>    9.7575    0.0000 </r>
       <r>    9.8492    0.0000 </r>
       <r>   10.2101    0.0000 </r>
       <r>   10.2525    0.0000 </r>
       <r>   10.2716    0.0000 </r>
       <r>   10.2929    0.0000 </r>
       <r>   10.4042    0.0000 </r>
       <r>   10.4254    0.0000 </r>
       <r>   10.5441    0.0000 </r>
       <r>   10.6226    0.0000 </r>
       <r>   10.6414    0.0000 </r>
       <r>   10.6616    0.0000 </r>
       <r>   11.0743    0.0000 </r>
       <r>   11.2417    0.0000 </r>
       <r>   11.3866    0.0000 </r>
       <r>   11.5185    0.0000 </r>
       <r>   11.5831    0.0000 </r>
       <r>   11.6581    0.0000 </r>
       <r>   11.7046    0.0000 </r>
       <r>   11.8277    0.0000 </r>
       <r>   11.8675    0.0000 </r>
       <r>   11.9260    0.0000 </r>
      </set>
      <set comment="kpoint 2">
       <r>  -40.4617    1.0000 </r>
       <r>  -40.2022    1.0000 </r>
       <r>  -40.1945    1.0000 </r>
       <r>  -40.0292    1.0000 </r>
       <r>  -40.0069    1.0000 </r>
       <r>  -39.8443    1.0000 </r>
       <r>  -39.8243    1.0000 </r>
       <r>  -39.7426    1.0000 </r>
       <r>  -39.5734    1.0000 </r>
       <r>  -39.5362    1.0000 </r>
       <r>  -39.3807    1.0000 </r>
       <r>  -39.1063    1.0000 </r>
       <r>  -18.9792    1.0000 </r>
       <r>  -18.9747    1.0000 </r>
       <r>  -18.9052    1.0000 </r>
       <r>  -18.9036    1.0000 </r>
       <r>  -18.8999    1.0000 </r>
       <r>  -18.8965    1.0000 </r>
       <r>  -18.8937    1.0000 </r>
       <r>  -18.8874    1.0000 </r>
       <r>  -18.8300    1.0000 </r>
       <r>  -18.8228    1.0000 </r>
       <r>  -18.8223    1.0000 </r>
       <r>  -18.8152    1.0000 </r>
       <r>  -18.7996    1.0000 </r>
       <r>  -18.7948    1.0000 </r>
       <r>  -18.7942    1.0000 </r>
       <r>  -18.7908    1.0000 </r>
       <r>  -18.7276    1.0000 </r>
       <r>  -18.7192    1.0000 </r>
       <r>  -18.7159    1.0000 </r>
       <r>  -18.7076    1.0000 </r>
       <r>  -18.7062    1.0000 </r>
       <r>  -18.6971    1.0000 </r>
       <r>  -18.6921    1.0000 </r>
       <r>  -18.6807    1.0000 </r>
       <r>  -18.6696    1.0000 </r>
       <r>  -18.6622    1.0000 </r>
       <r>  -18.6182    1.0000 </r>
       <r>  -18.6095    1.0000 </r>
       <r>  -18.6085    1.0000 </r>
       <r>  -18.6081    1.0000 </r>
       <r>  -18.6017    1.0000 </r>
       <r>  -18.5940    1.0000 </r>
       <r>  -18.5932    1.0000 </r>
       <r>  -18.5926    1.0000 </r>
       <r>  -18.5894    1.0000 </r>
       <r>  -18.5797    1.0000 </r>
       <r>  -18.5785    1.0000 </r>
       <r>  -18.5776    1.0000 </r>
       <r>  -18.5522    1.0000 </r>
       <r>  -18.5448    1.0000 </r>
       <r>  -18.5420    1.0000 </r>
       <r>  -18.5397    1.0000 </r>
       <r>  -18.5320    1.0000 </r>
       <r>  -18.5272    1.0000 </r>
       <r>  -18.5249    1.0000 </r>
       <r>  -18.5210    1.0000 </r>
       <r>  -18.5133    1.0000 </r>
       <r>  -18.5109    1.0000 </r>
       <r>  -18.4620    1.0000 </r>
       <r>  -18.4499    1.0000 </r>
       <r>  -18.4486    1.0000 </r>
       <r>  -18.4480    1.0000 </r>
       <r>  -18.4365    1.0000 </r>
       <r>  -18.4285    1.0000 </r>
       <r>  -18.4274    1.0000 </r>
       <r>  -18.4267    1.0000 </r>
       <r>  -18.3886    1.0000 </r>
       <r>  -18.3775    1.0000 </r>
       <r>  -18.3714    1.0000 </r>
       <r>  -18.3701    1.0000 </r>
       <r>  -18.3657    1.0000 </r>
       <r>  -18.3650    1.0000 </r>
       <r>  -18.3578    1.0000 </r>
       <r>  -18.3526    1.0000 </r>
       <r>  -18.2978    1.0000 </r>
       <r>  -18.2970    1.0000 </r>
       <r>  -18.2875    1.0000 </r>
       <r>  -18.2867    1.0000 </r>
       <r>  -18.2754    1.0000 </r>
       <r>  -18.2718    1.0000 </r>
       <r>  -18.2061    1.0000 </r>
       <r>  -18.2038    1.0000 </r>
       <r>  -18.1623    1.0000 </r>
       <r>  -18.1575    1.0000 </r>
       <r>  -18.1486    1.0000 </r>
       <r>  -18.1441    1.0000 </r>
       <r>  -18.0964    1.0000 </r>
       <r>  -18.0868    1.0000 </r>
       <r>  -18.0779    1.0000 </r>
       <r>  -18.0708    1.0000 </r>
       <r>  -13.6564    1.0000 </r>
       <r>  -13.5358    1.0000 </r>
       <r>  -13.4699    1.0000 </r>
       <r>  -13.4491    1.0000 </r>
       <r>  -12.8670    1.0000 </r>
       <r>  -12.7486    1.0000 </r>
       <r>  -12.6984    1.0000 </r>
       <r>  -12.6852    1.0000 </r>
       <r>  -12.6163    1.0000 </r>
       <r>  -12.6101    1.0000 </r>
       <r>  -12.5822    1.0000 </r>
       <r>  -12.5321    1.0000 </r>
       <r>  -11.9438    1.0000 </r>
       <r>  -11.9104    1.0000 </r>
       <r>  -11.8474    1.0000 </r>
       <r>  -11.8115    1.0000 </r>
       <r>   -9.1731    1.0000 </r>
       <r>   -9.0195    1.0000 </r>
       <r>   -8.9024    1.0000 </r>
       <r>   -8.7456    1.0000 </r>
       <r>   -8.3727    1.0000 </r>
       <r>   -8.3396    1.0000 </r>
       <r>   -8.2416    1.0000 </r>
       <r>   -8.2041    1.0000 </r>
       <r>   -8.1787    1.0000 </r>
       <r>   -8.1373    1.0000 </r>
       <r>   -8.0475    1.0000 </r>
       <r>   -8.0004    1.0000 </r>
       <r>   -7.7049    1.0000 </r>
       <r>   -7.6028    1.0000 </r>
       <r>   -7.5864    1.0000 </r>
       <r>   -7.4839    1.0000 </r>
       <r>   -6.0335    1.0000 </r>
       <r>   -6.0056    1.0000 </r>
       <r>   -5.9326    1.0000 </r>
       <r>   -5.8624    1.0000 </r>
       <r>   -5.8198    1.0000 </r>
       <r>   -5.7853    1.0000 </r>
       <r>   -5.6934    1.0000 </r>
       <r>   -5.6329    1.0000 </r>
       <r>   -5.5739    1.0000 </r>
       <r>   -5.5683    1.0000 </r>
       <r>   -5.3900    1.0000 </r>
       <r>   -5.3633    1.0000 </r>
       <r>   -4.4520    1.0000 </r>
       <r>   -4.3029    1.0000 </r>
       <r>   -4.2802    1.0000 </r>
       <r>   -4.1231    1.0000 </r>
       <r>   -1.2056    1.0000 </r>
       <r>   -1.0202    1.0000 </r>
       <r>   -0.8683    1.0000 </r>
       <r>   -0.6972    1.0000 </r>
       <r>   -0.5248    1.0000 </r>
       <r>   -0.3312    1.0000 </r>
       <r>   -0.0566    1.0000 </r>
       <r>   -0.0010    1.0000 </r>
       <r>    0.0082    1.0000 </r>
       <r>    0.0168    1.0000 </r>
       <r>    0.0901    1.0000 </r>
       <r>    0.1206    1.0000 </r>
       <r>    0.1856    1.0000 </r>
       <r>    0.2800    1.0000 </r>
       <r>    0.3345    1.0000 </r>
       <r>    0.3947    1.0000 </r>
       <r>    0.4927    1.0000 </r>
       <r>    0.5240    1.0000 </r>
       <r>    0.5623    1.0000 </r>
       <r>    0.6344    1.0000 </r>
       <r>    0.6443    1.0000 </r>
       <r>    0.6896    1.0000 </r>
       <r>    0.7106    1.0000 </r>
       <r>    0.7377    1.0000 </r>
       <r>    0.7534    1.0000 </r>
       <r>    0.8116    1.0000 </r>
       <r>    0.8763    1.0000 </r>
       <r>    0.8933    1.0000 </r>
       <r>    0.9624    1.0000 </r>
       <r>    0.9772    1.0000 </r>
       <r>    1.0423    1.0000 </r>
       <r>    1.0863    1.0000 </r>
       <r>    1.0878    1.0000 </r>
       <r>    1.1377    1.0000 </r>
       <r>    1.2094    1.0000 </r>
       <r>    1.2908    1.0000 </r>
       <r>    1.3540    1.0000 </r>
       <r>    1.3762    1.0000 </r>
       <r>    1.3985    1.0000 </r>
       <r>    1.4403    1.0000 </r>
       <r>    1.4826    1.0000 </r>
       <r>    1.5427    1.0000 </r>
       <r>    1.5780    1.0000 </r>
       <r>    1.6107    1.0000 </r>
       <r>    1.6461    1.0000 </r>
       <r>    1.6658    1.0000 </r>
       <r>    1.7454    1.0000 </r>
       <r>    1.8119    1.0000 </r>
       <r>    1.8541    1.0000 </r>
       <r>    1.8889    1.0000 </r>
       <r>    1.9576    1.0000 </r>
       <r>    1.9942    1.0000 </r>
       <r>    2.0365    1.0000 </r>
       <r>    2.0811    1.0000 </r>
       <r>    2.0878    1.0000 </r>
       <r>    2.1636    1.0000 </r>
       <r>    2.1881    1.0000 </r>
       <r>    2.2213    1.0000 </r>
       <r>    2.2506    1.0000 </r>
       <r>    2.3027    1.0000 </r>
       <r>    2.3376    1.0000 </r>
       <r>    2.3862    1.0000 </r>
       <r>    2.4131    1.0000 </r>
       <r>    2.4723    1.0000 </r>
       <r>    2.5320    1.0000 </r>
       <r>    2.5464    1.0000 </r>
       <r>    2.5731    1.0000 </r>
       <r>    2.5987    1.0000 </r>
       <r>    2.6883    1.0000 </r>
       <r>    2.7125    1.0000 </r>
       <r>    2.7272    1.0000 </r>
       <r>    2.7621    1.0000 </r>
       <r>    2.7823    1.0000 </r>
       <r>    2.8218    1.0000 </r>
       <r>    2.8523    1.0000 </r>
       <r>    2.9154    1.0000 </r>
       <r>    2.9302    1.0000 </r>
       <r>    3.0050    1.0000 </r>
       <r>    3.0333    1.0000 </r>
       <r>    3.1037    1.0000 </r>
       <r>    3.1238    1.0000 </r>
       <r>    3.1666    1.0000 </r>
       <r>    3.2028    1.0000 </r>
       <r>    3.2250    1.0000 </r>
       <r>    3.2513    1.0000 </r>
       <r>    3.2872    1.0000 </r>
       <r>    3.3474    1.0000 </r>
       <r>    3.4632    1.0000 </r>
       <r>    3.5215    1.0000 </r>
       <r>    3.5747    1.0000 </r>
       <r>    3.6045    1.0000 </r>
       <r>    3.6269    1.0000 </r>
       <r>    3.6905    1.0000 </r>
       <r>    3.7260    1.0000 </r>
       <r>    3.8312    1.0000 </r>
       <r>    3.9441    1.0000 </r>
       <r>    5.5916    0.0000 </r>
       <r>    5.6005    0.0000 </r>
       <r>    5.7492    0.0000 </r>
       <r>    5.7540    0.0000 </r>
       <r>    5.7786    0.0000 </r>
       <r>    5.7882    0.0000 </r>
       <r>    5.9281    0.0000 </r>
       <r>    5.9387    0.0000 </r>
       <r>    7.1751    0.0000 </r>
       <r>    7.2101    0.0000 </r>
       <r>    7.2424    0.0000 </r>
       <r>    7.2953    0.0000 </r>
       <r>    7.3511    0.0000 </r>
       <r>    7.3816    0.0000 </r>
       <r>    7.4219    0.0000 </r>
       <r>    7.4772    0.0000 </r>
       <r>    7.4873    0.0000 </r>
       <r>    7.5374    0.0000 </r>
       <r>    7.5922    0.0000 </r>
       <r>    7.6326    0.0000 </r>
       <r>    7.8113    0.0000 </r>
       <r>    7.8699    0.0000 </r>
       <r>    7.8925    0.0000 </r>
       <r>    7.9004    0.0000 </r>
       <r>    7.9248    0.0000 </r>
       <r>    7.9684    0.0000 </r>
       <r>    8.0043    0.0000 </r>
       <r>    8.0141    0.0000 </r>
       <r>    8.0350    0.0000 </r>
       <r>    8.0794    0.0000 </r>
       <r>    8.1405    0.0000 </r>
       <r>    8.2147    0.0000 </r>
       <r>    8.3532    0.0000 </r>
       <r>    8.4771    0.0000 </r>
       <r>    8.5392    0.0000 </r>
       <r>    8.6427    0.0000 </r>
       <r>    8.6752    0.0000 </r>
       <r>    8.7676    0.0000 </r>
       <r>    8.7707    0.0000 </r>
       <r>    8.7907    0.0000 </r>
       <r>    8.8316    0.0000 </r>
       <r>    8.9204    0.0000 </r>
       <r>    8.9838    0.0000 </r>
       <r>    8.9932    0.0000 </r>
       <r>    9.1231    0.0000 </r>
       <r>    9.3037    0.0000 </r>
       <r>    9.3953    0.0000 </r>
       <r>    9.4033    0.0000 </r>
       <r>    9.6130    0.0000 </r>
       <r>    9.6674    0.0000 </r>
       <r>   10.2431    0.0000 </r>
       <r>   10.3577    0.0000 </r>
       <r>   10.4597    0.0000 </r>
       <r>   10.4974    0.0000 </r>
       <r>   10.5638    0.0000 </r>
       <r>   10.5860    0.0000 </r>
       <r>   10.6097    0.0000 </r>
       <r>   10.6548    0.0000 </r>
       <r>   10.7625    0.0000 </r>
       <r>   10.8048    0.0000 </r>
       <r>   10.8217    0.0000 </r>
       <r>   10.8419    0.0000 </r>
       <r>   10.9242    0.0000 </r>
       <r>   11.1268    0.0000 </r>
       <r>   11.2234    0.0000 </r>
       <r>   11.2942    0.0000 </r>
       <r>   11.3556    0.0000 </r>
       <r>   11.3750    0.0000 </r>
       <r>   11.4323    0.0000 </r>
       <r>   11.4837    0.0000 </r>
       <r>   11.5252    0.0000 </r>
       <r>   11.6210    0.0000 </r>
      </set>
      <set comment="kpoint 3">
       <r>  -40.4617    1.0000 </r>
       <r>  -40.2022    1.0000 </r>
       <r>  -40.1945    1.0000 </r>
       <r>  -40.0292    1.0000 </r>
       <r>  -40.0069    1.0000 </r>
       <r>  -39.8443    1.0000 </r>
       <r>  -39.8243    1.0000 </r>
       <r>  -39.7426    1.0000 </r>
       <r>  -39.5734    1.0000 </r>
       <r>  -39.5362    1.0000 </r>
       <r>  -39.3807    1.0000 </r>
       <r>  -39.1063    1.0000 </r>
       <r>  -18.9793    1.0000 </r>
       <r>  -18.9746    1.0000 </r>
       <r>  -18.9052    1.0000 </r>
       <r>  -18.9037    1.0000 </r>
       <r>  -18.9000    1.0000 </r>
       <r>  -18.8965    1.0000 </r>
       <r>  -18.8937    1.0000 </r>
       <r>  -18.8875    1.0000 </r>
       <r>  -18.8300    1.0000 </r>
       <r>  -18.8228    1.0000 </r>
       <r>  -18.8223    1.0000 </r>
       <r>  -18.8152    1.0000 </r>
       <r>  -18.7996    1.0000 </r>
       <r>  -18.7948    1.0000 </r>
       <r>  -18.7942    1.0000 </r>
       <r>  -18.7908    1.0000 </r>
       <r>  -18.7276    1.0000 </r>
       <r>  -18.7192    1.0000 </r>
       <r>  -18.7160    1.0000 </r>
       <r>  -18.7075    1.0000 </r>
       <r>  -18.7062    1.0000 </r>
       <r>  -18.6970    1.0000 </r>
       <r>  -18.6921    1.0000 </r>
       <r>  -18.6806    1.0000 </r>
       <r>  -18.6696    1.0000 </r>
       <r>  -18.6622    1.0000 </r>
       <r>  -18.6181    1.0000 </r>
       <r>  -18.6095    1.0000 </r>
       <r>  -18.6084    1.0000 </r>
       <r>  -18.6080    1.0000 </r>
       <r>  -18.6016    1.0000 </r>
       <r>  -18.5939    1.0000 </r>
       <r>  -18.5928    1.0000 </r>
       <r>  -18.5925    1.0000 </r>
       <r>  -18.5899    1.0000 </r>
       <r>  -18.5798    1.0000 </r>
       <r>  -18.5787    1.0000 </r>
       <r>  -18.5779    1.0000 </r>
       <r>  -18.5522    1.0000 </r>
       <r>  -18.5448    1.0000 </r>
       <r>  -18.5420    1.0000 </r>
       <r>  -18.5397    1.0000 </r>
       <r>  -18.5319    1.0000 </r>
       <r>  -18.5272    1.0000 </r>
       <r>  -18.5250    1.0000 </r>
       <r>  -18.5210    1.0000 </r>
       <r>  -18.5133    1.0000 </r>
       <r>  -18.5109    1.0000 </r>
       <r>  -18.4620    1.0000 </r>
       <r>  -18.4499    1.0000 </r>
       <r>  -18.4486    1.0000 </r>
       <r>  -18.4480    1.0000 </r>
       <r>  -18.4365    1.0000 </r>
       <r>  -18.4285    1.0000 </r>
       <r>  -18.4275    1.0000 </r>
       <r>  -18.4267    1.0000 </r>
       <r>  -18.3886    1.0000 </r>
       <r>  -18.3775    1.0000 </r>
       <r>  -18.3714    1.0000 </r>
       <r>  -18.3701    1.0000 </r>
       <r>  -18.3655    1.0000 </r>
       <r>  -18.3651    1.0000 </r>
       <r>  -18.3578    1.0000 </r>
       <r>  -18.3526    1.0000 </r>
       <r>  -18.2978    1.0000 </r>
       <r>  -18.2970    1.0000 </r>
       <r>  -18.2875    1.0000 </r>
       <r>  -18.2867    1.0000 </r>
       <r>  -18.2754    1.0000 </r>
       <r>  -18.2718    1.0000 </r>
       <r>  -18.2061    1.0000 </r>
       <r>  -18.2037    1.0000 </r>
       <r>  -18.1623    1.0000 </r>
       <r>  -18.1575    1.0000 </r>
       <r>  -18.1486    1.0000 </r>
       <r>  -18.1441    1.0000 </r>
       <r>  -18.0964    1.0000 </r>
       <r>  -18.0868    1.0000 </r>
       <r>  -18.0779    1.0000 </r>
       <r>  -18.0708    1.0000 </r>
       <r>  -13.6567    1.0000 </r>
       <r>  -13.5357    1.0000 </r>
       <r>  -13.4679    1.0000 </r>
       <r>  -13.4506    1.0000 </r>
       <r>  -12.8664    1.0000 </r>
       <r>  -12.7495    1.0000 </r>
       <r>  -12.6975    1.0000 </r>
       <r>  -12.6843    1.0000 </r>
       <r>  -12.6214    1.0000 </r>
       <r>  -12.6072    1.0000 </r>
       <r>  -12.5813    1.0000 </r>
       <r>  -12.5326    1.0000 </r>
       <r>  -11.9388    1.0000 </r>
       <r>  -11.9150    1.0000 </r>
       <r>  -11.8474    1.0000 </r>
       <r>  -11.8131    1.0000 </r>
       <r>   -9.3105    1.0000 </r>
       <r>   -9.0329    1.0000 </r>
       <r>   -8.5423    1.0000 </r>
       <r>   -8.4929    1.0000 </r>
       <r>   -8.4610    1.0000 </r>
       <r>   -8.4549    1.0000 </r>
       <r>   -8.2844    1.0000 </r>
       <r>   -8.2413    1.0000 </r>
       <r>   -8.2052    1.0000 </r>
       <r>   -8.1952    1.0000 </r>
       <r>   -7.9736    1.0000 </r>
       <r>   -7.9592    1.0000 </r>
       <r>   -7.9429    1.0000 </r>
       <r>   -7.9300    1.0000 </r>
       <r>   -7.3188    1.0000 </r>
       <r>   -7.3175    1.0000 </r>
       <r>   -6.3424    1.0000 </r>
       <r>   -6.3371    1.0000 </r>
       <r>   -6.3308    1.0000 </r>
       <r>   -6.3256    1.0000 </r>
       <r>   -5.5591    1.0000 </r>
       <r>   -5.5288    1.0000 </r>
       <r>   -5.3725    1.0000 </r>
       <r>   -5.3605    1.0000 </r>
       <r>   -5.2876    1.0000 </r>
       <r>   -5.2039    1.0000 </r>
       <r>   -5.0847    1.0000 </r>
       <r>   -5.0702    1.0000 </r>
       <r>   -5.0058    1.0000 </r>
       <r>   -4.9391    1.0000 </r>
       <r>   -3.8269    1.0000 </r>
       <r>   -3.5188    1.0000 </r>
       <r>   -1.3092    1.0000 </r>
       <r>   -1.2918    1.0000 </r>
       <r>   -1.1518    1.0000 </r>
       <r>   -1.1185    1.0000 </r>
       <r>   -0.4095    1.0000 </r>
       <r>   -0.3883    1.0000 </r>
       <r>   -0.3818    1.0000 </r>
       <r>   -0.3643    1.0000 </r>
       <r>   -0.3470    1.0000 </r>
       <r>   -0.3164    1.0000 </r>
       <r>   -0.2652    1.0000 </r>
       <r>   -0.2199    1.0000 </r>
       <r>   -0.2131    1.0000 </r>
       <r>   -0.0975    1.0000 </r>
       <r>   -0.0139    1.0000 </r>
       <r>    0.0849    1.0000 </r>
       <r>    0.1912    1.0000 </r>
       <r>    0.3386    1.0000 </r>
       <r>    0.3751    1.0000 </r>
       <r>    0.5214    1.0000 </r>
       <r>    0.6568    1.0000 </r>
       <r>    0.6908    1.0000 </r>
       <r>    0.7336    1.0000 </r>
       <r>    0.7708    1.0000 </r>
       <r>    0.8138    1.0000 </r>
       <r>    0.8258    1.0000 </r>
       <r>    0.8675    1.0000 </r>
       <r>    0.9159    1.0000 </r>
       <r>    0.9648    1.0000 </r>
       <r>    1.0791    1.0000 </r>
       <r>    1.1228    1.0000 </r>
       <r>    1.1376    1.0000 </r>
       <r>    1.2198    1.0000 </r>
       <r>    1.2635    1.0000 </r>
       <r>    1.3007    1.0000 </r>
       <r>    1.3726    1.0000 </r>
       <r>    1.4037    1.0000 </r>
       <r>    1.4231    1.0000 </r>
       <r>    1.4637    1.0000 </r>
       <r>    1.5713    1.0000 </r>
       <r>    1.6478    1.0000 </r>
       <r>    1.7219    1.0000 </r>
       <r>    1.7873    1.0000 </r>
       <r>    1.8300    1.0000 </r>
       <r>    1.8374    1.0000 </r>
       <r>    1.9256    1.0000 </r>
       <r>    1.9667    1.0000 </r>
       <r>    2.0119    1.0000 </r>
       <r>    2.0355    1.0000 </r>
       <r>    2.0999    1.0000 </r>
       <r>    2.1296    1.0000 </r>
       <r>    2.1764    1.0000 </r>
       <r>    2.2013    1.0000 </r>
       <r>    2.2705    1.0000 </r>
       <r>    2.2980    1.0000 </r>
       <r>    2.3207    1.0000 </r>
       <r>    2.4043    1.0000 </r>
       <r>    2.4806    1.0000 </r>
       <r>    2.4995    1.0000 </r>
       <r>    2.5298    1.0000 </r>
       <r>    2.5457    1.0000 </r>
       <r>    2.5714    1.0000 </r>
       <r>    2.5927    1.0000 </r>
       <r>    2.5989    1.0000 </r>
       <r>    2.6051    1.0000 </r>
       <r>    2.6198    1.0000 </r>
       <r>    2.6260    1.0000 </r>
       <r>    2.6573    1.0000 </r>
       <r>    2.7426    1.0000 </r>
       <r>    2.8084    1.0000 </r>
       <r>    2.8600    1.0000 </r>
       <r>    2.8741    1.0000 </r>
       <r>    2.9102    1.0000 </r>
       <r>    2.9676    1.0000 </r>
       <r>    3.0035    1.0000 </r>
       <r>    3.0192    1.0000 </r>
       <r>    3.0446    1.0000 </r>
       <r>    3.0707    1.0000 </r>
       <r>    3.1153    1.0000 </r>
       <r>    3.1451    1.0000 </r>
       <r>    3.1708    1.0000 </r>
       <r>    3.2332    1.0000 </r>
       <r>    3.3395    1.0000 </r>
       <r>    3.3995    1.0000 </r>
       <r>    3.4232    1.0000 </r>
       <r>    3.4664    1.0000 </r>
       <r>    3.4869    1.0000 </r>
       <r>    3.5107    1.0000 </r>
       <r>    3.5276    1.0000 </r>
       <r>    3.5785    1.0000 </r>
       <r>    3.6129    1.0000 </r>
       <r>    3.7630    1.0000 </r>
       <r>    4.2978    1.0000 </r>
       <r>    4.3030    1.0000 </r>
       <r>    4.3181    1.0000 </r>
       <r>    4.3278    1.0000 </r>
       <r>    5.1880    0.0000 </r>
       <r>    5.1899    0.0000 </r>
       <r>    5.2178    0.0000 </r>
       <r>    5.2227    0.0000 </r>
       <r>    5.7716    0.0000 </r>
       <r>    5.7792    0.0000 </r>
       <r>    5.8071    0.0000 </r>
       <r>    5.8100    0.0000 </r>
       <r>    6.2125    0.0000 </r>
       <r>    6.2130    0.0000 </r>
       <r>    6.2438    0.0000 </r>
       <r>    6.2519    0.0000 </r>
       <r>    6.2996    0.0000 </r>
       <r>    6.3030    0.0000 </r>
       <r>    6.3296    0.0000 </r>
       <r>    6.3472    0.0000 </r>
       <r>    6.6922    0.0000 </r>
       <r>    6.9082    0.0000 </r>
       <r>    6.9339    0.0000 </r>
       <r>    6.9823    0.0000 </r>
       <r>    7.3220    0.0000 </r>
       <r>    7.3822    0.0000 </r>
       <r>    7.4894    0.0000 </r>
       <r>    7.6380    0.0000 </r>
       <r>    7.8400    0.0000 </r>
       <r>    7.9132    0.0000 </r>
       <r>    7.9327    0.0000 </r>
       <r>    7.9711    0.0000 </r>
       <r>    8.0834    0.0000 </r>
       <r>    8.4119    0.0000 </r>
       <r>    8.4458    0.0000 </r>
       <r>    8.4832    0.0000 </r>
       <r>    8.6910    0.0000 </r>
       <r>    8.8619    0.0000 </r>
       <r>    8.8788    0.0000 </r>
       <r>    8.9047    0.0000 </r>
       <r>    9.0336    0.0000 </r>
       <r>    9.0766    0.0000 </r>
       <r>    9.0952    0.0000 </r>
       <r>    9.1077    0.0000 </r>
       <r>    9.1517    0.0000 </r>
       <r>    9.1888    0.0000 </r>
       <r>    9.2127    0.0000 </r>
       <r>    9.2792    0.0000 </r>
       <r>    9.5197    0.0000 </r>
       <r>    9.5509    0.0000 </r>
       <r>    9.7214    0.0000 </r>
       <r>    9.7536    0.0000 </r>
       <r>    9.7761    0.0000 </r>
       <r>    9.8016    0.0000 </r>
[...]
       <r>   11.3283    0.0000 </r>
       <r>   11.3745    0.0000 </r>
       <r>   11.4379    0.0000 </r>
       <r>   11.4806    0.0000 </r>
      </set>
     </set>
    </set>
   </array>
  </eigenvalues>
  <separator name="orbital magnetization" >
   <v name="MAGDIPOLOUT">      0.00000000      0.00000000      0.00000000</v>
  </separator>
  <dos>
   <i name="efermi">      4.43962449 </i>
   <total>
    <array>
     <dimension dim="1">gridpoints</dimension>
     <dimension dim="2">spin</dimension>
     <field>energy</field>
     <field>total</field>
     <field>integrated</field>
     <set>
      <set comment="spin 1">
       <r>   -43.1053     0.0000     0.0000 </r>
       <r>   -42.9114     0.0000     0.0000 </r>
       <r>   -42.7175     0.0000     0.0000 </r>
       <r>   -42.5237     0.0000     0.0000 </r>
       <r>   -42.3298     0.0000     0.0000 </r>
       <r>   -42.1360     0.0000     0.0000 </r>
       <r>   -41.9421     0.0000     0.0000 </r>
       <r>   -41.7482     0.0000     0.0000 </r>
       <r>   -41.5544     0.0000     0.0000 </r>
       <r>   -41.3605     0.0000     0.0000 </r>
       <r>   -41.1666     0.0000     0.0000 </r>
       <r>   -40.9728     0.0000     0.0000 </r>
       <r>   -40.7789     0.0000     0.0000 </r>
       <r>   -40.5851     0.0000     0.0000 </r>
       <r>   -40.3912     0.0000     2.0000 </r>
       <r>   -40.1973     0.0000     4.0000 </r>
       <r>   -40.0035     0.0000    10.0000 </r>
       <r>   -39.8096     0.0000    14.0000 </r>
       <r>   -39.6157     0.0000    16.0000 </r>
       <r>   -39.4219     0.0000    20.0000 </r>
       <r>   -39.2280     0.0000    22.0000 </r>
       <r>   -39.0341     0.0000    24.0000 </r>
       <r>   -38.8403     0.0000    24.0000 </r>
       <r>   -38.6464     0.0000    24.0000 </r>
       <r>   -38.4526     0.0000    24.0000 </r>
       <r>   -38.2587     0.0000    24.0000 </r>
       <r>   -38.0648     0.0000    24.0000 </r>
       <r>   -37.8710     0.0000    24.0000 </r>
       <r>   -37.6771     0.0000    24.0000 </r>
       <r>   -37.4832     0.0000    24.0000 </r>
       <r>   -37.2894     0.0000    24.0000 </r>
       <r>   -37.0955     0.0000    24.0000 </r>
       <r>   -36.9017     0.0000    24.0000 </r>
       <r>   -36.7078     0.0000    24.0000 </r>
       <r>   -36.5139     0.0000    24.0000 </r>
       <r>   -36.3201     0.0000    24.0000 </r>
       <r>   -36.1262     0.0000    24.0000 </r>
       <r>   -35.9323     0.0000    24.0000 </r>
       <r>   -35.7385     0.0000    24.0000 </r>
       <r>   -35.5446     0.0000    24.0000 </r>
       <r>   -35.3508     0.0000    24.0000 </r>
       <r>   -35.1569     0.0000    24.0000 </r>
       <r>   -34.9630     0.0000    24.0000 </r>
       <r>   -34.7692     0.0000    24.0000 </r>
       <r>   -34.5753     0.0000    24.0000 </r>
       <r>   -34.3814     0.0000    24.0000 </r>
       <r>   -34.1876     0.0000    24.0000 </r>
       <r>   -33.9937     0.0000    24.0000 </r>
       <r>   -33.7998     0.0000    24.0000 </r>
       <r>   -33.6060     0.0000    24.0000 </r>
       <r>   -33.4121     0.0000    24.0000 </r>
       <r>   -33.2183     0.0000    24.0000 </r>
       <r>   -33.0244     0.0000    24.0000 </r>
       <r>   -32.8305     0.0000    24.0000 </r>
       <r>   -32.6367     0.0000    24.0000 </r>
       <r>   -32.4428     0.0000    24.0000 </r>
       <r>   -32.2489     0.0000    24.0000 </r>
       <r>   -32.0551     0.0000    24.0000 </r>
       <r>   -31.8612     0.0000    24.0000 </r>
       <r>   -31.6674     0.0000    24.0000 </r>
       <r>   -31.4735     0.0000    24.0000 </r>
       <r>   -31.2796     0.0000    24.0000 </r>
       <r>   -31.0858     0.0000    24.0000 </r>
       <r>   -30.8919     0.0000    24.0000 </r>
       <r>   -30.6980     0.0000    24.0000 </r>
       <r>   -30.5042     0.0000    24.0000 </r>
       <r>   -30.3103     0.0000    24.0000 </r>
       <r>   -30.1165     0.0000    24.0000 </r>
       <r>   -29.9226     0.0000    24.0000 </r>
       <r>   -29.7287     0.0000    24.0000 </r>
       <r>   -29.5349     0.0000    24.0000 </r>
       <r>   -29.3410     0.0000    24.0000 </r>
       <r>   -29.1471     0.0000    24.0000 </r>
       <r>   -28.9533     0.0000    24.0000 </r>
       <r>   -28.7594     0.0000    24.0000 </r>
       <r>   -28.5655     0.0000    24.0000 </r>
       <r>   -28.3717     0.0000    24.0000 </r>
       <r>   -28.1778     0.0000    24.0000 </r>
       <r>   -27.9840     0.0000    24.0000 </r>
       <r>   -27.7901     0.0000    24.0000 </r>
       <r>   -27.5962     0.0000    24.0000 </r>
       <r>   -27.4024     0.0000    24.0000 </r>
       <r>   -27.2085     0.0000    24.0000 </r>
       <r>   -27.0146     0.0000    24.0000 </r>
       <r>   -26.8208     0.0000    24.0000 </r>
       <r>   -26.6269     0.0000    24.0000 </r>
       <r>   -26.4331     0.0000    24.0000 </r>
       <r>   -26.2392     0.0000    24.0000 </r>
       <r>   -26.0453     0.0000    24.0000 </r>
       <r>   -25.8515     0.0000    24.0000 </r>
       <r>   -25.6576     0.0000    24.0000 </r>
       <r>   -25.4637     0.0000    24.0000 </r>
       <r>   -25.2699     0.0000    24.0000 </r>
       <r>   -25.0760     0.0000    24.0000 </r>
       <r>   -24.8822     0.0000    24.0000 </r>
       <r>   -24.6883     0.0000    24.0000 </r>
       <r>   -24.4944     0.0000    24.0000 </r>
       <r>   -24.3006     0.0000    24.0000 </r>
       <r>   -24.1067     0.0000    24.0000 </r>
       <r>   -23.9128     0.0000    24.0000 </r>
       <r>   -23.7190     0.0000    24.0000 </r>
       <r>   -23.5251     0.0000    24.0000 </r>
       <r>   -23.3312     0.0000    24.0000 </r>
       <r>   -23.1374     0.0000    24.0000 </r>
       <r>   -22.9435     0.0000    24.0000 </r>
       <r>   -22.7497     0.0000    24.0000 </r>
       <r>   -22.5558     0.0000    24.0000 </r>
       <r>   -22.3619     0.0000    24.0000 </r>
       <r>   -22.1681     0.0000    24.0000 </r>
       <r>   -21.9742     0.0000    24.0000 </r>
       <r>   -21.7803     0.0000    24.0000 </r>
       <r>   -21.5865     0.0000    24.0000 </r>
       <r>   -21.3926     0.0000    24.0000 </r>
       <r>   -21.1988     0.0000    24.0000 </r>
       <r>   -21.0049     0.0000    24.0000 </r>
       <r>   -20.8110     0.0000    24.0000 </r>
       <r>   -20.6172     0.0000    24.0000 </r>
       <r>   -20.4233     0.0000    24.0000 </r>
       <r>   -20.2294     0.0000    24.0000 </r>
       <r>   -20.0356     0.0000    24.0000 </r>
       <r>   -19.8417     0.0000    24.0000 </r>
       <r>   -19.6479     0.0000    24.0000 </r>
       <r>   -19.4540     0.0000    24.0000 </r>
       <r>   -19.2601     0.0000    24.0000 </r>
       <r>   -19.0663     0.0000    24.0000 </r>
       <r>   -18.8724     0.0000    40.0000 </r>
       <r>   -18.6785     0.0000    72.0000 </r>
       <r>   -18.4847     0.0000   120.0000 </r>
       <r>   -18.2908     0.0000   156.0000 </r>
       <r>   -18.0969     0.0000   176.0000 </r>
       <r>   -17.9031     0.0000   184.0000 </r>
       <r>   -17.7092     0.0000   184.0000 </r>
       <r>   -17.5154     0.0000   184.0000 </r>
       <r>   -17.3215     0.0000   184.0000 </r>
       <r>   -17.1276     0.0000   184.0000 </r>
       <r>   -16.9338     0.0000   184.0000 </r>
       <r>   -16.7399     0.0000   184.0000 </r>
       <r>   -16.5460     0.0000   184.0000 </r>
       <r>   -16.3522     0.0000   184.0000 </r>
       <r>   -16.1583     0.0000   184.0000 </r>
       <r>   -15.9645     0.0000   184.0000 </r>
       <r>   -15.7706     0.0000   184.0000 </r>
       <r>   -15.5767     0.0000   184.0000 </r>
       <r>   -15.3829     0.0000   184.0000 </r>
       <r>   -15.1890     0.0000   184.0000 </r>
       <r>   -14.9951     0.0000   184.0000 </r>
       <r>   -14.8013     0.0000   184.0000 </r>
       <r>   -14.6074     0.0000   184.0000 </r>
       <r>   -14.4136     0.0000   184.0000 </r>
       <r>   -14.2197     0.0000   184.0000 </r>
       <r>   -14.0258     0.0000   184.0000 </r>
       <r>   -13.8320     0.0000   184.0000 </r>
       <r>   -13.6381     0.0000   186.0000 </r>
       <r>   -13.4442     0.0000   192.0000 </r>
       <r>   -13.2504     0.0000   192.0000 </r>
       <r>   -13.0565     0.0000   192.0000 </r>
       <r>   -12.8626     0.0000   194.0000 </r>
       <r>   -12.6688     0.0000   200.0000 </r>
       <r>   -12.4749     0.0000   208.0000 </r>
       <r>   -12.2811     0.0000   208.0000 </r>
       <r>   -12.0872     0.0000   208.0000 </r>
       <r>   -11.8933     0.0000   212.0000 </r>
       <r>   -11.6995     0.0000   216.0000 </r>
       <r>   -11.5056     0.0000   216.0000 </r>
       <r>   -11.3117     0.0000   216.0000 </r>
       <r>   -11.1179     0.0000   216.0000 </r>
       <r>   -10.9240     0.0000   216.0000 </r>
       <r>   -10.7302     0.0000   216.0000 </r>
       <r>   -10.5363     0.0000   216.0000 </r>
       <r>   -10.3424     0.0000   216.0000 </r>
       <r>   -10.1486     0.0000   216.0000 </r>
       <r>    -9.9547     0.0000   216.0000 </r>
       <r>    -9.7608     0.0000   216.0000 </r>
       <r>    -9.5670     0.0000   216.0000 </r>
       <r>    -9.3731     0.0000   216.0000 </r>
       <r>    -9.1792    14.4306   217.1158 </r>
       <r>    -8.9854    24.3830   219.0739 </r>
       <r>    -8.7915     7.5691   221.1798 </r>
       <r>    -8.5977    12.9748   223.8980 </r>
       <r>    -8.4038    36.9005   227.8033 </r>
       <r>    -8.2099     3.4055   232.0081 </r>
       <r>    -8.0161    19.0869   235.1651 </r>
       <r>    -7.8222    18.9045   240.0904 </r>
       <r>    -7.6283    19.2411   243.6369 </r>
       <r>    -7.4345    17.8330   246.9480 </r>
       <r>    -7.2406     0.0000   248.0000 </r>
       <r>    -7.0468     0.0000   248.0000 </r>
       <r>    -6.8529     0.0000   248.0000 </r>
       <r>    -6.6590     0.0000   248.0000 </r>
       <r>    -6.4652     0.0000   248.0000 </r>
       <r>    -6.2713    10.2868   248.3625 </r>
       <r>    -6.0774    29.9200   252.6272 </r>
       <r>    -5.8836     9.1161   256.0068 </r>
       <r>    -5.6897    33.1647   259.4000 </r>
       <r>    -5.4959    19.4019   264.1240 </r>
       <r>    -5.3020    22.6188   267.6969 </r>
       <r>    -5.1081    12.6367   271.1022 </r>
       <r>    -4.9143     3.9967   272.1901 </r>
       <r>    -4.7204     8.1958   273.5519 </r>
       <r>    -4.5265     9.7825   275.3262 </r>
       <r>    -4.3327     7.9357   276.8930 </r>
       <r>    -4.1388     6.6874   278.1816 </r>
       <r>    -3.9449     4.3987   279.3163 </r>
       <r>    -3.7511     1.4678   279.8574 </r>
       <r>    -3.5572     0.0693   279.9991 </r>
       <r>    -3.3634     0.0000   280.0000 </r>
       <r>    -3.1695     0.0000   280.0000 </r>
       <r>    -2.9756     0.0000   280.0000 </r>
       <r>    -2.7818     0.0000   280.0000 </r>
       <r>    -2.5879     0.0000   280.0000 </r>
       <r>    -2.3940     0.0000   280.0000 </r>
       <r>    -2.2002     0.0000   280.0000 </r>
       <r>    -2.0063     0.0000   280.0000 </r>
       <r>    -1.8125     0.0000   280.0000 </r>
       <r>    -1.6186     0.0000   280.0000 </r>
       <r>    -1.4247     0.0000   280.0000 </r>
       <r>    -1.2309     7.8355   280.4616 </r>
       <r>    -1.0370    11.3276   282.1076 </r>
       <r>    -0.8431    11.6283   284.6001 </r>
       <r>    -0.6493     7.8678   286.6028 </r>
       <r>    -0.4554    13.8208   288.4718 </r>
       <r>    -0.2616    24.2812   292.1810 </r>
       <r>    -0.0677    42.4967   298.4614 </r>
       <r>     0.1262    27.5454   305.4750 </r>
       <r>     0.3200    29.8732   311.4879 </r>
       <r>     0.5139    29.8549   318.3341 </r>
       <r>     0.7078    42.3587   325.2125 </r>
       <r>     0.9016    28.5530   333.3741 </r>
       <r>     1.0955    49.3524   342.6789 </r>
       <r>     1.2894    49.8629   351.0258 </r>
       <r>     1.4832    37.2371   359.8487 </r>
       <r>     1.6771    49.4649   367.9769 </r>
       <r>     1.8709    38.9023   376.3231 </r>
       <r>     2.0648    42.2236   384.1202 </r>
       <r>     2.2587    47.7820   394.1342 </r>
       <r>     2.4525    54.1191   403.7719 </r>
       <r>     2.6464    44.2808   416.5177 </r>
       <r>     2.8403    58.9548   426.5234 </r>
       <r>     3.0341    56.5440   437.3813 </r>
       <r>     3.2280    50.0175   447.6099 </r>
       <r>     3.4218    37.2012   455.5289 </r>
       <r>     3.6157    26.2914   462.8767 </r>
       <r>     3.8096    15.8099   466.8568 </r>
       <r>     4.0034    13.5700   470.0462 </r>
       <r>     4.1973     4.3935   471.7880 </r>
       <r>     4.3912     0.0000   472.0000 </r>
       <r>     4.5850     0.0000   472.0000 </r>
       <r>     4.7789     0.0000   472.0000 </r>
       <r>     4.9727     0.0000   472.0000 </r>
       <r>     5.1666     0.2337   472.0033 </r>
       <r>     5.3605     4.9898   472.4854 </r>
       <r>     5.5543    10.0567   473.9436 </r>
       <r>     5.7482     7.4862   475.7228 </r>
       <r>     5.9421    23.0611   479.4070 </r>
       <r>     6.1359    12.4071   482.2776 </r>
       <r>     6.3298    11.8954   484.5581 </r>
       <r>     6.5237    14.2226   487.0879 </r>
       <r>     6.7175    16.3907   490.0640 </r>
       <r>     6.9114    18.6524   493.4498 </r>
       <r>     7.1052    24.2552   497.4760 </r>
       <r>     7.2991    31.7799   503.0863 </r>
       <r>     7.4930    36.8054   509.7031 </r>
       <r>     7.6868    25.7496   514.9125 </r>
       <r>     7.8807    49.3145   522.2838 </r>
       <r>     8.0746    34.0976   531.2419 </r>
       <r>     8.2684    21.6047   536.2617 </r>
       <r>     8.4623    19.6112   540.1448 </r>
       <r>     8.6561    26.7585   544.4694 </r>
       <r>     8.8500    40.1757   550.3831 </r>
       <r>     9.0439    33.1163   558.7188 </r>
       <r>     9.2377    15.9825   562.9897 </r>
       <r>     9.4316    15.1368   565.9484 </r>
       <r>     9.6255    12.0030   568.6114 </r>
       <r>     9.8193    10.3051   571.1343 </r>
       <r>    10.0132     6.2005   572.4757 </r>
       <r>    10.2070    20.5632   574.6140 </r>
       <r>    10.4009    27.5871   579.3826 </r>
       <r>    10.5948    47.4514   585.0114 </r>
       <r>    10.7886    34.7292   592.9931 </r>
       <r>    10.9825    19.8309   597.4024 </r>
       <r>    11.1764    18.3141   600.9552 </r>
       <r>    11.3702    27.4246   605.6307 </r>
       <r>    11.5641    23.0423   610.5148 </r>
       <r>    11.7580    12.4285   613.9631 </r>
       <r>    11.9518     4.2325   615.5040 </r>
       <r>    12.1457     0.8280   615.9324 </r>
       <r>    12.3395     0.0533   615.9987 </r>
       <r>    12.5334     0.0000   616.0000 </r>
       <r>    12.7273     0.0000   616.0000 </r>
       <r>    12.9211     0.0000   616.0000 </r>
       <r>    13.1150     0.0000   616.0000 </r>
       <r>    13.3089     0.0000   616.0000 </r>
       <r>    13.5027     0.0000   616.0000 </r>
       <r>    13.6966     0.0000   616.0000 </r>
       <r>    13.8904     0.0000   616.0000 </r>
       <r>    14.0843     0.0000   616.0000 </r>
       <r>    14.2782     0.0000   616.0000 </r>
       <r>    14.4720     0.0000   616.0000 </r>
       <r>    14.6659     0.0000   616.0000 </r>
       <r>    14.8598     0.0000   616.0000 </r>
       <r>    15.0536     0.0000   616.0000 </r>
      </set>
     </set>
    </array>
   </total>
  </dos>
 </calculation>
 <structure name="finalpos" >
  <crystal>
   <varray name="basis" >
    <v>      11.17850000       0.00000000       0.00000000 </v>
    <v>       0.00000000       9.57460000       0.00000000 </v>
    <v>       0.00000000       0.00000000      11.18240000 </v>
   </varray>
   <i name="volume">   1196.84853820 </i>
   <varray name="rec_basis" >
    <v>       0.08945744       0.00000000       0.00000000 </v>
    <v>       0.00000000       0.10444301       0.00000000 </v>
    <v>       0.00000000       0.00000000       0.08942624 </v>
   </varray>
  </crystal>
  <varray name="positions" >
   <v>       0.37539000       0.00017000       0.43687000 </v>
   <v>       0.12461000       0.99984000       0.18687000 </v>
   <v>       0.37461000       0.00017000       0.18687000 </v>
   <v>       0.62539000       0.99984000       0.43687000 </v>
   <v>       0.87539000       0.00017000       0.43687000 </v>
   <v>       0.62461000       0.99984000       0.18687000 </v>
   <v>       0.87461000       0.00017000       0.18687000 </v>
   <v>       0.12539000       0.99984000       0.93687000 </v>
   <v>       0.37539000       0.00017000       0.93687000 </v>
   <v>       0.37461000       0.00017000       0.68687000 </v>
   <v>       0.87539000       0.00017000       0.93687000 </v>
   <v>       0.62461000       0.99984000       0.68687000 </v>
   <v>       0.12461000       0.99984000       0.68687000 </v>
   <v>       0.62539000       0.99984000       0.93687000 </v>
   <v>       0.00013000       0.29519000       0.06281000 </v>
   <v>       0.25013000       0.70481000       0.06281000 </v>
   <v>       0.24987000       0.29519000       0.31282000 </v>
   <v>       0.49987000       0.70481000       0.31282000 </v>
   <v>       0.50013000       0.29519000       0.06281000 </v>
   <v>       0.75013000       0.70481000       0.06281000 </v>
   <v>       0.74987000       0.29519000       0.31282000 </v>
   <v>       0.99987000       0.70481000       0.31282000 </v>
   <v>       0.00013000       0.29519000       0.56281000 </v>
   <v>       0.25013000       0.70481000       0.56281000 </v>
   <v>       0.24987000       0.29519000       0.81282000 </v>
   <v>       0.49987000       0.70481000       0.81282000 </v>
   <v>       0.50013000       0.29519000       0.56281000 </v>
   <v>       0.75013000       0.70481000       0.56281000 </v>
   <v>       0.74987000       0.29519000       0.81282000 </v>
   <v>       0.99987000       0.70481000       0.81282000 </v>
   <v>       0.25005000       0.32677000       0.06286000 </v>
   <v>       0.00005000       0.67323000       0.06286000 </v>
   <v>       0.49995000       0.32677000       0.31286000 </v>
   <v>       0.24995000       0.67323000       0.31286000 </v>
   <v>       0.75005000       0.32677000       0.06286000 </v>
   <v>       0.50005000       0.67323000       0.06286000 </v>
   <v>       0.99995000       0.32677000       0.31286000 </v>
   <v>       0.74995000       0.67323000       0.31286000 </v>
   <v>       0.25005000       0.32677000       0.56286000 </v>
   <v>       0.00005000       0.67323000       0.56286000 </v>
   <v>       0.49995000       0.32677000       0.81286000 </v>
   <v>       0.24995000       0.67323000       0.81286000 </v>
   <v>       0.75005000       0.32677000       0.56286000 </v>
   <v>       0.50005000       0.67323000       0.56286000 </v>
   <v>       0.99995000       0.32677000       0.81286000 </v>
   <v>       0.74995000       0.67323000       0.81286000 </v>
   <v>       0.49987000       0.07798000       0.06246000 </v>
   <v>       0.24987000       0.92202000       0.06246000 </v>
   <v>       0.25013000       0.07798000       0.31246000 </v>
   <v>       0.00013000       0.92202000       0.31246000 </v>
   <v>       0.99987000       0.07798000       0.06246000 </v>
   <v>       0.74987000       0.92202000       0.06246000 </v>
   <v>       0.75013000       0.07798000       0.31246000 </v>
   <v>       0.50013000       0.92202000       0.31246000 </v>
   <v>       0.49987000       0.07798000       0.56246000 </v>
   <v>       0.24987000       0.92202000       0.56246000 </v>
   <v>       0.25013000       0.07798000       0.81246000 </v>
   <v>       0.00013000       0.92202000       0.81246000 </v>
   <v>       0.99987000       0.07798000       0.56246000 </v>
   <v>       0.74987000       0.92202000       0.56246000 </v>
   <v>       0.75013000       0.07798000       0.81246000 </v>
   <v>       0.50013000       0.92202000       0.81246000 </v>
  </varray>
 </structure>
</modeling>
