<?xml version="1.0" encoding="ISO-8859-1"?>
<modeling>
 <generator>
  <i name="program" type="string">vasp </i>
  <i name="version" type="string">5.4.4.18Apr17-6-g9f103f2a35  </i>
  <i name="subversion" type="string">(build Jul 31 2017 11:33:29) complex            parallel </i>
  <i name="platform" type="string">LinuxIFC </i>
  <i name="date" type="string">2021 09 29 </i>
  <i name="time" type="string">11:51:04 </i>
 </generator>
 <incar>
  <i type="string" name="SYSTEM"> La2O2S</i>
  <i type="string" name="PREC">normal</i>
  <i type="int" name="NELMIN">     4</i>
  <i type="int" name="IBRION">     2</i>
  <i type="int" name="NFREE">    10</i>
  <i name="EDIFF">      0.00000100</i>
  <i name="EDIFFG">     -0.01000000</i>
  <i type="int" name="NSW">     1</i>
  <i type="int" name="ISIF">     2</i>
  <i name="ENCUT">    600.00000000</i>
  <i name="ENAUG">    900.00000000</i>
  <i type="int" name="ISMEAR">    -5</i>
  <i type="logical" name="LWAVE"> F  </i>
  <i type="logical" name="LCHARG"> F  </i>
  <v type="int" name="KPOINT_BSE">    -1     0     0     0</v>
 </incar>
 <structure name="primitive_cell" >
  <crystal>
   <varray name="basis" >
    <v>      11.17850000       0.00000000       0.00000000 </v>
    <v>       0.00000000       9.57460000       0.00000000 </v>
    <v>       0.00000000       0.00000000      11.18240000 </v>
   </varray>
   <i name="volume">   1196.84853820 </i>
   <varray name="rec_basis" >
    <v>       0.08945744       0.00000000       0.00000000 </v>
    <v>       0.00000000       0.10444301       0.00000000 </v>
    <v>       0.00000000       0.00000000       0.08942624 </v>
   </varray>
  </crystal>
  <varray name="positions" >
   <v>      -0.12461000       0.00017000       0.43687000 </v>
   <v>       0.00013000      -0.07798000       0.31246000 </v>
   <v>      -0.24987000       0.07798000       0.31246000 </v>
   <v>      -0.00013000       0.07798000      -0.43754000 </v>
   <v>      -0.25013000      -0.07798000      -0.43754000 </v>
   <v>      -0.37461000      -0.00016000       0.43687000 </v>
   <v>      -0.12539000       0.00017000       0.18687000 </v>
   <v>      -0.12539000       0.00017000      -0.31313000 </v>
   <v>      -0.00013000      -0.29519000       0.31282000 </v>
   <v>      -0.25013000       0.29519000       0.31282000 </v>
   <v>       0.00013000       0.29519000      -0.43719000 </v>
   <v>      -0.24987000      -0.29519000      -0.43719000 </v>
   <v>      -0.00005000       0.32677000       0.31286000 </v>
   <v>      -0.25005000      -0.32677000       0.31286000 </v>
   <v>       0.00005000      -0.32677000      -0.43714000 </v>
   <v>      -0.24995000       0.32677000      -0.43714000 </v>
   <v>       0.12461000      -0.00016000      -0.31313000 </v>
   <v>       0.12461000      -0.00016000       0.18687000 </v>
   <v>      -0.00013000       0.07798000       0.06246000 </v>
   <v>       0.25013000       0.07798000       0.31246000 </v>
   <v>       0.24987000      -0.07798000      -0.43754000 </v>
   <v>      -0.25013000      -0.07798000       0.06246000 </v>
   <v>      -0.49987000      -0.07798000       0.31246000 </v>
   <v>       0.00013000      -0.07798000      -0.18754000 </v>
   <v>       0.49987000       0.07798000      -0.43754000 </v>
   <v>      -0.24987000       0.07798000      -0.18754000 </v>
   <v>       0.00013000       0.29519000       0.06281000 </v>
   <v>       0.24987000       0.29519000       0.31282000 </v>
   <v>      -0.24987000      -0.29519000       0.06281000 </v>
   <v>       0.25013000      -0.29519000      -0.43719000 </v>
   <v>       0.49987000      -0.29519000       0.31282000 </v>
   <v>      -0.49987000       0.29519000      -0.43719000 </v>
   <v>      -0.00013000      -0.29519000      -0.18718000 </v>
   <v>      -0.25013000       0.29519000      -0.18718000 </v>
   <v>       0.00005000      -0.32677000       0.06286000 </v>
   <v>      -0.24995000       0.32677000       0.06286000 </v>
   <v>       0.24995000      -0.32677000       0.31286000 </v>
   <v>       0.25005000       0.32677000      -0.43714000 </v>
   <v>       0.49995000       0.32677000       0.31286000 </v>
   <v>      -0.49995000      -0.32677000      -0.43714000 </v>
   <v>      -0.00005000       0.32677000      -0.18714000 </v>
   <v>      -0.25005000      -0.32677000      -0.18714000 </v>
   <v>       0.24987000      -0.07798000       0.06246000 </v>
   <v>       0.49987000       0.07798000       0.06246000 </v>
   <v>       0.25013000       0.07798000      -0.18754000 </v>
   <v>      -0.49987000      -0.07798000      -0.18754000 </v>
   <v>       0.37461000       0.00017000       0.18687000 </v>
   <v>       0.37461000       0.00017000      -0.31313000 </v>
   <v>       0.12539000      -0.00016000      -0.06313000 </v>
   <v>      -0.37461000      -0.00016000      -0.06313000 </v>
   <v>       0.25013000      -0.29519000       0.06281000 </v>
   <v>      -0.49987000       0.29519000       0.06281000 </v>
   <v>       0.24987000       0.29519000      -0.18718000 </v>
   <v>       0.49987000      -0.29519000      -0.18718000 </v>
   <v>       0.25005000       0.32677000       0.06286000 </v>
   <v>      -0.49995000      -0.32677000       0.06286000 </v>
   <v>       0.24995000      -0.32677000      -0.18714000 </v>
   <v>       0.49995000       0.32677000      -0.18714000 </v>
  </varray>
 </structure>
 <varray name="primitive_index" >
  <v type="int" >        1 </v>
  <v type="int" >       46 </v>
  <v type="int" >       49 </v>
  <v type="int" >       55 </v>
  <v type="int" >       56 </v>
  <v type="int" >        7 </v>
  <v type="int" >        2 </v>
  <v type="int" >       10 </v>
  <v type="int" >       18 </v>
  <v type="int" >       17 </v>
  <v type="int" >       19 </v>
  <v type="int" >       24 </v>
  <v type="int" >       33 </v>
  <v type="int" >       34 </v>
  <v type="int" >       36 </v>
  <v type="int" >       39 </v>
  <v type="int" >        4 </v>
  <v type="int" >        5 </v>
  <v type="int" >       47 </v>
  <v type="int" >       45 </v>
  <v type="int" >       52 </v>
  <v type="int" >       48 </v>
  <v type="int" >       50 </v>
  <v type="int" >       54 </v>
  <v type="int" >       51 </v>
  <v type="int" >       57 </v>
  <v type="int" >       11 </v>
  <v type="int" >       13 </v>
  <v type="int" >       16 </v>
  <v type="int" >       20 </v>
  <v type="int" >       14 </v>
  <v type="int" >       23 </v>
  <v type="int" >       26 </v>
  <v type="int" >       25 </v>
  <v type="int" >       28 </v>
  <v type="int" >       31 </v>
  <v type="int" >       30 </v>
  <v type="int" >       35 </v>
  <v type="int" >       29 </v>
  <v type="int" >       40 </v>
  <v type="int" >       41 </v>
  <v type="int" >       42 </v>
  <v type="int" >       44 </v>
  <v type="int" >       43 </v>
  <v type="int" >       53 </v>
  <v type="int" >       58 </v>
  <v type="int" >        6 </v>
  <v type="int" >        8 </v>
  <v type="int" >        3 </v>
  <v type="int" >        9 </v>
  <v type="int" >       12 </v>
  <v type="int" >       15 </v>
  <v type="int" >       21 </v>
  <v type="int" >       22 </v>
  <v type="int" >       27 </v>
  <v type="int" >       32 </v>
  <v type="int" >       38 </v>
  <v type="int" >       37 </v>
 </varray>
 <kpoints>
  <generation param="Gamma">
   <v type="int" name="divisions">       2        2        2 </v>
   <v name="usershift">      0.00000000       0.00000000       0.00000000 </v>
   <v name="genvec1">      0.50000000       0.00000000       0.00000000 </v>
   <v name="genvec2">      0.00000000       0.50000000       0.00000000 </v>
   <v name="genvec3">      0.00000000       0.00000000       0.50000000 </v>
   <v name="shift">      0.00000000       0.00000000       0.00000000 </v>
  </generation>
  <varray name="kpointlist" >
   <v>       0.00000000       0.00000000       0.00000000 </v>
   <v>       0.50000000       0.00000000       0.00000000 </v>
   <v>       0.00000000       0.50000000       0.00000000 </v>
   <v>       0.50000000       0.50000000       0.00000000 </v>
   <v>       0.00000000       0.00000000       0.50000000 </v>
   <v>       0.50000000       0.00000000       0.50000000 </v>
   <v>       0.00000000       0.50000000       0.50000000 </v>
   <v>       0.50000000       0.50000000       0.50000000 </v>
  </varray>
  <varray name="weights" >
   <v>       0.12500000 </v>
   <v>       0.12500000 </v>
   <v>       0.12500000 </v>
   <v>       0.12500000 </v>
   <v>       0.12500000 </v>
   <v>       0.12500000 </v>
   <v>       0.12500000 </v>
   <v>       0.12500000 </v>
  </varray>
  <varray name="tetrahedronlist"  type="int" >
   <v type="int" >        2        1        2        4        5 </v>
   <v type="int" >        2        1        3        4        5 </v>
   <v type="int" >        2        3        4        5        7 </v>
   <v type="int" >        2        2        4        5        6 </v>
   <v type="int" >        2        4        5        6        8 </v>
   <v type="int" >        2        4        5        7        8 </v>
   <v type="int" >        2        1        2        3        6 </v>
   <v type="int" >        2        2        3        4        6 </v>
   <v type="int" >        2        3        4        6        8 </v>
   <v type="int" >        2        1        3        5        6 </v>
   <v type="int" >        2        3        5        6        7 </v>
   <v type="int" >        2        3        6        7        8 </v>
   <v type="int" >        2        2        3        4        7 </v>
   <v type="int" >        2        1        2        3        7 </v>
   <v type="int" >        2        1        2        5        7 </v>
   <v type="int" >        2        2        4        7        8 </v>
   <v type="int" >        2        2        6        7        8 </v>
   <v type="int" >        2        2        5        6        7 </v>
   <v type="int" >        2        1        3        4        8 </v>
   <v type="int" >        2        1        2        4        8 </v>
   <v type="int" >        2        1        2        6        8 </v>
   <v type="int" >        2        1        3        7        8 </v>
   <v type="int" >        2        1        5        7        8 </v>
   <v type="int" >        2        1        5        6        8 </v>
  </varray>
  <i name="volumeweight">      0.02083333 </i>
 </kpoints>
 <parameters>
  <separator name="general" >
   <i type="string" name="SYSTEM">La2O2S</i>
   <i type="logical" name="LCOMPAT"> F  </i>
  </separator>
  <separator name="electronic" >
   <i type="string" name="PREC">normal</i>
   <i name="ENMAX">    600.00000000</i>
   <i name="ENAUG">    900.00000000</i>
   <i name="EDIFF">      0.00000100</i>
   <i type="int" name="IALGO">    38</i>
   <i type="int" name="IWAVPR">    11</i>
   <i type="int" name="NBANDS">   280</i>
   <i name="NELECT">    456.00000000</i>
   <i type="int" name="TURBO">     0</i>
   <i type="int" name="IRESTART">     0</i>
   <i type="int" name="NREBOOT">     0</i>
   <i type="int" name="NMIN">     0</i>
   <i name="EREF">      0.00000000</i>
   <separator name="electronic smearing" >
    <i type="int" name="ISMEAR">    -5</i>
    <i name="SIGMA">      0.20000000</i>
    <i name="KSPACING">      0.50000000</i>
    <i type="logical" name="KGAMMA"> T  </i>
   </separator>
   <separator name="electronic projectors" >
    <i type="logical" name="LREAL"> F  </i>
    <v name="ROPT">      0.00000000      0.00000000      0.00000000      0.00000000      0.00000000</v>
    <i type="int" name="LMAXPAW">  -100</i>
    <i type="int" name="LMAXMIX">     2</i>
    <i type="logical" name="NLSPLINE"> F  </i>
   </separator>
   <separator name="electronic startup" >
    <i type="int" name="ISTART">     0</i>
    <i type="int" name="ICHARG">     2</i>
    <i type="int" name="INIWAV">     1</i>
   </separator>
   <separator name="electronic spin" >
    <i type="int" name="ISPIN">     1</i>
    <i type="logical" name="LNONCOLLINEAR"> F  </i>
    <v name="MAGMOM">      1.00000000      1.00000000      1.00000000      1.00000000      1.00000000      1.00000000      1.00000000      1.00000000      1.00000000      1.00000000      1.00000000      1.00000000      1.00000000      1.00000000      1.00000000      1.00000000      1.00000000      1.00000000      1.00000000      1.00000000
      1.00000000      1.00000000      1.00000000      1.00000000      1.00000000      1.00000000      1.00000000      1.00000000      1.00000000      1.00000000      1.00000000      1.00000000      1.00000000      1.00000000      1.00000000      1.00000000      1.00000000      1.00000000      1.00000000      1.00000000
      1.00000000      1.00000000      1.00000000      1.00000000      1.00000000      1.00000000      1.00000000      1.00000000      1.00000000      1.00000000      1.00000000      1.00000000      1.00000000      1.00000000      1.00000000      1.00000000      1.00000000      1.00000000</v>
    <i name="NUPDOWN">     -1.00000000</i>
    <i type="logical" name="LSORBIT"> F  </i>
    <v name="SAXIS">      0.00000000      0.00000000      1.00000000</v>
    <i type="logical" name="LSPIRAL"> F  </i>
    <v name="QSPIRAL">      0.00000000      0.00000000      0.00000000</v>
    <i type="logical" name="LZEROZ"> F  </i>
   </separator>
   <separator name="electronic exchange-correlation" >
    <i type="logical" name="LASPH"> F  </i>
    <i type="logical" name="LMETAGGA"> F  </i>
   </separator>
   <separator name="electronic convergence" >
    <i type="int" name="NELM">    60</i>
    <i type="int" name="NELMDL">    -5</i>
    <i type="int" name="NELMIN">     4</i>
    <i name="ENINI">    600.00000000</i>
    <separator name="electronic convergence detail" >
     <i type="logical" name="LDIAG"> T  </i>
     <i type="logical" name="LSUBROT"> F  </i>
     <i name="WEIMIN">      0.00100000</i>
     <i name="EBREAK">      0.00000000</i>
     <i name="DEPER">      0.30000000</i>
     <i type="int" name="NRMM">     4</i>
     <i name="TIME">      0.40000000</i>
    </separator>
   </separator>
   <separator name="electronic mixer" >
    <i name="AMIX">      0.40000000</i>
    <i name="BMIX">      1.00000000</i>
    <i name="AMIN">      0.10000000</i>
    <i name="AMIX_MAG">      1.60000000</i>
    <i name="BMIX_MAG">      1.00000000</i>
    <separator name="electronic mixer details" >
     <i type="int" name="IMIX">     4</i>
     <i type="logical" name="MIXFIRST"> F  </i>
     <i type="int" name="MAXMIX">   -45</i>
     <i name="WC">    100.00000000</i>
     <i type="int" name="INIMIX">     1</i>
     <i type="int" name="MIXPRE">     1</i>
     <i type="int" name="MREMOVE">     5</i>
    </separator>
   </separator>
   <separator name="electronic dipolcorrection" >
    <i type="logical" name="LDIPOL"> F  </i>
    <i type="logical" name="LMONO"> F  </i>
    <i type="int" name="IDIPOL">     0</i>
    <i name="EPSILON">      1.00000000</i>
    <v name="DIPOL">   -100.00000000   -100.00000000   -100.00000000</v>
    <i name="EFIELD">      0.00000000</i>
   </separator>
  </separator>
  <separator name="grids" >
   <i type="int" name="NGX">    70</i>
   <i type="int" name="NGY">    60</i>
   <i type="int" name="NGZ">    70</i>
   <i type="int" name="NGXF">   140</i>
   <i type="int" name="NGYF">   120</i>
   <i type="int" name="NGZF">   140</i>
   <i type="logical" name="ADDGRID"> F  </i>
  </separator>
  <separator name="ionic" >
   <i type="int" name="NSW">     1</i>
   <i type="int" name="IBRION">     2</i>
   <i type="int" name="MDALGO">     0</i>
   <i type="int" name="ISIF">     2</i>
   <i name="PSTRESS">      0.00000000</i>
   <i name="EDIFFG">     -0.01000000</i>
   <i type="int" name="NFREE">    10</i>
   <i name="POTIM">      0.50000000</i>
   <i name="SMASS">     -3.00000000</i>
   <i name="SCALEE">      1.00000000</i>
  </separator>
  <separator name="ionic md" >
   <i name="TEBEG">      0.00010000</i>
   <i name="TEEND">      0.00010000</i>
   <i type="int" name="NBLOCK">     1</i>
   <i type="int" name="KBLOCK">     1</i>
   <i type="int" name="NPACO">   256</i>
   <i name="APACO">     16.00000000</i>
  </separator>
  <separator name="symmetry" >
   <i type="int" name="ISYM">     2</i>
   <i name="SYMPREC">      0.00001000</i>
  </separator>
  <separator name="dos" >
   <i type="int" name="LORBIT">     0</i>
   <v name="RWIGS">     -1.00000000     -1.00000000     -1.00000000     -1.00000000     -1.00000000</v>
   <i type="int" name="NEDOS">   301</i>
   <i name="EMIN">     10.00000000</i>
   <i name="EMAX">    -10.00000000</i>
   <i name="EFERMI">      0.00000000</i>
  </separator>
  <separator name="writing" >
   <i type="int" name="NWRITE">     2</i>
   <i type="logical" name="LWAVE"> F  </i>
   <i type="logical" name="LDOWNSAMPLE"> F  </i>
   <i type="logical" name="LCHARG"> F  </i>
   <i type="logical" name="LPARD"> F  </i>
   <i type="logical" name="LVTOT"> F  </i>
   <i type="logical" name="LVHAR"> F  </i>
   <i type="logical" name="LELF"> F  </i>
   <i type="logical" name="LOPTICS"> F  </i>
   <v name="STM">      0.00000000      0.00000000      0.00000000      0.00000000      0.00000000      0.00000000      0.00000000</v>
  </separator>
  <separator name="performance" >
   <i type="int" name="NPAR">    28</i>
   <i type="int" name="NSIM">     4</i>
   <i type="int" name="NBLK">    -1</i>
   <i type="logical" name="LPLANE"> T  </i>
   <i type="logical" name="LSCALAPACK"> T  </i>
   <i type="logical" name="LSCAAWARE"> F  </i>
   <i type="logical" name="LSCALU"> F  </i>
   <i type="logical" name="LASYNC"> F  </i>
   <i type="logical" name="LORBITALREAL"> F  </i>
  </separator>
  <separator name="miscellaneous" >
   <i type="int" name="IDIOT">     3</i>
   <i type="int" name="ISPECIAL">     0</i>
   <i type="logical" name="LMUSIC"> F  </i>
   <v name="POMASS">      7.01000000     24.30500000    208.98000000     32.06600000     16.00000000</v>
   <v name="DARWINR">      0.00000000      0.00000000      0.00000000      0.00000000      0.00000000</v>
   <v name="DARWINV">      1.00000000      1.00000000      1.00000000      1.00000000      1.00000000</v>
   <i type="logical" name="LCORR"> T  </i>
  </separator>
  <i type="logical" name="GGA_COMPAT"> T  </i>
  <i type="logical" name="LBERRY"> F  </i>
  <i type="int" name="ICORELEVEL">     0</i>
  <i type="logical" name="LDAU"> F  </i>
  <i type="int" name="I_CONSTRAINED_M">     0</i>
  <separator name="electronic exchange-correlation" >
   <i type="string" name="GGA">--</i>
   <i type="int" name="VOSKOWN">     0</i>
   <i type="logical" name="LHFCALC"> F  </i>
   <i type="string" name="PRECFOCK"></i>
   <i type="logical" name="LSYMGRAD"> F  </i>
   <i type="logical" name="LHFONE"> F  </i>
   <i type="logical" name="LRHFCALC"> F  </i>
   <i type="logical" name="LTHOMAS"> F  </i>
   <i type="logical" name="LMODELHF"> F  </i>
   <i name="ENCUT4O">     -1.00000000</i>
   <i type="int" name="EXXOEP">     0</i>
   <i type="int" name="FOURORBIT">     0</i>
   <i name="AEXX">      0.00000000</i>
   <i name="HFALPHA">      0.00000000</i>
   <i name="MCALPHA">      0.00000000</i>
   <i name="ALDAX">      1.00000000</i>
   <i name="AGGAX">      1.00000000</i>
   <i name="ALDAC">      1.00000000</i>
   <i name="AGGAC">      1.00000000</i>
   <i type="int" name="NKREDX">     1</i>
   <i type="int" name="NKREDY">     1</i>
   <i type="int" name="NKREDZ">     1</i>
   <i type="logical" name="SHIFTRED"> F  </i>
   <i type="logical" name="ODDONLY"> F  </i>
   <i type="logical" name="EVENONLY"> F  </i>
   <i type="int" name="LMAXFOCK">     0</i>
   <i type="int" name="NMAXFOCKAE">     0</i>
   <i type="logical" name="LFOCKAEDFT"> F  </i>
   <i name="HFSCREEN">      0.00000000</i>
   <i name="HFSCREENC">      0.00000000</i>
   <i type="int" name="NBANDSGWLOW">     0</i>
  </separator>
  <separator name="vdW DFT" >
   <i type="logical" name="LUSE_VDW"> F  </i>
   <i name="Zab_VDW">     -0.84910000</i>
   <i name="PARAM1">      0.12340000</i>
   <i name="PARAM2">      1.00000000</i>
   <i name="PARAM3">      0.00000000</i>
  </separator>
  <separator name="model GW" >
   <i type="int" name="MODEL_GW">     0</i>
   <i name="MODEL_EPS0">     12.38119177</i>
   <i name="MODEL_ALPHA">      1.00000000</i>
  </separator>
  <separator name="linear response parameters" >
   <i type="logical" name="LEPSILON"> F  </i>
   <i type="logical" name="LRPA"> F  </i>
   <i type="logical" name="LNABLA"> F  </i>
   <i type="logical" name="LVEL"> F  </i>
   <i type="int" name="KINTER">     0</i>
   <i name="CSHIFT">      0.10000000</i>
   <i name="OMEGAMAX">     -1.00000000</i>
   <i name="DEG_THRESHOLD">      0.00200000</i>
   <i name="RTIME">     -0.10000000</i>
   <i name="WPLASMAI">      0.00000000</i>
   <v name="DFIELD">      0.00000000      0.00000000      0.00000000</v>
   <v name="WPLASMA">      0.00000000      0.00000000      0.00000000      0.00000000      0.00000000      0.00000000      0.00000000      0.00000000      0.00000000</v>
  </separator>
  <separator name="orbital magnetization" >
   <i type="logical" name="NUCIND"> F  </i>
   <v name="MAGPOS">      0.00000000      0.00000000      0.00000000</v>
   <i type="logical" name="LNICSALL"> T  </i>
   <i type="logical" name="ORBITALMAG"> F  </i>
   <i type="logical" name="LMAGBLOCH"> F  </i>
   <i type="logical" name="LCHIMAG"> F  </i>
   <i type="logical" name="LGAUGE"> T  </i>
   <i type="int" name="MAGATOM">     0</i>
   <v name="MAGDIPOL">      0.00000000      0.00000000      0.00000000</v>
   <v name="AVECCONST">      0.00000000      0.00000000      0.00000000</v>
  </separator>
  <separator name="response functions" >
   <i type="logical" name="LADDER"> F  </i>
   <i type="logical" name="LRPAFORCE"> F  </i>
   <i type="logical" name="LFXC"> F  </i>
   <i type="logical" name="LHARTREE"> T  </i>
   <i type="int" name="IBSE">     0</i>
   <v type="int" name="KPOINT">    -1     0     0     0</v>
   <i type="logical" name="LTCTE"> F  </i>
   <i type="logical" name="LTETE"> F  </i>
   <i type="logical" name="LTRIPLET"> F  </i>
   <i type="logical" name="LFXCEPS"> F  </i>
   <i type="logical" name="LFXHEG"> F  </i>
   <i type="int" name="NATURALO">     2</i>
   <i type="logical" name="L2ORDER"> F  </i>
   <i type="logical" name="LMP2LT"> F  </i>
   <i type="logical" name="LUSEW"> F  </i>
   <i name="ENCUTGW">     -2.00000000</i>
   <i name="ENCUTGWSOFT">     -2.00000000</i>
   <i name="ENCUTLF">     -1.00000000</i>
   <i type="int" name="LMAXMP2">    -1</i>
   <i name="SCISSOR">      0.00000000</i>
   <i type="int" name="NOMEGA">     0</i>
   <i type="int" name="NOMEGAR">     0</i>
   <i type="int" name="NBANDSGW">    -1</i>
   <i type="int" name="NBANDSO">    -1</i>
   <i type="int" name="NBANDSV">    -1</i>
   <i type="int" name="NELM">     1</i>
   <i type="int" name="NELMHF">     1</i>
   <i type="int" name="DIM">     3</i>
   <i type="int" name="ANTIRES">     0</i>
   <i name="OMEGAMAX">    -30.00000000</i>
   <i name="OMEGAMIN">    -30.00000000</i>
   <i name="OMEGATL">   -200.00000000</i>
   <i type="int" name="OMEGAGRID">   140</i>
   <i name="CSHIFT">     -0.10000000</i>
   <i type="logical" name="SELFENERGY"> F  </i>
   <i type="logical" name="LSPECTRAL"> F  </i>
   <i type="logical" name="LSPECTRALGW"> F  </i>
   <i type="logical" name="LSINGLES"> F  </i>
   <i type="logical" name="LFERMIGW"> F  </i>
   <i type="logical" name="ODDONLYGW"> F  </i>
   <i type="logical" name="EVENONLYGW"> F  </i>
   <i type="int" name="NKREDLFX">     1</i>
   <i type="int" name="NKREDLFY">     1</i>
   <i type="int" name="NKREDLFZ">     1</i>
   <i type="int" name="MAXMEM">  2800</i>
   <i type="int" name="TELESCOPE">     0</i>
   <i type="int" name="TAUPAR">     1</i>
   <i type="int" name="OMEGAPAR">    -1</i>
   <i name="LAMBDA">      1.00000000</i>
  </separator>
  <separator name="External order field" >
   <i name="OFIELD_KAPPA">      0.00000000</i>
   <v name="OFIELD_K">      0.00000000      0.00000000      0.00000000</v>
   <i name="OFIELD_Q6_NEAR">      0.00000000</i>
   <i name="OFIELD_Q6_FAR">      0.00000000</i>
   <i name="OFIELD_A">      0.00000000</i>
  </separator>
 </parameters>
 <atominfo>
  <atoms>      58 </atoms>
  <types>       5 </types>
  <array name="atoms" >
   <dimension dim="1">ion</dimension>
   <field type="string">element</field>
   <field type="int">atomtype</field>
   <set>
    <rc><c>Li</c><c>   1</c></rc>
    <rc><c>Li</c><c>   1</c></rc>
    <rc><c>Li</c><c>   1</c></rc>
    <rc><c>Li</c><c>   1</c></rc>
    <rc><c>Mg</c><c>   2</c></rc>
    <rc><c>Mg</c><c>   2</c></rc>
    <rc><c>Mg</c><c>   2</c></rc>
    <rc><c>Mg</c><c>   2</c></rc>
    <rc><c>Mg</c><c>   2</c></rc>
    <rc><c>Mg</c><c>   2</c></rc>
    <rc><c>Bi</c><c>   3</c></rc>
    <rc><c>Bi</c><c>   3</c></rc>
    <rc><c>Bi</c><c>   3</c></rc>
    <rc><c>Bi</c><c>   3</c></rc>
    <rc><c>Bi</c><c>   3</c></rc>
    <rc><c>Bi</c><c>   3</c></rc>
    <rc><c>Bi</c><c>   3</c></rc>
    <rc><c>Bi</c><c>   3</c></rc>
    <rc><c>Bi</c><c>   3</c></rc>
    <rc><c>Bi</c><c>   3</c></rc>
    <rc><c>Bi</c><c>   3</c></rc>
    <rc><c>Bi</c><c>   3</c></rc>
    <rc><c>Bi</c><c>   3</c></rc>
    <rc><c>Bi</c><c>   3</c></rc>
    <rc><c>Bi</c><c>   3</c></rc>
    <rc><c>Bi</c><c>   3</c></rc>
    <rc><c>S </c><c>   4</c></rc>
    <rc><c>S </c><c>   4</c></rc>
    <rc><c>S </c><c>   4</c></rc>
    <rc><c>S </c><c>   4</c></rc>
    <rc><c>S </c><c>   4</c></rc>
    <rc><c>S </c><c>   4</c></rc>
    <rc><c>S </c><c>   4</c></rc>
    <rc><c>S </c><c>   4</c></rc>
    <rc><c>S </c><c>   4</c></rc>
    <rc><c>S </c><c>   4</c></rc>
    <rc><c>S </c><c>   4</c></rc>
    <rc><c>S </c><c>   4</c></rc>
    <rc><c>S </c><c>   4</c></rc>
    <rc><c>S </c><c>   4</c></rc>
    <rc><c>S </c><c>   4</c></rc>
    <rc><c>S </c><c>   4</c></rc>
    <rc><c>O </c><c>   5</c></rc>
    <rc><c>O </c><c>   5</c></rc>
    <rc><c>O </c><c>   5</c></rc>
    <rc><c>O </c><c>   5</c></rc>
    <rc><c>O </c><c>   5</c></rc>
    <rc><c>O </c><c>   5</c></rc>
    <rc><c>O </c><c>   5</c></rc>
    <rc><c>O </c><c>   5</c></rc>
    <rc><c>O </c><c>   5</c></rc>
    <rc><c>O </c><c>   5</c></rc>
    <rc><c>O </c><c>   5</c></rc>
    <rc><c>O </c><c>   5</c></rc>
    <rc><c>O </c><c>   5</c></rc>
    <rc><c>O </c><c>   5</c></rc>
    <rc><c>O </c><c>   5</c></rc>
    <rc><c>O </c><c>   5</c></rc>
   </set>
  </array>
  <array name="atomtypes" >
   <dimension dim="1">type</dimension>
   <field type="int">atomspertype</field>
   <field type="string">element</field>
   <field>mass</field>
   <field>valence</field>
   <field type="string">pseudopotential</field>
   <set>
    <rc><c>   4</c><c>Li</c><c>      7.01000000</c><c>      3.00000000</c><c>  PAW_PBE Li_sv 10Sep2004               </c></rc>
    <rc><c>   6</c><c>Mg</c><c>     24.30500000</c><c>      2.00000000</c><c>  PAW_PBE Mg 13Apr2007                  </c></rc>
    <rc><c>  16</c><c>Bi</c><c>    208.98000000</c><c>     15.00000000</c><c>  PAW_PBE Bi_d 06Sep2000                </c></rc>
    <rc><c>  16</c><c>S </c><c>     32.06600000</c><c>      6.00000000</c><c>  PAW_PBE S 06Sep2000                   </c></rc>
    <rc><c>  16</c><c>O </c><c>     16.00000000</c><c>      6.00000000</c><c>  PAW_PBE O 08Apr2002                   </c></rc>
   </set>
  </array>
 </atominfo>
 <structure name="initialpos" >
  <crystal>
   <varray name="basis" >
    <v>      11.17850000       0.00000000       0.00000000 </v>
    <v>       0.00000000       9.57460000       0.00000000 </v>
    <v>       0.00000000       0.00000000      11.18240000 </v>
   </varray>
   <i name="volume">   1196.84853820 </i>
   <varray name="rec_basis" >
    <v>       0.08945744       0.00000000       0.00000000 </v>
    <v>       0.00000000       0.10444301       0.00000000 </v>
    <v>       0.00000000       0.00000000       0.08942624 </v>
   </varray>
  </crystal>
  <varray name="positions" >
   <v>       0.87539000       0.00017000       0.43687000 </v>
   <v>       0.87461000       0.00017000       0.18687000 </v>
   <v>       0.12539000       0.99984000       0.93687000 </v>
   <v>       0.12461000       0.99984000       0.68687000 </v>
   <v>       0.12461000       0.99984000       0.18687000 </v>
   <v>       0.37461000       0.00017000       0.18687000 </v>
   <v>       0.62539000       0.99984000       0.43687000 </v>
   <v>       0.37461000       0.00017000       0.68687000 </v>
   <v>       0.62539000       0.99984000       0.93687000 </v>
   <v>       0.87461000       0.00017000       0.68687000 </v>
   <v>       0.00013000       0.29519000       0.06281000 </v>
   <v>       0.25013000       0.70481000       0.06281000 </v>
   <v>       0.24987000       0.29519000       0.31282000 </v>
   <v>       0.49987000       0.70481000       0.31282000 </v>
   <v>       0.50013000       0.29519000       0.06281000 </v>
   <v>       0.75013000       0.70481000       0.06281000 </v>
   <v>       0.74987000       0.29519000       0.31282000 </v>
   <v>       0.99987000       0.70481000       0.31282000 </v>
   <v>       0.00013000       0.29519000       0.56281000 </v>
   <v>       0.25013000       0.70481000       0.56281000 </v>
   <v>       0.24987000       0.29519000       0.81282000 </v>
   <v>       0.49987000       0.70481000       0.81282000 </v>
   <v>       0.50013000       0.29519000       0.56281000 </v>
   <v>       0.75013000       0.70481000       0.56281000 </v>
   <v>       0.74987000       0.29519000       0.81282000 </v>
   <v>       0.99987000       0.70481000       0.81282000 </v>
   <v>       0.25005000       0.32677000       0.06286000 </v>
   <v>       0.00005000       0.67323000       0.06286000 </v>
   <v>       0.49995000       0.32677000       0.31286000 </v>
   <v>       0.24995000       0.67323000       0.31286000 </v>
   <v>       0.75005000       0.32677000       0.06286000 </v>
   <v>       0.50005000       0.67323000       0.06286000 </v>
   <v>       0.99995000       0.32677000       0.31286000 </v>
   <v>       0.74995000       0.67323000       0.31286000 </v>
   <v>       0.25005000       0.32677000       0.56286000 </v>
   <v>       0.00005000       0.67323000       0.56286000 </v>
   <v>       0.49995000       0.32677000       0.81286000 </v>
   <v>       0.24995000       0.67323000       0.81286000 </v>
   <v>       0.75005000       0.32677000       0.56286000 </v>
   <v>       0.50005000       0.67323000       0.56286000 </v>
   <v>       0.99995000       0.32677000       0.81286000 </v>
   <v>       0.74995000       0.67323000       0.81286000 </v>
   <v>       0.49987000       0.07798000       0.06246000 </v>
   <v>       0.24987000       0.92202000       0.06246000 </v>
   <v>       0.25013000       0.07798000       0.31246000 </v>
   <v>       0.00013000       0.92202000       0.31246000 </v>
   <v>       0.99987000       0.07798000       0.06246000 </v>
   <v>       0.74987000       0.92202000       0.06246000 </v>
   <v>       0.75013000       0.07798000       0.31246000 </v>
   <v>       0.50013000       0.92202000       0.31246000 </v>
   <v>       0.49987000       0.07798000       0.56246000 </v>
   <v>       0.24987000       0.92202000       0.56246000 </v>
   <v>       0.25013000       0.07798000       0.81246000 </v>
   <v>       0.00013000       0.92202000       0.81246000 </v>
   <v>       0.99987000       0.07798000       0.56246000 </v>
   <v>       0.74987000       0.92202000       0.56246000 </v>
   <v>       0.75013000       0.07798000       0.81246000 </v>
   <v>       0.50013000       0.92202000       0.81246000 </v>
  </varray>
 </structure>
 <calculation>
  <scstep>
   <time name="dav">   60.75   60.76</time>
   <time name="total">   60.83   60.85</time>
   <energy>
    <i name="alphaZ">   1054.17224280 </i>
    <i name="ewald"> -30178.64207567 </i>
    <i name="hartreedc"> -12705.60144455 </i>
    <i name="XCdc">   1173.29031559 </i>
    <i name="pawpsdc">  36541.05238669 </i>
    <i name="pawaedc"> -35795.85877930 </i>
    <i name="eentropy">      0.00000000 </i>
    <i name="bandstr">   1918.54503370 </i>
    <i name="atom">  43643.51795008 </i>
    <i name="e_fr_energy">   5650.47562934 </i>
    <i name="e_wo_entrp">   5650.47562934 </i>
    <i name="e_0_energy">   5650.47562934 </i>
   </energy>
  </scstep>
  <scstep>
   <time name="dav">   61.97   62.06</time>
   <time name="total">   61.98   62.07</time>
   <energy>
    <i name="e_fr_energy">    729.19289691 </i>
    <i name="e_wo_entrp">    729.19289691 </i>
    <i name="e_0_energy">    729.19289691 </i>
   </energy>
  </scstep>
  <scstep>
   <time name="dav">   70.72   70.83</time>
   <time name="total">   70.72   70.83</time>
   <energy>
    <i name="e_fr_energy">   -248.27348572 </i>
    <i name="e_wo_entrp">   -248.27348572 </i>
    <i name="e_0_energy">   -248.27348572 </i>
   </energy>
  </scstep>
  <scstep>
   <time name="dav">   73.11   73.24</time>
   <time name="total">   73.11   73.24</time>
   <energy>
    <i name="e_fr_energy">   -332.25658295 </i>
    <i name="e_wo_entrp">   -332.25658295 </i>
    <i name="e_0_energy">   -332.25658295 </i>
   </energy>
  </scstep>
  <scstep>
   <time name="dav">   92.47   92.65</time>
   <time name="total">   93.20   93.37</time>
   <energy>
    <i name="e_fr_energy">   -338.20696278 </i>
    <i name="e_wo_entrp">   -338.20696278 </i>
    <i name="e_0_energy">   -338.20696278 </i>
   </energy>
  </scstep>
  <scstep>
   <time name="dav">   86.15   86.41</time>
   <time name="total">   86.95   87.20</time>
   <energy>
    <i name="e_fr_energy">   -284.43221907 </i>
    <i name="e_wo_entrp">   -284.43221907 </i>
    <i name="e_0_energy">   -284.43221907 </i>
   </energy>
  </scstep>
  <scstep>
   <time name="dav">   65.66   65.79</time>
   <time name="total">   66.44   66.58</time>
   <energy>
    <i name="e_fr_energy">   -286.64140743 </i>
    <i name="e_wo_entrp">   -286.64140743 </i>
    <i name="e_0_energy">   -286.64140743 </i>
   </energy>
  </scstep>
  <scstep>
   <time name="dav">   78.29   78.46</time>
   <time name="total">   79.07   79.25</time>
   <energy>
    <i name="e_fr_energy">   -285.81085857 </i>
    <i name="e_wo_entrp">   -285.81085857 </i>
    <i name="e_0_energy">   -285.81085857 </i>
   </energy>
  </scstep>
  <scstep>
   <time name="dav">   78.63   78.80</time>
   <time name="total">   79.39   79.59</time>
   <energy>
    <i name="e_fr_energy">   -285.39042172 </i>
    <i name="e_wo_entrp">   -285.39042172 </i>
    <i name="e_0_energy">   -285.39042172 </i>
   </energy>
  </scstep>
  <scstep>
   <time name="dav">   70.70   70.82</time>
   <time name="total">   71.49   71.61</time>
   <energy>
    <i name="e_fr_energy">   -285.40154823 </i>
    <i name="e_wo_entrp">   -285.40154823 </i>
    <i name="e_0_energy">   -285.40154823 </i>
   </energy>
  </scstep>
  <scstep>
   <time name="dav">   78.01   78.18</time>
   <time name="total">   78.80   78.97</time>
   <energy>
    <i name="e_fr_energy">   -285.40876627 </i>
    <i name="e_wo_entrp">   -285.40876627 </i>
    <i name="e_0_energy">   -285.40876627 </i>
   </energy>
  </scstep>
  <scstep>
   <time name="dav">   77.45   77.59</time>
   <time name="total">   78.24   78.39</time>
   <energy>
    <i name="e_fr_energy">   -285.41179381 </i>
    <i name="e_wo_entrp">   -285.41179381 </i>
    <i name="e_0_energy">   -285.41179381 </i>
   </energy>
  </scstep>
  <scstep>
   <time name="dav">   73.89   74.04</time>
   <time name="total">   74.67   74.83</time>
   <energy>
    <i name="e_fr_energy">   -285.41284561 </i>
    <i name="e_wo_entrp">   -285.41284561 </i>
    <i name="e_0_energy">   -285.41284561 </i>
   </energy>
  </scstep>
  <scstep>
   <time name="dav">   75.13   75.24</time>
   <time name="total">   75.92   76.03</time>
   <energy>
    <i name="e_fr_energy">   -285.41301589 </i>
    <i name="e_wo_entrp">   -285.41301589 </i>
    <i name="e_0_energy">   -285.41301589 </i>
   </energy>
  </scstep>
  <scstep>
   <time name="dav">   82.88   82.93</time>
   <time name="total">   83.67   83.72</time>
   <energy>
    <i name="e_fr_energy">   -285.41304028 </i>
    <i name="e_wo_entrp">   -285.41304028 </i>
    <i name="e_0_energy">   -285.41304028 </i>
   </energy>
  </scstep>
  <scstep>
   <time name="dav">   60.84   60.91</time>
   <time name="total">   61.62   61.70</time>
   <energy>
    <i name="e_fr_energy">   -285.41305561 </i>
    <i name="e_wo_entrp">   -285.41305561 </i>
    <i name="e_0_energy">   -285.41305561 </i>
   </energy>
  </scstep>
  <scstep>
   <time name="dav">   68.80   68.93</time>
   <time name="total">   69.59   69.72</time>
   <energy>
    <i name="e_fr_energy">   -285.41305711 </i>
    <i name="e_wo_entrp">   -285.41305711 </i>
    <i name="e_0_energy">   -285.41305711 </i>
   </energy>
  </scstep>
  <scstep>
   <time name="dav">   56.66   56.83</time>
   <time name="total">   56.73   56.90</time>
   <energy>
    <i name="alphaZ">   1054.17224280 </i>
    <i name="ewald"> -30178.64207567 </i>
    <i name="hartreedc"> -12945.33422992 </i>
    <i name="XCdc">   1198.68642973 </i>
    <i name="pawpsdc">  43561.52412146 </i>
    <i name="pawaedc"> -42788.68437981 </i>
    <i name="eentropy">      0.00000000 </i>
    <i name="bandstr">  -3830.65311592 </i>
    <i name="atom">  43643.51795008 </i>
    <i name="e_fr_energy">   -285.41305725 </i>
    <i name="e_wo_entrp">   -285.41305725 </i>
    <i name="e_0_energy">   -285.41305725 </i>
   </energy>
  </scstep>
  <structure>
   <crystal>
    <varray name="basis" >
     <v>      11.17850000       0.00000000       0.00000000 </v>
     <v>       0.00000000       9.57460000       0.00000000 </v>
     <v>       0.00000000       0.00000000      11.18240000 </v>
    </varray>
    <i name="volume">   1196.84853820 </i>
    <varray name="rec_basis" >
     <v>       0.08945744       0.00000000       0.00000000 </v>
     <v>       0.00000000       0.10444301       0.00000000 </v>
     <v>       0.00000000       0.00000000       0.08942624 </v>
    </varray>
   </crystal>
   <varray name="positions" >
    <v>       0.87539000       0.00017000       0.43687000 </v>
    <v>       0.87461000       0.00017000       0.18687000 </v>
    <v>       0.12539000       0.99984000       0.93687000 </v>
    <v>       0.12461000       0.99984000       0.68687000 </v>
    <v>       0.12461000       0.99984000       0.18687000 </v>
    <v>       0.37461000       0.00017000       0.18687000 </v>
    <v>       0.62539000       0.99984000       0.43687000 </v>
    <v>       0.37461000       0.00017000       0.68687000 </v>
    <v>       0.62539000       0.99984000       0.93687000 </v>
    <v>       0.87461000       0.00017000       0.68687000 </v>
    <v>       0.00013000       0.29519000       0.06281000 </v>
    <v>       0.25013000       0.70481000       0.06281000 </v>
    <v>       0.24987000       0.29519000       0.31282000 </v>
    <v>       0.49987000       0.70481000       0.31282000 </v>
    <v>       0.50013000       0.29519000       0.06281000 </v>
    <v>       0.75013000       0.70481000       0.06281000 </v>
    <v>       0.74987000       0.29519000       0.31282000 </v>
    <v>       0.99987000       0.70481000       0.31282000 </v>
    <v>       0.00013000       0.29519000       0.56281000 </v>
    <v>       0.25013000       0.70481000       0.56281000 </v>
    <v>       0.24987000       0.29519000       0.81282000 </v>
    <v>       0.49987000       0.70481000       0.81282000 </v>
    <v>       0.50013000       0.29519000       0.56281000 </v>
    <v>       0.75013000       0.70481000       0.56281000 </v>
    <v>       0.74987000       0.29519000       0.81282000 </v>
    <v>       0.99987000       0.70481000       0.81282000 </v>
    <v>       0.25005000       0.32677000       0.06286000 </v>
    <v>       0.00005000       0.67323000       0.06286000 </v>
    <v>       0.49995000       0.32677000       0.31286000 </v>
    <v>       0.24995000       0.67323000       0.31286000 </v>
    <v>       0.75005000       0.32677000       0.06286000 </v>
    <v>       0.50005000       0.67323000       0.06286000 </v>
    <v>       0.99995000       0.32677000       0.31286000 </v>
    <v>       0.74995000       0.67323000       0.31286000 </v>
    <v>       0.25005000       0.32677000       0.56286000 </v>
    <v>       0.00005000       0.67323000       0.56286000 </v>
    <v>       0.49995000       0.32677000       0.81286000 </v>
    <v>       0.24995000       0.67323000       0.81286000 </v>
    <v>       0.75005000       0.32677000       0.56286000 </v>
    <v>       0.50005000       0.67323000       0.56286000 </v>
    <v>       0.99995000       0.32677000       0.81286000 </v>
    <v>       0.74995000       0.67323000       0.81286000 </v>
    <v>       0.49987000       0.07798000       0.06246000 </v>
    <v>       0.24987000       0.92202000       0.06246000 </v>
    <v>       0.25013000       0.07798000       0.31246000 </v>
    <v>       0.00013000       0.92202000       0.31246000 </v>
    <v>       0.99987000       0.07798000       0.06246000 </v>
    <v>       0.74987000       0.92202000       0.06246000 </v>
    <v>       0.75013000       0.07798000       0.31246000 </v>
    <v>       0.50013000       0.92202000       0.31246000 </v>
    <v>       0.49987000       0.07798000       0.56246000 </v>
    <v>       0.24987000       0.92202000       0.56246000 </v>
    <v>       0.25013000       0.07798000       0.81246000 </v>
    <v>       0.00013000       0.92202000       0.81246000 </v>
    <v>       0.99987000       0.07798000       0.56246000 </v>
    <v>       0.74987000       0.92202000       0.56246000 </v>
    <v>       0.75013000       0.07798000       0.81246000 </v>
    <v>       0.50013000       0.92202000       0.81246000 </v>
   </varray>
  </structure>
  <varray name="forces" >
   <v>       0.57709790       0.05719369      -0.39074498 </v>
   <v>      -0.63333866      -0.06903822      -0.33222299 </v>
   <v>      -0.09115807       0.06563295      -0.40693222 </v>
   <v>       0.16804489      -0.06465529      -0.31687107 </v>
   <v>      -0.73425358       0.11062123       0.80961400 </v>
   <v>       1.42253597       0.11078337       0.25111194 </v>
   <v>      -0.85810636       0.11665265      -0.14447925 </v>
   <v>       0.44283588      -0.12379117      -0.17720091 </v>
   <v>       0.13979462      -0.11658571       0.18848055 </v>
   <v>      -0.38924364       0.10467550       0.82196612 </v>
   <v>      -0.29921984       0.05258978      -0.19791913 </v>
   <v>       0.10589126      -1.06485112      -0.31570221 </v>
   <v>      -0.01558049       0.01618064       0.47920295 </v>
   <v>       0.01924158       0.07951349      -0.01363005 </v>
   <v>       0.09594833      -0.08437972      -0.00029705 </v>
   <v>       0.07090617       1.01335643       0.07498367 </v>
   <v>      -0.02446159       0.05720230      -0.30926457 </v>
   <v>       0.04568354       0.00535724       0.17976393 </v>
   <v>       0.29563001       0.05922628      -0.18070533 </v>
   <v>      -0.09114963       0.96292548      -0.26061889 </v>
   <v>       0.03666045       0.00846834       0.07612577 </v>
   <v>      -0.02578507       0.09815453      -0.01348345 </v>
   <v>      -0.10808019      -0.08574158       0.00736391 </v>
   <v>      -0.11755398      -1.00201677       0.12326081 </v>
   <v>       0.03593006      -0.08070227       0.08855765 </v>
   <v>      -0.02374588       0.00305928       0.17821513 </v>
   <v>      -0.03641253       0.12142228       0.09835374 </v>
   <v>       0.24735355      -0.13481431       0.06211321 </v>
   <v>       0.00596038       0.09951693       0.00119210 </v>
   <v>      -0.01605975      -0.07157462      -0.29572072 </v>
   <v>      -0.02174474       0.12837815      -0.02761794 </v>
   <v>      -0.19101225      -0.10190745       0.01021379 </v>
   <v>       0.02464352       0.15217259      -0.05717216 </v>
   <v>      -0.01351005      -0.13407128       0.24587114 </v>
   <v>       0.02116366       0.13423855       0.07446590 </v>
   <v>      -0.23537639      -0.13739468       0.05149762 </v>
   <v>      -0.00899306       0.09856782       0.00123029 </v>
   <v>       0.00540550      -0.18157171       0.12815080 </v>
   <v>       0.03915019       0.11137326      -0.03516650 </v>
   <v>       0.17254540      -0.10477440      -0.01616156 </v>
   <v>      -0.01771520       0.15122582      -0.06058408 </v>
   <v>       0.02557393      -0.09758380      -0.18315290 </v>
   <v>      -0.11902421       0.28919065       0.01433535 </v>
   <v>      -0.59065467       0.76317435       1.48634765 </v>
   <v>      -0.01261892      -0.12111346      -2.20457137 </v>
   <v>      -0.15108050      -0.04976863      -1.08799892 </v>
   <v>       1.19137933      -0.07014687       1.04241717 </v>
   <v>      -0.46947115      -0.93998762      -0.47508907 </v>
   <v>       0.12688416       0.00003219       1.23658165 </v>
   <v>      -0.00274932      -0.28142192      -0.00952616 </v>
   <v>       0.16757311       0.29220870      -0.04481949 </v>
   <v>       0.43697108      -0.74688584       1.62978492 </v>
   <v>      -0.16805553       0.08970952      -0.95656564 </v>
   <v>       0.10577141      -0.04263803      -1.10906218 </v>
   <v>      -1.20509035      -0.08085562       1.05208447 </v>
   <v>       0.62535491       0.63720953      -0.64211411 </v>
   <v>       0.02399286       0.28947436      -0.14275107 </v>
   <v>      -0.00467802      -0.29121582      -0.00514029 </v>
  </varray>
  <varray name="stress" >
   <v>      -4.01860981       0.23819921       0.01974776 </v>
   <v>       0.23819905     -13.32874414       0.20943363 </v>
   <v>       0.01974767       0.20943387     -13.48727571 </v>
  </varray>
  <energy>
   <i name="e_fr_energy">   -297.10125258 </i>
   <i name="e_wo_entrp">   -297.10125258 </i>
   <i name="e_0_energy">      0.00000000 </i>
  </energy>
  <time name="totalsc"> 1433.58 1436.15</time>
  <eigenvalues>
   <array>
    <dimension dim="1">band</dimension>
    <dimension dim="2">kpoint</dimension>
    <dimension dim="3">spin</dimension>
    <field>eigene</field>
    <field>occ</field>
    <set>
     <set comment="spin 1">
      <set comment="kpoint 1">
       <r>  -40.0871    1.0000 </r>
       <r>  -39.9980    1.0000 </r>
       <r>  -39.7528    1.0000 </r>
       <r>  -39.6870    1.0000 </r>
       <r>  -18.9199    1.0000 </r>
       <r>  -18.9027    1.0000 </r>
       <r>  -18.8479    1.0000 </r>
       <r>  -18.8410    1.0000 </r>
       <r>  -18.8383    1.0000 </r>
       <r>  -18.8307    1.0000 </r>
       <r>  -18.7462    1.0000 </r>
       <r>  -18.7415    1.0000 </r>
       <r>  -18.7361    1.0000 </r>
       <r>  -18.7338    1.0000 </r>
       <r>  -18.7328    1.0000 </r>
       <r>  -18.7307    1.0000 </r>
       <r>  -18.7248    1.0000 </r>
       <r>  -18.7227    1.0000 </r>
       <r>  -18.7209    1.0000 </r>
       <r>  -18.7189    1.0000 </r>
       <r>  -18.7144    1.0000 </r>
       <r>  -18.7143    1.0000 </r>
       <r>  -18.7091    1.0000 </r>
       <r>  -18.7056    1.0000 </r>
       <r>  -18.7040    1.0000 </r>
       <r>  -18.7020    1.0000 </r>
       <r>  -18.7012    1.0000 </r>
       <r>  -18.7003    1.0000 </r>
       <r>  -18.6936    1.0000 </r>
       <r>  -18.6930    1.0000 </r>
       <r>  -18.6916    1.0000 </r>
       <r>  -18.6903    1.0000 </r>
       <r>  -18.6903    1.0000 </r>
       <r>  -18.6862    1.0000 </r>
       <r>  -18.6855    1.0000 </r>
       <r>  -18.6829    1.0000 </r>
       <r>  -18.6822    1.0000 </r>
       <r>  -18.6815    1.0000 </r>
       <r>  -18.6784    1.0000 </r>
       <r>  -18.6759    1.0000 </r>
       <r>  -18.6751    1.0000 </r>
       <r>  -18.6730    1.0000 </r>
       <r>  -18.6714    1.0000 </r>
       <r>  -18.6680    1.0000 </r>
       <r>  -18.6656    1.0000 </r>
       <r>  -18.6656    1.0000 </r>
       <r>  -18.6609    1.0000 </r>
       <r>  -18.6586    1.0000 </r>
       <r>  -18.6547    1.0000 </r>
       <r>  -18.6490    1.0000 </r>
       <r>  -18.5730    1.0000 </r>
       <r>  -18.5706    1.0000 </r>
       <r>  -18.5676    1.0000 </r>
       <r>  -18.5630    1.0000 </r>
       <r>  -18.5609    1.0000 </r>
       <r>  -18.5603    1.0000 </r>
       <r>  -18.5574    1.0000 </r>
       <r>  -18.5502    1.0000 </r>
       <r>  -18.5436    1.0000 </r>
       <r>  -18.5432    1.0000 </r>
       <r>  -18.5422    1.0000 </r>
       <r>  -18.5359    1.0000 </r>
       <r>  -18.5350    1.0000 </r>
       <r>  -18.5343    1.0000 </r>
       <r>  -18.5330    1.0000 </r>
       <r>  -18.5310    1.0000 </r>
       <r>  -18.5307    1.0000 </r>
       <r>  -18.5263    1.0000 </r>
       <r>  -18.5203    1.0000 </r>
       <r>  -18.5202    1.0000 </r>
       <r>  -18.5197    1.0000 </r>
       <r>  -18.5165    1.0000 </r>
       <r>  -18.5146    1.0000 </r>
       <r>  -18.5074    1.0000 </r>
       <r>  -18.5064    1.0000 </r>
       <r>  -18.5037    1.0000 </r>
       <r>  -18.5017    1.0000 </r>
       <r>  -18.4924    1.0000 </r>
       <r>  -18.4544    1.0000 </r>
       <r>  -18.4319    1.0000 </r>
       <r>  -18.3312    1.0000 </r>
       <r>  -18.3234    1.0000 </r>
       <r>  -18.3207    1.0000 </r>
       <r>  -18.2953    1.0000 </r>
       <r>  -13.5644    1.0000 </r>
       <r>  -13.4824    1.0000 </r>
       <r>  -12.9670    1.0000 </r>
       <r>  -12.8846    1.0000 </r>
       <r>  -12.8546    1.0000 </r>
       <r>  -12.8354    1.0000 </r>
       <r>  -12.8188    1.0000 </r>
       <r>  -12.7546    1.0000 </r>
       <r>  -12.7344    1.0000 </r>
       <r>  -12.7252    1.0000 </r>
       <r>  -12.7175    1.0000 </r>
       <r>  -12.7072    1.0000 </r>
       <r>  -12.6597    1.0000 </r>
       <r>  -12.6424    1.0000 </r>
       <r>  -12.1710    1.0000 </r>
       <r>  -12.1025    1.0000 </r>
       <r>   -9.3760    1.0000 </r>
       <r>   -9.0778    1.0000 </r>
       <r>   -8.6071    1.0000 </r>
       <r>   -8.5415    1.0000 </r>
       <r>   -8.5402    1.0000 </r>
       <r>   -8.4809    1.0000 </r>
       <r>   -8.3806    1.0000 </r>
       <r>   -8.3138    1.0000 </r>
       <r>   -8.3126    1.0000 </r>
       <r>   -8.2527    1.0000 </r>
       <r>   -8.0951    1.0000 </r>
       <r>   -8.0846    1.0000 </r>
       <r>   -8.0819    1.0000 </r>
       <r>   -8.0716    1.0000 </r>
       <r>   -7.4200    1.0000 </r>
       <r>   -7.4121    1.0000 </r>
       <r>   -6.4324    1.0000 </r>
       <r>   -6.4172    1.0000 </r>
       <r>   -6.3975    1.0000 </r>
       <r>   -6.3819    1.0000 </r>
       <r>   -5.5270    1.0000 </r>
       <r>   -5.5149    1.0000 </r>
       <r>   -5.4670    1.0000 </r>
       <r>   -5.3925    1.0000 </r>
       <r>   -5.3912    1.0000 </r>
       <r>   -5.3367    1.0000 </r>
       <r>   -5.3017    1.0000 </r>
       <r>   -5.2241    1.0000 </r>
       <r>   -5.2229    1.0000 </r>
       <r>   -5.0881    1.0000 </r>
       <r>   -3.8761    1.0000 </r>
       <r>   -3.7297    1.0000 </r>
       <r>   -1.5263    1.0000 </r>
       <r>   -1.3635    1.0000 </r>
       <r>   -1.1640    1.0000 </r>
       <r>   -1.0370    1.0000 </r>
       <r>   -0.6371    1.0000 </r>
       <r>   -0.5838    1.0000 </r>
       <r>   -0.5537    1.0000 </r>
       <r>   -0.5132    1.0000 </r>
       <r>   -0.2502    1.0000 </r>
       <r>   -0.2314    1.0000 </r>
       <r>   -0.2163    1.0000 </r>
       <r>   -0.1819    1.0000 </r>
       <r>    0.0038    1.0000 </r>
       <r>    0.1621    1.0000 </r>
       <r>    0.1678    1.0000 </r>
       <r>    0.3507    1.0000 </r>
       <r>    0.4546    1.0000 </r>
       <r>    0.4977    1.0000 </r>
       <r>    0.5600    1.0000 </r>
       <r>    0.5837    1.0000 </r>
       <r>    0.6237    1.0000 </r>
       <r>    0.6427    1.0000 </r>
       <r>    0.6803    1.0000 </r>
       <r>    0.6871    1.0000 </r>
       <r>    0.7262    1.0000 </r>
       <r>    0.7714    1.0000 </r>
       <r>    0.8151    1.0000 </r>
       <r>    0.8642    1.0000 </r>
       <r>    0.8994    1.0000 </r>
       <r>    0.9220    1.0000 </r>
       <r>    0.9333    1.0000 </r>
       <r>    0.9594    1.0000 </r>
       <r>    1.0435    1.0000 </r>
       <r>    1.1179    1.0000 </r>
       <r>    1.1307    1.0000 </r>
       <r>    1.1679    1.0000 </r>
       <r>    1.2225    1.0000 </r>
       <r>    1.2754    1.0000 </r>
       <r>    1.3369    1.0000 </r>
       <r>    1.4347    1.0000 </r>
       <r>    1.4468    1.0000 </r>
       <r>    1.4982    1.0000 </r>
       <r>    1.5086    1.0000 </r>
       <r>    1.5245    1.0000 </r>
       <r>    1.5379    1.0000 </r>
       <r>    1.6196    1.0000 </r>
       <r>    1.6794    1.0000 </r>
       <r>    1.7375    1.0000 </r>
       <r>    1.8172    1.0000 </r>
       <r>    1.8327    1.0000 </r>
       <r>    1.8924    1.0000 </r>
       <r>    1.9333    1.0000 </r>
       <r>    1.9913    1.0000 </r>
       <r>    2.1007    1.0000 </r>
       <r>    2.1960    1.0000 </r>
       <r>    2.2305    1.0000 </r>
       <r>    2.2864    1.0000 </r>
       <r>    2.3287    1.0000 </r>
       <r>    2.4428    1.0000 </r>
       <r>    2.5102    1.0000 </r>
       <r>    2.5164    1.0000 </r>
       <r>    2.5195    1.0000 </r>
       <r>    2.5410    1.0000 </r>
       <r>    2.5501    1.0000 </r>
       <r>    2.6053    1.0000 </r>
       <r>    2.6337    1.0000 </r>
       <r>    2.6652    1.0000 </r>
       <r>    2.6874    1.0000 </r>
       <r>    2.7372    1.0000 </r>
       <r>    2.7684    1.0000 </r>
       <r>    2.7988    1.0000 </r>
       <r>    2.8160    1.0000 </r>
       <r>    2.8338    1.0000 </r>
       <r>    2.8613    1.0000 </r>
       <r>    2.8688    1.0000 </r>
       <r>    2.9164    1.0000 </r>
       <r>    2.9539    1.0000 </r>
       <r>    2.9842    1.0000 </r>
       <r>    3.0011    1.0000 </r>
       <r>    3.0476    1.0000 </r>
       <r>    3.0628    1.0000 </r>
       <r>    3.0750    1.0000 </r>
       <r>    3.1012    1.0000 </r>
       <r>    3.1220    1.0000 </r>
       <r>    3.1322    1.0000 </r>
       <r>    3.1374    1.0000 </r>
       <r>    3.1991    1.0000 </r>
       <r>    3.3019    1.0000 </r>
       <r>    3.3495    1.0000 </r>
       <r>    3.3671    1.0000 </r>
       <r>    3.4536    1.0000 </r>
       <r>    3.5816    1.0000 </r>
       <r>    4.1102    1.0000 </r>
       <r>    4.1300    1.0000 </r>
       <r>    4.1557    1.0000 </r>
       <r>    4.1752    1.0000 </r>
       <r>    4.9651    0.0000 </r>
       <r>    4.9834    0.0000 </r>
       <r>    5.1157    0.0000 </r>
       <r>    5.1370    0.0000 </r>
       <r>    5.6924    0.0000 </r>
       <r>    5.7112    0.0000 </r>
       <r>    5.7841    0.0000 </r>
       <r>    5.8065    0.0000 </r>
       <r>    6.0432    0.0000 </r>
       <r>    6.0641    0.0000 </r>
       <r>    6.0703    0.0000 </r>
       <r>    6.0922    0.0000 </r>
       <r>    6.1639    0.0000 </r>
       <r>    6.1789    0.0000 </r>
       <r>    6.1833    0.0000 </r>
       <r>    6.2056    0.0000 </r>
       <r>    7.0356    0.0000 </r>
       <r>    7.0821    0.0000 </r>
       <r>    7.2409    0.0000 </r>
       <r>    7.2995    0.0000 </r>
       <r>    7.6216    0.0000 </r>
       <r>    7.8511    0.0000 </r>
       <r>    7.8698    0.0000 </r>
       <r>    7.8781    0.0000 </r>
       <r>    7.8855    0.0000 </r>
       <r>    7.9485    0.0000 </r>
       <r>    7.9972    0.0000 </r>
       <r>    8.1077    0.0000 </r>
       <r>    8.2146    0.0000 </r>
       <r>    8.5033    0.0000 </r>
       <r>    8.5763    0.0000 </r>
       <r>    8.6912    0.0000 </r>
       <r>    8.7288    0.0000 </r>
       <r>    8.7899    0.0000 </r>
       <r>    8.8970    0.0000 </r>
       <r>    8.9547    0.0000 </r>
       <r>    8.9711    0.0000 </r>
       <r>    8.9858    0.0000 </r>
       <r>    9.0083    0.0000 </r>
       <r>    9.0578    0.0000 </r>
       <r>    9.0714    0.0000 </r>
       <r>    9.1065    0.0000 </r>
       <r>    9.1510    0.0000 </r>
       <r>    9.2029    0.0000 </r>
       <r>    9.3834    0.0000 </r>
       <r>    9.4072    0.0000 </r>
       <r>    9.4410    0.0000 </r>
       <r>    9.4523    0.0000 </r>
       <r>    9.6148    0.0000 </r>
       <r>    9.6337    0.0000 </r>
       <r>    9.6835    0.0000 </r>
       <r>    9.7631    0.0000 </r>
      </set>
      <set comment="kpoint 2">
       <r>  -40.0871    1.0000 </r>
       <r>  -39.9980    1.0000 </r>
       <r>  -39.7528    1.0000 </r>
       <r>  -39.6870    1.0000 </r>
       <r>  -18.9199    1.0000 </r>
       <r>  -18.9027    1.0000 </r>
       <r>  -18.8476    1.0000 </r>
       <r>  -18.8405    1.0000 </r>
       <r>  -18.8385    1.0000 </r>
       <r>  -18.8313    1.0000 </r>
       <r>  -18.7415    1.0000 </r>
       <r>  -18.7414    1.0000 </r>
       <r>  -18.7338    1.0000 </r>
       <r>  -18.7329    1.0000 </r>
       <r>  -18.7327    1.0000 </r>
       <r>  -18.7305    1.0000 </r>
       <r>  -18.7300    1.0000 </r>
       <r>  -18.7255    1.0000 </r>
       <r>  -18.7202    1.0000 </r>
       <r>  -18.7188    1.0000 </r>
       <r>  -18.7144    1.0000 </r>
       <r>  -18.7137    1.0000 </r>
       <r>  -18.7129    1.0000 </r>
       <r>  -18.7098    1.0000 </r>
       <r>  -18.7063    1.0000 </r>
       <r>  -18.7037    1.0000 </r>
       <r>  -18.7024    1.0000 </r>
       <r>  -18.7006    1.0000 </r>
       <r>  -18.6913    1.0000 </r>
       <r>  -18.6903    1.0000 </r>
       <r>  -18.6897    1.0000 </r>
       <r>  -18.6893    1.0000 </r>
       <r>  -18.6866    1.0000 </r>
       <r>  -18.6858    1.0000 </r>
       <r>  -18.6850    1.0000 </r>
       <r>  -18.6821    1.0000 </r>
       <r>  -18.6819    1.0000 </r>
       <r>  -18.6787    1.0000 </r>
       <r>  -18.6764    1.0000 </r>
       <r>  -18.6756    1.0000 </r>
       <r>  -18.6750    1.0000 </r>
       <r>  -18.6737    1.0000 </r>
       <r>  -18.6719    1.0000 </r>
       <r>  -18.6692    1.0000 </r>
       <r>  -18.6672    1.0000 </r>
       <r>  -18.6658    1.0000 </r>
       <r>  -18.6611    1.0000 </r>
       <r>  -18.6593    1.0000 </r>
       <r>  -18.6566    1.0000 </r>
       <r>  -18.6491    1.0000 </r>
       <r>  -18.5730    1.0000 </r>
       <r>  -18.5706    1.0000 </r>
       <r>  -18.5676    1.0000 </r>
       <r>  -18.5630    1.0000 </r>
       <r>  -18.5610    1.0000 </r>
       <r>  -18.5604    1.0000 </r>
       <r>  -18.5574    1.0000 </r>
       <r>  -18.5502    1.0000 </r>
       <r>  -18.5436    1.0000 </r>
       <r>  -18.5432    1.0000 </r>
       <r>  -18.5420    1.0000 </r>
       <r>  -18.5359    1.0000 </r>
       <r>  -18.5350    1.0000 </r>
       <r>  -18.5344    1.0000 </r>
       <r>  -18.5329    1.0000 </r>
       <r>  -18.5309    1.0000 </r>
       <r>  -18.5308    1.0000 </r>
       <r>  -18.5263    1.0000 </r>
       <r>  -18.5203    1.0000 </r>
       <r>  -18.5202    1.0000 </r>
       <r>  -18.5195    1.0000 </r>
       <r>  -18.5166    1.0000 </r>
       <r>  -18.5146    1.0000 </r>
       <r>  -18.5074    1.0000 </r>
       <r>  -18.5064    1.0000 </r>
       <r>  -18.5040    1.0000 </r>
       <r>  -18.5017    1.0000 </r>
       <r>  -18.4924    1.0000 </r>
       <r>  -18.4544    1.0000 </r>
       <r>  -18.4320    1.0000 </r>
       <r>  -18.3312    1.0000 </r>
       <r>  -18.3234    1.0000 </r>
       <r>  -18.3207    1.0000 </r>
       <r>  -18.2953    1.0000 </r>
       <r>  -13.5640    1.0000 </r>
       <r>  -13.4824    1.0000 </r>
       <r>  -12.9543    1.0000 </r>
       <r>  -12.9057    1.0000 </r>
       <r>  -12.8613    1.0000 </r>
       <r>  -12.8269    1.0000 </r>
       <r>  -12.8153    1.0000 </r>
       <r>  -12.7643    1.0000 </r>
       <r>  -12.7298    1.0000 </r>
       <r>  -12.7229    1.0000 </r>
       <r>  -12.7154    1.0000 </r>
       <r>  -12.6944    1.0000 </r>
       <r>  -12.6684    1.0000 </r>
       <r>  -12.6432    1.0000 </r>
       <r>  -12.1710    1.0000 </r>
       <r>  -12.1025    1.0000 </r>
       <r>   -9.1665    1.0000 </r>
       <r>   -9.1586    1.0000 </r>
       <r>   -8.8885    1.0000 </r>
       <r>   -8.8799    1.0000 </r>
       <r>   -8.3887    1.0000 </r>
       <r>   -8.3781    1.0000 </r>
       <r>   -8.3729    1.0000 </r>
       <r>   -8.3691    1.0000 </r>
       <r>   -8.1991    1.0000 </r>
       <r>   -8.1903    1.0000 </r>
       <r>   -8.1841    1.0000 </r>
       <r>   -8.1813    1.0000 </r>
       <r>   -7.7540    1.0000 </r>
       <r>   -7.7486    1.0000 </r>
       <r>   -7.6407    1.0000 </r>
       <r>   -7.6352    1.0000 </r>
       <r>   -5.9996    1.0000 </r>
       <r>   -5.9869    1.0000 </r>
       <r>   -5.9489    1.0000 </r>
       <r>   -5.9391    1.0000 </r>
       <r>   -5.8537    1.0000 </r>
       <r>   -5.8308    1.0000 </r>
       <r>   -5.7976    1.0000 </r>
       <r>   -5.7886    1.0000 </r>
       <r>   -5.7101    1.0000 </r>
       <r>   -5.6887    1.0000 </r>
       <r>   -5.5806    1.0000 </r>
       <r>   -5.5628    1.0000 </r>
       <r>   -4.4951    1.0000 </r>
       <r>   -4.4841    1.0000 </r>
       <r>   -4.3312    1.0000 </r>
       <r>   -4.3207    1.0000 </r>
       <r>   -1.2369    1.0000 </r>
       <r>   -1.2006    1.0000 </r>
       <r>   -0.8675    1.0000 </r>
       <r>   -0.8618    1.0000 </r>
       <r>   -0.4342    1.0000 </r>
       <r>   -0.4186    1.0000 </r>
       <r>   -0.1100    1.0000 </r>
       <r>   -0.0254    1.0000 </r>
       <r>   -0.0048    1.0000 </r>
       <r>    0.0379    1.0000 </r>
       <r>    0.0747    1.0000 </r>
       <r>    0.1654    1.0000 </r>
       <r>    0.1730    1.0000 </r>
       <r>    0.1963    1.0000 </r>
       <r>    0.2637    1.0000 </r>
       <r>    0.2812    1.0000 </r>
       <r>    0.3983    1.0000 </r>
       <r>    0.4454    1.0000 </r>
       <r>    0.4758    1.0000 </r>
       <r>    0.5046    1.0000 </r>
       <r>    0.5213    1.0000 </r>
       <r>    0.5309    1.0000 </r>
       <r>    0.5882    1.0000 </r>
       <r>    0.6044    1.0000 </r>
       <r>    0.6262    1.0000 </r>
       <r>    0.7310    1.0000 </r>
       <r>    0.8533    1.0000 </r>
       <r>    0.8731    1.0000 </r>
       <r>    0.9727    1.0000 </r>
       <r>    0.9970    1.0000 </r>
       <r>    1.0434    1.0000 </r>
       <r>    1.0592    1.0000 </r>
       <r>    1.1097    1.0000 </r>
       <r>    1.1266    1.0000 </r>
       <r>    1.1593    1.0000 </r>
       <r>    1.2174    1.0000 </r>
       <r>    1.2271    1.0000 </r>
       <r>    1.2590    1.0000 </r>
       <r>    1.3060    1.0000 </r>
       <r>    1.3288    1.0000 </r>
       <r>    1.3449    1.0000 </r>
       <r>    1.4086    1.0000 </r>
       <r>    1.4422    1.0000 </r>
       <r>    1.4924    1.0000 </r>
       <r>    1.5504    1.0000 </r>
       <r>    1.5727    1.0000 </r>
       <r>    1.5975    1.0000 </r>
       <r>    1.6624    1.0000 </r>
       <r>    1.6880    1.0000 </r>
       <r>    1.7333    1.0000 </r>
       <r>    1.8209    1.0000 </r>
       <r>    1.8868    1.0000 </r>
       <r>    1.9340    1.0000 </r>
       <r>    1.9801    1.0000 </r>
       <r>    1.9970    1.0000 </r>
       <r>    2.0201    1.0000 </r>
       <r>    2.0626    1.0000 </r>
       <r>    2.1072    1.0000 </r>
       <r>    2.1760    1.0000 </r>
       <r>    2.1865    1.0000 </r>
       <r>    2.2499    1.0000 </r>
       <r>    2.3123    1.0000 </r>
       <r>    2.3647    1.0000 </r>
       <r>    2.4115    1.0000 </r>
       <r>    2.4677    1.0000 </r>
       <r>    2.5042    1.0000 </r>
       <r>    2.5163    1.0000 </r>
       <r>    2.5353    1.0000 </r>
       <r>    2.6165    1.0000 </r>
       <r>    2.6217    1.0000 </r>
       <r>    2.6734    1.0000 </r>
       <r>    2.6922    1.0000 </r>
       <r>    2.7761    1.0000 </r>
       <r>    2.7945    1.0000 </r>
       <r>    2.8034    1.0000 </r>
       <r>    2.8324    1.0000 </r>
       <r>    2.8445    1.0000 </r>
       <r>    2.8559    1.0000 </r>
       <r>    2.9134    1.0000 </r>
       <r>    2.9457    1.0000 </r>
       <r>    2.9718    1.0000 </r>
       <r>    2.9958    1.0000 </r>
       <r>    3.0145    1.0000 </r>
       <r>    3.1293    1.0000 </r>
       <r>    3.1495    1.0000 </r>
       <r>    3.2380    1.0000 </r>
       <r>    3.2850    1.0000 </r>
       <r>    3.3632    1.0000 </r>
       <r>    3.4032    1.0000 </r>
       <r>    3.4183    1.0000 </r>
       <r>    3.4575    1.0000 </r>
       <r>    3.4734    1.0000 </r>
       <r>    3.5133    1.0000 </r>
       <r>    3.5562    1.0000 </r>
       <r>    3.5835    1.0000 </r>
       <r>    3.6909    1.0000 </r>
       <r>    5.6160    0.0000 </r>
       <r>    5.6210    0.0000 </r>
       <r>    5.6331    0.0000 </r>
       <r>    5.6453    0.0000 </r>
       <r>    5.6947    0.0000 </r>
       <r>    5.7073    0.0000 </r>
       <r>    5.7455    0.0000 </r>
       <r>    5.7539    0.0000 </r>
       <r>    7.2025    0.0000 </r>
       <r>    7.2402    0.0000 </r>
       <r>    7.2470    0.0000 </r>
       <r>    7.2556    0.0000 </r>
       <r>    7.2825    0.0000 </r>
       <r>    7.3632    0.0000 </r>
       <r>    7.3927    0.0000 </r>
       <r>    7.3987    0.0000 </r>
       <r>    7.4134    0.0000 </r>
       <r>    7.4403    0.0000 </r>
       <r>    7.4899    0.0000 </r>
       <r>    7.5093    0.0000 </r>
       <r>    7.7685    0.0000 </r>
       <r>    7.7945    0.0000 </r>
       <r>    7.7961    0.0000 </r>
       <r>    7.7988    0.0000 </r>
       <r>    7.8146    0.0000 </r>
       <r>    7.8346    0.0000 </r>
       <r>    7.8801    0.0000 </r>
       <r>    7.9009    0.0000 </r>
       <r>    7.9212    0.0000 </r>
       <r>    7.9628    0.0000 </r>
       <r>    7.9937    0.0000 </r>
       <r>    8.0087    0.0000 </r>
       <r>    8.1342    0.0000 </r>
       <r>    8.2337    0.0000 </r>
       <r>    8.2650    0.0000 </r>
       <r>    8.3377    0.0000 </r>
       <r>    8.5884    0.0000 </r>
       <r>    8.6638    0.0000 </r>
       <r>    8.7196    0.0000 </r>
       <r>    8.7298    0.0000 </r>
       <r>    8.7303    0.0000 </r>
       <r>    8.7719    0.0000 </r>
       <r>    8.8553    0.0000 </r>
       <r>    8.8687    0.0000 </r>
       <r>    9.0903    0.0000 </r>
       <r>    9.1575    0.0000 </r>
       <r>    9.3466    0.0000 </r>
       <r>    9.3787    0.0000 </r>
       <r>    9.4138    0.0000 </r>
       <r>    9.4833    0.0000 </r>
       <r>    9.9886    0.0000 </r>
       <r>   10.1928    0.0000 </r>
      </set>
      <set comment="kpoint 3">
       <r>  -40.0871    1.0000 </r>
       <r>  -39.9980    1.0000 </r>
       <r>  -39.7528    1.0000 </r>
       <r>  -39.6870    1.0000 </r>
       <r>  -18.9199    1.0000 </r>
       <r>  -18.9027    1.0000 </r>
       <r>  -18.8479    1.0000 </r>
       <r>  -18.8410    1.0000 </r>
       <r>  -18.8383    1.0000 </r>
       <r>  -18.8307    1.0000 </r>
       <r>  -18.7462    1.0000 </r>
       <r>  -18.7415    1.0000 </r>
       <r>  -18.7361    1.0000 </r>
       <r>  -18.7338    1.0000 </r>
       <r>  -18.7329    1.0000 </r>
       <r>  -18.7306    1.0000 </r>
       <r>  -18.7248    1.0000 </r>
       <r>  -18.7227    1.0000 </r>
       <r>  -18.7209    1.0000 </r>
       <r>  -18.7189    1.0000 </r>
       <r>  -18.7144    1.0000 </r>
       <r>  -18.7143    1.0000 </r>
       <r>  -18.7091    1.0000 </r>
       <r>  -18.7055    1.0000 </r>
       <r>  -18.7040    1.0000 </r>
       <r>  -18.7020    1.0000 </r>
       <r>  -18.7012    1.0000 </r>
       <r>  -18.7004    1.0000 </r>
       <r>  -18.6936    1.0000 </r>
       <r>  -18.6930    1.0000 </r>
       <r>  -18.6915    1.0000 </r>
       <r>  -18.6904    1.0000 </r>
       <r>  -18.6903    1.0000 </r>
       <r>  -18.6862    1.0000 </r>
       <r>  -18.6854    1.0000 </r>
       <r>  -18.6830    1.0000 </r>
       <r>  -18.6822    1.0000 </r>
       <r>  -18.6815    1.0000 </r>
       <r>  -18.6785    1.0000 </r>
       <r>  -18.6758    1.0000 </r>
       <r>  -18.6751    1.0000 </r>
       <r>  -18.6730    1.0000 </r>
       <r>  -18.6714    1.0000 </r>
       <r>  -18.6680    1.0000 </r>
       <r>  -18.6657    1.0000 </r>
       <r>  -18.6655    1.0000 </r>
       <r>  -18.6609    1.0000 </r>
       <r>  -18.6586    1.0000 </r>
       <r>  -18.6547    1.0000 </r>
       <r>  -18.6489    1.0000 </r>
       <r>  -18.5730    1.0000 </r>
       <r>  -18.5706    1.0000 </r>
       <r>  -18.5676    1.0000 </r>
       <r>  -18.5630    1.0000 </r>
       <r>  -18.5609    1.0000 </r>
       <r>  -18.5603    1.0000 </r>
       <r>  -18.5574    1.0000 </r>
       <r>  -18.5502    1.0000 </r>
       <r>  -18.5436    1.0000 </r>
       <r>  -18.5432    1.0000 </r>
       <r>  -18.5422    1.0000 </r>
       <r>  -18.5359    1.0000 </r>
       <r>  -18.5350    1.0000 </r>
       <r>  -18.5343    1.0000 </r>
       <r>  -18.5330    1.0000 </r>
       <r>  -18.5310    1.0000 </r>
       <r>  -18.5307    1.0000 </r>
       <r>  -18.5263    1.0000 </r>
       <r>  -18.5203    1.0000 </r>
       <r>  -18.5202    1.0000 </r>
       <r>  -18.5197    1.0000 </r>
       <r>  -18.5165    1.0000 </r>
       <r>  -18.5146    1.0000 </r>
       <r>  -18.5074    1.0000 </r>
       <r>  -18.5064    1.0000 </r>
       <r>  -18.5037    1.0000 </r>
       <r>  -18.5017    1.0000 </r>
       <r>  -18.4924    1.0000 </r>
       <r>  -18.4544    1.0000 </r>
       <r>  -18.4319    1.0000 </r>
       <r>  -18.3312    1.0000 </r>
       <r>  -18.3234    1.0000 </r>
       <r>  -18.3207    1.0000 </r>
       <r>  -18.2953    1.0000 </r>
       <r>  -13.5643    1.0000 </r>
       <r>  -13.4822    1.0000 </r>
       <r>  -12.9660    1.0000 </r>
       <r>  -12.8840    1.0000 </r>
       <r>  -12.8540    1.0000 </r>
       <r>  -12.8353    1.0000 </r>
       <r>  -12.8187    1.0000 </r>
       <r>  -12.7545    1.0000 </r>
       <r>  -12.7345    1.0000 </r>
       <r>  -12.7255    1.0000 </r>
       <r>  -12.7175    1.0000 </r>
       <r>  -12.7085    1.0000 </r>
       <r>  -12.6603    1.0000 </r>
       <r>  -12.6437    1.0000 </r>
       <r>  -12.1714    1.0000 </r>
       <r>  -12.1029    1.0000 </r>
       <r>   -9.3640    1.0000 </r>
       <r>   -9.0869    1.0000 </r>
       <r>   -8.6251    1.0000 </r>
       <r>   -8.5590    1.0000 </r>
       <r>   -8.5574    1.0000 </r>
       <r>   -8.4975    1.0000 </r>
       <r>   -8.3598    1.0000 </r>
       <r>   -8.2937    1.0000 </r>
       <r>   -8.2927    1.0000 </r>
       <r>   -8.2337    1.0000 </r>
       <r>   -8.0992    1.0000 </r>
       <r>   -8.0885    1.0000 </r>
       <r>   -8.0860    1.0000 </r>
       <r>   -8.0755    1.0000 </r>
       <r>   -7.4227    1.0000 </r>
       <r>   -7.4149    1.0000 </r>
       <r>   -6.4227    1.0000 </r>
       <r>   -6.4065    1.0000 </r>
       <r>   -6.3883    1.0000 </r>
       <r>   -6.3717    1.0000 </r>
       <r>   -5.5708    1.0000 </r>
       <r>   -5.5077    1.0000 </r>
       <r>   -5.4607    1.0000 </r>
       <r>   -5.4397    1.0000 </r>
       <r>   -5.4381    1.0000 </r>
       <r>   -5.3702    1.0000 </r>
       <r>   -5.2478    1.0000 </r>
       <r>   -5.1656    1.0000 </r>
       <r>   -5.1651    1.0000 </r>
       <r>   -5.0453    1.0000 </r>
       <r>   -3.9547    1.0000 </r>
       <r>   -3.6385    1.0000 </r>
       <r>   -1.4195    1.0000 </r>
       <r>   -1.3079    1.0000 </r>
       <r>   -1.3067    1.0000 </r>
       <r>   -1.1130    1.0000 </r>
       <r>   -0.5192    1.0000 </r>
       <r>   -0.4795    1.0000 </r>
       <r>   -0.4606    1.0000 </r>
       <r>   -0.4362    1.0000 </r>
       <r>   -0.4261    1.0000 </r>
       <r>   -0.3866    1.0000 </r>
       <r>   -0.3516    1.0000 </r>
       <r>   -0.2959    1.0000 </r>
       <r>   -0.1333    1.0000 </r>
       <r>   -0.0331    1.0000 </r>
       <r>    0.0363    1.0000 </r>
       <r>    0.1499    1.0000 </r>
       <r>    0.1908    1.0000 </r>
       <r>    0.2627    1.0000 </r>
       <r>    0.2946    1.0000 </r>
       <r>    0.3981    1.0000 </r>
       <r>    0.4150    1.0000 </r>
       <r>    0.5155    1.0000 </r>
       <r>    0.5892    1.0000 </r>
       <r>    0.6487    1.0000 </r>
       <r>    0.6922    1.0000 </r>
       <r>    0.7318    1.0000 </r>
       <r>    0.7718    1.0000 </r>
       <r>    0.7792    1.0000 </r>
       <r>    0.8177    1.0000 </r>
       <r>    1.0630    1.0000 </r>
       <r>    1.1053    1.0000 </r>
       <r>    1.1231    1.0000 </r>
       <r>    1.1365    1.0000 </r>
       <r>    1.1732    1.0000 </r>
       <r>    1.3132    1.0000 </r>
       <r>    1.3622    1.0000 </r>
       <r>    1.3824    1.0000 </r>
       <r>    1.4709    1.0000 </r>
       <r>    1.4770    1.0000 </r>
       <r>    1.5359    1.0000 </r>
       <r>    1.5510    1.0000 </r>
       <r>    1.5925    1.0000 </r>
       <r>    1.6090    1.0000 </r>
       <r>    1.6411    1.0000 </r>
       <r>    1.6920    1.0000 </r>
       <r>    1.7229    1.0000 </r>
       <r>    1.7948    1.0000 </r>
       <r>    1.8055    1.0000 </r>
       <r>    1.9395    1.0000 </r>
       <r>    1.9703    1.0000 </r>
       <r>    2.0095    1.0000 </r>
       <r>    2.0546    1.0000 </r>
       <r>    2.0727    1.0000 </r>
       <r>    2.1934    1.0000 </r>
       <r>    2.2585    1.0000 </r>
       <r>    2.3540    1.0000 </r>
       <r>    2.3973    1.0000 </r>
       <r>    2.4199    1.0000 </r>
       <r>    2.4593    1.0000 </r>
       <r>    2.4820    1.0000 </r>
       <r>    2.5045    1.0000 </r>
       <r>    2.5167    1.0000 </r>
       <r>    2.5339    1.0000 </r>
       <r>    2.5453    1.0000 </r>
       <r>    2.5538    1.0000 </r>
       <r>    2.5836    1.0000 </r>
       <r>    2.6016    1.0000 </r>
       <r>    2.6454    1.0000 </r>
       <r>    2.6766    1.0000 </r>
       <r>    2.7486    1.0000 </r>
       <r>    2.7754    1.0000 </r>
       <r>    2.8015    1.0000 </r>
       <r>    2.8401    1.0000 </r>
       <r>    2.8509    1.0000 </r>
       <r>    2.8665    1.0000 </r>
       <r>    2.8844    1.0000 </r>
       <r>    2.9219    1.0000 </r>
       <r>    2.9471    1.0000 </r>
       <r>    2.9534    1.0000 </r>
       <r>    3.0130    1.0000 </r>
       <r>    3.0256    1.0000 </r>
       <r>    3.0772    1.0000 </r>
       <r>    3.1271    1.0000 </r>
       <r>    3.2425    1.0000 </r>
       <r>    3.2673    1.0000 </r>
       <r>    3.3180    1.0000 </r>
       <r>    3.3338    1.0000 </r>
       <r>    3.3408    1.0000 </r>
       <r>    3.3548    1.0000 </r>
       <r>    3.3887    1.0000 </r>
       <r>    3.5183    1.0000 </r>
       <r>    3.5501    1.0000 </r>
       <r>    4.1582    1.0000 </r>
       <r>    4.1788    1.0000 </r>
       <r>    4.2035    1.0000 </r>
       <r>    4.2254    1.0000 </r>
       <r>    5.0434    0.0000 </r>
       <r>    5.0619    0.0000 </r>
       <r>    5.1800    0.0000 </r>
       <r>    5.2008    0.0000 </r>
       <r>    5.6990    0.0000 </r>
       <r>    5.7183    0.0000 </r>
       <r>    5.7916    0.0000 </r>
       <r>    5.8137    0.0000 </r>
       <r>    6.0935    0.0000 </r>
       <r>    6.1098    0.0000 </r>
       <r>    6.1144    0.0000 </r>
       <r>    6.1316    0.0000 </r>
       <r>    6.1819    0.0000 </r>
       <r>    6.1973    0.0000 </r>
       <r>    6.2024    0.0000 </r>
       <r>    6.2284    0.0000 </r>
       <r>    6.7329    0.0000 </r>
       <r>    6.8250    0.0000 </r>
       <r>    6.8685    0.0000 </r>
       <r>    7.0433    0.0000 </r>
       <r>    7.1041    0.0000 </r>
       <r>    7.2226    0.0000 </r>
       <r>    7.3205    0.0000 </r>
       <r>    7.4632    0.0000 </r>
       <r>    7.4840    0.0000 </r>
       <r>    7.7893    0.0000 </r>
       <r>    7.8841    0.0000 </r>
       <r>    7.8852    0.0000 </r>
       <r>    8.0322    0.0000 </r>
       <r>    8.2252    0.0000 </r>
       <r>    8.2723    0.0000 </r>
       <r>    8.4025    0.0000 </r>
       <r>    8.6375    0.0000 </r>
       <r>    8.6750    0.0000 </r>
       <r>    8.8924    0.0000 </r>
       <r>    8.9074    0.0000 </r>
       <r>    8.9463    0.0000 </r>
       <r>    8.9903    0.0000 </r>
       <r>    9.0100    0.0000 </r>
       <r>    9.0203    0.0000 </r>
       <r>    9.0571    0.0000 </r>
       <r>    9.0716    0.0000 </r>
       <r>    9.1005    0.0000 </r>
       <r>    9.1647    0.0000 </r>
       <r>    9.4104    0.0000 </r>
       <r>    9.4215    0.0000 </r>
       <r>    9.5599    0.0000 </r>
       <r>    9.6570    0.0000 </r>
       <r>    9.6668    0.0000 </r>
       <r>    9.8064    0.0000 </r>
       <r>    9.8353    0.0000 </r>
       <r>    9.9448    0.0000 </r>
      </set>
      <set comment="kpoint 4">
       <r>  -40.0871    1.0000 </r>
       <r>  -39.9980    1.0000 </r>
       <r>  -39.7528    1.0000 </r>
       <r>  -39.6870    1.0000 </r>
       <r>  -18.9199    1.0000 </r>
       <r>  -18.9027    1.0000 </r>
       <r>  -18.8476    1.0000 </r>
       <r>  -18.8405    1.0000 </r>
       <r>  -18.8385    1.0000 </r>
       <r>  -18.8313    1.0000 </r>
       <r>  -18.7415    1.0000 </r>
       <r>  -18.7414    1.0000 </r>
       <r>  -18.7338    1.0000 </r>
       <r>  -18.7330    1.0000 </r>
       <r>  -18.7326    1.0000 </r>
       <r>  -18.7304    1.0000 </r>
       <r>  -18.7299    1.0000 </r>
       <r>  -18.7255    1.0000 </r>
       <r>  -18.7202    1.0000 </r>
       <r>  -18.7188    1.0000 </r>
       <r>  -18.7144    1.0000 </r>
       <r>  -18.7137    1.0000 </r>
       <r>  -18.7129    1.0000 </r>
       <r>  -18.7098    1.0000 </r>
       <r>  -18.7063    1.0000 </r>
       <r>  -18.7037    1.0000 </r>
       <r>  -18.7024    1.0000 </r>
       <r>  -18.7006    1.0000 </r>
       <r>  -18.6913    1.0000 </r>
       <r>  -18.6903    1.0000 </r>
       <r>  -18.6897    1.0000 </r>
       <r>  -18.6893    1.0000 </r>
       <r>  -18.6866    1.0000 </r>
       <r>  -18.6858    1.0000 </r>
       <r>  -18.6850    1.0000 </r>
       <r>  -18.6821    1.0000 </r>
       <r>  -18.6819    1.0000 </r>
       <r>  -18.6787    1.0000 </r>
       <r>  -18.6764    1.0000 </r>
       <r>  -18.6757    1.0000 </r>
       <r>  -18.6750    1.0000 </r>
       <r>  -18.6737    1.0000 </r>
       <r>  -18.6718    1.0000 </r>
       <r>  -18.6692    1.0000 </r>
       <r>  -18.6672    1.0000 </r>
       <r>  -18.6657    1.0000 </r>
       <r>  -18.6611    1.0000 </r>
       <r>  -18.6592    1.0000 </r>
       <r>  -18.6566    1.0000 </r>
       <r>  -18.6490    1.0000 </r>
       <r>  -18.5730    1.0000 </r>
       <r>  -18.5706    1.0000 </r>
       <r>  -18.5676    1.0000 </r>
       <r>  -18.5630    1.0000 </r>
       <r>  -18.5610    1.0000 </r>
       <r>  -18.5604    1.0000 </r>
       <r>  -18.5574    1.0000 </r>
       <r>  -18.5502    1.0000 </r>
       <r>  -18.5436    1.0000 </r>
       <r>  -18.5432    1.0000 </r>
       <r>  -18.5420    1.0000 </r>
       <r>  -18.5359    1.0000 </r>
       <r>  -18.5350    1.0000 </r>
       <r>  -18.5344    1.0000 </r>
       <r>  -18.5329    1.0000 </r>
       <r>  -18.5309    1.0000 </r>
       <r>  -18.5308    1.0000 </r>
       <r>  -18.5263    1.0000 </r>
       <r>  -18.5203    1.0000 </r>
       <r>  -18.5202    1.0000 </r>
       <r>  -18.5195    1.0000 </r>
       <r>  -18.5166    1.0000 </r>
       <r>  -18.5146    1.0000 </r>
       <r>  -18.5074    1.0000 </r>
       <r>  -18.5064    1.0000 </r>
       <r>  -18.5040    1.0000 </r>
       <r>  -18.5017    1.0000 </r>
       <r>  -18.4924    1.0000 </r>
       <r>  -18.4543    1.0000 </r>
       <r>  -18.4320    1.0000 </r>
       <r>  -18.3312    1.0000 </r>
       <r>  -18.3234    1.0000 </r>
       <r>  -18.3207    1.0000 </r>
       <r>  -18.2953    1.0000 </r>
       <r>  -13.5639    1.0000 </r>
       <r>  -13.4822    1.0000 </r>
       <r>  -12.9537    1.0000 </r>
       <r>  -12.9047    1.0000 </r>
       <r>  -12.8607    1.0000 </r>
       <r>  -12.8266    1.0000 </r>
       <r>  -12.8151    1.0000 </r>
       <r>  -12.7642    1.0000 </r>
       <r>  -12.7299    1.0000 </r>
       <r>  -12.7232    1.0000 </r>
       <r>  -12.7162    1.0000 </r>
       <r>  -12.6951    1.0000 </r>
       <r>  -12.6687    1.0000 </r>
       <r>  -12.6446    1.0000 </r>
[...]
       <r>    8.7735    0.0000 </r>
       <r>    8.7960    0.0000 </r>
       <r>    8.8331    0.0000 </r>
       <r>    8.8361    0.0000 </r>
       <r>    8.8443    0.0000 </r>
       <r>    8.8652    0.0000 </r>
       <r>    8.9112    0.0000 </r>
       <r>    9.6127    0.0000 </r>
       <r>    9.6851    0.0000 </r>
       <r>    9.9900    0.0000 </r>
       <r>   10.0535    0.0000 </r>
      </set>
     </set>
    </set>
   </array>
  </eigenvalues>
  <separator name="orbital magnetization" >
   <v name="MAGDIPOLOUT">      0.00000000      0.00000000      0.00000000</v>
  </separator>
  <dos>
   <i name="efermi">      4.25085396 </i>
   <total>
    <array>
     <dimension dim="1">gridpoints</dimension>
     <dimension dim="2">spin</dimension>
     <field>energy</field>
     <field>total</field>
     <field>integrated</field>
     <set>
      <set comment="spin 1">
       <r>   -42.6078     0.0000     0.0000 </r>
       <r>   -42.4229     0.0000     0.0000 </r>
       <r>   -42.2381     0.0000     0.0000 </r>
       <r>   -42.0532     0.0000     0.0000 </r>
       <r>   -41.8684     0.0000     0.0000 </r>
       <r>   -41.6835     0.0000     0.0000 </r>
       <r>   -41.4987     0.0000     0.0000 </r>
       <r>   -41.3138     0.0000     0.0000 </r>
       <r>   -41.1290     0.0000     0.0000 </r>
       <r>   -40.9442     0.0000     0.0000 </r>
       <r>   -40.7593     0.0000     0.0000 </r>
       <r>   -40.5745     0.0000     0.0000 </r>
       <r>   -40.3896     0.0000     0.0000 </r>
       <r>   -40.2048     0.0000     0.0000 </r>
       <r>   -40.0199     0.0000     2.0000 </r>
       <r>   -39.8351     0.0000     4.0000 </r>
       <r>   -39.6502     0.0000     8.0000 </r>
       <r>   -39.4654     0.0000     8.0000 </r>
       <r>   -39.2805     0.0000     8.0000 </r>
       <r>   -39.0957     0.0000     8.0000 </r>
       <r>   -38.9108     0.0000     8.0000 </r>
       <r>   -38.7260     0.0000     8.0000 </r>
       <r>   -38.5411     0.0000     8.0000 </r>
       <r>   -38.3563     0.0000     8.0000 </r>
       <r>   -38.1715     0.0000     8.0000 </r>
       <r>   -37.9866     0.0000     8.0000 </r>
       <r>   -37.8018     0.0000     8.0000 </r>
       <r>   -37.6169     0.0000     8.0000 </r>
       <r>   -37.4321     0.0000     8.0000 </r>
       <r>   -37.2472     0.0000     8.0000 </r>
       <r>   -37.0624     0.0000     8.0000 </r>
       <r>   -36.8775     0.0000     8.0000 </r>
       <r>   -36.6927     0.0000     8.0000 </r>
       <r>   -36.5078     0.0000     8.0000 </r>
       <r>   -36.3230     0.0000     8.0000 </r>
       <r>   -36.1381     0.0000     8.0000 </r>
       <r>   -35.9533     0.0000     8.0000 </r>
       <r>   -35.7684     0.0000     8.0000 </r>
       <r>   -35.5836     0.0000     8.0000 </r>
       <r>   -35.3988     0.0000     8.0000 </r>
       <r>   -35.2139     0.0000     8.0000 </r>
       <r>   -35.0291     0.0000     8.0000 </r>
       <r>   -34.8442     0.0000     8.0000 </r>
       <r>   -34.6594     0.0000     8.0000 </r>
       <r>   -34.4745     0.0000     8.0000 </r>
       <r>   -34.2897     0.0000     8.0000 </r>
       <r>   -34.1048     0.0000     8.0000 </r>
       <r>   -33.9200     0.0000     8.0000 </r>
       <r>   -33.7351     0.0000     8.0000 </r>
       <r>   -33.5503     0.0000     8.0000 </r>
       <r>   -33.3654     0.0000     8.0000 </r>
       <r>   -33.1806     0.0000     8.0000 </r>
       <r>   -32.9957     0.0000     8.0000 </r>
       <r>   -32.8109     0.0000     8.0000 </r>
       <r>   -32.6261     0.0000     8.0000 </r>
       <r>   -32.4412     0.0000     8.0000 </r>
       <r>   -32.2564     0.0000     8.0000 </r>
       <r>   -32.0715     0.0000     8.0000 </r>
       <r>   -31.8867     0.0000     8.0000 </r>
       <r>   -31.7018     0.0000     8.0000 </r>
       <r>   -31.5170     0.0000     8.0000 </r>
       <r>   -31.3321     0.0000     8.0000 </r>
       <r>   -31.1473     0.0000     8.0000 </r>
       <r>   -30.9624     0.0000     8.0000 </r>
       <r>   -30.7776     0.0000     8.0000 </r>
       <r>   -30.5927     0.0000     8.0000 </r>
       <r>   -30.4079     0.0000     8.0000 </r>
       <r>   -30.2230     0.0000     8.0000 </r>
       <r>   -30.0382     0.0000     8.0000 </r>
       <r>   -29.8534     0.0000     8.0000 </r>
       <r>   -29.6685     0.0000     8.0000 </r>
       <r>   -29.4837     0.0000     8.0000 </r>
       <r>   -29.2988     0.0000     8.0000 </r>
       <r>   -29.1140     0.0000     8.0000 </r>
       <r>   -28.9291     0.0000     8.0000 </r>
       <r>   -28.7443     0.0000     8.0000 </r>
       <r>   -28.5594     0.0000     8.0000 </r>
       <r>   -28.3746     0.0000     8.0000 </r>
       <r>   -28.1897     0.0000     8.0000 </r>
       <r>   -28.0049     0.0000     8.0000 </r>
       <r>   -27.8200     0.0000     8.0000 </r>
       <r>   -27.6352     0.0000     8.0000 </r>
       <r>   -27.4503     0.0000     8.0000 </r>
       <r>   -27.2655     0.0000     8.0000 </r>
       <r>   -27.0807     0.0000     8.0000 </r>
       <r>   -26.8958     0.0000     8.0000 </r>
       <r>   -26.7110     0.0000     8.0000 </r>
       <r>   -26.5261     0.0000     8.0000 </r>
       <r>   -26.3413     0.0000     8.0000 </r>
       <r>   -26.1564     0.0000     8.0000 </r>
       <r>   -25.9716     0.0000     8.0000 </r>
       <r>   -25.7867     0.0000     8.0000 </r>
       <r>   -25.6019     0.0000     8.0000 </r>
       <r>   -25.4170     0.0000     8.0000 </r>
       <r>   -25.2322     0.0000     8.0000 </r>
       <r>   -25.0473     0.0000     8.0000 </r>
       <r>   -24.8625     0.0000     8.0000 </r>
       <r>   -24.6776     0.0000     8.0000 </r>
       <r>   -24.4928     0.0000     8.0000 </r>
       <r>   -24.3080     0.0000     8.0000 </r>
       <r>   -24.1231     0.0000     8.0000 </r>
       <r>   -23.9383     0.0000     8.0000 </r>
       <r>   -23.7534     0.0000     8.0000 </r>
       <r>   -23.5686     0.0000     8.0000 </r>
       <r>   -23.3837     0.0000     8.0000 </r>
       <r>   -23.1989     0.0000     8.0000 </r>
       <r>   -23.0140     0.0000     8.0000 </r>
       <r>   -22.8292     0.0000     8.0000 </r>
       <r>   -22.6443     0.0000     8.0000 </r>
       <r>   -22.4595     0.0000     8.0000 </r>
       <r>   -22.2746     0.0000     8.0000 </r>
       <r>   -22.0898     0.0000     8.0000 </r>
       <r>   -21.9049     0.0000     8.0000 </r>
       <r>   -21.7201     0.0000     8.0000 </r>
       <r>   -21.5353     0.0000     8.0000 </r>
       <r>   -21.3504     0.0000     8.0000 </r>
       <r>   -21.1656     0.0000     8.0000 </r>
       <r>   -20.9807     0.0000     8.0000 </r>
       <r>   -20.7959     0.0000     8.0000 </r>
       <r>   -20.6110     0.0000     8.0000 </r>
       <r>   -20.4262     0.0000     8.0000 </r>
       <r>   -20.2413     0.0000     8.0000 </r>
       <r>   -20.0565     0.0000     8.0000 </r>
       <r>   -19.8716     0.0000     8.0000 </r>
       <r>   -19.6868     0.0000     8.0000 </r>
       <r>   -19.5019     0.0000     8.0000 </r>
       <r>   -19.3171     0.0000     8.0000 </r>
       <r>   -19.1322     0.0000     8.0000 </r>
       <r>   -18.9474     0.0000     8.0000 </r>
       <r>   -18.7626     0.0000    20.0000 </r>
       <r>   -18.5777     0.0000   100.0000 </r>
       <r>   -18.3929     0.0000   160.0000 </r>
       <r>   -18.2080     0.0000   168.0000 </r>
       <r>   -18.0232     0.0000   168.0000 </r>
       <r>   -17.8383     0.0000   168.0000 </r>
       <r>   -17.6535     0.0000   168.0000 </r>
       <r>   -17.4686     0.0000   168.0000 </r>
       <r>   -17.2838     0.0000   168.0000 </r>
       <r>   -17.0989     0.0000   168.0000 </r>
       <r>   -16.9141     0.0000   168.0000 </r>
       <r>   -16.7292     0.0000   168.0000 </r>
       <r>   -16.5444     0.0000   168.0000 </r>
       <r>   -16.3595     0.0000   168.0000 </r>
       <r>   -16.1747     0.0000   168.0000 </r>
       <r>   -15.9899     0.0000   168.0000 </r>
       <r>   -15.8050     0.0000   168.0000 </r>
       <r>   -15.6202     0.0000   168.0000 </r>
       <r>   -15.4353     0.0000   168.0000 </r>
       <r>   -15.2505     0.0000   168.0000 </r>
       <r>   -15.0656     0.0000   168.0000 </r>
       <r>   -14.8808     0.0000   168.0000 </r>
       <r>   -14.6959     0.0000   168.0000 </r>
       <r>   -14.5111     0.0000   168.0000 </r>
       <r>   -14.3262     0.0000   168.0000 </r>
       <r>   -14.1414     0.0000   168.0000 </r>
       <r>   -13.9565     0.0000   168.0000 </r>
       <r>   -13.7717     0.0000   168.0000 </r>
       <r>   -13.5868     0.0000   168.0000 </r>
       <r>   -13.4020     0.0000   172.0000 </r>
       <r>   -13.2172     0.0000   172.0000 </r>
       <r>   -13.0323     0.0000   172.0000 </r>
       <r>   -12.8475    39.8252   177.9642 </r>
       <r>   -12.6626   115.4510   193.8475 </r>
       <r>   -12.4778     0.0000   196.0000 </r>
       <r>   -12.2929     0.0000   196.0000 </r>
       <r>   -12.1081     0.0000   198.0000 </r>
       <r>   -11.9232     0.0000   200.0000 </r>
       <r>   -11.7384     0.0000   200.0000 </r>
       <r>   -11.5535     0.0000   200.0000 </r>
       <r>   -11.3687     0.0000   200.0000 </r>
       <r>   -11.1838     0.0000   200.0000 </r>
       <r>   -10.9990     0.0000   200.0000 </r>
       <r>   -10.8141     0.0000   200.0000 </r>
       <r>   -10.6293     0.0000   200.0000 </r>
       <r>   -10.4445     0.0000   200.0000 </r>
       <r>   -10.2596     0.0000   200.0000 </r>
       <r>   -10.0748     0.0000   200.0000 </r>
       <r>    -9.8899     0.0000   200.0000 </r>
       <r>    -9.7051     0.0000   200.0000 </r>
       <r>    -9.5202     0.0000   200.0000 </r>
       <r>    -9.3354     1.7513   200.0306 </r>
       <r>    -9.1505    29.0030   201.3584 </r>
       <r>    -8.9657     0.0000   204.0000 </r>
       <r>    -8.7808    12.1176   206.8067 </r>
       <r>    -8.5960    15.4280   208.7454 </r>
       <r>    -8.4111    39.3705   213.7645 </r>
       <r>    -8.2263    13.9483   216.3767 </r>
       <r>    -8.0414    23.0308   221.5248 </r>
       <r>    -7.8566    18.0929   225.3258 </r>
       <r>    -7.6718    19.4075   228.7596 </r>
       <r>    -7.4869     6.8878   231.7601 </r>
       <r>    -7.3021     0.0000   232.0000 </r>
       <r>    -7.1172     0.0000   232.0000 </r>
       <r>    -6.9324     0.0000   232.0000 </r>
       <r>    -6.7475     0.0000   232.0000 </r>
       <r>    -6.5627     0.0000   232.0000 </r>
       <r>    -6.3778     2.2733   232.0450 </r>
       <r>    -6.1930    18.1668   233.9303 </r>
       <r>    -6.0081    29.3140   238.8276 </r>
       <r>    -5.8233    29.8553   242.4252 </r>
       <r>    -5.6384    24.2528   247.4212 </r>
       <r>    -5.4536    20.4139   251.4706 </r>
       <r>    -5.2687    13.8255   254.7496 </r>
       <r>    -5.0839     1.7873   256.0826 </r>
       <r>    -4.8991     7.7836   256.9908 </r>
       <r>    -4.7142     9.6451   258.5478 </r>
       <r>    -4.5294     8.8532   260.5467 </r>
       <r>    -4.3445     6.7480   261.6524 </r>
       <r>    -4.1597     5.9193   262.9602 </r>
       <r>    -3.9748     2.4267   263.7295 </r>
       <r>    -3.7900     0.6080   263.9658 </r>
       <r>    -3.6051     0.0000   264.0000 </r>
       <r>    -3.4203     0.0000   264.0000 </r>
       <r>    -3.2354     0.0000   264.0000 </r>
       <r>    -3.0506     0.0000   264.0000 </r>
       <r>    -2.8657     0.0000   264.0000 </r>
       <r>    -2.6809     0.0000   264.0000 </r>
       <r>    -2.4960     0.0000   264.0000 </r>
       <r>    -2.3112     0.0000   264.0000 </r>
       <r>    -2.1264     0.0000   264.0000 </r>
       <r>    -1.9415     0.0000   264.0000 </r>
       <r>    -1.7567     0.0000   264.0000 </r>
       <r>    -1.5718     0.0000   264.0000 </r>
       <r>    -1.3870     1.6303   264.0790 </r>
       <r>    -1.2021    11.4168   265.1571 </r>
       <r>    -1.0173    13.6990   267.1410 </r>
       <r>    -0.8324    10.5881   269.6759 </r>
       <r>    -0.6476     5.8583   271.1964 </r>
       <r>    -0.4627    16.1152   272.6434 </r>
       <r>    -0.2779    24.9570   276.7339 </r>
       <r>    -0.0930    38.6321   282.8641 </r>
       <r>     0.0918    31.1111   289.9239 </r>
       <r>     0.2767    39.9591   296.1124 </r>
       <r>     0.4615    42.8082   303.4957 </r>
       <r>     0.6463    32.9403   311.1789 </r>
       <r>     0.8312    33.7039   316.5783 </r>
       <r>     1.0160    49.3642   324.3389 </r>
       <r>     1.2009    52.1576   334.0042 </r>
       <r>     1.3857    55.7318   343.0690 </r>
       <r>     1.5706    56.8839   353.4268 </r>
       <r>     1.7554    42.4184   361.6271 </r>
       <r>     1.9403    32.1795   368.0514 </r>
       <r>     2.1251    41.0619   375.5654 </r>
       <r>     2.3100    45.4030   383.6841 </r>
       <r>     2.4948    60.3796   393.8684 </r>
       <r>     2.6797    59.9086   404.6783 </r>
       <r>     2.8645    83.9671   416.5115 </r>
       <r>     3.0494    46.7935   430.5291 </r>
       <r>     3.2342    36.2176   438.1431 </r>
       <r>     3.4190    49.6068   445.0616 </r>
       <r>     3.6039    12.1621   450.8594 </r>
       <r>     3.7887    11.7096   453.7507 </r>
       <r>     3.9736     6.0423   455.3914 </r>
       <r>     4.1584     0.5976   455.9877 </r>
       <r>     4.3433     0.0000   456.0000 </r>
       <r>     4.5281     0.0000   456.0000 </r>
       <r>     4.7130     0.0000   456.0000 </r>
       <r>     4.8978     0.0000   456.0000 </r>
       <r>     5.0827     0.5895   456.0229 </r>
       <r>     5.2675     3.5076   456.3535 </r>
       <r>     5.4524     7.3652   457.3583 </r>
       <r>     5.6372    10.4230   459.0707 </r>
       <r>     5.8221    15.0727   463.0942 </r>
       <r>     6.0069    12.6750   465.6586 </r>
       <r>     6.1917    11.6233   467.8495 </r>
       <r>     6.3766    13.2641   470.1444 </r>
       <r>     6.5614    14.9489   472.7524 </r>
       <r>     6.7463    16.6364   475.6698 </r>
       <r>     6.9311    19.6478   478.9797 </r>
       <r>     7.1160    26.8244   483.2048 </r>
       <r>     7.3008    39.2678   489.6637 </r>
       <r>     7.4857    27.7652   496.9510 </r>
       <r>     7.6705    40.9352   502.4623 </r>
       <r>     7.8554    53.9249   511.0809 </r>
       <r>     8.0402    25.8759   518.2727 </r>
       <r>     8.2251    18.7230   522.1631 </r>
       <r>     8.4099    21.4907   525.8459 </r>
       <r>     8.5948    24.6782   530.1306 </r>
       <r>     8.7796    46.2513   536.0259 </r>
       <r>     8.9644    28.8240   543.3150 </r>
       <r>     9.1493    16.1183   547.2966 </r>
       <r>     9.3341    11.2732   549.7746 </r>
       <r>     9.5190    15.2005   552.6906 </r>
       <r>     9.7038    10.8027   555.0961 </r>
       <r>     9.8887     8.6401   556.8072 </r>
       <r>    10.0735     9.9019   558.6845 </r>
       <r>    10.2584     2.1036   559.9456 </r>
       <r>    10.4432     0.0000   560.0000 </r>
       <r>    10.6281     0.0000   560.0000 </r>
       <r>    10.8129     0.0000   560.0000 </r>
       <r>    10.9978     0.0000   560.0000 </r>
       <r>    11.1826     0.0000   560.0000 </r>
       <r>    11.3675     0.0000   560.0000 </r>
       <r>    11.5523     0.0000   560.0000 </r>
       <r>    11.7371     0.0000   560.0000 </r>
       <r>    11.9220     0.0000   560.0000 </r>
       <r>    12.1068     0.0000   560.0000 </r>
       <r>    12.2917     0.0000   560.0000 </r>
       <r>    12.4765     0.0000   560.0000 </r>
       <r>    12.6614     0.0000   560.0000 </r>
       <r>    12.8462     0.0000   560.0000 </r>
      </set>
     </set>
    </array>
   </total>
  </dos>
 </calculation>
 <structure name="finalpos" >
  <crystal>
   <varray name="basis" >
    <v>      11.17850000       0.00000000       0.00000000 </v>
    <v>       0.00000000       9.57460000       0.00000000 </v>
    <v>       0.00000000       0.00000000      11.18240000 </v>
   </varray>
   <i name="volume">   1196.84853820 </i>
   <varray name="rec_basis" >
    <v>       0.08945744       0.00000000       0.00000000 </v>
    <v>       0.00000000       0.10444301       0.00000000 </v>
    <v>       0.00000000       0.00000000       0.08942624 </v>
   </varray>
  </crystal>
  <varray name="positions" >
   <v>       0.87539000       0.00017000       0.43687000 </v>
   <v>       0.87461000       0.00017000       0.18687000 </v>
   <v>       0.12539000       0.99984000       0.93687000 </v>
   <v>       0.12461000       0.99984000       0.68687000 </v>
   <v>       0.12461000       0.99984000       0.18687000 </v>
   <v>       0.37461000       0.00017000       0.18687000 </v>
   <v>       0.62539000       0.99984000       0.43687000 </v>
   <v>       0.37461000       0.00017000       0.68687000 </v>
   <v>       0.62539000       0.99984000       0.93687000 </v>
   <v>       0.87461000       0.00017000       0.68687000 </v>
   <v>       0.00013000       0.29519000       0.06281000 </v>
   <v>       0.25013000       0.70481000       0.06281000 </v>
   <v>       0.24987000       0.29519000       0.31282000 </v>
   <v>       0.49987000       0.70481000       0.31282000 </v>
   <v>       0.50013000       0.29519000       0.06281000 </v>
   <v>       0.75013000       0.70481000       0.06281000 </v>
   <v>       0.74987000       0.29519000       0.31282000 </v>
   <v>       0.99987000       0.70481000       0.31282000 </v>
   <v>       0.00013000       0.29519000       0.56281000 </v>
   <v>       0.25013000       0.70481000       0.56281000 </v>
   <v>       0.24987000       0.29519000       0.81282000 </v>
   <v>       0.49987000       0.70481000       0.81282000 </v>
   <v>       0.50013000       0.29519000       0.56281000 </v>
   <v>       0.75013000       0.70481000       0.56281000 </v>
   <v>       0.74987000       0.29519000       0.81282000 </v>
   <v>       0.99987000       0.70481000       0.81282000 </v>
   <v>       0.25005000       0.32677000       0.06286000 </v>
   <v>       0.00005000       0.67323000       0.06286000 </v>
   <v>       0.49995000       0.32677000       0.31286000 </v>
   <v>       0.24995000       0.67323000       0.31286000 </v>
   <v>       0.75005000       0.32677000       0.06286000 </v>
   <v>       0.50005000       0.67323000       0.06286000 </v>
   <v>       0.99995000       0.32677000       0.31286000 </v>
   <v>       0.74995000       0.67323000       0.31286000 </v>
   <v>       0.25005000       0.32677000       0.56286000 </v>
   <v>       0.00005000       0.67323000       0.56286000 </v>
   <v>       0.49995000       0.32677000       0.81286000 </v>
   <v>       0.24995000       0.67323000       0.81286000 </v>
   <v>       0.75005000       0.32677000       0.56286000 </v>
   <v>       0.50005000       0.67323000       0.56286000 </v>
   <v>       0.99995000       0.32677000       0.81286000 </v>
   <v>       0.74995000       0.67323000       0.81286000 </v>
   <v>       0.49987000       0.07798000       0.06246000 </v>
   <v>       0.24987000       0.92202000       0.06246000 </v>
   <v>       0.25013000       0.07798000       0.31246000 </v>
   <v>       0.00013000       0.92202000       0.31246000 </v>
   <v>       0.99987000       0.07798000       0.06246000 </v>
   <v>       0.74987000       0.92202000       0.06246000 </v>
   <v>       0.75013000       0.07798000       0.31246000 </v>
   <v>       0.50013000       0.92202000       0.31246000 </v>
   <v>       0.49987000       0.07798000       0.56246000 </v>
   <v>       0.24987000       0.92202000       0.56246000 </v>
   <v>       0.25013000       0.07798000       0.81246000 </v>
   <v>       0.00013000       0.92202000       0.81246000 </v>
   <v>       0.99987000       0.07798000       0.56246000 </v>
   <v>       0.74987000       0.92202000       0.56246000 </v>
   <v>       0.75013000       0.07798000       0.81246000 </v>
   <v>       0.50013000       0.92202000       0.81246000 </v>
  </varray>
 </structure>
</modeling>
