<?xml version="1.0" encoding="ISO-8859-1"?>
<modeling>
 <generator>
  <i name="program" type="string">vasp </i>
  <i name="version" type="string">5.4.4.18Apr17-6-g9f103f2a35  </i>
  <i name="subversion" type="string">(build Jul 31 2017 11:33:29) complex            parallel </i>
  <i name="platform" type="string">LinuxIFC </i>
  <i name="date" type="string">2021 09 29 </i>
  <i name="time" type="string">14:42:49 </i>
 </generator>
 <incar>
  <i type="string" name="SYSTEM"> La2O2S</i>
  <i type="string" name="PREC">normal</i>
  <i type="int" name="NELMIN">     4</i>
  <i type="int" name="IBRION">     2</i>
  <i type="int" name="NFREE">    10</i>
  <i name="EDIFF">      0.00000100</i>
  <i name="EDIFFG">     -0.01000000</i>
  <i type="int" name="NSW">     1</i>
  <i type="int" name="ISIF">     2</i>
  <i name="ENCUT">    600.00000000</i>
  <i name="ENAUG">    900.00000000</i>
  <i type="int" name="ISMEAR">    -5</i>
  <i type="logical" name="LWAVE"> F  </i>
  <i type="logical" name="LCHARG"> F  </i>
  <v type="int" name="KPOINT_BSE">    -1     0     0     0</v>
 </incar>
 <structure name="primitive_cell" >
  <crystal>
   <varray name="basis" >
    <v>      11.17850000       0.00000000       0.00000000 </v>
    <v>       0.00000000       9.57460000       0.00000000 </v>
    <v>       0.00000000       0.00000000      11.18240000 </v>
   </varray>
   <i name="volume">   1196.84853820 </i>
   <varray name="rec_basis" >
    <v>       0.08945744       0.00000000       0.00000000 </v>
    <v>       0.00000000       0.10444301       0.00000000 </v>
    <v>       0.00000000       0.00000000       0.08942624 </v>
   </varray>
  </crystal>
  <varray name="positions" >
   <v>       0.37539000       0.00017000       0.43687000 </v>
   <v>      -0.49987000      -0.07798000       0.31246000 </v>
   <v>       0.25013000       0.07798000       0.31246000 </v>
   <v>       0.49987000       0.07798000      -0.43754000 </v>
   <v>       0.24987000      -0.07798000      -0.43754000 </v>
   <v>       0.37461000       0.00017000       0.18687000 </v>
   <v>       0.37461000       0.00017000      -0.31313000 </v>
   <v>       0.49987000      -0.29519000       0.31282000 </v>
   <v>       0.24987000       0.29519000       0.31282000 </v>
   <v>      -0.49987000       0.29519000      -0.43719000 </v>
   <v>       0.25013000      -0.29519000      -0.43719000 </v>
   <v>       0.49995000       0.32677000       0.31286000 </v>
   <v>       0.24995000      -0.32677000       0.31286000 </v>
   <v>      -0.49995000      -0.32677000      -0.43714000 </v>
   <v>       0.25005000       0.32677000      -0.43714000 </v>
   <v>      -0.37539000      -0.00016000       0.18687000 </v>
   <v>      -0.37539000      -0.00016000      -0.31313000 </v>
   <v>       0.12461000      -0.00016000       0.18687000 </v>
   <v>       0.12461000      -0.00016000      -0.31313000 </v>
   <v>       0.49987000       0.07798000       0.06246000 </v>
   <v>      -0.24987000       0.07798000       0.31246000 </v>
   <v>      -0.25013000      -0.07798000      -0.43754000 </v>
   <v>       0.24987000      -0.07798000       0.06246000 </v>
   <v>       0.00013000      -0.07798000       0.31246000 </v>
   <v>      -0.49987000      -0.07798000      -0.18754000 </v>
   <v>      -0.00013000       0.07798000      -0.43754000 </v>
   <v>       0.25013000       0.07798000      -0.18754000 </v>
   <v>      -0.49987000       0.29519000       0.06281000 </v>
   <v>      -0.25013000       0.29519000       0.31282000 </v>
   <v>       0.25013000      -0.29519000       0.06281000 </v>
   <v>      -0.24987000      -0.29519000      -0.43719000 </v>
   <v>      -0.00013000      -0.29519000       0.31282000 </v>
   <v>       0.00013000       0.29519000      -0.43719000 </v>
   <v>       0.49987000      -0.29519000      -0.18718000 </v>
   <v>       0.24987000       0.29519000      -0.18718000 </v>
   <v>      -0.49995000      -0.32677000       0.06286000 </v>
   <v>       0.25005000       0.32677000       0.06286000 </v>
   <v>      -0.25005000      -0.32677000       0.31286000 </v>
   <v>      -0.24995000       0.32677000      -0.43714000 </v>
   <v>      -0.00005000       0.32677000       0.31286000 </v>
   <v>       0.00005000      -0.32677000      -0.43714000 </v>
   <v>       0.49995000       0.32677000      -0.18714000 </v>
   <v>       0.24995000      -0.32677000      -0.18714000 </v>
   <v>      -0.12461000       0.00017000       0.43687000 </v>
   <v>       0.37539000       0.00017000      -0.06313000 </v>
   <v>      -0.25013000      -0.07798000       0.06246000 </v>
   <v>      -0.00013000       0.07798000       0.06246000 </v>
   <v>      -0.24987000       0.07798000      -0.18754000 </v>
   <v>       0.00013000      -0.07798000      -0.18754000 </v>
   <v>      -0.12539000       0.00017000       0.18687000 </v>
   <v>      -0.24987000      -0.29519000       0.06281000 </v>
   <v>       0.00013000       0.29519000       0.06281000 </v>
   <v>      -0.25013000       0.29519000      -0.18718000 </v>
   <v>      -0.00013000      -0.29519000      -0.18718000 </v>
   <v>      -0.24995000       0.32677000       0.06286000 </v>
   <v>       0.00005000      -0.32677000       0.06286000 </v>
   <v>      -0.25005000      -0.32677000      -0.18714000 </v>
   <v>      -0.00005000       0.32677000      -0.18714000 </v>
   <v>      -0.12461000       0.00017000      -0.06313000 </v>
  </varray>
 </structure>
 <varray name="primitive_index" >
  <v type="int" >        1 </v>
  <v type="int" >       51 </v>
  <v type="int" >       46 </v>
  <v type="int" >       52 </v>
  <v type="int" >       53 </v>
  <v type="int" >        3 </v>
  <v type="int" >        6 </v>
  <v type="int" >       15 </v>
  <v type="int" >       14 </v>
  <v type="int" >       24 </v>
  <v type="int" >       21 </v>
  <v type="int" >       30 </v>
  <v type="int" >       31 </v>
  <v type="int" >       41 </v>
  <v type="int" >       36 </v>
  <v type="int" >        8 </v>
  <v type="int" >       11 </v>
  <v type="int" >        2 </v>
  <v type="int" >        9 </v>
  <v type="int" >       44 </v>
  <v type="int" >       50 </v>
  <v type="int" >       57 </v>
  <v type="int" >       45 </v>
  <v type="int" >       47 </v>
  <v type="int" >       59 </v>
  <v type="int" >       56 </v>
  <v type="int" >       54 </v>
  <v type="int" >       16 </v>
  <v type="int" >       18 </v>
  <v type="int" >       13 </v>
  <v type="int" >       25 </v>
  <v type="int" >       19 </v>
  <v type="int" >       20 </v>
  <v type="int" >       23 </v>
  <v type="int" >       22 </v>
  <v type="int" >       33 </v>
  <v type="int" >       28 </v>
  <v type="int" >       35 </v>
  <v type="int" >       40 </v>
  <v type="int" >       34 </v>
  <v type="int" >       37 </v>
  <v type="int" >       38 </v>
  <v type="int" >       39 </v>
  <v type="int" >        7 </v>
  <v type="int" >        5 </v>
  <v type="int" >       49 </v>
  <v type="int" >       48 </v>
  <v type="int" >       58 </v>
  <v type="int" >       55 </v>
  <v type="int" >        4 </v>
  <v type="int" >       17 </v>
  <v type="int" >       12 </v>
  <v type="int" >       26 </v>
  <v type="int" >       27 </v>
  <v type="int" >       32 </v>
  <v type="int" >       29 </v>
  <v type="int" >       43 </v>
  <v type="int" >       42 </v>
  <v type="int" >       10 </v>
 </varray>
 <kpoints>
  <generation param="Gamma">
   <v type="int" name="divisions">       2        2        2 </v>
   <v name="usershift">      0.00000000       0.00000000       0.00000000 </v>
   <v name="genvec1">      0.50000000       0.00000000       0.00000000 </v>
   <v name="genvec2">      0.00000000       0.50000000       0.00000000 </v>
   <v name="genvec3">      0.00000000       0.00000000       0.50000000 </v>
   <v name="shift">      0.00000000       0.00000000       0.00000000 </v>
  </generation>
  <varray name="kpointlist" >
   <v>       0.00000000       0.00000000       0.00000000 </v>
   <v>       0.50000000       0.00000000       0.00000000 </v>
   <v>       0.00000000       0.50000000       0.00000000 </v>
   <v>       0.50000000       0.50000000       0.00000000 </v>
   <v>       0.00000000       0.00000000       0.50000000 </v>
   <v>       0.50000000       0.00000000       0.50000000 </v>
   <v>       0.00000000       0.50000000       0.50000000 </v>
   <v>       0.50000000       0.50000000       0.50000000 </v>
  </varray>
  <varray name="weights" >
   <v>       0.12500000 </v>
   <v>       0.12500000 </v>
   <v>       0.12500000 </v>
   <v>       0.12500000 </v>
   <v>       0.12500000 </v>
   <v>       0.12500000 </v>
   <v>       0.12500000 </v>
   <v>       0.12500000 </v>
  </varray>
  <varray name="tetrahedronlist"  type="int" >
   <v type="int" >        2        1        2        4        5 </v>
   <v type="int" >        2        1        3        4        5 </v>
   <v type="int" >        2        3        4        5        7 </v>
   <v type="int" >        2        2        4        5        6 </v>
   <v type="int" >        2        4        5        6        8 </v>
   <v type="int" >        2        4        5        7        8 </v>
   <v type="int" >        2        1        2        3        6 </v>
   <v type="int" >        2        2        3        4        6 </v>
   <v type="int" >        2        3        4        6        8 </v>
   <v type="int" >        2        1        3        5        6 </v>
   <v type="int" >        2        3        5        6        7 </v>
   <v type="int" >        2        3        6        7        8 </v>
   <v type="int" >        2        2        3        4        7 </v>
   <v type="int" >        2        1        2        3        7 </v>
   <v type="int" >        2        1        2        5        7 </v>
   <v type="int" >        2        2        4        7        8 </v>
   <v type="int" >        2        2        6        7        8 </v>
   <v type="int" >        2        2        5        6        7 </v>
   <v type="int" >        2        1        3        4        8 </v>
   <v type="int" >        2        1        2        4        8 </v>
   <v type="int" >        2        1        2        6        8 </v>
   <v type="int" >        2        1        3        7        8 </v>
   <v type="int" >        2        1        5        7        8 </v>
   <v type="int" >        2        1        5        6        8 </v>
  </varray>
  <i name="volumeweight">      0.02083333 </i>
 </kpoints>
 <parameters>
  <separator name="general" >
   <i type="string" name="SYSTEM">La2O2S</i>
   <i type="logical" name="LCOMPAT"> F  </i>
  </separator>
  <separator name="electronic" >
   <i type="string" name="PREC">normal</i>
   <i name="ENMAX">    600.00000000</i>
   <i name="ENAUG">    900.00000000</i>
   <i name="EDIFF">      0.00000100</i>
   <i type="int" name="IALGO">    38</i>
   <i type="int" name="IWAVPR">    11</i>
   <i type="int" name="NBANDS">   280</i>
   <i name="NELECT">    460.00000000</i>
   <i type="int" name="TURBO">     0</i>
   <i type="int" name="IRESTART">     0</i>
   <i type="int" name="NREBOOT">     0</i>
   <i type="int" name="NMIN">     0</i>
   <i name="EREF">      0.00000000</i>
   <separator name="electronic smearing" >
    <i type="int" name="ISMEAR">    -5</i>
    <i name="SIGMA">      0.20000000</i>
    <i name="KSPACING">      0.50000000</i>
    <i type="logical" name="KGAMMA"> T  </i>
   </separator>
   <separator name="electronic projectors" >
    <i type="logical" name="LREAL"> F  </i>
    <v name="ROPT">      0.00000000      0.00000000      0.00000000      0.00000000      0.00000000</v>
    <i type="int" name="LMAXPAW">  -100</i>
    <i type="int" name="LMAXMIX">     2</i>
    <i type="logical" name="NLSPLINE"> F  </i>
   </separator>
   <separator name="electronic startup" >
    <i type="int" name="ISTART">     0</i>
    <i type="int" name="ICHARG">     2</i>
    <i type="int" name="INIWAV">     1</i>
   </separator>
   <separator name="electronic spin" >
    <i type="int" name="ISPIN">     1</i>
    <i type="logical" name="LNONCOLLINEAR"> F  </i>
    <v name="MAGMOM">      1.00000000      1.00000000      1.00000000      1.00000000      1.00000000      1.00000000      1.00000000      1.00000000      1.00000000      1.00000000      1.00000000      1.00000000      1.00000000      1.00000000      1.00000000      1.00000000      1.00000000      1.00000000      1.00000000      1.00000000
      1.00000000      1.00000000      1.00000000      1.00000000      1.00000000      1.00000000      1.00000000      1.00000000      1.00000000      1.00000000      1.00000000      1.00000000      1.00000000      1.00000000      1.00000000      1.00000000      1.00000000      1.00000000      1.00000000      1.00000000
      1.00000000      1.00000000      1.00000000      1.00000000      1.00000000      1.00000000      1.00000000      1.00000000      1.00000000      1.00000000      1.00000000      1.00000000      1.00000000      1.00000000      1.00000000      1.00000000      1.00000000      1.00000000      1.00000000</v>
    <i name="NUPDOWN">     -1.00000000</i>
    <i type="logical" name="LSORBIT"> F  </i>
    <v name="SAXIS">      0.00000000      0.00000000      1.00000000</v>
    <i type="logical" name="LSPIRAL"> F  </i>
    <v name="QSPIRAL">      0.00000000      0.00000000      0.00000000</v>
    <i type="logical" name="LZEROZ"> F  </i>
   </separator>
   <separator name="electronic exchange-correlation" >
    <i type="logical" name="LASPH"> F  </i>
    <i type="logical" name="LMETAGGA"> F  </i>
   </separator>
   <separator name="electronic convergence" >
    <i type="int" name="NELM">    60</i>
    <i type="int" name="NELMDL">    -5</i>
    <i type="int" name="NELMIN">     4</i>
    <i name="ENINI">    600.00000000</i>
    <separator name="electronic convergence detail" >
     <i type="logical" name="LDIAG"> T  </i>
     <i type="logical" name="LSUBROT"> F  </i>
     <i name="WEIMIN">      0.00100000</i>
     <i name="EBREAK">      0.00000000</i>
     <i name="DEPER">      0.30000000</i>
     <i type="int" name="NRMM">     4</i>
     <i name="TIME">      0.40000000</i>
    </separator>
   </separator>
   <separator name="electronic mixer" >
    <i name="AMIX">      0.40000000</i>
    <i name="BMIX">      1.00000000</i>
    <i name="AMIN">      0.10000000</i>
    <i name="AMIX_MAG">      1.60000000</i>
    <i name="BMIX_MAG">      1.00000000</i>
    <separator name="electronic mixer details" >
     <i type="int" name="IMIX">     4</i>
     <i type="logical" name="MIXFIRST"> F  </i>
     <i type="int" name="MAXMIX">   -45</i>
     <i name="WC">    100.00000000</i>
     <i type="int" name="INIMIX">     1</i>
     <i type="int" name="MIXPRE">     1</i>
     <i type="int" name="MREMOVE">     5</i>
    </separator>
   </separator>
   <separator name="electronic dipolcorrection" >
    <i type="logical" name="LDIPOL"> F  </i>
    <i type="logical" name="LMONO"> F  </i>
    <i type="int" name="IDIPOL">     0</i>
    <i name="EPSILON">      1.00000000</i>
    <v name="DIPOL">   -100.00000000   -100.00000000   -100.00000000</v>
    <i name="EFIELD">      0.00000000</i>
   </separator>
  </separator>
  <separator name="grids" >
   <i type="int" name="NGX">    70</i>
   <i type="int" name="NGY">    60</i>
   <i type="int" name="NGZ">    70</i>
   <i type="int" name="NGXF">   140</i>
   <i type="int" name="NGYF">   120</i>
   <i type="int" name="NGZF">   140</i>
   <i type="logical" name="ADDGRID"> F  </i>
  </separator>
  <separator name="ionic" >
   <i type="int" name="NSW">     1</i>
   <i type="int" name="IBRION">     2</i>
   <i type="int" name="MDALGO">     0</i>
   <i type="int" name="ISIF">     2</i>
   <i name="PSTRESS">      0.00000000</i>
   <i name="EDIFFG">     -0.01000000</i>
   <i type="int" name="NFREE">    10</i>
   <i name="POTIM">      0.50000000</i>
   <i name="SMASS">     -3.00000000</i>
   <i name="SCALEE">      1.00000000</i>
  </separator>
  <separator name="ionic md" >
   <i name="TEBEG">      0.00010000</i>
   <i name="TEEND">      0.00010000</i>
   <i type="int" name="NBLOCK">     1</i>
   <i type="int" name="KBLOCK">     1</i>
   <i type="int" name="NPACO">   256</i>
   <i name="APACO">     16.00000000</i>
  </separator>
  <separator name="symmetry" >
   <i type="int" name="ISYM">     2</i>
   <i name="SYMPREC">      0.00001000</i>
  </separator>
  <separator name="dos" >
   <i type="int" name="LORBIT">     0</i>
   <v name="RWIGS">     -1.00000000     -1.00000000     -1.00000000     -1.00000000     -1.00000000</v>
   <i type="int" name="NEDOS">   301</i>
   <i name="EMIN">     10.00000000</i>
   <i name="EMAX">    -10.00000000</i>
   <i name="EFERMI">      0.00000000</i>
  </separator>
  <separator name="writing" >
   <i type="int" name="NWRITE">     2</i>
   <i type="logical" name="LWAVE"> F  </i>
   <i type="logical" name="LDOWNSAMPLE"> F  </i>
   <i type="logical" name="LCHARG"> F  </i>
   <i type="logical" name="LPARD"> F  </i>
   <i type="logical" name="LVTOT"> F  </i>
   <i type="logical" name="LVHAR"> F  </i>
   <i type="logical" name="LELF"> F  </i>
   <i type="logical" name="LOPTICS"> F  </i>
   <v name="STM">      0.00000000      0.00000000      0.00000000      0.00000000      0.00000000      0.00000000      0.00000000</v>
  </separator>
  <separator name="performance" >
   <i type="int" name="NPAR">    28</i>
   <i type="int" name="NSIM">     4</i>
   <i type="int" name="NBLK">    -1</i>
   <i type="logical" name="LPLANE"> T  </i>
   <i type="logical" name="LSCALAPACK"> T  </i>
   <i type="logical" name="LSCAAWARE"> F  </i>
   <i type="logical" name="LSCALU"> F  </i>
   <i type="logical" name="LASYNC"> F  </i>
   <i type="logical" name="LORBITALREAL"> F  </i>
  </separator>
  <separator name="miscellaneous" >
   <i type="int" name="IDIOT">     3</i>
   <i type="int" name="ISPECIAL">     0</i>
   <i type="logical" name="LMUSIC"> F  </i>
   <v name="POMASS">      7.01000000     24.30500000    208.98000000     32.06600000     16.00000000</v>
   <v name="DARWINR">      0.00000000      0.00000000      0.00000000      0.00000000      0.00000000</v>
   <v name="DARWINV">      1.00000000      1.00000000      1.00000000      1.00000000      1.00000000</v>
   <i type="logical" name="LCORR"> T  </i>
  </separator>
  <i type="logical" name="GGA_COMPAT"> T  </i>
  <i type="logical" name="LBERRY"> F  </i>
  <i type="int" name="ICORELEVEL">     0</i>
  <i type="logical" name="LDAU"> F  </i>
  <i type="int" name="I_CONSTRAINED_M">     0</i>
  <separator name="electronic exchange-correlation" >
   <i type="string" name="GGA">--</i>
   <i type="int" name="VOSKOWN">     0</i>
   <i type="logical" name="LHFCALC"> F  </i>
   <i type="string" name="PRECFOCK"></i>
   <i type="logical" name="LSYMGRAD"> F  </i>
   <i type="logical" name="LHFONE"> F  </i>
   <i type="logical" name="LRHFCALC"> F  </i>
   <i type="logical" name="LTHOMAS"> F  </i>
   <i type="logical" name="LMODELHF"> F  </i>
   <i name="ENCUT4O">     -1.00000000</i>
   <i type="int" name="EXXOEP">     0</i>
   <i type="int" name="FOURORBIT">     0</i>
   <i name="AEXX">      0.00000000</i>
   <i name="HFALPHA">      0.00000000</i>
   <i name="MCALPHA">      0.00000000</i>
   <i name="ALDAX">      1.00000000</i>
   <i name="AGGAX">      1.00000000</i>
   <i name="ALDAC">      1.00000000</i>
   <i name="AGGAC">      1.00000000</i>
   <i type="int" name="NKREDX">     1</i>
   <i type="int" name="NKREDY">     1</i>
   <i type="int" name="NKREDZ">     1</i>
   <i type="logical" name="SHIFTRED"> F  </i>
   <i type="logical" name="ODDONLY"> F  </i>
   <i type="logical" name="EVENONLY"> F  </i>
   <i type="int" name="LMAXFOCK">     0</i>
   <i type="int" name="NMAXFOCKAE">     0</i>
   <i type="logical" name="LFOCKAEDFT"> F  </i>
   <i name="HFSCREEN">      0.00000000</i>
   <i name="HFSCREENC">      0.00000000</i>
   <i type="int" name="NBANDSGWLOW">     0</i>
  </separator>
  <separator name="vdW DFT" >
   <i type="logical" name="LUSE_VDW"> F  </i>
   <i name="Zab_VDW">     -0.84910000</i>
   <i name="PARAM1">      0.12340000</i>
   <i name="PARAM2">      1.00000000</i>
   <i name="PARAM3">      0.00000000</i>
  </separator>
  <separator name="model GW" >
   <i type="int" name="MODEL_GW">     0</i>
   <i name="MODEL_EPS0">     12.17134107</i>
   <i name="MODEL_ALPHA">      1.00000000</i>
  </separator>
  <separator name="linear response parameters" >
   <i type="logical" name="LEPSILON"> F  </i>
   <i type="logical" name="LRPA"> F  </i>
   <i type="logical" name="LNABLA"> F  </i>
   <i type="logical" name="LVEL"> F  </i>
   <i type="int" name="KINTER">     0</i>
   <i name="CSHIFT">      0.10000000</i>
   <i name="OMEGAMAX">     -1.00000000</i>
   <i name="DEG_THRESHOLD">      0.00200000</i>
   <i name="RTIME">     -0.10000000</i>
   <i name="WPLASMAI">      0.00000000</i>
   <v name="DFIELD">      0.00000000      0.00000000      0.00000000</v>
   <v name="WPLASMA">      0.00000000      0.00000000      0.00000000      0.00000000      0.00000000      0.00000000      0.00000000      0.00000000      0.00000000</v>
  </separator>
  <separator name="orbital magnetization" >
   <i type="logical" name="NUCIND"> F  </i>
   <v name="MAGPOS">      0.00000000      0.00000000      0.00000000</v>
   <i type="logical" name="LNICSALL"> T  </i>
   <i type="logical" name="ORBITALMAG"> F  </i>
   <i type="logical" name="LMAGBLOCH"> F  </i>
   <i type="logical" name="LCHIMAG"> F  </i>
   <i type="logical" name="LGAUGE"> T  </i>
   <i type="int" name="MAGATOM">     0</i>
   <v name="MAGDIPOL">      0.00000000      0.00000000      0.00000000</v>
   <v name="AVECCONST">      0.00000000      0.00000000      0.00000000</v>
  </separator>
  <separator name="response functions" >
   <i type="logical" name="LADDER"> F  </i>
   <i type="logical" name="LRPAFORCE"> F  </i>
   <i type="logical" name="LFXC"> F  </i>
   <i type="logical" name="LHARTREE"> T  </i>
   <i type="int" name="IBSE">     0</i>
   <v type="int" name="KPOINT">    -1     0     0     0</v>
   <i type="logical" name="LTCTE"> F  </i>
   <i type="logical" name="LTETE"> F  </i>
   <i type="logical" name="LTRIPLET"> F  </i>
   <i type="logical" name="LFXCEPS"> F  </i>
   <i type="logical" name="LFXHEG"> F  </i>
   <i type="int" name="NATURALO">     2</i>
   <i type="logical" name="L2ORDER"> F  </i>
   <i type="logical" name="LMP2LT"> F  </i>
   <i type="logical" name="LUSEW"> F  </i>
   <i name="ENCUTGW">     -2.00000000</i>
   <i name="ENCUTGWSOFT">     -2.00000000</i>
   <i name="ENCUTLF">     -1.00000000</i>
   <i type="int" name="LMAXMP2">    -1</i>
   <i name="SCISSOR">      0.00000000</i>
   <i type="int" name="NOMEGA">     0</i>
   <i type="int" name="NOMEGAR">     0</i>
   <i type="int" name="NBANDSGW">    -1</i>
   <i type="int" name="NBANDSO">    -1</i>
   <i type="int" name="NBANDSV">    -1</i>
   <i type="int" name="NELM">     1</i>
   <i type="int" name="NELMHF">     1</i>
   <i type="int" name="DIM">     3</i>
   <i type="int" name="ANTIRES">     0</i>
   <i name="OMEGAMAX">    -30.00000000</i>
   <i name="OMEGAMIN">    -30.00000000</i>
   <i name="OMEGATL">   -200.00000000</i>
   <i type="int" name="OMEGAGRID">   140</i>
   <i name="CSHIFT">     -0.10000000</i>
   <i type="logical" name="SELFENERGY"> F  </i>
   <i type="logical" name="LSPECTRAL"> F  </i>
   <i type="logical" name="LSPECTRALGW"> F  </i>
   <i type="logical" name="LSINGLES"> F  </i>
   <i type="logical" name="LFERMIGW"> F  </i>
   <i type="logical" name="ODDONLYGW"> F  </i>
   <i type="logical" name="EVENONLYGW"> F  </i>
   <i type="int" name="NKREDLFX">     1</i>
   <i type="int" name="NKREDLFY">     1</i>
   <i type="int" name="NKREDLFZ">     1</i>
   <i type="int" name="MAXMEM">  2800</i>
   <i type="int" name="TELESCOPE">     0</i>
   <i type="int" name="TAUPAR">     1</i>
   <i type="int" name="OMEGAPAR">    -1</i>
   <i name="LAMBDA">      1.00000000</i>
  </separator>
  <separator name="External order field" >
   <i name="OFIELD_KAPPA">      0.00000000</i>
   <v name="OFIELD_K">      0.00000000      0.00000000      0.00000000</v>
   <i name="OFIELD_Q6_NEAR">      0.00000000</i>
   <i name="OFIELD_Q6_FAR">      0.00000000</i>
   <i name="OFIELD_A">      0.00000000</i>
  </separator>
 </parameters>
 <atominfo>
  <atoms>      59 </atoms>
  <types>       5 </types>
  <array name="atoms" >
   <dimension dim="1">ion</dimension>
   <field type="string">element</field>
   <field type="int">atomtype</field>
   <set>
    <rc><c>Li</c><c>   1</c></rc>
    <rc><c>Li</c><c>   1</c></rc>
    <rc><c>Li</c><c>   1</c></rc>
    <rc><c>Li</c><c>   1</c></rc>
    <rc><c>Li</c><c>   1</c></rc>
    <rc><c>Li</c><c>   1</c></rc>
    <rc><c>Mg</c><c>   2</c></rc>
    <rc><c>Mg</c><c>   2</c></rc>
    <rc><c>Mg</c><c>   2</c></rc>
    <rc><c>Mg</c><c>   2</c></rc>
    <rc><c>Mg</c><c>   2</c></rc>
    <rc><c>Bi</c><c>   3</c></rc>
    <rc><c>Bi</c><c>   3</c></rc>
    <rc><c>Bi</c><c>   3</c></rc>
    <rc><c>Bi</c><c>   3</c></rc>
    <rc><c>Bi</c><c>   3</c></rc>
    <rc><c>Bi</c><c>   3</c></rc>
    <rc><c>Bi</c><c>   3</c></rc>
    <rc><c>Bi</c><c>   3</c></rc>
    <rc><c>Bi</c><c>   3</c></rc>
    <rc><c>Bi</c><c>   3</c></rc>
    <rc><c>Bi</c><c>   3</c></rc>
    <rc><c>Bi</c><c>   3</c></rc>
    <rc><c>Bi</c><c>   3</c></rc>
    <rc><c>Bi</c><c>   3</c></rc>
    <rc><c>Bi</c><c>   3</c></rc>
    <rc><c>Bi</c><c>   3</c></rc>
    <rc><c>S </c><c>   4</c></rc>
    <rc><c>S </c><c>   4</c></rc>
    <rc><c>S </c><c>   4</c></rc>
    <rc><c>S </c><c>   4</c></rc>
    <rc><c>S </c><c>   4</c></rc>
    <rc><c>S </c><c>   4</c></rc>
    <rc><c>S </c><c>   4</c></rc>
    <rc><c>S </c><c>   4</c></rc>
    <rc><c>S </c><c>   4</c></rc>
    <rc><c>S </c><c>   4</c></rc>
    <rc><c>S </c><c>   4</c></rc>
    <rc><c>S </c><c>   4</c></rc>
    <rc><c>S </c><c>   4</c></rc>
    <rc><c>S </c><c>   4</c></rc>
    <rc><c>S </c><c>   4</c></rc>
    <rc><c>S </c><c>   4</c></rc>
    <rc><c>O </c><c>   5</c></rc>
    <rc><c>O </c><c>   5</c></rc>
    <rc><c>O </c><c>   5</c></rc>
    <rc><c>O </c><c>   5</c></rc>
    <rc><c>O </c><c>   5</c></rc>
    <rc><c>O </c><c>   5</c></rc>
    <rc><c>O </c><c>   5</c></rc>
    <rc><c>O </c><c>   5</c></rc>
    <rc><c>O </c><c>   5</c></rc>
    <rc><c>O </c><c>   5</c></rc>
    <rc><c>O </c><c>   5</c></rc>
    <rc><c>O </c><c>   5</c></rc>
    <rc><c>O </c><c>   5</c></rc>
    <rc><c>O </c><c>   5</c></rc>
    <rc><c>O </c><c>   5</c></rc>
    <rc><c>O </c><c>   5</c></rc>
   </set>
  </array>
  <array name="atomtypes" >
   <dimension dim="1">type</dimension>
   <field type="int">atomspertype</field>
   <field type="string">element</field>
   <field>mass</field>
   <field>valence</field>
   <field type="string">pseudopotential</field>
   <set>
    <rc><c>   6</c><c>Li</c><c>      7.01000000</c><c>      3.00000000</c><c>  PAW_PBE Li_sv 10Sep2004               </c></rc>
    <rc><c>   5</c><c>Mg</c><c>     24.30500000</c><c>      2.00000000</c><c>  PAW_PBE Mg 13Apr2007                  </c></rc>
    <rc><c>  16</c><c>Bi</c><c>    208.98000000</c><c>     15.00000000</c><c>  PAW_PBE Bi_d 06Sep2000                </c></rc>
    <rc><c>  16</c><c>S </c><c>     32.06600000</c><c>      6.00000000</c><c>  PAW_PBE S 06Sep2000                   </c></rc>
    <rc><c>  16</c><c>O </c><c>     16.00000000</c><c>      6.00000000</c><c>  PAW_PBE O 08Apr2002                   </c></rc>
   </set>
  </array>
 </atominfo>
 <structure name="initialpos" >
  <crystal>
   <varray name="basis" >
    <v>      11.17850000       0.00000000       0.00000000 </v>
    <v>       0.00000000       9.57460000       0.00000000 </v>
    <v>       0.00000000       0.00000000      11.18240000 </v>
   </varray>
   <i name="volume">   1196.84853820 </i>
   <varray name="rec_basis" >
    <v>       0.08945744       0.00000000       0.00000000 </v>
    <v>       0.00000000       0.10444301       0.00000000 </v>
    <v>       0.00000000       0.00000000       0.08942624 </v>
   </varray>
  </crystal>
  <varray name="positions" >
   <v>       0.37539000       0.00017000       0.43687000 </v>
   <v>       0.12461000       0.99984000       0.18687000 </v>
   <v>       0.37461000       0.00017000       0.18687000 </v>
   <v>       0.87461000       0.00017000       0.18687000 </v>
   <v>       0.37539000       0.00017000       0.93687000 </v>
   <v>       0.37461000       0.00017000       0.68687000 </v>
   <v>       0.87539000       0.00017000       0.43687000 </v>
   <v>       0.62461000       0.99984000       0.18687000 </v>
   <v>       0.12461000       0.99984000       0.68687000 </v>
   <v>       0.87539000       0.00017000       0.93687000 </v>
   <v>       0.62461000       0.99984000       0.68687000 </v>
   <v>       0.00013000       0.29519000       0.06281000 </v>
   <v>       0.25013000       0.70481000       0.06281000 </v>
   <v>       0.24987000       0.29519000       0.31282000 </v>
   <v>       0.49987000       0.70481000       0.31282000 </v>
   <v>       0.50013000       0.29519000       0.06281000 </v>
   <v>       0.75013000       0.70481000       0.06281000 </v>
   <v>       0.74987000       0.29519000       0.31282000 </v>
   <v>       0.99987000       0.70481000       0.31282000 </v>
   <v>       0.00013000       0.29519000       0.56281000 </v>
   <v>       0.25013000       0.70481000       0.56281000 </v>
   <v>       0.24987000       0.29519000       0.81282000 </v>
   <v>       0.49987000       0.70481000       0.81282000 </v>
   <v>       0.50013000       0.29519000       0.56281000 </v>
   <v>       0.75013000       0.70481000       0.56281000 </v>
   <v>       0.74987000       0.29519000       0.81282000 </v>
   <v>       0.99987000       0.70481000       0.81282000 </v>
   <v>       0.25005000       0.32677000       0.06286000 </v>
   <v>       0.00005000       0.67323000       0.06286000 </v>
   <v>       0.49995000       0.32677000       0.31286000 </v>
   <v>       0.24995000       0.67323000       0.31286000 </v>
   <v>       0.75005000       0.32677000       0.06286000 </v>
   <v>       0.50005000       0.67323000       0.06286000 </v>
   <v>       0.99995000       0.32677000       0.31286000 </v>
   <v>       0.74995000       0.67323000       0.31286000 </v>
   <v>       0.25005000       0.32677000       0.56286000 </v>
   <v>       0.00005000       0.67323000       0.56286000 </v>
   <v>       0.49995000       0.32677000       0.81286000 </v>
   <v>       0.24995000       0.67323000       0.81286000 </v>
   <v>       0.75005000       0.32677000       0.56286000 </v>
   <v>       0.50005000       0.67323000       0.56286000 </v>
   <v>       0.99995000       0.32677000       0.81286000 </v>
   <v>       0.74995000       0.67323000       0.81286000 </v>
   <v>       0.49987000       0.07798000       0.06246000 </v>
   <v>       0.24987000       0.92202000       0.06246000 </v>
   <v>       0.25013000       0.07798000       0.31246000 </v>
   <v>       0.00013000       0.92202000       0.31246000 </v>
   <v>       0.99987000       0.07798000       0.06246000 </v>
   <v>       0.74987000       0.92202000       0.06246000 </v>
   <v>       0.75013000       0.07798000       0.31246000 </v>
   <v>       0.50013000       0.92202000       0.31246000 </v>
   <v>       0.49987000       0.07798000       0.56246000 </v>
   <v>       0.24987000       0.92202000       0.56246000 </v>
   <v>       0.25013000       0.07798000       0.81246000 </v>
   <v>       0.00013000       0.92202000       0.81246000 </v>
   <v>       0.99987000       0.07798000       0.56246000 </v>
   <v>       0.74987000       0.92202000       0.56246000 </v>
   <v>       0.75013000       0.07798000       0.81246000 </v>
   <v>       0.50013000       0.92202000       0.81246000 </v>
  </varray>
 </structure>
 <calculation>
  <scstep>
   <time name="dav">   60.47   60.77</time>
   <time name="total">   60.55   60.85</time>
   <energy>
    <i name="alphaZ">   1060.66890660 </i>
    <i name="ewald"> -30414.05519973 </i>
    <i name="hartreedc"> -12705.24771347 </i>
    <i name="XCdc">   1247.13335232 </i>
    <i name="pawpsdc">  36635.26894311 </i>
    <i name="pawaedc"> -35972.74895369 </i>
    <i name="eentropy">      0.00000000 </i>
    <i name="bandstr">   1865.53558192 </i>
    <i name="atom">  44026.03258983 </i>
    <i name="e_fr_energy">   5742.58750688 </i>
    <i name="e_wo_entrp">   5742.58750688 </i>
    <i name="e_0_energy">   5742.58750688 </i>
   </energy>
  </scstep>
  <scstep>
   <time name="dav">   60.84   61.46</time>
   <time name="total">   60.85   61.47</time>
   <energy>
    <i name="e_fr_energy">    759.63694394 </i>
    <i name="e_wo_entrp">    759.63694394 </i>
    <i name="e_0_energy">    759.63694394 </i>
   </energy>
  </scstep>
  <scstep>
   <time name="dav">   70.72   71.41</time>
   <time name="total">   70.73   71.41</time>
   <energy>
    <i name="e_fr_energy">   -244.99496517 </i>
    <i name="e_wo_entrp">   -244.99496517 </i>
    <i name="e_0_energy">   -244.99496517 </i>
   </energy>
  </scstep>
  <scstep>
   <time name="dav">   73.43   74.05</time>
   <time name="total">   73.44   74.06</time>
   <energy>
    <i name="e_fr_energy">   -337.48510195 </i>
    <i name="e_wo_entrp">   -337.48510195 </i>
    <i name="e_0_energy">   -337.48510195 </i>
   </energy>
  </scstep>
  <scstep>
   <time name="dav">   96.84   97.31</time>
   <time name="total">   97.56   98.03</time>
   <energy>
    <i name="e_fr_energy">   -344.54203681 </i>
    <i name="e_wo_entrp">   -344.54203681 </i>
    <i name="e_0_energy">   -344.54203681 </i>
   </energy>
  </scstep>
  <scstep>
   <time name="dav">   86.50   87.16</time>
   <time name="total">   87.29   87.96</time>
   <energy>
    <i name="e_fr_energy">   -288.82334324 </i>
    <i name="e_wo_entrp">   -288.82334324 </i>
    <i name="e_0_energy">   -288.82334324 </i>
   </energy>
  </scstep>
  <scstep>
   <time name="dav">   65.85   66.12</time>
   <time name="total">   66.64   66.92</time>
   <energy>
    <i name="e_fr_energy">   -291.25371818 </i>
    <i name="e_wo_entrp">   -291.25371818 </i>
    <i name="e_0_energy">   -291.25371818 </i>
   </energy>
  </scstep>
  <scstep>
   <time name="dav">   79.29   79.60</time>
   <time name="total">   80.08   80.40</time>
   <energy>
    <i name="e_fr_energy">   -290.24280358 </i>
    <i name="e_wo_entrp">   -290.24280358 </i>
    <i name="e_0_energy">   -290.24280358 </i>
   </energy>
  </scstep>
  <scstep>
   <time name="dav">   78.06   78.33</time>
   <time name="total">   78.86   79.14</time>
   <energy>
    <i name="e_fr_energy">   -289.71944439 </i>
    <i name="e_wo_entrp">   -289.71944439 </i>
    <i name="e_0_energy">   -289.71944439 </i>
   </energy>
  </scstep>
  <scstep>
   <time name="dav">   74.81   75.23</time>
   <time name="total">   75.60   76.03</time>
   <energy>
    <i name="e_fr_energy">   -289.73048719 </i>
    <i name="e_wo_entrp">   -289.73048719 </i>
    <i name="e_0_energy">   -289.73048719 </i>
   </energy>
  </scstep>
  <scstep>
   <time name="dav">   78.72   79.69</time>
   <time name="total">   79.52   80.48</time>
   <energy>
    <i name="e_fr_energy">   -289.73793365 </i>
    <i name="e_wo_entrp">   -289.73793365 </i>
    <i name="e_0_energy">   -289.73793365 </i>
   </energy>
  </scstep>
  <scstep>
   <time name="dav">   78.42   79.12</time>
   <time name="total">   79.22   79.92</time>
   <energy>
    <i name="e_fr_energy">   -289.74079621 </i>
    <i name="e_wo_entrp">   -289.74079621 </i>
    <i name="e_0_energy">   -289.74079621 </i>
   </energy>
  </scstep>
  <scstep>
   <time name="dav">   76.21   76.48</time>
   <time name="total">   77.01   77.28</time>
   <energy>
    <i name="e_fr_energy">   -289.74203636 </i>
    <i name="e_wo_entrp">   -289.74203636 </i>
    <i name="e_0_energy">   -289.74203636 </i>
   </energy>
  </scstep>
  <scstep>
   <time name="dav">   78.32   78.61</time>
   <time name="total">   79.12   79.41</time>
   <energy>
    <i name="e_fr_energy">   -289.74222228 </i>
    <i name="e_wo_entrp">   -289.74222228 </i>
    <i name="e_0_energy">   -289.74222228 </i>
   </energy>
  </scstep>
  <scstep>
   <time name="dav">   75.95   75.97</time>
   <time name="total">   76.75   76.77</time>
   <energy>
    <i name="e_fr_energy">   -289.74226238 </i>
    <i name="e_wo_entrp">   -289.74226238 </i>
    <i name="e_0_energy">   -289.74226238 </i>
   </energy>
  </scstep>
  <scstep>
   <time name="dav">   67.39   67.42</time>
   <time name="total">   68.19   68.22</time>
   <energy>
    <i name="e_fr_energy">   -289.74227979 </i>
    <i name="e_wo_entrp">   -289.74227979 </i>
    <i name="e_0_energy">   -289.74227979 </i>
   </energy>
  </scstep>
  <scstep>
   <time name="dav">   70.64   70.65</time>
   <time name="total">   71.44   71.45</time>
   <energy>
    <i name="e_fr_energy">   -289.74228127 </i>
    <i name="e_wo_entrp">   -289.74228127 </i>
    <i name="e_0_energy">   -289.74228127 </i>
   </energy>
  </scstep>
  <scstep>
   <time name="dav">   55.53   55.54</time>
   <time name="total">   55.60   55.62</time>
   <energy>
    <i name="alphaZ">   1060.66890660 </i>
    <i name="ewald"> -30414.05519973 </i>
    <i name="hartreedc"> -12948.43192822 </i>
    <i name="XCdc">   1272.04897682 </i>
    <i name="pawpsdc">  43665.96710027 </i>
    <i name="pawaedc"> -42976.68520296 </i>
    <i name="eentropy">      0.00000000 </i>
    <i name="bandstr">  -3975.28752425 </i>
    <i name="atom">  44026.03258983 </i>
    <i name="e_fr_energy">   -289.74228164 </i>
    <i name="e_wo_entrp">   -289.74228164 </i>
    <i name="e_0_energy">   -289.74228164 </i>
   </energy>
  </scstep>
  <structure>
   <crystal>
    <varray name="basis" >
     <v>      11.17850000       0.00000000       0.00000000 </v>
     <v>       0.00000000       9.57460000       0.00000000 </v>
     <v>       0.00000000       0.00000000      11.18240000 </v>
    </varray>
    <i name="volume">   1196.84853820 </i>
    <varray name="rec_basis" >
     <v>       0.08945744       0.00000000       0.00000000 </v>
     <v>       0.00000000       0.10444301       0.00000000 </v>
     <v>       0.00000000       0.00000000       0.08942624 </v>
    </varray>
   </crystal>
   <varray name="positions" >
    <v>       0.37539000       0.00017000       0.43687000 </v>
    <v>       0.12461000       0.99984000       0.18687000 </v>
    <v>       0.37461000       0.00017000       0.18687000 </v>
    <v>       0.87461000       0.00017000       0.18687000 </v>
    <v>       0.37539000       0.00017000       0.93687000 </v>
    <v>       0.37461000       0.00017000       0.68687000 </v>
    <v>       0.87539000       0.00017000       0.43687000 </v>
    <v>       0.62461000       0.99984000       0.18687000 </v>
    <v>       0.12461000       0.99984000       0.68687000 </v>
    <v>       0.87539000       0.00017000       0.93687000 </v>
    <v>       0.62461000       0.99984000       0.68687000 </v>
    <v>       0.00013000       0.29519000       0.06281000 </v>
    <v>       0.25013000       0.70481000       0.06281000 </v>
    <v>       0.24987000       0.29519000       0.31282000 </v>
    <v>       0.49987000       0.70481000       0.31282000 </v>
    <v>       0.50013000       0.29519000       0.06281000 </v>
    <v>       0.75013000       0.70481000       0.06281000 </v>
    <v>       0.74987000       0.29519000       0.31282000 </v>
    <v>       0.99987000       0.70481000       0.31282000 </v>
    <v>       0.00013000       0.29519000       0.56281000 </v>
    <v>       0.25013000       0.70481000       0.56281000 </v>
    <v>       0.24987000       0.29519000       0.81282000 </v>
    <v>       0.49987000       0.70481000       0.81282000 </v>
    <v>       0.50013000       0.29519000       0.56281000 </v>
    <v>       0.75013000       0.70481000       0.56281000 </v>
    <v>       0.74987000       0.29519000       0.81282000 </v>
    <v>       0.99987000       0.70481000       0.81282000 </v>
    <v>       0.25005000       0.32677000       0.06286000 </v>
    <v>       0.00005000       0.67323000       0.06286000 </v>
    <v>       0.49995000       0.32677000       0.31286000 </v>
    <v>       0.24995000       0.67323000       0.31286000 </v>
    <v>       0.75005000       0.32677000       0.06286000 </v>
    <v>       0.50005000       0.67323000       0.06286000 </v>
    <v>       0.99995000       0.32677000       0.31286000 </v>
    <v>       0.74995000       0.67323000       0.31286000 </v>
    <v>       0.25005000       0.32677000       0.56286000 </v>
    <v>       0.00005000       0.67323000       0.56286000 </v>
    <v>       0.49995000       0.32677000       0.81286000 </v>
    <v>       0.24995000       0.67323000       0.81286000 </v>
    <v>       0.75005000       0.32677000       0.56286000 </v>
    <v>       0.50005000       0.67323000       0.56286000 </v>
    <v>       0.99995000       0.32677000       0.81286000 </v>
    <v>       0.74995000       0.67323000       0.81286000 </v>
    <v>       0.49987000       0.07798000       0.06246000 </v>
    <v>       0.24987000       0.92202000       0.06246000 </v>
    <v>       0.25013000       0.07798000       0.31246000 </v>
    <v>       0.00013000       0.92202000       0.31246000 </v>
    <v>       0.99987000       0.07798000       0.06246000 </v>
    <v>       0.74987000       0.92202000       0.06246000 </v>
    <v>       0.75013000       0.07798000       0.31246000 </v>
    <v>       0.50013000       0.92202000       0.31246000 </v>
    <v>       0.49987000       0.07798000       0.56246000 </v>
    <v>       0.24987000       0.92202000       0.56246000 </v>
    <v>       0.25013000       0.07798000       0.81246000 </v>
    <v>       0.00013000       0.92202000       0.81246000 </v>
    <v>       0.99987000       0.07798000       0.56246000 </v>
    <v>       0.74987000       0.92202000       0.56246000 </v>
    <v>       0.75013000       0.07798000       0.81246000 </v>
    <v>       0.50013000       0.92202000       0.81246000 </v>
   </varray>
  </structure>
  <varray name="forces" >
   <v>      -0.12041078       0.06442667      -0.08144843 </v>
   <v>       0.21843562      -0.00033625       0.00535526 </v>
   <v>      -0.49866131      -0.00164445       0.00867200 </v>
   <v>       0.50951775      -0.00065088       0.00802553 </v>
   <v>      -0.12079961      -0.06746455       0.08772753 </v>
   <v>      -0.03729411      -0.00039789       0.00908501 </v>
   <v>       0.22313799      -0.12450948       0.85338346 </v>
   <v>      -0.42522556       0.00224188       0.03141558 </v>
   <v>      -0.52874046       0.00561856       0.03089029 </v>
   <v>       0.22356434       0.11285339      -0.79833802 </v>
   <v>       0.58700397       0.00236793       0.03059418 </v>
   <v>       0.45525776       0.04269562      -0.02482500 </v>
   <v>      -0.09959607       1.00427452      -0.04489723 </v>
   <v>      -0.08578905      -1.01030742       0.03467341 </v>
   <v>      -0.22582411       0.00083984       0.16293701 </v>
   <v>      -0.24343731       0.01704392      -0.17298316 </v>
   <v>      -0.13591414      -1.01091753      -0.16139453 </v>
   <v>      -0.13402808       1.00368356       0.15433696 </v>
   <v>       0.47001224      -0.03936021       0.01479511 </v>
   <v>       0.15289934      -0.07562294      -0.01902380 </v>
   <v>      -0.02069789      -0.00335213      -0.25229141 </v>
   <v>      -0.01208225      -0.01563415       0.24396986 </v>
   <v>      -0.12248102      -0.00434671       0.18256204 </v>
   <v>      -0.13767150       0.02260875      -0.19209577 </v>
   <v>      -0.01981110       0.06783380       0.04294203 </v>
   <v>      -0.01680686      -0.06666970      -0.05370882 </v>
   <v>       0.17526097       0.07559830       0.00963975 </v>
   <v>       0.01209748       0.21436042      -0.08810870 </v>
   <v>      -0.30535222      -0.12788731      -0.02089956 </v>
   <v>       0.28435725       0.14585437      -0.06394987 </v>
   <v>       0.01349343      -0.21529801       0.08732582 </v>
   <v>       0.00875875       0.06353363       0.10461629 </v>
   <v>       0.28453761      -0.14428244       0.06362626 </v>
   <v>      -0.30607540       0.12658380       0.02021761 </v>
   <v>       0.01274647      -0.06596494      -0.10553025 </v>
   <v>      -0.02410330       0.17554070       0.14546194 </v>
   <v>      -0.05639388      -0.09035848      -0.02282634 </v>
   <v>       0.09398198       0.14946572      -0.05766640 </v>
   <v>      -0.02318088      -0.17765906      -0.14845617 </v>
   <v>      -0.01408612       0.05798802      -0.09393306 </v>
   <v>       0.09234728      -0.14792304       0.05760880 </v>
   <v>      -0.05982481       0.09032375       0.02381203 </v>
   <v>      -0.00874213      -0.05845830       0.09361016 </v>
   <v>       0.09480922       0.04165550       1.11867286 </v>
   <v>       0.61898524      -0.85473011       0.53927042 </v>
   <v>       0.60799198       0.85915112      -0.53698418 </v>
   <v>      -1.32611970       0.01204944      -0.12904287 </v>
   <v>      -1.32119748      -0.01656607       0.12013078 </v>
   <v>       0.62810112       0.71115375       0.70003838 </v>
   <v>       0.59775691      -0.70521166      -0.73012726 </v>
   <v>       0.08771150      -0.04419468      -1.12837499 </v>
   <v>      -0.06579475       0.04594454       1.10661830 </v>
   <v>       0.13262038      -0.07897144       1.14834749 </v>
   <v>       0.11111373       0.08117157      -1.16441081 </v>
   <v>      -0.08316651      -0.28153254       0.02148697 </v>
   <v>      -0.07892513       0.28164414      -0.03270475 </v>
   <v>       0.03079308      -0.22856126      -0.08822106 </v>
   <v>       0.00228721       0.22924360       0.06641848 </v>
   <v>      -0.07134711      -0.04893718      -1.11602519 </v>
  </varray>
  <varray name="stress" >
   <v>      -8.94330983      -0.29400990      -0.03215726 </v>
   <v>      -0.29401003     -13.48382986       0.01089320 </v>
   <v>      -0.03215717       0.01089334     -12.12265919 </v>
  </varray>
  <energy>
   <i name="e_fr_energy">   -302.26279841 </i>
   <i name="e_wo_entrp">   -302.26279841 </i>
   <i name="e_0_energy">      0.00000000 </i>
  </energy>
  <time name="totalsc"> 1448.20 1455.20</time>
  <eigenvalues>
   <array>
    <dimension dim="1">band</dimension>
    <dimension dim="2">kpoint</dimension>
    <dimension dim="3">spin</dimension>
    <field>eigene</field>
    <field>occ</field>
    <set>
     <set comment="spin 1">
      <set comment="kpoint 1">
       <r>  -40.3454    1.0000 </r>
       <r>  -39.8751    1.0000 </r>
       <r>  -39.5616    1.0000 </r>
       <r>  -39.5604    1.0000 </r>
       <r>  -39.5224    1.0000 </r>
       <r>  -39.4145    1.0000 </r>
       <r>  -18.9562    1.0000 </r>
       <r>  -18.9545    1.0000 </r>
       <r>  -18.8861    1.0000 </r>
       <r>  -18.8852    1.0000 </r>
       <r>  -18.8789    1.0000 </r>
       <r>  -18.8780    1.0000 </r>
       <r>  -18.7867    1.0000 </r>
       <r>  -18.7851    1.0000 </r>
       <r>  -18.7644    1.0000 </r>
       <r>  -18.7629    1.0000 </r>
       <r>  -18.7370    1.0000 </r>
       <r>  -18.7364    1.0000 </r>
       <r>  -18.7293    1.0000 </r>
       <r>  -18.7288    1.0000 </r>
       <r>  -18.7156    1.0000 </r>
       <r>  -18.7146    1.0000 </r>
       <r>  -18.6889    1.0000 </r>
       <r>  -18.6867    1.0000 </r>
       <r>  -18.6817    1.0000 </r>
       <r>  -18.6800    1.0000 </r>
       <r>  -18.6784    1.0000 </r>
       <r>  -18.6781    1.0000 </r>
       <r>  -18.6769    1.0000 </r>
       <r>  -18.6759    1.0000 </r>
       <r>  -18.6748    1.0000 </r>
       <r>  -18.6731    1.0000 </r>
       <r>  -18.6729    1.0000 </r>
       <r>  -18.6710    1.0000 </r>
       <r>  -18.6695    1.0000 </r>
       <r>  -18.6694    1.0000 </r>
       <r>  -18.6685    1.0000 </r>
       <r>  -18.6660    1.0000 </r>
       <r>  -18.6653    1.0000 </r>
       <r>  -18.6646    1.0000 </r>
       <r>  -18.6641    1.0000 </r>
       <r>  -18.6627    1.0000 </r>
       <r>  -18.6589    1.0000 </r>
       <r>  -18.6575    1.0000 </r>
       <r>  -18.6499    1.0000 </r>
       <r>  -18.6486    1.0000 </r>
       <r>  -18.6044    1.0000 </r>
       <r>  -18.6014    1.0000 </r>
       <r>  -18.5912    1.0000 </r>
       <r>  -18.5886    1.0000 </r>
       <r>  -18.5843    1.0000 </r>
       <r>  -18.5832    1.0000 </r>
       <r>  -18.5818    1.0000 </r>
       <r>  -18.5778    1.0000 </r>
       <r>  -18.5539    1.0000 </r>
       <r>  -18.5532    1.0000 </r>
       <r>  -18.5357    1.0000 </r>
       <r>  -18.5331    1.0000 </r>
       <r>  -18.5260    1.0000 </r>
       <r>  -18.5243    1.0000 </r>
       <r>  -18.5223    1.0000 </r>
       <r>  -18.5213    1.0000 </r>
       <r>  -18.5208    1.0000 </r>
       <r>  -18.5205    1.0000 </r>
       <r>  -18.5191    1.0000 </r>
       <r>  -18.5185    1.0000 </r>
       <r>  -18.5102    1.0000 </r>
       <r>  -18.5098    1.0000 </r>
       <r>  -18.5048    1.0000 </r>
       <r>  -18.5044    1.0000 </r>
       <r>  -18.4927    1.0000 </r>
       <r>  -18.4914    1.0000 </r>
       <r>  -18.4487    1.0000 </r>
       <r>  -18.4449    1.0000 </r>
       <r>  -18.4298    1.0000 </r>
       <r>  -18.4289    1.0000 </r>
       <r>  -18.4279    1.0000 </r>
       <r>  -18.4259    1.0000 </r>
       <r>  -18.4159    1.0000 </r>
       <r>  -18.4150    1.0000 </r>
       <r>  -18.3366    1.0000 </r>
       <r>  -18.3352    1.0000 </r>
       <r>  -18.2220    1.0000 </r>
       <r>  -18.2206    1.0000 </r>
       <r>  -18.2080    1.0000 </r>
       <r>  -18.2064    1.0000 </r>
       <r>  -13.5983    1.0000 </r>
       <r>  -13.4925    1.0000 </r>
       <r>  -12.9473    1.0000 </r>
       <r>  -12.8400    1.0000 </r>
       <r>  -12.8049    1.0000 </r>
       <r>  -12.7957    1.0000 </r>
       <r>  -12.7618    1.0000 </r>
       <r>  -12.7490    1.0000 </r>
       <r>  -12.7353    1.0000 </r>
       <r>  -12.7101    1.0000 </r>
       <r>  -12.6818    1.0000 </r>
       <r>  -12.6640    1.0000 </r>
       <r>  -12.6376    1.0000 </r>
       <r>  -12.5958    1.0000 </r>
       <r>  -11.9988    1.0000 </r>
       <r>  -11.9356    1.0000 </r>
       <r>   -9.3609    1.0000 </r>
       <r>   -9.0652    1.0000 </r>
       <r>   -8.5683    1.0000 </r>
       <r>   -8.5301    1.0000 </r>
       <r>   -8.5196    1.0000 </r>
       <r>   -8.4742    1.0000 </r>
       <r>   -8.3446    1.0000 </r>
       <r>   -8.3110    1.0000 </r>
       <r>   -8.2927    1.0000 </r>
       <r>   -8.2496    1.0000 </r>
       <r>   -8.0623    1.0000 </r>
       <r>   -8.0617    1.0000 </r>
       <r>   -8.0252    1.0000 </r>
       <r>   -8.0228    1.0000 </r>
       <r>   -7.3893    1.0000 </r>
       <r>   -7.3883    1.0000 </r>
       <r>   -6.4023    1.0000 </r>
       <r>   -6.4006    1.0000 </r>
       <r>   -6.3725    1.0000 </r>
       <r>   -6.3696    1.0000 </r>
       <r>   -5.5510    1.0000 </r>
       <r>   -5.5175    1.0000 </r>
       <r>   -5.3910    1.0000 </r>
       <r>   -5.3754    1.0000 </r>
       <r>   -5.3724    1.0000 </r>
       <r>   -5.2814    1.0000 </r>
       <r>   -5.2422    1.0000 </r>
       <r>   -5.2076    1.0000 </r>
       <r>   -5.1543    1.0000 </r>
       <r>   -5.0863    1.0000 </r>
       <r>   -3.8401    1.0000 </r>
       <r>   -3.6898    1.0000 </r>
       <r>   -1.5417    1.0000 </r>
       <r>   -1.3115    1.0000 </r>
       <r>   -1.1681    1.0000 </r>
       <r>   -0.9980    1.0000 </r>
       <r>   -0.6177    1.0000 </r>
       <r>   -0.5609    1.0000 </r>
       <r>   -0.5277    1.0000 </r>
       <r>   -0.5105    1.0000 </r>
       <r>   -0.2338    1.0000 </r>
       <r>   -0.2006    1.0000 </r>
       <r>   -0.1960    1.0000 </r>
       <r>   -0.1726    1.0000 </r>
       <r>    0.0115    1.0000 </r>
       <r>    0.0968    1.0000 </r>
       <r>    0.1995    1.0000 </r>
       <r>    0.3991    1.0000 </r>
       <r>    0.4424    1.0000 </r>
       <r>    0.4714    1.0000 </r>
       <r>    0.5711    1.0000 </r>
       <r>    0.5822    1.0000 </r>
       <r>    0.6516    1.0000 </r>
       <r>    0.7024    1.0000 </r>
       <r>    0.7226    1.0000 </r>
       <r>    0.7289    1.0000 </r>
       <r>    0.7704    1.0000 </r>
       <r>    0.7835    1.0000 </r>
       <r>    0.8474    1.0000 </r>
       <r>    0.9354    1.0000 </r>
       <r>    0.9436    1.0000 </r>
       <r>    0.9657    1.0000 </r>
       <r>    0.9791    1.0000 </r>
       <r>    1.0066    1.0000 </r>
       <r>    1.0165    1.0000 </r>
       <r>    1.1090    1.0000 </r>
       <r>    1.2085    1.0000 </r>
       <r>    1.2616    1.0000 </r>
       <r>    1.2867    1.0000 </r>
       <r>    1.3108    1.0000 </r>
       <r>    1.3862    1.0000 </r>
       <r>    1.4206    1.0000 </r>
       <r>    1.4757    1.0000 </r>
       <r>    1.5004    1.0000 </r>
       <r>    1.5340    1.0000 </r>
       <r>    1.5826    1.0000 </r>
       <r>    1.6214    1.0000 </r>
       <r>    1.7579    1.0000 </r>
       <r>    1.7737    1.0000 </r>
       <r>    1.7870    1.0000 </r>
       <r>    1.8183    1.0000 </r>
       <r>    1.8602    1.0000 </r>
       <r>    1.8898    1.0000 </r>
       <r>    1.9135    1.0000 </r>
       <r>    2.0041    1.0000 </r>
       <r>    2.1726    1.0000 </r>
       <r>    2.1876    1.0000 </r>
       <r>    2.2813    1.0000 </r>
       <r>    2.3325    1.0000 </r>
       <r>    2.3618    1.0000 </r>
       <r>    2.5279    1.0000 </r>
       <r>    2.5308    1.0000 </r>
       <r>    2.5334    1.0000 </r>
       <r>    2.5596    1.0000 </r>
       <r>    2.5691    1.0000 </r>
       <r>    2.5868    1.0000 </r>
       <r>    2.6314    1.0000 </r>
       <r>    2.6348    1.0000 </r>
       <r>    2.6774    1.0000 </r>
       <r>    2.6820    1.0000 </r>
       <r>    2.7512    1.0000 </r>
       <r>    2.7539    1.0000 </r>
       <r>    2.7590    1.0000 </r>
       <r>    2.8416    1.0000 </r>
       <r>    2.8463    1.0000 </r>
       <r>    2.9154    1.0000 </r>
       <r>    2.9396    1.0000 </r>
       <r>    2.9760    1.0000 </r>
       <r>    3.0144    1.0000 </r>
       <r>    3.0322    1.0000 </r>
       <r>    3.0760    1.0000 </r>
       <r>    3.0790    1.0000 </r>
       <r>    3.0974    1.0000 </r>
       <r>    3.1094    1.0000 </r>
       <r>    3.1449    1.0000 </r>
       <r>    3.1495    1.0000 </r>
       <r>    3.1508    1.0000 </r>
       <r>    3.1983    1.0000 </r>
       <r>    3.2776    1.0000 </r>
       <r>    3.2951    1.0000 </r>
       <r>    3.3758    1.0000 </r>
       <r>    3.4431    1.0000 </r>
       <r>    3.4449    1.0000 </r>
       <r>    3.5410    1.0000 </r>
       <r>    4.1439    1.0000 </r>
       <r>    4.1501    1.0000 </r>
       <r>    4.1986    1.0000 </r>
       <r>    4.2099    1.0000 </r>
       <r>    4.9766    0.0000 </r>
       <r>    4.9785    0.0000 </r>
       <r>    5.1580    0.0000 </r>
       <r>    5.1820    0.0000 </r>
       <r>    5.6941    0.0000 </r>
       <r>    5.6996    0.0000 </r>
       <r>    5.8201    0.0000 </r>
       <r>    5.8214    0.0000 </r>
       <r>    6.0681    0.0000 </r>
       <r>    6.0938    0.0000 </r>
       <r>    6.0959    0.0000 </r>
       <r>    6.1250    0.0000 </r>
       <r>    6.1974    0.0000 </r>
       <r>    6.2113    0.0000 </r>
       <r>    6.2315    0.0000 </r>
       <r>    6.2361    0.0000 </r>
       <r>    7.0097    0.0000 </r>
       <r>    7.0387    0.0000 </r>
       <r>    7.3209    0.0000 </r>
       <r>    7.3291    0.0000 </r>
       <r>    7.7471    0.0000 </r>
       <r>    7.7817    0.0000 </r>
       <r>    7.8925    0.0000 </r>
       <r>    7.9047    0.0000 </r>
       <r>    7.9206    0.0000 </r>
       <r>    7.9531    0.0000 </r>
       <r>    8.0239    0.0000 </r>
       <r>    8.1231    0.0000 </r>
       <r>    8.3103    0.0000 </r>
       <r>    8.6162    0.0000 </r>
       <r>    8.6168    0.0000 </r>
       <r>    8.7508    0.0000 </r>
       <r>    8.7638    0.0000 </r>
       <r>    8.7656    0.0000 </r>
       <r>    8.9043    0.0000 </r>
       <r>    8.9461    0.0000 </r>
       <r>    8.9993    0.0000 </r>
       <r>    9.0301    0.0000 </r>
       <r>    9.0569    0.0000 </r>
       <r>    9.0827    0.0000 </r>
       <r>    9.1253    0.0000 </r>
       <r>    9.1425    0.0000 </r>
       <r>    9.1564    0.0000 </r>
       <r>    9.2134    0.0000 </r>
       <r>    9.3852    0.0000 </r>
       <r>    9.4096    0.0000 </r>
       <r>    9.4757    0.0000 </r>
       <r>    9.4982    0.0000 </r>
       <r>    9.6840    0.0000 </r>
       <r>    9.7816    0.0000 </r>
      </set>
      <set comment="kpoint 2">
       <r>  -40.3454    1.0000 </r>
       <r>  -39.8751    1.0000 </r>
       <r>  -39.5616    1.0000 </r>
       <r>  -39.5604    1.0000 </r>
       <r>  -39.5224    1.0000 </r>
       <r>  -39.4145    1.0000 </r>
       <r>  -18.9562    1.0000 </r>
       <r>  -18.9545    1.0000 </r>
       <r>  -18.8860    1.0000 </r>
       <r>  -18.8852    1.0000 </r>
       <r>  -18.8789    1.0000 </r>
       <r>  -18.8780    1.0000 </r>
       <r>  -18.7867    1.0000 </r>
       <r>  -18.7851    1.0000 </r>
       <r>  -18.7644    1.0000 </r>
       <r>  -18.7629    1.0000 </r>
       <r>  -18.7366    1.0000 </r>
       <r>  -18.7360    1.0000 </r>
       <r>  -18.7292    1.0000 </r>
       <r>  -18.7286    1.0000 </r>
       <r>  -18.7154    1.0000 </r>
       <r>  -18.7145    1.0000 </r>
       <r>  -18.6900    1.0000 </r>
       <r>  -18.6876    1.0000 </r>
       <r>  -18.6812    1.0000 </r>
       <r>  -18.6805    1.0000 </r>
       <r>  -18.6783    1.0000 </r>
       <r>  -18.6781    1.0000 </r>
       <r>  -18.6772    1.0000 </r>
       <r>  -18.6768    1.0000 </r>
       <r>  -18.6743    1.0000 </r>
       <r>  -18.6736    1.0000 </r>
       <r>  -18.6734    1.0000 </r>
       <r>  -18.6707    1.0000 </r>
       <r>  -18.6697    1.0000 </r>
       <r>  -18.6693    1.0000 </r>
       <r>  -18.6691    1.0000 </r>
       <r>  -18.6658    1.0000 </r>
       <r>  -18.6654    1.0000 </r>
       <r>  -18.6636    1.0000 </r>
       <r>  -18.6627    1.0000 </r>
       <r>  -18.6626    1.0000 </r>
       <r>  -18.6587    1.0000 </r>
       <r>  -18.6578    1.0000 </r>
       <r>  -18.6497    1.0000 </r>
       <r>  -18.6484    1.0000 </r>
       <r>  -18.6043    1.0000 </r>
       <r>  -18.6014    1.0000 </r>
       <r>  -18.5914    1.0000 </r>
       <r>  -18.5887    1.0000 </r>
       <r>  -18.5843    1.0000 </r>
       <r>  -18.5832    1.0000 </r>
       <r>  -18.5818    1.0000 </r>
       <r>  -18.5779    1.0000 </r>
       <r>  -18.5539    1.0000 </r>
       <r>  -18.5532    1.0000 </r>
       <r>  -18.5357    1.0000 </r>
       <r>  -18.5331    1.0000 </r>
       <r>  -18.5260    1.0000 </r>
       <r>  -18.5243    1.0000 </r>
       <r>  -18.5223    1.0000 </r>
       <r>  -18.5213    1.0000 </r>
       <r>  -18.5208    1.0000 </r>
       <r>  -18.5204    1.0000 </r>
       <r>  -18.5191    1.0000 </r>
       <r>  -18.5185    1.0000 </r>
       <r>  -18.5102    1.0000 </r>
       <r>  -18.5098    1.0000 </r>
       <r>  -18.5048    1.0000 </r>
       <r>  -18.5044    1.0000 </r>
       <r>  -18.4927    1.0000 </r>
       <r>  -18.4914    1.0000 </r>
       <r>  -18.4487    1.0000 </r>
       <r>  -18.4449    1.0000 </r>
       <r>  -18.4298    1.0000 </r>
       <r>  -18.4289    1.0000 </r>
       <r>  -18.4279    1.0000 </r>
       <r>  -18.4259    1.0000 </r>
       <r>  -18.4160    1.0000 </r>
       <r>  -18.4151    1.0000 </r>
       <r>  -18.3366    1.0000 </r>
       <r>  -18.3352    1.0000 </r>
       <r>  -18.2220    1.0000 </r>
       <r>  -18.2206    1.0000 </r>
       <r>  -18.2080    1.0000 </r>
       <r>  -18.2064    1.0000 </r>
       <r>  -13.5981    1.0000 </r>
       <r>  -13.4925    1.0000 </r>
       <r>  -12.9284    1.0000 </r>
       <r>  -12.8797    1.0000 </r>
       <r>  -12.8000    1.0000 </r>
       <r>  -12.7858    1.0000 </r>
       <r>  -12.7744    1.0000 </r>
       <r>  -12.7472    1.0000 </r>
       <r>  -12.7161    1.0000 </r>
       <r>  -12.7042    1.0000 </r>
       <r>  -12.6774    1.0000 </r>
       <r>  -12.6678    1.0000 </r>
       <r>  -12.6470    1.0000 </r>
       <r>  -12.5956    1.0000 </r>
       <r>  -11.9988    1.0000 </r>
       <r>  -11.9356    1.0000 </r>
       <r>   -9.2164    1.0000 </r>
       <r>   -9.0585    1.0000 </r>
       <r>   -8.9403    1.0000 </r>
       <r>   -8.7802    1.0000 </r>
       <r>   -8.4306    1.0000 </r>
       <r>   -8.4273    1.0000 </r>
       <r>   -8.2973    1.0000 </r>
       <r>   -8.2885    1.0000 </r>
       <r>   -8.2279    1.0000 </r>
       <r>   -8.2257    1.0000 </r>
       <r>   -8.0938    1.0000 </r>
       <r>   -8.0873    1.0000 </r>
       <r>   -7.7838    1.0000 </r>
       <r>   -7.6713    1.0000 </r>
       <r>   -7.6669    1.0000 </r>
       <r>   -7.5538    1.0000 </r>
       <r>   -6.0458    1.0000 </r>
       <r>   -6.0442    1.0000 </r>
       <r>   -5.8740    1.0000 </r>
       <r>   -5.8709    1.0000 </r>
       <r>   -5.8373    1.0000 </r>
       <r>   -5.8295    1.0000 </r>
       <r>   -5.7582    1.0000 </r>
       <r>   -5.6994    1.0000 </r>
       <r>   -5.6826    1.0000 </r>
       <r>   -5.6751    1.0000 </r>
       <r>   -5.5652    1.0000 </r>
       <r>   -5.4905    1.0000 </r>
       <r>   -4.5394    1.0000 </r>
       <r>   -4.3819    1.0000 </r>
       <r>   -4.3774    1.0000 </r>
       <r>   -4.2058    1.0000 </r>
       <r>   -1.3174    1.0000 </r>
       <r>   -1.0781    1.0000 </r>
       <r>   -0.9351    1.0000 </r>
       <r>   -0.7545    1.0000 </r>
       <r>   -0.4882    1.0000 </r>
       <r>   -0.2874    1.0000 </r>
       <r>   -0.1784    1.0000 </r>
       <r>   -0.1317    1.0000 </r>
       <r>    0.0339    1.0000 </r>
       <r>    0.0507    1.0000 </r>
       <r>    0.1266    1.0000 </r>
       <r>    0.1455    1.0000 </r>
       <r>    0.2125    1.0000 </r>
       <r>    0.2271    1.0000 </r>
       <r>    0.3271    1.0000 </r>
       <r>    0.3745    1.0000 </r>
       <r>    0.4119    1.0000 </r>
       <r>    0.4386    1.0000 </r>
       <r>    0.4474    1.0000 </r>
       <r>    0.5422    1.0000 </r>
       <r>    0.5681    1.0000 </r>
       <r>    0.5815    1.0000 </r>
       <r>    0.6368    1.0000 </r>
       <r>    0.6685    1.0000 </r>
       <r>    0.6958    1.0000 </r>
       <r>    0.7931    1.0000 </r>
       <r>    0.8183    1.0000 </r>
       <r>    0.8334    1.0000 </r>
       <r>    0.9769    1.0000 </r>
       <r>    1.0199    1.0000 </r>
       <r>    1.0498    1.0000 </r>
       <r>    1.0731    1.0000 </r>
       <r>    1.1271    1.0000 </r>
       <r>    1.1341    1.0000 </r>
       <r>    1.1892    1.0000 </r>
       <r>    1.2248    1.0000 </r>
       <r>    1.2501    1.0000 </r>
       <r>    1.2985    1.0000 </r>
       <r>    1.3585    1.0000 </r>
       <r>    1.4378    1.0000 </r>
       <r>    1.4529    1.0000 </r>
       <r>    1.4841    1.0000 </r>
       <r>    1.4919    1.0000 </r>
       <r>    1.5237    1.0000 </r>
       <r>    1.5271    1.0000 </r>
       <r>    1.5993    1.0000 </r>
       <r>    1.6537    1.0000 </r>
       <r>    1.7396    1.0000 </r>
       <r>    1.7775    1.0000 </r>
       <r>    1.8011    1.0000 </r>
       <r>    1.8769    1.0000 </r>
       <r>    1.8861    1.0000 </r>
       <r>    1.9170    1.0000 </r>
       <r>    1.9633    1.0000 </r>
       <r>    2.0324    1.0000 </r>
       <r>    2.0489    1.0000 </r>
       <r>    2.1382    1.0000 </r>
       <r>    2.1476    1.0000 </r>
       <r>    2.1516    1.0000 </r>
       <r>    2.2581    1.0000 </r>
       <r>    2.2910    1.0000 </r>
       <r>    2.3539    1.0000 </r>
       <r>    2.3984    1.0000 </r>
       <r>    2.4622    1.0000 </r>
       <r>    2.4866    1.0000 </r>
       <r>    2.5014    1.0000 </r>
       <r>    2.5677    1.0000 </r>
       <r>    2.6014    1.0000 </r>
       <r>    2.6169    1.0000 </r>
       <r>    2.6184    1.0000 </r>
       <r>    2.7070    1.0000 </r>
       <r>    2.7120    1.0000 </r>
       <r>    2.7404    1.0000 </r>
       <r>    2.7503    1.0000 </r>
       <r>    2.8315    1.0000 </r>
       <r>    2.8804    1.0000 </r>
       <r>    2.9111    1.0000 </r>
       <r>    2.9132    1.0000 </r>
       <r>    2.9521    1.0000 </r>
       <r>    2.9758    1.0000 </r>
       <r>    3.0368    1.0000 </r>
       <r>    3.0745    1.0000 </r>
       <r>    3.1358    1.0000 </r>
       <r>    3.1687    1.0000 </r>
       <r>    3.1739    1.0000 </r>
       <r>    3.2189    1.0000 </r>
       <r>    3.3006    1.0000 </r>
       <r>    3.3800    1.0000 </r>
       <r>    3.3996    1.0000 </r>
       <r>    3.4046    1.0000 </r>
       <r>    3.5146    1.0000 </r>
       <r>    3.5199    1.0000 </r>
       <r>    3.5472    1.0000 </r>
       <r>    3.5873    1.0000 </r>
       <r>    3.6597    1.0000 </r>
       <r>    3.6914    1.0000 </r>
       <r>    5.5244    0.0000 </r>
       <r>    5.5349    0.0000 </r>
       <r>    5.6782    0.0000 </r>
       <r>    5.6822    0.0000 </r>
       <r>    5.7211    0.0000 </r>
       <r>    5.7221    0.0000 </r>
       <r>    5.8733    0.0000 </r>
       <r>    5.8790    0.0000 </r>
       <r>    7.1309    0.0000 </r>
       <r>    7.1373    0.0000 </r>
       <r>    7.2317    0.0000 </r>
       <r>    7.3095    0.0000 </r>
       <r>    7.3746    0.0000 </r>
       <r>    7.4098    0.0000 </r>
       <r>    7.4104    0.0000 </r>
       <r>    7.4407    0.0000 </r>
       <r>    7.4495    0.0000 </r>
       <r>    7.4811    0.0000 </r>
       <r>    7.5741    0.0000 </r>
       <r>    7.5891    0.0000 </r>
       <r>    7.7790    0.0000 </r>
       <r>    7.7905    0.0000 </r>
       <r>    7.8020    0.0000 </r>
       <r>    7.8459    0.0000 </r>
       <r>    7.8707    0.0000 </r>
       <r>    7.8768    0.0000 </r>
       <r>    7.8896    0.0000 </r>
       <r>    7.9233    0.0000 </r>
       <r>    7.9335    0.0000 </r>
       <r>    7.9706    0.0000 </r>
       <r>    7.9964    0.0000 </r>
       <r>    8.0161    0.0000 </r>
       <r>    8.1055    0.0000 </r>
       <r>    8.1945    0.0000 </r>
       <r>    8.4025    0.0000 </r>
       <r>    8.5493    0.0000 </r>
       <r>    8.6483    0.0000 </r>
       <r>    8.6734    0.0000 </r>
       <r>    8.7192    0.0000 </r>
       <r>    8.7279    0.0000 </r>
       <r>    8.7312    0.0000 </r>
       <r>    8.8341    0.0000 </r>
       <r>    8.8948    0.0000 </r>
       <r>    8.9009    0.0000 </r>
       <r>    9.0735    0.0000 </r>
       <r>    9.2365    0.0000 </r>
       <r>    9.3140    0.0000 </r>
       <r>    9.3364    0.0000 </r>
       <r>    9.5568    0.0000 </r>
       <r>    9.6916    0.0000 </r>
      </set>
      <set comment="kpoint 3">
       <r>  -40.3454    1.0000 </r>
       <r>  -39.8751    1.0000 </r>
       <r>  -39.5616    1.0000 </r>
       <r>  -39.5604    1.0000 </r>
       <r>  -39.5224    1.0000 </r>
       <r>  -39.4145    1.0000 </r>
       <r>  -18.9566    1.0000 </r>
       <r>  -18.9542    1.0000 </r>
       <r>  -18.8861    1.0000 </r>
       <r>  -18.8852    1.0000 </r>
       <r>  -18.8789    1.0000 </r>
       <r>  -18.8780    1.0000 </r>
       <r>  -18.7867    1.0000 </r>
       <r>  -18.7852    1.0000 </r>
       <r>  -18.7644    1.0000 </r>
       <r>  -18.7629    1.0000 </r>
       <r>  -18.7370    1.0000 </r>
       <r>  -18.7363    1.0000 </r>
       <r>  -18.7293    1.0000 </r>
       <r>  -18.7289    1.0000 </r>
       <r>  -18.7155    1.0000 </r>
       <r>  -18.7146    1.0000 </r>
       <r>  -18.6888    1.0000 </r>
       <r>  -18.6867    1.0000 </r>
       <r>  -18.6817    1.0000 </r>
       <r>  -18.6800    1.0000 </r>
       <r>  -18.6784    1.0000 </r>
       <r>  -18.6782    1.0000 </r>
       <r>  -18.6769    1.0000 </r>
       <r>  -18.6759    1.0000 </r>
       <r>  -18.6748    1.0000 </r>
       <r>  -18.6731    1.0000 </r>
       <r>  -18.6729    1.0000 </r>
       <r>  -18.6710    1.0000 </r>
       <r>  -18.6695    1.0000 </r>
       <r>  -18.6694    1.0000 </r>
       <r>  -18.6685    1.0000 </r>
       <r>  -18.6660    1.0000 </r>
       <r>  -18.6653    1.0000 </r>
       <r>  -18.6646    1.0000 </r>
       <r>  -18.6641    1.0000 </r>
       <r>  -18.6627    1.0000 </r>
       <r>  -18.6588    1.0000 </r>
       <r>  -18.6575    1.0000 </r>
       <r>  -18.6499    1.0000 </r>
       <r>  -18.6486    1.0000 </r>
       <r>  -18.6043    1.0000 </r>
       <r>  -18.6014    1.0000 </r>
       <r>  -18.5912    1.0000 </r>
       <r>  -18.5886    1.0000 </r>
       <r>  -18.5842    1.0000 </r>
       <r>  -18.5833    1.0000 </r>
       <r>  -18.5819    1.0000 </r>
       <r>  -18.5778    1.0000 </r>
       <r>  -18.5539    1.0000 </r>
       <r>  -18.5532    1.0000 </r>
       <r>  -18.5357    1.0000 </r>
       <r>  -18.5331    1.0000 </r>
       <r>  -18.5260    1.0000 </r>
       <r>  -18.5243    1.0000 </r>
       <r>  -18.5223    1.0000 </r>
       <r>  -18.5213    1.0000 </r>
       <r>  -18.5208    1.0000 </r>
       <r>  -18.5205    1.0000 </r>
       <r>  -18.5191    1.0000 </r>
       <r>  -18.5185    1.0000 </r>
       <r>  -18.5102    1.0000 </r>
       <r>  -18.5098    1.0000 </r>
       <r>  -18.5048    1.0000 </r>
       <r>  -18.5044    1.0000 </r>
       <r>  -18.4927    1.0000 </r>
       <r>  -18.4914    1.0000 </r>
       <r>  -18.4487    1.0000 </r>
       <r>  -18.4449    1.0000 </r>
       <r>  -18.4298    1.0000 </r>
       <r>  -18.4289    1.0000 </r>
       <r>  -18.4279    1.0000 </r>
       <r>  -18.4259    1.0000 </r>
       <r>  -18.4159    1.0000 </r>
       <r>  -18.4150    1.0000 </r>
       <r>  -18.3367    1.0000 </r>
       <r>  -18.3351    1.0000 </r>
       <r>  -18.2220    1.0000 </r>
       <r>  -18.2206    1.0000 </r>
       <r>  -18.2080    1.0000 </r>
       <r>  -18.2064    1.0000 </r>
       <r>  -13.5981    1.0000 </r>
       <r>  -13.4927    1.0000 </r>
       <r>  -12.9455    1.0000 </r>
       <r>  -12.8395    1.0000 </r>
       <r>  -12.8052    1.0000 </r>
       <r>  -12.7952    1.0000 </r>
       <r>  -12.7616    1.0000 </r>
       <r>  -12.7490    1.0000 </r>
       <r>  -12.7354    1.0000 </r>
       <r>  -12.7104    1.0000 </r>
       <r>  -12.6835    1.0000 </r>
       <r>  -12.6648    1.0000 </r>
       <r>  -12.6378    1.0000 </r>
       <r>  -12.5967    1.0000 </r>
       <r>  -11.9978    1.0000 </r>
       <r>  -11.9372    1.0000 </r>
       <r>   -9.3500    1.0000 </r>
       <r>   -9.0731    1.0000 </r>
       <r>   -8.5854    1.0000 </r>
       <r>   -8.5489    1.0000 </r>
       <r>   -8.5372    1.0000 </r>
       <r>   -8.4905    1.0000 </r>
       <r>   -8.3254    1.0000 </r>
       <r>   -8.2907    1.0000 </r>
       <r>   -8.2725    1.0000 </r>
       <r>   -8.2312    1.0000 </r>
       <r>   -8.0666    1.0000 </r>
       <r>   -8.0655    1.0000 </r>
       <r>   -8.0283    1.0000 </r>
       <r>   -8.0256    1.0000 </r>
       <r>   -7.3922    1.0000 </r>
       <r>   -7.3909    1.0000 </r>
       <r>   -6.3931    1.0000 </r>
       <r>   -6.3897    1.0000 </r>
       <r>   -6.3655    1.0000 </r>
       <r>   -6.3576    1.0000 </r>
       <r>   -5.5682    1.0000 </r>
       <r>   -5.5032    1.0000 </r>
       <r>   -5.4294    1.0000 </r>
       <r>   -5.4242    1.0000 </r>
       <r>   -5.4114    1.0000 </r>
       <r>   -5.3029    1.0000 </r>
       <r>   -5.1835    1.0000 </r>
       <r>   -5.1492    1.0000 </r>
       <r>   -5.1150    1.0000 </r>
       <r>   -5.0362    1.0000 </r>
       <r>   -3.9154    1.0000 </r>
       <r>   -3.6027    1.0000 </r>
       <r>   -1.4200    1.0000 </r>
       <r>   -1.3313    1.0000 </r>
       <r>   -1.2714    1.0000 </r>
       <r>   -1.0508    1.0000 </r>
       <r>   -0.4840    1.0000 </r>
       <r>   -0.4830    1.0000 </r>
       <r>   -0.4445    1.0000 </r>
       <r>   -0.4201    1.0000 </r>
       <r>   -0.4142    1.0000 </r>
       <r>   -0.3852    1.0000 </r>
       <r>   -0.3131    1.0000 </r>
       <r>   -0.3022    1.0000 </r>
       <r>   -0.1322    1.0000 </r>
       <r>   -0.0901    1.0000 </r>
       <r>    0.1003    1.0000 </r>
       <r>    0.1867    1.0000 </r>
       <r>    0.2539    1.0000 </r>
       <r>    0.2855    1.0000 </r>
       <r>    0.3938    1.0000 </r>
       <r>    0.4007    1.0000 </r>
       <r>    0.4697    1.0000 </r>
       <r>    0.5352    1.0000 </r>
       <r>    0.5628    1.0000 </r>
       <r>    0.6881    1.0000 </r>
       <r>    0.7030    1.0000 </r>
       <r>    0.7909    1.0000 </r>
       <r>    0.8099    1.0000 </r>
       <r>    0.8155    1.0000 </r>
       <r>    0.9291    1.0000 </r>
       <r>    1.0082    1.0000 </r>
       <r>    1.0767    1.0000 </r>
       <r>    1.1117    1.0000 </r>
       <r>    1.1495    1.0000 </r>
       <r>    1.2226    1.0000 </r>
       <r>    1.3574    1.0000 </r>
       <r>    1.4123    1.0000 </r>
       <r>    1.4298    1.0000 </r>
       <r>    1.4557    1.0000 </r>
       <r>    1.5065    1.0000 </r>
       <r>    1.5528    1.0000 </r>
       <r>    1.5752    1.0000 </r>
       <r>    1.6087    1.0000 </r>
       <r>    1.6504    1.0000 </r>
       <r>    1.6877    1.0000 </r>
       <r>    1.7135    1.0000 </r>
       <r>    1.8821    1.0000 </r>
       <r>    1.8908    1.0000 </r>
       <r>    1.9401    1.0000 </r>
       <r>    1.9731    1.0000 </r>
       <r>    2.0192    1.0000 </r>
       <r>    2.0445    1.0000 </r>
       <r>    2.0656    1.0000 </r>
       <r>    2.1527    1.0000 </r>
       <r>    2.2017    1.0000 </r>
       <r>    2.3024    1.0000 </r>
       <r>    2.3066    1.0000 </r>
       <r>    2.4019    1.0000 </r>
       <r>    2.4308    1.0000 </r>
       <r>    2.4615    1.0000 </r>
       <r>    2.4913    1.0000 </r>
       <r>    2.5167    1.0000 </r>
       <r>    2.5339    1.0000 </r>
       <r>    2.5343    1.0000 </r>
       <r>    2.5659    1.0000 </r>
       <r>    2.5711    1.0000 </r>
       <r>    2.5989    1.0000 </r>
       <r>    2.7027    1.0000 </r>
       <r>    2.7112    1.0000 </r>
       <r>    2.7495    1.0000 </r>
       <r>    2.7598    1.0000 </r>
       <r>    2.7804    1.0000 </r>
       <r>    2.8299    1.0000 </r>
       <r>    2.8853    1.0000 </r>
       <r>    2.8948    1.0000 </r>
       <r>    2.9175    1.0000 </r>
       <r>    2.9568    1.0000 </r>
       <r>    2.9633    1.0000 </r>
       <r>    2.9775    1.0000 </r>
       <r>    2.9995    1.0000 </r>
       <r>    3.0331    1.0000 </r>
       <r>    3.0357    1.0000 </r>
       <r>    3.0872    1.0000 </r>
       <r>    3.1305    1.0000 </r>
       <r>    3.2700    1.0000 </r>
       <r>    3.2934    1.0000 </r>
       <r>    3.3424    1.0000 </r>
       <r>    3.3677    1.0000 </r>
       <r>    3.3950    1.0000 </r>
       <r>    3.4109    1.0000 </r>
       <r>    3.4631    1.0000 </r>
       <r>    3.4984    1.0000 </r>
       <r>    3.5451    1.0000 </r>
       <r>    4.1933    1.0000 </r>
       <r>    4.1982    1.0000 </r>
       <r>    4.2509    1.0000 </r>
       <r>    4.2595    1.0000 </r>
       <r>    5.0553    0.0000 </r>
       <r>    5.0584    0.0000 </r>
       <r>    5.2286    0.0000 </r>
       <r>    5.2338    0.0000 </r>
       <r>    5.7004    0.0000 </r>
       <r>    5.7089    0.0000 </r>
       <r>    5.8257    0.0000 </r>
       <r>    5.8293    0.0000 </r>
       <r>    6.1228    0.0000 </r>
       <r>    6.1415    0.0000 </r>
       <r>    6.1520    0.0000 </r>
       <r>    6.1631    0.0000 </r>
       <r>    6.2121    0.0000 </r>
       <r>    6.2279    0.0000 </r>
       <r>    6.2415    0.0000 </r>
       <r>    6.2581    0.0000 </r>
       <r>    6.7021    0.0000 </r>
       <r>    6.7542    0.0000 </r>
       <r>    6.9752    0.0000 </r>
       <r>    7.0885    0.0000 </r>
       <r>    7.1277    0.0000 </r>
       <r>    7.2230    0.0000 </r>
       <r>    7.3504    0.0000 </r>
       <r>    7.4634    0.0000 </r>
       <r>    7.6937    0.0000 </r>
       <r>    7.8193    0.0000 </r>
       <r>    7.9060    0.0000 </r>
       <r>    7.9375    0.0000 </r>
       <r>    8.0021    0.0000 </r>
       <r>    8.2899    0.0000 </r>
       <r>    8.3193    0.0000 </r>
       <r>    8.4006    0.0000 </r>
       <r>    8.6001    0.0000 </r>
       <r>    8.7500    0.0000 </r>
       <r>    8.9074    0.0000 </r>
       <r>    8.9795    0.0000 </r>
       <r>    8.9833    0.0000 </r>
       <r>    9.0069    0.0000 </r>
       <r>    9.0495    0.0000 </r>
       <r>    9.0733    0.0000 </r>
       <r>    9.0979    0.0000 </r>
       <r>    9.1025    0.0000 </r>
       <r>    9.1059    0.0000 </r>
       <r>    9.1543    0.0000 </r>
       <r>    9.4406    0.0000 </r>
       <r>    9.4424    0.0000 </r>
       <r>    9.5813    0.0000 </r>
       <r>    9.6978    0.0000 </r>
       <r>    9.7637    0.0000 </r>
       <r>    9.8374    0.0000 </r>
      </set>
      <set comment="kpoint 4">
       <r>  -40.3454    1.0000 </r>
       <r>  -39.8751    1.0000 </r>
       <r>  -39.5616    1.0000 </r>
       <r>  -39.5604    1.0000 </r>
       <r>  -39.5224    1.0000 </r>
       <r>  -39.4145    1.0000 </r>
       <r>  -18.9565    1.0000 </r>
       <r>  -18.9542    1.0000 </r>
       <r>  -18.8860    1.0000 </r>
       <r>  -18.8852    1.0000 </r>
       <r>  -18.8789    1.0000 </r>
       <r>  -18.8780    1.0000 </r>
       <r>  -18.7867    1.0000 </r>
       <r>  -18.7852    1.0000 </r>
       <r>  -18.7644    1.0000 </r>
       <r>  -18.7629    1.0000 </r>
       <r>  -18.7367    1.0000 </r>
       <r>  -18.7360    1.0000 </r>
       <r>  -18.7291    1.0000 </r>
       <r>  -18.7287    1.0000 </r>
       <r>  -18.7154    1.0000 </r>
       <r>  -18.7145    1.0000 </r>
       <r>  -18.6900    1.0000 </r>
       <r>  -18.6876    1.0000 </r>
       <r>  -18.6812    1.0000 </r>
       <r>  -18.6805    1.0000 </r>
       <r>  -18.6784    1.0000 </r>
       <r>  -18.6780    1.0000 </r>
       <r>  -18.6772    1.0000 </r>
       <r>  -18.6768    1.0000 </r>
       <r>  -18.6742    1.0000 </r>
       <r>  -18.6736    1.0000 </r>
       <r>  -18.6734    1.0000 </r>
       <r>  -18.6707    1.0000 </r>
       <r>  -18.6696    1.0000 </r>
       <r>  -18.6694    1.0000 </r>
       <r>  -18.6691    1.0000 </r>
       <r>  -18.6658    1.0000 </r>
       <r>  -18.6654    1.0000 </r>
       <r>  -18.6636    1.0000 </r>
       <r>  -18.6628    1.0000 </r>
       <r>  -18.6625    1.0000 </r>
       <r>  -18.6587    1.0000 </r>
       <r>  -18.6577    1.0000 </r>
       <r>  -18.6497    1.0000 </r>
       <r>  -18.6483    1.0000 </r>
       <r>  -18.6043    1.0000 </r>
       <r>  -18.6014    1.0000 </r>
       <r>  -18.5914    1.0000 </r>
       <r>  -18.5887    1.0000 </r>
       <r>  -18.5842    1.0000 </r>
       <r>  -18.5833    1.0000 </r>
       <r>  -18.5819    1.0000 </r>
       <r>  -18.5778    1.0000 </r>
       <r>  -18.5539    1.0000 </r>
       <r>  -18.5532    1.0000 </r>
       <r>  -18.5357    1.0000 </r>
       <r>  -18.5331    1.0000 </r>
       <r>  -18.5260    1.0000 </r>
       <r>  -18.5243    1.0000 </r>
       <r>  -18.5223    1.0000 </r>
       <r>  -18.5213    1.0000 </r>
       <r>  -18.5208    1.0000 </r>
       <r>  -18.5204    1.0000 </r>
       <r>  -18.5191    1.0000 </r>
       <r>  -18.5185    1.0000 </r>
       <r>  -18.5102    1.0000 </r>
       <r>  -18.5098    1.0000 </r>
       <r>  -18.5048    1.0000 </r>
       <r>  -18.5044    1.0000 </r>
       <r>  -18.4927    1.0000 </r>
       <r>  -18.4914    1.0000 </r>
       <r>  -18.4487    1.0000 </r>
       <r>  -18.4449    1.0000 </r>
       <r>  -18.4298    1.0000 </r>
       <r>  -18.4289    1.0000 </r>
       <r>  -18.4279    1.0000 </r>
       <r>  -18.4259    1.0000 </r>
       <r>  -18.4160    1.0000 </r>
       <r>  -18.4151    1.0000 </r>
       <r>  -18.3367    1.0000 </r>
       <r>  -18.3351    1.0000 </r>
       <r>  -18.2220    1.0000 </r>
       <r>  -18.2206    1.0000 </r>
       <r>  -18.2080    1.0000 </r>
       <r>  -18.2064    1.0000 </r>
       <r>  -13.5979    1.0000 </r>
       <r>  -13.4926    1.0000 </r>
       <r>  -12.9272    1.0000 </r>
[...]
       <r>    8.8007    0.0000 </r>
       <r>    8.8245    0.0000 </r>
       <r>    8.8474    0.0000 </r>
       <r>    8.8795    0.0000 </r>
       <r>    8.8957    0.0000 </r>
       <r>    8.9184    0.0000 </r>
       <r>    8.9305    0.0000 </r>
       <r>    9.6085    0.0000 </r>
       <r>    9.8808    0.0000 </r>
      </set>
     </set>
    </set>
   </array>
  </eigenvalues>
  <separator name="orbital magnetization" >
   <v name="MAGDIPOLOUT">      0.00000000      0.00000000      0.00000000</v>
  </separator>
  <dos>
   <i name="efermi">      4.27349477 </i>
   <total>
    <array>
     <dimension dim="1">gridpoints</dimension>
     <dimension dim="2">spin</dimension>
     <field>energy</field>
     <field>total</field>
     <field>integrated</field>
     <set>
      <set comment="spin 1">
       <r>   -42.8715     0.0000     0.0000 </r>
       <r>   -42.6863     0.0000     0.0000 </r>
       <r>   -42.5010     0.0000     0.0000 </r>
       <r>   -42.3158     0.0000     0.0000 </r>
       <r>   -42.1305     0.0000     0.0000 </r>
       <r>   -41.9453     0.0000     0.0000 </r>
       <r>   -41.7600     0.0000     0.0000 </r>
       <r>   -41.5748     0.0000     0.0000 </r>
       <r>   -41.3896     0.0000     0.0000 </r>
       <r>   -41.2043     0.0000     0.0000 </r>
       <r>   -41.0191     0.0000     0.0000 </r>
       <r>   -40.8338     0.0000     0.0000 </r>
       <r>   -40.6486     0.0000     0.0000 </r>
       <r>   -40.4633     0.0000     0.0000 </r>
       <r>   -40.2781     0.0000     2.0000 </r>
       <r>   -40.0928     0.0000     2.0000 </r>
       <r>   -39.9076     0.0000     2.0000 </r>
       <r>   -39.7223     0.0000     4.0000 </r>
       <r>   -39.5371     0.0000     8.0000 </r>
       <r>   -39.3518     0.0000    12.0000 </r>
       <r>   -39.1666     0.0000    12.0000 </r>
       <r>   -38.9814     0.0000    12.0000 </r>
       <r>   -38.7961     0.0000    12.0000 </r>
       <r>   -38.6109     0.0000    12.0000 </r>
       <r>   -38.4256     0.0000    12.0000 </r>
       <r>   -38.2404     0.0000    12.0000 </r>
       <r>   -38.0551     0.0000    12.0000 </r>
       <r>   -37.8699     0.0000    12.0000 </r>
       <r>   -37.6846     0.0000    12.0000 </r>
       <r>   -37.4994     0.0000    12.0000 </r>
       <r>   -37.3141     0.0000    12.0000 </r>
       <r>   -37.1289     0.0000    12.0000 </r>
       <r>   -36.9437     0.0000    12.0000 </r>
       <r>   -36.7584     0.0000    12.0000 </r>
       <r>   -36.5732     0.0000    12.0000 </r>
       <r>   -36.3879     0.0000    12.0000 </r>
       <r>   -36.2027     0.0000    12.0000 </r>
       <r>   -36.0174     0.0000    12.0000 </r>
       <r>   -35.8322     0.0000    12.0000 </r>
       <r>   -35.6469     0.0000    12.0000 </r>
       <r>   -35.4617     0.0000    12.0000 </r>
       <r>   -35.2764     0.0000    12.0000 </r>
       <r>   -35.0912     0.0000    12.0000 </r>
       <r>   -34.9060     0.0000    12.0000 </r>
       <r>   -34.7207     0.0000    12.0000 </r>
       <r>   -34.5355     0.0000    12.0000 </r>
       <r>   -34.3502     0.0000    12.0000 </r>
       <r>   -34.1650     0.0000    12.0000 </r>
       <r>   -33.9797     0.0000    12.0000 </r>
       <r>   -33.7945     0.0000    12.0000 </r>
       <r>   -33.6092     0.0000    12.0000 </r>
       <r>   -33.4240     0.0000    12.0000 </r>
       <r>   -33.2387     0.0000    12.0000 </r>
       <r>   -33.0535     0.0000    12.0000 </r>
       <r>   -32.8683     0.0000    12.0000 </r>
       <r>   -32.6830     0.0000    12.0000 </r>
       <r>   -32.4978     0.0000    12.0000 </r>
       <r>   -32.3125     0.0000    12.0000 </r>
       <r>   -32.1273     0.0000    12.0000 </r>
       <r>   -31.9420     0.0000    12.0000 </r>
       <r>   -31.7568     0.0000    12.0000 </r>
       <r>   -31.5715     0.0000    12.0000 </r>
       <r>   -31.3863     0.0000    12.0000 </r>
       <r>   -31.2010     0.0000    12.0000 </r>
       <r>   -31.0158     0.0000    12.0000 </r>
       <r>   -30.8306     0.0000    12.0000 </r>
       <r>   -30.6453     0.0000    12.0000 </r>
       <r>   -30.4601     0.0000    12.0000 </r>
       <r>   -30.2748     0.0000    12.0000 </r>
       <r>   -30.0896     0.0000    12.0000 </r>
       <r>   -29.9043     0.0000    12.0000 </r>
       <r>   -29.7191     0.0000    12.0000 </r>
       <r>   -29.5338     0.0000    12.0000 </r>
       <r>   -29.3486     0.0000    12.0000 </r>
       <r>   -29.1633     0.0000    12.0000 </r>
       <r>   -28.9781     0.0000    12.0000 </r>
       <r>   -28.7928     0.0000    12.0000 </r>
       <r>   -28.6076     0.0000    12.0000 </r>
       <r>   -28.4224     0.0000    12.0000 </r>
       <r>   -28.2371     0.0000    12.0000 </r>
       <r>   -28.0519     0.0000    12.0000 </r>
       <r>   -27.8666     0.0000    12.0000 </r>
       <r>   -27.6814     0.0000    12.0000 </r>
       <r>   -27.4961     0.0000    12.0000 </r>
       <r>   -27.3109     0.0000    12.0000 </r>
       <r>   -27.1256     0.0000    12.0000 </r>
       <r>   -26.9404     0.0000    12.0000 </r>
       <r>   -26.7551     0.0000    12.0000 </r>
       <r>   -26.5699     0.0000    12.0000 </r>
       <r>   -26.3847     0.0000    12.0000 </r>
       <r>   -26.1994     0.0000    12.0000 </r>
       <r>   -26.0142     0.0000    12.0000 </r>
       <r>   -25.8289     0.0000    12.0000 </r>
       <r>   -25.6437     0.0000    12.0000 </r>
       <r>   -25.4584     0.0000    12.0000 </r>
       <r>   -25.2732     0.0000    12.0000 </r>
       <r>   -25.0879     0.0000    12.0000 </r>
       <r>   -24.9027     0.0000    12.0000 </r>
       <r>   -24.7174     0.0000    12.0000 </r>
       <r>   -24.5322     0.0000    12.0000 </r>
       <r>   -24.3470     0.0000    12.0000 </r>
       <r>   -24.1617     0.0000    12.0000 </r>
       <r>   -23.9765     0.0000    12.0000 </r>
       <r>   -23.7912     0.0000    12.0000 </r>
       <r>   -23.6060     0.0000    12.0000 </r>
       <r>   -23.4207     0.0000    12.0000 </r>
       <r>   -23.2355     0.0000    12.0000 </r>
       <r>   -23.0502     0.0000    12.0000 </r>
       <r>   -22.8650     0.0000    12.0000 </r>
       <r>   -22.6797     0.0000    12.0000 </r>
       <r>   -22.4945     0.0000    12.0000 </r>
       <r>   -22.3093     0.0000    12.0000 </r>
       <r>   -22.1240     0.0000    12.0000 </r>
       <r>   -21.9388     0.0000    12.0000 </r>
       <r>   -21.7535     0.0000    12.0000 </r>
       <r>   -21.5683     0.0000    12.0000 </r>
       <r>   -21.3830     0.0000    12.0000 </r>
       <r>   -21.1978     0.0000    12.0000 </r>
       <r>   -21.0125     0.0000    12.0000 </r>
       <r>   -20.8273     0.0000    12.0000 </r>
       <r>   -20.6420     0.0000    12.0000 </r>
       <r>   -20.4568     0.0000    12.0000 </r>
       <r>   -20.2715     0.0000    12.0000 </r>
       <r>   -20.0863     0.0000    12.0000 </r>
       <r>   -19.9011     0.0000    12.0000 </r>
       <r>   -19.7158     0.0000    12.0000 </r>
       <r>   -19.5306     0.0000    12.0000 </r>
       <r>   -19.3453     0.0000    12.0000 </r>
       <r>   -19.1601     0.0000    12.0000 </r>
       <r>   -18.9748     0.0000    12.0000 </r>
       <r>   -18.7896     0.0000    24.0000 </r>
       <r>   -18.6043 12057.2631    92.0951 </r>
       <r>   -18.4191     0.0000   156.0000 </r>
       <r>   -18.2338     0.0000   164.0000 </r>
       <r>   -18.0486     0.0000   172.0000 </r>
       <r>   -17.8634     0.0000   172.0000 </r>
       <r>   -17.6781     0.0000   172.0000 </r>
       <r>   -17.4929     0.0000   172.0000 </r>
       <r>   -17.3076     0.0000   172.0000 </r>
       <r>   -17.1224     0.0000   172.0000 </r>
       <r>   -16.9371     0.0000   172.0000 </r>
       <r>   -16.7519     0.0000   172.0000 </r>
       <r>   -16.5666     0.0000   172.0000 </r>
       <r>   -16.3814     0.0000   172.0000 </r>
       <r>   -16.1961     0.0000   172.0000 </r>
       <r>   -16.0109     0.0000   172.0000 </r>
       <r>   -15.8257     0.0000   172.0000 </r>
       <r>   -15.6404     0.0000   172.0000 </r>
       <r>   -15.4552     0.0000   172.0000 </r>
       <r>   -15.2699     0.0000   172.0000 </r>
       <r>   -15.0847     0.0000   172.0000 </r>
       <r>   -14.8994     0.0000   172.0000 </r>
       <r>   -14.7142     0.0000   172.0000 </r>
       <r>   -14.5289     0.0000   172.0000 </r>
       <r>   -14.3437     0.0000   172.0000 </r>
       <r>   -14.1584     0.0000   172.0000 </r>
       <r>   -13.9732     0.0000   172.0000 </r>
       <r>   -13.7880     0.0000   172.0000 </r>
       <r>   -13.6027     0.0000   172.0000 </r>
       <r>   -13.4175     0.0000   176.0000 </r>
       <r>   -13.2322     0.0000   176.0000 </r>
       <r>   -13.0470     0.0000   176.0000 </r>
       <r>   -12.8617    53.1875   178.4585 </r>
       <r>   -12.6765     0.0000   194.0000 </r>
       <r>   -12.4912     0.0000   200.0000 </r>
       <r>   -12.3060     0.0000   200.0000 </r>
       <r>   -12.1207     0.0000   200.0000 </r>
       <r>   -11.9355   730.1171   203.9436 </r>
       <r>   -11.7503     0.0000   204.0000 </r>
       <r>   -11.5650     0.0000   204.0000 </r>
       <r>   -11.3798     0.0000   204.0000 </r>
       <r>   -11.1945     0.0000   204.0000 </r>
       <r>   -11.0093     0.0000   204.0000 </r>
       <r>   -10.8240     0.0000   204.0000 </r>
       <r>   -10.6388     0.0000   204.0000 </r>
       <r>   -10.4535     0.0000   204.0000 </r>
       <r>   -10.2683     0.0000   204.0000 </r>
       <r>   -10.0830     0.0000   204.0000 </r>
       <r>    -9.8978     0.0000   204.0000 </r>
       <r>    -9.7125     0.0000   204.0000 </r>
       <r>    -9.5273     0.0000   204.0000 </r>
       <r>    -9.3421     0.9977   204.0070 </r>
       <r>    -9.1568    10.8234   205.3525 </r>
       <r>    -8.9716     0.0000   208.0000 </r>
       <r>    -8.7863    16.1213   210.2105 </r>
       <r>    -8.6011    12.9849   212.6067 </r>
       <r>    -8.4158    30.6685   216.9008 </r>
       <r>    -8.2306    15.0458   220.2766 </r>
       <r>    -8.0453    25.9594   224.9341 </r>
       <r>    -7.8601    16.9037   228.7923 </r>
       <r>    -7.6748     1.7665   232.0006 </r>
       <r>    -7.4896    11.3282   235.4361 </r>
       <r>    -7.3044     0.0000   236.0000 </r>
       <r>    -7.1191     0.0000   236.0000 </r>
       <r>    -6.9339     0.0000   236.0000 </r>
       <r>    -6.7486     0.0000   236.0000 </r>
       <r>    -6.5634     0.0000   236.0000 </r>
       <r>    -6.3781     1.1275   236.0106 </r>
       <r>    -6.1929    18.7912   237.8182 </r>
       <r>    -6.0076    17.2066   242.2785 </r>
       <r>    -5.8224    24.8031   245.8212 </r>
       <r>    -5.6371    23.8671   250.6665 </r>
       <r>    -5.4519    22.4648   254.6988 </r>
       <r>    -5.2667    15.3284   258.2220 </r>
       <r>    -5.0814     4.1094   259.9270 </r>
       <r>    -4.8962     7.5107   260.8787 </r>
       <r>    -4.7109     8.6301   262.3347 </r>
       <r>    -4.5257     9.0716   264.1378 </r>
       <r>    -4.3404     6.5451   265.4312 </r>
       <r>    -4.1552     6.3612   266.7305 </r>
       <r>    -3.9699     3.1097   267.6082 </r>
       <r>    -3.7847     0.9010   267.9356 </r>
       <r>    -3.5994     0.0000   268.0000 </r>
       <r>    -3.4142     0.0000   268.0000 </r>
       <r>    -3.2290     0.0000   268.0000 </r>
       <r>    -3.0437     0.0000   268.0000 </r>
       <r>    -2.8585     0.0000   268.0000 </r>
       <r>    -2.6732     0.0000   268.0000 </r>
       <r>    -2.4880     0.0000   268.0000 </r>
       <r>    -2.3027     0.0000   268.0000 </r>
       <r>    -2.1175     0.0000   268.0000 </r>
       <r>    -1.9322     0.0000   268.0000 </r>
       <r>    -1.7470     0.0000   268.0000 </r>
       <r>    -1.5617     0.0000   268.0000 </r>
       <r>    -1.3765     2.3563   268.1370 </r>
       <r>    -1.1913    10.2963   269.2375 </r>
       <r>    -1.0060    12.2416   271.2826 </r>
       <r>    -0.8208    10.6609   273.6754 </r>
       <r>    -0.6355     5.2234   275.0988 </r>
       <r>    -0.4503    18.4178   276.7529 </r>
       <r>    -0.2650    23.1975   280.7371 </r>
       <r>    -0.0798    40.3163   286.5570 </r>
       <r>     0.1055    31.2574   293.4565 </r>
       <r>     0.2907    39.6739   299.2359 </r>
       <r>     0.4760    32.4408   306.8324 </r>
       <r>     0.6612    44.3503   314.2326 </r>
       <r>     0.8465    46.4973   321.1931 </r>
       <r>     1.0317    62.7707   328.5946 </r>
       <r>     1.2169    44.9688   336.9875 </r>
       <r>     1.4022    50.8243   345.8728 </r>
       <r>     1.5874    43.0503   355.6960 </r>
       <r>     1.7727    51.2149   363.8270 </r>
       <r>     1.9579    41.3665   371.2695 </r>
       <r>     2.1432    45.0072   378.9353 </r>
       <r>     2.3284    49.7054   387.7070 </r>
       <r>     2.5137    52.4228   397.4686 </r>
       <r>     2.6989    64.1005   408.2152 </r>
       <r>     2.8842    72.0959   419.4471 </r>
       <r>     3.0694    62.2065   432.7396 </r>
       <r>     3.2546    31.8285   441.7700 </r>
       <r>     3.4399    46.2463   449.0048 </r>
       <r>     3.6251    18.7022   454.4831 </r>
       <r>     3.8104    12.2268   457.5792 </r>
       <r>     3.9956     6.4686   459.3109 </r>
       <r>     4.1809     0.8699   459.9772 </r>
       <r>     4.3661     0.0000   460.0000 </r>
       <r>     4.5514     0.0000   460.0000 </r>
       <r>     4.7366     0.0000   460.0000 </r>
       <r>     4.9219     0.0000   460.0000 </r>
       <r>     5.1071     0.8571   460.0410 </r>
       <r>     5.2923     3.8029   460.4199 </r>
       <r>     5.4776     7.9593   461.5092 </r>
       <r>     5.6628     9.6618   463.2311 </r>
       <r>     5.8481    24.9390   466.8884 </r>
       <r>     6.0333    12.7096   469.7090 </r>
       <r>     6.2186    11.6668   471.9096 </r>
       <r>     6.4038    13.4439   474.2264 </r>
       <r>     6.5891    15.3100   476.8901 </r>
       <r>     6.7743    17.2775   479.9029 </r>
       <r>     6.9596    20.4128   483.3638 </r>
       <r>     7.1448    26.2923   487.6683 </r>
       <r>     7.3300    35.7402   493.4666 </r>
       <r>     7.5153    30.5040   500.7669 </r>
       <r>     7.7005    42.0620   506.0026 </r>
       <r>     7.8858    52.3265   515.3965 </r>
       <r>     8.0710    24.9938   522.3139 </r>
       <r>     8.2563    18.1003   526.1195 </r>
       <r>     8.4415    20.4143   529.6155 </r>
       <r>     8.6268    25.1459   533.8972 </r>
       <r>     8.8120    46.4362   540.0546 </r>
       <r>     8.9973    29.0443   547.3574 </r>
       <r>     9.1825    16.6048   551.2981 </r>
       <r>     9.3677    13.2726   554.0053 </r>
       <r>     9.5530    11.7938   556.4736 </r>
       <r>     9.7382     9.3631   558.7368 </r>
       <r>     9.9235     3.3225   559.7376 </r>
       <r>    10.1087     0.2188   559.9951 </r>
       <r>    10.2940     0.0000   560.0000 </r>
       <r>    10.4792     0.0000   560.0000 </r>
       <r>    10.6645     0.0000   560.0000 </r>
       <r>    10.8497     0.0000   560.0000 </r>
       <r>    11.0350     0.0000   560.0000 </r>
       <r>    11.2202     0.0000   560.0000 </r>
       <r>    11.4055     0.0000   560.0000 </r>
       <r>    11.5907     0.0000   560.0000 </r>
       <r>    11.7759     0.0000   560.0000 </r>
       <r>    11.9612     0.0000   560.0000 </r>
       <r>    12.1464     0.0000   560.0000 </r>
       <r>    12.3317     0.0000   560.0000 </r>
       <r>    12.5169     0.0000   560.0000 </r>
       <r>    12.7022     0.0000   560.0000 </r>
      </set>
     </set>
    </array>
   </total>
  </dos>
 </calculation>
 <structure name="finalpos" >
  <crystal>
   <varray name="basis" >
    <v>      11.17850000       0.00000000       0.00000000 </v>
    <v>       0.00000000       9.57460000       0.00000000 </v>
    <v>       0.00000000       0.00000000      11.18240000 </v>
   </varray>
   <i name="volume">   1196.84853820 </i>
   <varray name="rec_basis" >
    <v>       0.08945744       0.00000000       0.00000000 </v>
    <v>       0.00000000       0.10444301       0.00000000 </v>
    <v>       0.00000000       0.00000000       0.08942624 </v>
   </varray>
  </crystal>
  <varray name="positions" >
   <v>       0.37539000       0.00017000       0.43687000 </v>
   <v>       0.12461000       0.99984000       0.18687000 </v>
   <v>       0.37461000       0.00017000       0.18687000 </v>
   <v>       0.87461000       0.00017000       0.18687000 </v>
   <v>       0.37539000       0.00017000       0.93687000 </v>
   <v>       0.37461000       0.00017000       0.68687000 </v>
   <v>       0.87539000       0.00017000       0.43687000 </v>
   <v>       0.62461000       0.99984000       0.18687000 </v>
   <v>       0.12461000       0.99984000       0.68687000 </v>
   <v>       0.87539000       0.00017000       0.93687000 </v>
   <v>       0.62461000       0.99984000       0.68687000 </v>
   <v>       0.00013000       0.29519000       0.06281000 </v>
   <v>       0.25013000       0.70481000       0.06281000 </v>
   <v>       0.24987000       0.29519000       0.31282000 </v>
   <v>       0.49987000       0.70481000       0.31282000 </v>
   <v>       0.50013000       0.29519000       0.06281000 </v>
   <v>       0.75013000       0.70481000       0.06281000 </v>
   <v>       0.74987000       0.29519000       0.31282000 </v>
   <v>       0.99987000       0.70481000       0.31282000 </v>
   <v>       0.00013000       0.29519000       0.56281000 </v>
   <v>       0.25013000       0.70481000       0.56281000 </v>
   <v>       0.24987000       0.29519000       0.81282000 </v>
   <v>       0.49987000       0.70481000       0.81282000 </v>
   <v>       0.50013000       0.29519000       0.56281000 </v>
   <v>       0.75013000       0.70481000       0.56281000 </v>
   <v>       0.74987000       0.29519000       0.81282000 </v>
   <v>       0.99987000       0.70481000       0.81282000 </v>
   <v>       0.25005000       0.32677000       0.06286000 </v>
   <v>       0.00005000       0.67323000       0.06286000 </v>
   <v>       0.49995000       0.32677000       0.31286000 </v>
   <v>       0.24995000       0.67323000       0.31286000 </v>
   <v>       0.75005000       0.32677000       0.06286000 </v>
   <v>       0.50005000       0.67323000       0.06286000 </v>
   <v>       0.99995000       0.32677000       0.31286000 </v>
   <v>       0.74995000       0.67323000       0.31286000 </v>
   <v>       0.25005000       0.32677000       0.56286000 </v>
   <v>       0.00005000       0.67323000       0.56286000 </v>
   <v>       0.49995000       0.32677000       0.81286000 </v>
   <v>       0.24995000       0.67323000       0.81286000 </v>
   <v>       0.75005000       0.32677000       0.56286000 </v>
   <v>       0.50005000       0.67323000       0.56286000 </v>
   <v>       0.99995000       0.32677000       0.81286000 </v>
   <v>       0.74995000       0.67323000       0.81286000 </v>
   <v>       0.49987000       0.07798000       0.06246000 </v>
   <v>       0.24987000       0.92202000       0.06246000 </v>
   <v>       0.25013000       0.07798000       0.31246000 </v>
   <v>       0.00013000       0.92202000       0.31246000 </v>
   <v>       0.99987000       0.07798000       0.06246000 </v>
   <v>       0.74987000       0.92202000       0.06246000 </v>
   <v>       0.75013000       0.07798000       0.31246000 </v>
   <v>       0.50013000       0.92202000       0.31246000 </v>
   <v>       0.49987000       0.07798000       0.56246000 </v>
   <v>       0.24987000       0.92202000       0.56246000 </v>
   <v>       0.25013000       0.07798000       0.81246000 </v>
   <v>       0.00013000       0.92202000       0.81246000 </v>
   <v>       0.99987000       0.07798000       0.56246000 </v>
   <v>       0.74987000       0.92202000       0.56246000 </v>
   <v>       0.75013000       0.07798000       0.81246000 </v>
   <v>       0.50013000       0.92202000       0.81246000 </v>
  </varray>
 </structure>
</modeling>
