<?xml version="1.0" encoding="ISO-8859-1"?>
<modeling>
 <generator>
  <i name="program" type="string">vasp </i>
  <i name="version" type="string">5.4.4.18Apr17-6-g9f103f2a35  </i>
  <i name="subversion" type="string">(build Jul 31 2017 11:33:29) complex            parallel </i>
  <i name="platform" type="string">LinuxIFC </i>
  <i name="date" type="string">2021 09 29 </i>
  <i name="time" type="string">01:24:58 </i>
 </generator>
 <incar>
  <i type="string" name="SYSTEM"> La2O2S</i>
  <i type="string" name="PREC">normal</i>
  <i type="int" name="NELMIN">     4</i>
  <i type="int" name="IBRION">     2</i>
  <i type="int" name="NFREE">    10</i>
  <i name="EDIFF">      0.00000100</i>
  <i name="EDIFFG">     -0.01000000</i>
  <i type="int" name="NSW">     1</i>
  <i type="int" name="ISIF">     2</i>
  <i name="ENCUT">    600.00000000</i>
  <i name="ENAUG">    900.00000000</i>
  <i type="int" name="ISMEAR">    -5</i>
  <i type="logical" name="LWAVE"> F  </i>
  <i type="logical" name="LCHARG"> F  </i>
  <v type="int" name="KPOINT_BSE">    -1     0     0     0</v>
 </incar>
 <structure name="primitive_cell" >
  <crystal>
   <varray name="basis" >
    <v>      11.17850000       0.00000000       0.00000000 </v>
    <v>       0.00000000       9.57460000       0.00000000 </v>
    <v>       0.00000000       0.00000000      11.18240000 </v>
   </varray>
   <i name="volume">   1196.84853820 </i>
   <varray name="rec_basis" >
    <v>       0.08945744       0.00000000       0.00000000 </v>
    <v>       0.00000000       0.10444301       0.00000000 </v>
    <v>       0.00000000       0.00000000       0.08942624 </v>
   </varray>
  </crystal>
  <varray name="positions" >
   <v>       0.37539000       0.00017000       0.43687000 </v>
   <v>      -0.49987000      -0.07798000       0.31246000 </v>
   <v>       0.25013000       0.07798000       0.31246000 </v>
   <v>       0.49987000       0.07798000      -0.43754000 </v>
   <v>       0.24987000      -0.07798000      -0.43754000 </v>
   <v>      -0.37461000      -0.00016000       0.43687000 </v>
   <v>       0.37461000       0.00017000       0.18687000 </v>
   <v>       0.37461000       0.00017000      -0.31313000 </v>
   <v>       0.49987000      -0.29519000       0.31282000 </v>
   <v>       0.24987000       0.29519000       0.31282000 </v>
   <v>      -0.49987000       0.29519000      -0.43719000 </v>
   <v>       0.25013000      -0.29519000      -0.43719000 </v>
   <v>       0.49995000       0.32677000       0.31286000 </v>
   <v>       0.24995000      -0.32677000       0.31286000 </v>
   <v>      -0.49995000      -0.32677000      -0.43714000 </v>
   <v>       0.25005000       0.32677000      -0.43714000 </v>
   <v>      -0.37539000      -0.00016000       0.18687000 </v>
   <v>      -0.37539000      -0.00016000      -0.31313000 </v>
   <v>       0.12461000      -0.00016000       0.18687000 </v>
   <v>       0.12461000      -0.00016000      -0.31313000 </v>
   <v>       0.49987000       0.07798000       0.06246000 </v>
   <v>      -0.24987000       0.07798000       0.31246000 </v>
   <v>      -0.25013000      -0.07798000      -0.43754000 </v>
   <v>       0.24987000      -0.07798000       0.06246000 </v>
   <v>       0.00013000      -0.07798000       0.31246000 </v>
   <v>      -0.49987000      -0.07798000      -0.18754000 </v>
   <v>      -0.00013000       0.07798000      -0.43754000 </v>
   <v>       0.25013000       0.07798000      -0.18754000 </v>
   <v>      -0.49987000       0.29519000       0.06281000 </v>
   <v>      -0.25013000       0.29519000       0.31282000 </v>
   <v>       0.25013000      -0.29519000       0.06281000 </v>
   <v>      -0.24987000      -0.29519000      -0.43719000 </v>
   <v>      -0.00013000      -0.29519000       0.31282000 </v>
   <v>       0.00013000       0.29519000      -0.43719000 </v>
   <v>       0.49987000      -0.29519000      -0.18718000 </v>
   <v>       0.24987000       0.29519000      -0.18718000 </v>
   <v>      -0.49995000      -0.32677000       0.06286000 </v>
   <v>       0.25005000       0.32677000       0.06286000 </v>
   <v>      -0.25005000      -0.32677000       0.31286000 </v>
   <v>      -0.24995000       0.32677000      -0.43714000 </v>
   <v>      -0.00005000       0.32677000       0.31286000 </v>
   <v>       0.00005000      -0.32677000      -0.43714000 </v>
   <v>       0.49995000       0.32677000      -0.18714000 </v>
   <v>       0.24995000      -0.32677000      -0.18714000 </v>
   <v>      -0.12461000       0.00017000       0.43687000 </v>
   <v>      -0.25013000      -0.07798000       0.06246000 </v>
   <v>      -0.00013000       0.07798000       0.06246000 </v>
   <v>      -0.24987000       0.07798000      -0.18754000 </v>
   <v>       0.00013000      -0.07798000      -0.18754000 </v>
   <v>      -0.12539000       0.00017000      -0.31313000 </v>
   <v>      -0.12539000       0.00017000       0.18687000 </v>
   <v>       0.12539000      -0.00016000      -0.06313000 </v>
   <v>      -0.37461000      -0.00016000      -0.06313000 </v>
   <v>      -0.24987000      -0.29519000       0.06281000 </v>
   <v>       0.00013000       0.29519000       0.06281000 </v>
   <v>      -0.25013000       0.29519000      -0.18718000 </v>
   <v>      -0.00013000      -0.29519000      -0.18718000 </v>
   <v>      -0.24995000       0.32677000       0.06286000 </v>
   <v>       0.00005000      -0.32677000       0.06286000 </v>
   <v>      -0.25005000      -0.32677000      -0.18714000 </v>
   <v>      -0.00005000       0.32677000      -0.18714000 </v>
  </varray>
 </structure>
 <varray name="primitive_index" >
  <v type="int" >        1 </v>
  <v type="int" >       53 </v>
  <v type="int" >       48 </v>
  <v type="int" >       54 </v>
  <v type="int" >       55 </v>
  <v type="int" >        4 </v>
  <v type="int" >        3 </v>
  <v type="int" >        8 </v>
  <v type="int" >       17 </v>
  <v type="int" >       16 </v>
  <v type="int" >       26 </v>
  <v type="int" >       23 </v>
  <v type="int" >       32 </v>
  <v type="int" >       33 </v>
  <v type="int" >       43 </v>
  <v type="int" >       38 </v>
  <v type="int" >        6 </v>
  <v type="int" >        9 </v>
  <v type="int" >        2 </v>
  <v type="int" >       12 </v>
  <v type="int" >       46 </v>
  <v type="int" >       52 </v>
  <v type="int" >       59 </v>
  <v type="int" >       47 </v>
  <v type="int" >       49 </v>
  <v type="int" >       61 </v>
  <v type="int" >       58 </v>
  <v type="int" >       56 </v>
  <v type="int" >       18 </v>
  <v type="int" >       20 </v>
  <v type="int" >       15 </v>
  <v type="int" >       27 </v>
  <v type="int" >       21 </v>
  <v type="int" >       22 </v>
  <v type="int" >       25 </v>
  <v type="int" >       24 </v>
  <v type="int" >       35 </v>
  <v type="int" >       30 </v>
  <v type="int" >       37 </v>
  <v type="int" >       42 </v>
  <v type="int" >       36 </v>
  <v type="int" >       39 </v>
  <v type="int" >       40 </v>
  <v type="int" >       41 </v>
  <v type="int" >        5 </v>
  <v type="int" >       51 </v>
  <v type="int" >       50 </v>
  <v type="int" >       60 </v>
  <v type="int" >       57 </v>
  <v type="int" >       10 </v>
  <v type="int" >       11 </v>
  <v type="int" >        7 </v>
  <v type="int" >       13 </v>
  <v type="int" >       19 </v>
  <v type="int" >       14 </v>
  <v type="int" >       28 </v>
  <v type="int" >       29 </v>
  <v type="int" >       34 </v>
  <v type="int" >       31 </v>
  <v type="int" >       45 </v>
  <v type="int" >       44 </v>
 </varray>
 <kpoints>
  <generation param="Gamma">
   <v type="int" name="divisions">       2        2        2 </v>
   <v name="usershift">      0.00000000       0.00000000       0.00000000 </v>
   <v name="genvec1">      0.50000000       0.00000000       0.00000000 </v>
   <v name="genvec2">      0.00000000       0.50000000       0.00000000 </v>
   <v name="genvec3">      0.00000000       0.00000000       0.50000000 </v>
   <v name="shift">      0.00000000       0.00000000       0.00000000 </v>
  </generation>
  <varray name="kpointlist" >
   <v>       0.00000000       0.00000000       0.00000000 </v>
   <v>       0.50000000       0.00000000       0.00000000 </v>
   <v>       0.00000000       0.50000000       0.00000000 </v>
   <v>       0.50000000       0.50000000       0.00000000 </v>
   <v>       0.00000000       0.00000000       0.50000000 </v>
   <v>       0.50000000       0.00000000       0.50000000 </v>
   <v>       0.00000000       0.50000000       0.50000000 </v>
   <v>       0.50000000       0.50000000       0.50000000 </v>
  </varray>
  <varray name="weights" >
   <v>       0.12500000 </v>
   <v>       0.12500000 </v>
   <v>       0.12500000 </v>
   <v>       0.12500000 </v>
   <v>       0.12500000 </v>
   <v>       0.12500000 </v>
   <v>       0.12500000 </v>
   <v>       0.12500000 </v>
  </varray>
  <varray name="tetrahedronlist"  type="int" >
   <v type="int" >        2        1        2        4        5 </v>
   <v type="int" >        2        1        3        4        5 </v>
   <v type="int" >        2        3        4        5        7 </v>
   <v type="int" >        2        2        4        5        6 </v>
   <v type="int" >        2        4        5        6        8 </v>
   <v type="int" >        2        4        5        7        8 </v>
   <v type="int" >        2        1        2        3        6 </v>
   <v type="int" >        2        2        3        4        6 </v>
   <v type="int" >        2        3        4        6        8 </v>
   <v type="int" >        2        1        3        5        6 </v>
   <v type="int" >        2        3        5        6        7 </v>
   <v type="int" >        2        3        6        7        8 </v>
   <v type="int" >        2        2        3        4        7 </v>
   <v type="int" >        2        1        2        3        7 </v>
   <v type="int" >        2        1        2        5        7 </v>
   <v type="int" >        2        2        4        7        8 </v>
   <v type="int" >        2        2        6        7        8 </v>
   <v type="int" >        2        2        5        6        7 </v>
   <v type="int" >        2        1        3        4        8 </v>
   <v type="int" >        2        1        2        4        8 </v>
   <v type="int" >        2        1        2        6        8 </v>
   <v type="int" >        2        1        3        7        8 </v>
   <v type="int" >        2        1        5        7        8 </v>
   <v type="int" >        2        1        5        6        8 </v>
  </varray>
  <i name="volumeweight">      0.02083333 </i>
 </kpoints>
 <parameters>
  <separator name="general" >
   <i type="string" name="SYSTEM">La2O2S</i>
   <i type="logical" name="LCOMPAT"> F  </i>
  </separator>
  <separator name="electronic" >
   <i type="string" name="PREC">normal</i>
   <i name="ENMAX">    600.00000000</i>
   <i name="ENAUG">    900.00000000</i>
   <i name="EDIFF">      0.00000100</i>
   <i type="int" name="IALGO">    38</i>
   <i type="int" name="IWAVPR">    11</i>
   <i type="int" name="NBANDS">   280</i>
   <i name="NELECT">    468.00000000</i>
   <i type="int" name="TURBO">     0</i>
   <i type="int" name="IRESTART">     0</i>
   <i type="int" name="NREBOOT">     0</i>
   <i type="int" name="NMIN">     0</i>
   <i name="EREF">      0.00000000</i>
   <separator name="electronic smearing" >
    <i type="int" name="ISMEAR">    -5</i>
    <i name="SIGMA">      0.20000000</i>
    <i name="KSPACING">      0.50000000</i>
    <i type="logical" name="KGAMMA"> T  </i>
   </separator>
   <separator name="electronic projectors" >
    <i type="logical" name="LREAL"> F  </i>
    <v name="ROPT">      0.00000000      0.00000000      0.00000000      0.00000000      0.00000000</v>
    <i type="int" name="LMAXPAW">  -100</i>
    <i type="int" name="LMAXMIX">     2</i>
    <i type="logical" name="NLSPLINE"> F  </i>
   </separator>
   <separator name="electronic startup" >
    <i type="int" name="ISTART">     0</i>
    <i type="int" name="ICHARG">     2</i>
    <i type="int" name="INIWAV">     1</i>
   </separator>
   <separator name="electronic spin" >
    <i type="int" name="ISPIN">     1</i>
    <i type="logical" name="LNONCOLLINEAR"> F  </i>
    <v name="MAGMOM">      1.00000000      1.00000000      1.00000000      1.00000000      1.00000000      1.00000000      1.00000000      1.00000000      1.00000000      1.00000000      1.00000000      1.00000000      1.00000000      1.00000000      1.00000000      1.00000000      1.00000000      1.00000000      1.00000000      1.00000000
      1.00000000      1.00000000      1.00000000      1.00000000      1.00000000      1.00000000      1.00000000      1.00000000      1.00000000      1.00000000      1.00000000      1.00000000      1.00000000      1.00000000      1.00000000      1.00000000      1.00000000      1.00000000      1.00000000      1.00000000
      1.00000000      1.00000000      1.00000000      1.00000000      1.00000000      1.00000000      1.00000000      1.00000000      1.00000000      1.00000000      1.00000000      1.00000000      1.00000000      1.00000000      1.00000000      1.00000000      1.00000000      1.00000000      1.00000000      1.00000000
      1.00000000</v>
    <i name="NUPDOWN">     -1.00000000</i>
    <i type="logical" name="LSORBIT"> F  </i>
    <v name="SAXIS">      0.00000000      0.00000000      1.00000000</v>
    <i type="logical" name="LSPIRAL"> F  </i>
    <v name="QSPIRAL">      0.00000000      0.00000000      0.00000000</v>
    <i type="logical" name="LZEROZ"> F  </i>
   </separator>
   <separator name="electronic exchange-correlation" >
    <i type="logical" name="LASPH"> F  </i>
    <i type="logical" name="LMETAGGA"> F  </i>
   </separator>
   <separator name="electronic convergence" >
    <i type="int" name="NELM">    60</i>
    <i type="int" name="NELMDL">    -5</i>
    <i type="int" name="NELMIN">     4</i>
    <i name="ENINI">    600.00000000</i>
    <separator name="electronic convergence detail" >
     <i type="logical" name="LDIAG"> T  </i>
     <i type="logical" name="LSUBROT"> F  </i>
     <i name="WEIMIN">      0.00100000</i>
     <i name="EBREAK">      0.00000000</i>
     <i name="DEPER">      0.30000000</i>
     <i type="int" name="NRMM">     4</i>
     <i name="TIME">      0.40000000</i>
    </separator>
   </separator>
   <separator name="electronic mixer" >
    <i name="AMIX">      0.40000000</i>
    <i name="BMIX">      1.00000000</i>
    <i name="AMIN">      0.10000000</i>
    <i name="AMIX_MAG">      1.60000000</i>
    <i name="BMIX_MAG">      1.00000000</i>
    <separator name="electronic mixer details" >
     <i type="int" name="IMIX">     4</i>
     <i type="logical" name="MIXFIRST"> F  </i>
     <i type="int" name="MAXMIX">   -45</i>
     <i name="WC">    100.00000000</i>
     <i type="int" name="INIMIX">     1</i>
     <i type="int" name="MIXPRE">     1</i>
     <i type="int" name="MREMOVE">     5</i>
    </separator>
   </separator>
   <separator name="electronic dipolcorrection" >
    <i type="logical" name="LDIPOL"> F  </i>
    <i type="logical" name="LMONO"> F  </i>
    <i type="int" name="IDIPOL">     0</i>
    <i name="EPSILON">      1.00000000</i>
    <v name="DIPOL">   -100.00000000   -100.00000000   -100.00000000</v>
    <i name="EFIELD">      0.00000000</i>
   </separator>
  </separator>
  <separator name="grids" >
   <i type="int" name="NGX">    70</i>
   <i type="int" name="NGY">    60</i>
   <i type="int" name="NGZ">    70</i>
   <i type="int" name="NGXF">   140</i>
   <i type="int" name="NGYF">   120</i>
   <i type="int" name="NGZF">   140</i>
   <i type="logical" name="ADDGRID"> F  </i>
  </separator>
  <separator name="ionic" >
   <i type="int" name="NSW">     1</i>
   <i type="int" name="IBRION">     2</i>
   <i type="int" name="MDALGO">     0</i>
   <i type="int" name="ISIF">     2</i>
   <i name="PSTRESS">      0.00000000</i>
   <i name="EDIFFG">     -0.01000000</i>
   <i type="int" name="NFREE">    10</i>
   <i name="POTIM">      0.50000000</i>
   <i name="SMASS">     -3.00000000</i>
   <i name="SCALEE">      1.00000000</i>
  </separator>
  <separator name="ionic md" >
   <i name="TEBEG">      0.00010000</i>
   <i name="TEEND">      0.00010000</i>
   <i type="int" name="NBLOCK">     1</i>
   <i type="int" name="KBLOCK">     1</i>
   <i type="int" name="NPACO">   256</i>
   <i name="APACO">     16.00000000</i>
  </separator>
  <separator name="symmetry" >
   <i type="int" name="ISYM">     2</i>
   <i name="SYMPREC">      0.00001000</i>
  </separator>
  <separator name="dos" >
   <i type="int" name="LORBIT">     0</i>
   <v name="RWIGS">     -1.00000000     -1.00000000     -1.00000000     -1.00000000     -1.00000000</v>
   <i type="int" name="NEDOS">   301</i>
   <i name="EMIN">     10.00000000</i>
   <i name="EMAX">    -10.00000000</i>
   <i name="EFERMI">      0.00000000</i>
  </separator>
  <separator name="writing" >
   <i type="int" name="NWRITE">     2</i>
   <i type="logical" name="LWAVE"> F  </i>
   <i type="logical" name="LDOWNSAMPLE"> F  </i>
   <i type="logical" name="LCHARG"> F  </i>
   <i type="logical" name="LPARD"> F  </i>
   <i type="logical" name="LVTOT"> F  </i>
   <i type="logical" name="LVHAR"> F  </i>
   <i type="logical" name="LELF"> F  </i>
   <i type="logical" name="LOPTICS"> F  </i>
   <v name="STM">      0.00000000      0.00000000      0.00000000      0.00000000      0.00000000      0.00000000      0.00000000</v>
  </separator>
  <separator name="performance" >
   <i type="int" name="NPAR">    28</i>
   <i type="int" name="NSIM">     4</i>
   <i type="int" name="NBLK">    -1</i>
   <i type="logical" name="LPLANE"> T  </i>
   <i type="logical" name="LSCALAPACK"> T  </i>
   <i type="logical" name="LSCAAWARE"> F  </i>
   <i type="logical" name="LSCALU"> F  </i>
   <i type="logical" name="LASYNC"> F  </i>
   <i type="logical" name="LORBITALREAL"> F  </i>
  </separator>
  <separator name="miscellaneous" >
   <i type="int" name="IDIOT">     3</i>
   <i type="int" name="ISPECIAL">     0</i>
   <i type="logical" name="LMUSIC"> F  </i>
   <v name="POMASS">      7.01000000     24.30500000    208.98000000     32.06600000     16.00000000</v>
   <v name="DARWINR">      0.00000000      0.00000000      0.00000000      0.00000000      0.00000000</v>
   <v name="DARWINV">      1.00000000      1.00000000      1.00000000      1.00000000      1.00000000</v>
   <i type="logical" name="LCORR"> T  </i>
  </separator>
  <i type="logical" name="GGA_COMPAT"> T  </i>
  <i type="logical" name="LBERRY"> F  </i>
  <i type="int" name="ICORELEVEL">     0</i>
  <i type="logical" name="LDAU"> F  </i>
  <i type="int" name="I_CONSTRAINED_M">     0</i>
  <separator name="electronic exchange-correlation" >
   <i type="string" name="GGA">--</i>
   <i type="int" name="VOSKOWN">     0</i>
   <i type="logical" name="LHFCALC"> F  </i>
   <i type="string" name="PRECFOCK"></i>
   <i type="logical" name="LSYMGRAD"> F  </i>
   <i type="logical" name="LHFONE"> F  </i>
   <i type="logical" name="LRHFCALC"> F  </i>
   <i type="logical" name="LTHOMAS"> F  </i>
   <i type="logical" name="LMODELHF"> F  </i>
   <i name="ENCUT4O">     -1.00000000</i>
   <i type="int" name="EXXOEP">     0</i>
   <i type="int" name="FOURORBIT">     0</i>
   <i name="AEXX">      0.00000000</i>
   <i name="HFALPHA">      0.00000000</i>
   <i name="MCALPHA">      0.00000000</i>
   <i name="ALDAX">      1.00000000</i>
   <i name="AGGAX">      1.00000000</i>
   <i name="ALDAC">      1.00000000</i>
   <i name="AGGAC">      1.00000000</i>
   <i type="int" name="NKREDX">     1</i>
   <i type="int" name="NKREDY">     1</i>
   <i type="int" name="NKREDZ">     1</i>
   <i type="logical" name="SHIFTRED"> F  </i>
   <i type="logical" name="ODDONLY"> F  </i>
   <i type="logical" name="EVENONLY"> F  </i>
   <i type="int" name="LMAXFOCK">     0</i>
   <i type="int" name="NMAXFOCKAE">     0</i>
   <i type="logical" name="LFOCKAEDFT"> F  </i>
   <i name="HFSCREEN">      0.00000000</i>
   <i name="HFSCREENC">      0.00000000</i>
   <i type="int" name="NBANDSGWLOW">     0</i>
  </separator>
  <separator name="vdW DFT" >
   <i type="logical" name="LUSE_VDW"> F  </i>
   <i name="Zab_VDW">     -0.84910000</i>
   <i name="PARAM1">      0.12340000</i>
   <i name="PARAM2">      1.00000000</i>
   <i name="PARAM3">      0.00000000</i>
  </separator>
  <separator name="model GW" >
   <i type="int" name="MODEL_GW">     0</i>
   <i name="MODEL_EPS0">     11.77228070</i>
   <i name="MODEL_ALPHA">      1.00000000</i>
  </separator>
  <separator name="linear response parameters" >
   <i type="logical" name="LEPSILON"> F  </i>
   <i type="logical" name="LRPA"> F  </i>
   <i type="logical" name="LNABLA"> F  </i>
   <i type="logical" name="LVEL"> F  </i>
   <i type="int" name="KINTER">     0</i>
   <i name="CSHIFT">      0.10000000</i>
   <i name="OMEGAMAX">     -1.00000000</i>
   <i name="DEG_THRESHOLD">      0.00200000</i>
   <i name="RTIME">     -0.10000000</i>
   <i name="WPLASMAI">      0.00000000</i>
   <v name="DFIELD">      0.00000000      0.00000000      0.00000000</v>
   <v name="WPLASMA">      0.00000000      0.00000000      0.00000000      0.00000000      0.00000000      0.00000000      0.00000000      0.00000000      0.00000000</v>
  </separator>
  <separator name="orbital magnetization" >
   <i type="logical" name="NUCIND"> F  </i>
   <v name="MAGPOS">      0.00000000      0.00000000      0.00000000</v>
   <i type="logical" name="LNICSALL"> T  </i>
   <i type="logical" name="ORBITALMAG"> F  </i>
   <i type="logical" name="LMAGBLOCH"> F  </i>
   <i type="logical" name="LCHIMAG"> F  </i>
   <i type="logical" name="LGAUGE"> T  </i>
   <i type="int" name="MAGATOM">     0</i>
   <v name="MAGDIPOL">      0.00000000      0.00000000      0.00000000</v>
   <v name="AVECCONST">      0.00000000      0.00000000      0.00000000</v>
  </separator>
  <separator name="response functions" >
   <i type="logical" name="LADDER"> F  </i>
   <i type="logical" name="LRPAFORCE"> F  </i>
   <i type="logical" name="LFXC"> F  </i>
   <i type="logical" name="LHARTREE"> T  </i>
   <i type="int" name="IBSE">     0</i>
   <v type="int" name="KPOINT">    -1     0     0     0</v>
   <i type="logical" name="LTCTE"> F  </i>
   <i type="logical" name="LTETE"> F  </i>
   <i type="logical" name="LTRIPLET"> F  </i>
   <i type="logical" name="LFXCEPS"> F  </i>
   <i type="logical" name="LFXHEG"> F  </i>
   <i type="int" name="NATURALO">     2</i>
   <i type="logical" name="L2ORDER"> F  </i>
   <i type="logical" name="LMP2LT"> F  </i>
   <i type="logical" name="LUSEW"> F  </i>
   <i name="ENCUTGW">     -2.00000000</i>
   <i name="ENCUTGWSOFT">     -2.00000000</i>
   <i name="ENCUTLF">     -1.00000000</i>
   <i type="int" name="LMAXMP2">    -1</i>
   <i name="SCISSOR">      0.00000000</i>
   <i type="int" name="NOMEGA">     0</i>
   <i type="int" name="NOMEGAR">     0</i>
   <i type="int" name="NBANDSGW">    -1</i>
   <i type="int" name="NBANDSO">    -1</i>
   <i type="int" name="NBANDSV">    -1</i>
   <i type="int" name="NELM">     1</i>
   <i type="int" name="NELMHF">     1</i>
   <i type="int" name="DIM">     3</i>
   <i type="int" name="ANTIRES">     0</i>
   <i name="OMEGAMAX">    -30.00000000</i>
   <i name="OMEGAMIN">    -30.00000000</i>
   <i name="OMEGATL">   -200.00000000</i>
   <i type="int" name="OMEGAGRID">   140</i>
   <i name="CSHIFT">     -0.10000000</i>
   <i type="logical" name="SELFENERGY"> F  </i>
   <i type="logical" name="LSPECTRAL"> F  </i>
   <i type="logical" name="LSPECTRALGW"> F  </i>
   <i type="logical" name="LSINGLES"> F  </i>
   <i type="logical" name="LFERMIGW"> F  </i>
   <i type="logical" name="ODDONLYGW"> F  </i>
   <i type="logical" name="EVENONLYGW"> F  </i>
   <i type="int" name="NKREDLFX">     1</i>
   <i type="int" name="NKREDLFY">     1</i>
   <i type="int" name="NKREDLFZ">     1</i>
   <i type="int" name="MAXMEM">  2800</i>
   <i type="int" name="TELESCOPE">     0</i>
   <i type="int" name="TAUPAR">     1</i>
   <i type="int" name="OMEGAPAR">    -1</i>
   <i name="LAMBDA">      1.00000000</i>
  </separator>
  <separator name="External order field" >
   <i name="OFIELD_KAPPA">      0.00000000</i>
   <v name="OFIELD_K">      0.00000000      0.00000000      0.00000000</v>
   <i name="OFIELD_Q6_NEAR">      0.00000000</i>
   <i name="OFIELD_Q6_FAR">      0.00000000</i>
   <i name="OFIELD_A">      0.00000000</i>
  </separator>
 </parameters>
 <atominfo>
  <atoms>      61 </atoms>
  <types>       5 </types>
  <array name="atoms" >
   <dimension dim="1">ion</dimension>
   <field type="string">element</field>
   <field type="int">atomtype</field>
   <set>
    <rc><c>Li</c><c>   1</c></rc>
    <rc><c>Li</c><c>   1</c></rc>
    <rc><c>Li</c><c>   1</c></rc>
    <rc><c>Li</c><c>   1</c></rc>
    <rc><c>Li</c><c>   1</c></rc>
    <rc><c>Li</c><c>   1</c></rc>
    <rc><c>Li</c><c>   1</c></rc>
    <rc><c>Li</c><c>   1</c></rc>
    <rc><c>Li</c><c>   1</c></rc>
    <rc><c>Li</c><c>   1</c></rc>
    <rc><c>Mg</c><c>   2</c></rc>
    <rc><c>Mg</c><c>   2</c></rc>
    <rc><c>Mg</c><c>   2</c></rc>
    <rc><c>Bi</c><c>   3</c></rc>
    <rc><c>Bi</c><c>   3</c></rc>
    <rc><c>Bi</c><c>   3</c></rc>
    <rc><c>Bi</c><c>   3</c></rc>
    <rc><c>Bi</c><c>   3</c></rc>
    <rc><c>Bi</c><c>   3</c></rc>
    <rc><c>Bi</c><c>   3</c></rc>
    <rc><c>Bi</c><c>   3</c></rc>
    <rc><c>Bi</c><c>   3</c></rc>
    <rc><c>Bi</c><c>   3</c></rc>
    <rc><c>Bi</c><c>   3</c></rc>
    <rc><c>Bi</c><c>   3</c></rc>
    <rc><c>Bi</c><c>   3</c></rc>
    <rc><c>Bi</c><c>   3</c></rc>
    <rc><c>Bi</c><c>   3</c></rc>
    <rc><c>Bi</c><c>   3</c></rc>
    <rc><c>S </c><c>   4</c></rc>
    <rc><c>S </c><c>   4</c></rc>
    <rc><c>S </c><c>   4</c></rc>
    <rc><c>S </c><c>   4</c></rc>
    <rc><c>S </c><c>   4</c></rc>
    <rc><c>S </c><c>   4</c></rc>
    <rc><c>S </c><c>   4</c></rc>
    <rc><c>S </c><c>   4</c></rc>
    <rc><c>S </c><c>   4</c></rc>
    <rc><c>S </c><c>   4</c></rc>
    <rc><c>S </c><c>   4</c></rc>
    <rc><c>S </c><c>   4</c></rc>
    <rc><c>S </c><c>   4</c></rc>
    <rc><c>S </c><c>   4</c></rc>
    <rc><c>S </c><c>   4</c></rc>
    <rc><c>S </c><c>   4</c></rc>
    <rc><c>O </c><c>   5</c></rc>
    <rc><c>O </c><c>   5</c></rc>
    <rc><c>O </c><c>   5</c></rc>
    <rc><c>O </c><c>   5</c></rc>
    <rc><c>O </c><c>   5</c></rc>
    <rc><c>O </c><c>   5</c></rc>
    <rc><c>O </c><c>   5</c></rc>
    <rc><c>O </c><c>   5</c></rc>
    <rc><c>O </c><c>   5</c></rc>
    <rc><c>O </c><c>   5</c></rc>
    <rc><c>O </c><c>   5</c></rc>
    <rc><c>O </c><c>   5</c></rc>
    <rc><c>O </c><c>   5</c></rc>
    <rc><c>O </c><c>   5</c></rc>
    <rc><c>O </c><c>   5</c></rc>
    <rc><c>O </c><c>   5</c></rc>
   </set>
  </array>
  <array name="atomtypes" >
   <dimension dim="1">type</dimension>
   <field type="int">atomspertype</field>
   <field type="string">element</field>
   <field>mass</field>
   <field>valence</field>
   <field type="string">pseudopotential</field>
   <set>
    <rc><c>  10</c><c>Li</c><c>      7.01000000</c><c>      3.00000000</c><c>  PAW_PBE Li_sv 10Sep2004               </c></rc>
    <rc><c>   3</c><c>Mg</c><c>     24.30500000</c><c>      2.00000000</c><c>  PAW_PBE Mg 13Apr2007                  </c></rc>
    <rc><c>  16</c><c>Bi</c><c>    208.98000000</c><c>     15.00000000</c><c>  PAW_PBE Bi_d 06Sep2000                </c></rc>
    <rc><c>  16</c><c>S </c><c>     32.06600000</c><c>      6.00000000</c><c>  PAW_PBE S 06Sep2000                   </c></rc>
    <rc><c>  16</c><c>O </c><c>     16.00000000</c><c>      6.00000000</c><c>  PAW_PBE O 08Apr2002                   </c></rc>
   </set>
  </array>
 </atominfo>
 <structure name="initialpos" >
  <crystal>
   <varray name="basis" >
    <v>      11.17850000       0.00000000       0.00000000 </v>
    <v>       0.00000000       9.57460000       0.00000000 </v>
    <v>       0.00000000       0.00000000      11.18240000 </v>
   </varray>
   <i name="volume">   1196.84853820 </i>
   <varray name="rec_basis" >
    <v>       0.08945744       0.00000000       0.00000000 </v>
    <v>       0.00000000       0.10444301       0.00000000 </v>
    <v>       0.00000000       0.00000000       0.08942624 </v>
   </varray>
  </crystal>
  <varray name="positions" >
   <v>       0.37539000       0.00017000       0.43687000 </v>
   <v>       0.12461000       0.99984000       0.18687000 </v>
   <v>       0.37461000       0.00017000       0.18687000 </v>
   <v>       0.62539000       0.99984000       0.43687000 </v>
   <v>       0.87539000       0.00017000       0.43687000 </v>
   <v>       0.62461000       0.99984000       0.18687000 </v>
   <v>       0.12539000       0.99984000       0.93687000 </v>
   <v>       0.37461000       0.00017000       0.68687000 </v>
   <v>       0.62461000       0.99984000       0.68687000 </v>
   <v>       0.87461000       0.00017000       0.68687000 </v>
   <v>       0.87461000       0.00017000       0.18687000 </v>
   <v>       0.12461000       0.99984000       0.68687000 </v>
   <v>       0.62539000       0.99984000       0.93687000 </v>
   <v>       0.00013000       0.29519000       0.06281000 </v>
   <v>       0.25013000       0.70481000       0.06281000 </v>
   <v>       0.24987000       0.29519000       0.31282000 </v>
   <v>       0.49987000       0.70481000       0.31282000 </v>
   <v>       0.50013000       0.29519000       0.06281000 </v>
   <v>       0.75013000       0.70481000       0.06281000 </v>
   <v>       0.74987000       0.29519000       0.31282000 </v>
   <v>       0.99987000       0.70481000       0.31282000 </v>
   <v>       0.00013000       0.29519000       0.56281000 </v>
   <v>       0.25013000       0.70481000       0.56281000 </v>
   <v>       0.24987000       0.29519000       0.81282000 </v>
   <v>       0.49987000       0.70481000       0.81282000 </v>
   <v>       0.50013000       0.29519000       0.56281000 </v>
   <v>       0.75013000       0.70481000       0.56281000 </v>
   <v>       0.74987000       0.29519000       0.81282000 </v>
   <v>       0.99987000       0.70481000       0.81282000 </v>
   <v>       0.25005000       0.32677000       0.06286000 </v>
   <v>       0.00005000       0.67323000       0.06286000 </v>
   <v>       0.49995000       0.32677000       0.31286000 </v>
   <v>       0.24995000       0.67323000       0.31286000 </v>
   <v>       0.75005000       0.32677000       0.06286000 </v>
   <v>       0.50005000       0.67323000       0.06286000 </v>
   <v>       0.99995000       0.32677000       0.31286000 </v>
   <v>       0.74995000       0.67323000       0.31286000 </v>
   <v>       0.25005000       0.32677000       0.56286000 </v>
   <v>       0.00005000       0.67323000       0.56286000 </v>
   <v>       0.49995000       0.32677000       0.81286000 </v>
   <v>       0.24995000       0.67323000       0.81286000 </v>
   <v>       0.75005000       0.32677000       0.56286000 </v>
   <v>       0.50005000       0.67323000       0.56286000 </v>
   <v>       0.99995000       0.32677000       0.81286000 </v>
   <v>       0.74995000       0.67323000       0.81286000 </v>
   <v>       0.49987000       0.07798000       0.06246000 </v>
   <v>       0.24987000       0.92202000       0.06246000 </v>
   <v>       0.25013000       0.07798000       0.31246000 </v>
   <v>       0.00013000       0.92202000       0.31246000 </v>
   <v>       0.99987000       0.07798000       0.06246000 </v>
   <v>       0.74987000       0.92202000       0.06246000 </v>
   <v>       0.75013000       0.07798000       0.31246000 </v>
   <v>       0.50013000       0.92202000       0.31246000 </v>
   <v>       0.49987000       0.07798000       0.56246000 </v>
   <v>       0.24987000       0.92202000       0.56246000 </v>
   <v>       0.25013000       0.07798000       0.81246000 </v>
   <v>       0.00013000       0.92202000       0.81246000 </v>
   <v>       0.99987000       0.07798000       0.56246000 </v>
   <v>       0.74987000       0.92202000       0.56246000 </v>
   <v>       0.75013000       0.07798000       0.81246000 </v>
   <v>       0.50013000       0.92202000       0.81246000 </v>
  </varray>
 </structure>
 <calculation>
  <scstep>
   <time name="dav">   59.33   59.38</time>
   <time name="total">   59.42   59.49</time>
   <energy>
    <i name="alphaZ">   1073.51873187 </i>
    <i name="ewald"> -30886.74019188 </i>
    <i name="hartreedc"> -12702.80680753 </i>
    <i name="XCdc">   1394.96884332 </i>
    <i name="pawpsdc">  36823.70205594 </i>
    <i name="pawaedc"> -36326.52930246 </i>
    <i name="eentropy">      0.00000000 </i>
    <i name="bandstr">   1809.85679766 </i>
    <i name="atom">  44791.06186932 </i>
    <i name="e_fr_energy">   5977.03199624 </i>
    <i name="e_wo_entrp">   5977.03199624 </i>
    <i name="e_0_energy">   5977.03199624 </i>
   </energy>
  </scstep>
  <scstep>
   <time name="dav">   59.52   59.50</time>
   <time name="total">   59.53   59.51</time>
   <energy>
    <i name="e_fr_energy">    811.65807623 </i>
    <i name="e_wo_entrp">    811.65807623 </i>
    <i name="e_0_energy">    811.65807623 </i>
   </energy>
  </scstep>
  <scstep>
   <time name="dav">   69.91   69.90</time>
   <time name="total">   69.91   69.90</time>
   <energy>
    <i name="e_fr_energy">   -243.45226097 </i>
    <i name="e_wo_entrp">   -243.45226097 </i>
    <i name="e_0_energy">   -243.45226097 </i>
   </energy>
  </scstep>
  <scstep>
   <time name="dav">   72.52   72.51</time>
   <time name="total">   72.52   72.51</time>
   <energy>
    <i name="e_fr_energy">   -346.47089034 </i>
    <i name="e_wo_entrp">   -346.47089034 </i>
    <i name="e_0_energy">   -346.47089034 </i>
   </energy>
  </scstep>
  <scstep>
   <time name="dav">   96.73   96.72</time>
   <time name="total">   97.45   97.45</time>
   <energy>
    <i name="e_fr_energy">   -355.09301179 </i>
    <i name="e_wo_entrp">   -355.09301179 </i>
    <i name="e_0_energy">   -355.09301179 </i>
   </energy>
  </scstep>
  <scstep>
   <time name="dav">   84.26   84.25</time>
   <time name="total">   85.05   85.05</time>
   <energy>
    <i name="e_fr_energy">   -296.48578779 </i>
    <i name="e_wo_entrp">   -296.48578779 </i>
    <i name="e_0_energy">   -296.48578779 </i>
   </energy>
  </scstep>
  <scstep>
   <time name="dav">   64.15   64.14</time>
   <time name="total">   64.93   64.93</time>
   <energy>
    <i name="e_fr_energy">   -299.29410777 </i>
    <i name="e_wo_entrp">   -299.29410777 </i>
    <i name="e_0_energy">   -299.29410777 </i>
   </energy>
  </scstep>
  <scstep>
   <time name="dav">   79.94   79.94</time>
   <time name="total">   80.74   80.73</time>
   <energy>
    <i name="e_fr_energy">   -298.05070560 </i>
    <i name="e_wo_entrp">   -298.05070560 </i>
    <i name="e_0_energy">   -298.05070560 </i>
   </energy>
  </scstep>
  <scstep>
   <time name="dav">   81.54   81.69</time>
   <time name="total">   82.33   82.48</time>
   <energy>
    <i name="e_fr_energy">   -297.41559315 </i>
    <i name="e_wo_entrp">   -297.41559315 </i>
    <i name="e_0_energy">   -297.41559315 </i>
   </energy>
  </scstep>
  <scstep>
   <time name="dav">   72.05   72.17</time>
   <time name="total">   72.85   72.97</time>
   <energy>
    <i name="e_fr_energy">   -297.41926320 </i>
    <i name="e_wo_entrp">   -297.41926320 </i>
    <i name="e_0_energy">   -297.41926320 </i>
   </energy>
  </scstep>
  <scstep>
   <time name="dav">   77.68   77.78</time>
   <time name="total">   78.47   78.57</time>
   <energy>
    <i name="e_fr_energy">   -297.43037287 </i>
    <i name="e_wo_entrp">   -297.43037287 </i>
    <i name="e_0_energy">   -297.43037287 </i>
   </energy>
  </scstep>
  <scstep>
   <time name="dav">   79.09   79.18</time>
   <time name="total">   79.89   79.97</time>
   <energy>
    <i name="e_fr_energy">   -297.43398407 </i>
    <i name="e_wo_entrp">   -297.43398407 </i>
    <i name="e_0_energy">   -297.43398407 </i>
   </energy>
  </scstep>
  <scstep>
   <time name="dav">   74.94   75.13</time>
   <time name="total">   75.74   75.92</time>
   <energy>
    <i name="e_fr_energy">   -297.43511918 </i>
    <i name="e_wo_entrp">   -297.43511918 </i>
    <i name="e_0_energy">   -297.43511918 </i>
   </energy>
  </scstep>
  <scstep>
   <time name="dav">   69.60   69.63</time>
   <time name="total">   70.40   70.43</time>
   <energy>
    <i name="e_fr_energy">   -297.43538500 </i>
    <i name="e_wo_entrp">   -297.43538500 </i>
    <i name="e_0_energy">   -297.43538500 </i>
   </energy>
  </scstep>
  <scstep>
   <time name="dav">   77.73   77.72</time>
   <time name="total">   78.52   78.51</time>
   <energy>
    <i name="e_fr_energy">   -297.43543553 </i>
    <i name="e_wo_entrp">   -297.43543553 </i>
    <i name="e_0_energy">   -297.43543553 </i>
   </energy>
  </scstep>
  <scstep>
   <time name="dav">   62.86   62.95</time>
   <time name="total">   63.65   63.74</time>
   <energy>
    <i name="e_fr_energy">   -297.43545383 </i>
    <i name="e_wo_entrp">   -297.43545383 </i>
    <i name="e_0_energy">   -297.43545383 </i>
   </energy>
  </scstep>
  <scstep>
   <time name="dav">   64.94   64.99</time>
   <time name="total">   65.74   65.79</time>
   <energy>
    <i name="e_fr_energy">   -297.43545560 </i>
    <i name="e_wo_entrp">   -297.43545560 </i>
    <i name="e_0_energy">   -297.43545560 </i>
   </energy>
  </scstep>
  <scstep>
   <time name="dav">   55.97   56.08</time>
   <time name="total">   56.04   56.15</time>
   <energy>
    <i name="alphaZ">   1073.51873187 </i>
    <i name="ewald"> -30886.74019188 </i>
    <i name="hartreedc"> -12939.19264466 </i>
    <i name="XCdc">   1418.53897522 </i>
    <i name="pawpsdc">  43844.72200121 </i>
    <i name="pawaedc"> -43322.10883564 </i>
    <i name="eentropy">      0.00000000 </i>
    <i name="bandstr">  -4277.23536146 </i>
    <i name="atom">  44791.06186932 </i>
    <i name="e_fr_energy">   -297.43545603 </i>
    <i name="e_wo_entrp">   -297.43545603 </i>
    <i name="e_0_energy">   -297.43545603 </i>
   </energy>
  </scstep>
  <structure>
   <crystal>
    <varray name="basis" >
     <v>      11.17850000       0.00000000       0.00000000 </v>
     <v>       0.00000000       9.57460000       0.00000000 </v>
     <v>       0.00000000       0.00000000      11.18240000 </v>
    </varray>
    <i name="volume">   1196.84853820 </i>
    <varray name="rec_basis" >
     <v>       0.08945744       0.00000000       0.00000000 </v>
     <v>       0.00000000       0.10444301       0.00000000 </v>
     <v>       0.00000000       0.00000000       0.08942624 </v>
    </varray>
   </crystal>
   <varray name="positions" >
    <v>       0.37539000       0.00017000       0.43687000 </v>
    <v>       0.12461000       0.99984000       0.18687000 </v>
    <v>       0.37461000       0.00017000       0.18687000 </v>
    <v>       0.62539000       0.99984000       0.43687000 </v>
    <v>       0.87539000       0.00017000       0.43687000 </v>
    <v>       0.62461000       0.99984000       0.18687000 </v>
    <v>       0.12539000       0.99984000       0.93687000 </v>
    <v>       0.37461000       0.00017000       0.68687000 </v>
    <v>       0.62461000       0.99984000       0.68687000 </v>
    <v>       0.87461000       0.00017000       0.68687000 </v>
    <v>       0.87461000       0.00017000       0.18687000 </v>
    <v>       0.12461000       0.99984000       0.68687000 </v>
    <v>       0.62539000       0.99984000       0.93687000 </v>
    <v>       0.00013000       0.29519000       0.06281000 </v>
    <v>       0.25013000       0.70481000       0.06281000 </v>
    <v>       0.24987000       0.29519000       0.31282000 </v>
    <v>       0.49987000       0.70481000       0.31282000 </v>
    <v>       0.50013000       0.29519000       0.06281000 </v>
    <v>       0.75013000       0.70481000       0.06281000 </v>
    <v>       0.74987000       0.29519000       0.31282000 </v>
    <v>       0.99987000       0.70481000       0.31282000 </v>
    <v>       0.00013000       0.29519000       0.56281000 </v>
    <v>       0.25013000       0.70481000       0.56281000 </v>
    <v>       0.24987000       0.29519000       0.81282000 </v>
    <v>       0.49987000       0.70481000       0.81282000 </v>
    <v>       0.50013000       0.29519000       0.56281000 </v>
    <v>       0.75013000       0.70481000       0.56281000 </v>
    <v>       0.74987000       0.29519000       0.81282000 </v>
    <v>       0.99987000       0.70481000       0.81282000 </v>
    <v>       0.25005000       0.32677000       0.06286000 </v>
    <v>       0.00005000       0.67323000       0.06286000 </v>
    <v>       0.49995000       0.32677000       0.31286000 </v>
    <v>       0.24995000       0.67323000       0.31286000 </v>
    <v>       0.75005000       0.32677000       0.06286000 </v>
    <v>       0.50005000       0.67323000       0.06286000 </v>
    <v>       0.99995000       0.32677000       0.31286000 </v>
    <v>       0.74995000       0.67323000       0.31286000 </v>
    <v>       0.25005000       0.32677000       0.56286000 </v>
    <v>       0.00005000       0.67323000       0.56286000 </v>
    <v>       0.49995000       0.32677000       0.81286000 </v>
    <v>       0.24995000       0.67323000       0.81286000 </v>
    <v>       0.75005000       0.32677000       0.56286000 </v>
    <v>       0.50005000       0.67323000       0.56286000 </v>
    <v>       0.99995000       0.32677000       0.81286000 </v>
    <v>       0.74995000       0.67323000       0.81286000 </v>
    <v>       0.49987000       0.07798000       0.06246000 </v>
    <v>       0.24987000       0.92202000       0.06246000 </v>
    <v>       0.25013000       0.07798000       0.31246000 </v>
    <v>       0.00013000       0.92202000       0.31246000 </v>
    <v>       0.99987000       0.07798000       0.06246000 </v>
    <v>       0.74987000       0.92202000       0.06246000 </v>
    <v>       0.75013000       0.07798000       0.31246000 </v>
    <v>       0.50013000       0.92202000       0.31246000 </v>
    <v>       0.49987000       0.07798000       0.56246000 </v>
    <v>       0.24987000       0.92202000       0.56246000 </v>
    <v>       0.25013000       0.07798000       0.81246000 </v>
    <v>       0.00013000       0.92202000       0.81246000 </v>
    <v>       0.99987000       0.07798000       0.56246000 </v>
    <v>       0.74987000       0.92202000       0.56246000 </v>
    <v>       0.75013000       0.07798000       0.81246000 </v>
    <v>       0.50013000       0.92202000       0.81246000 </v>
   </varray>
  </structure>
  <varray name="forces" >
   <v>      -0.46966600       0.06345921      -0.06813402 </v>
   <v>       0.51367233       0.00286027       0.18108453 </v>
   <v>      -0.26745799      -0.00354536      -0.23888415 </v>
   <v>      -0.13041245      -0.06726892       0.08786536 </v>
   <v>       0.46233059      -0.06613024       0.41227219 </v>
   <v>      -0.51688702      -0.00252783       0.14756150 </v>
   <v>       0.10841153      -0.06410230       0.39405367 </v>
   <v>       0.19918414       0.00199039       0.25369899 </v>
   <v>      -0.03463822       0.00147586      -0.13164291 </v>
   <v>      -0.18668408      -0.00207116       0.26101215 </v>
   <v>       0.50225096      -0.00344822      -0.56862998 </v>
   <v>       0.09204064       0.00347658      -0.51907868 </v>
   <v>      -0.27103657       0.12418531      -0.16132446 </v>
   <v>       0.22209227       0.00020982      -0.18268304 </v>
   <v>       0.10140866       1.00467983      -0.04662896 </v>
   <v>      -0.08830973      -1.03165412       0.04324772 </v>
   <v>      -0.24377103      -0.02438388       0.00822165 </v>
   <v>      -0.46622682      -0.01074851      -0.02033150 </v>
   <v>       0.11926458      -0.98279777      -0.16213977 </v>
   <v>      -0.10151878       1.05571475       0.14974103 </v>
   <v>       0.45792497      -0.01978001       0.17364203 </v>
   <v>       0.17852143      -0.02054799      -0.18713761 </v>
   <v>      -0.03875662       0.04439875      -0.25212767 </v>
   <v>       0.19420704      -0.01090055       0.23815483 </v>
   <v>      -0.33254543       0.02098340       0.01623715 </v>
   <v>      -0.13003007       0.01647887      -0.02006288 </v>
   <v>      -0.03316511      -0.04894735       0.04600733 </v>
   <v>       0.19567747       0.00651604      -0.04821973 </v>
   <v>      -0.03215747       0.00265475       0.17776069 </v>
   <v>      -0.01947552       0.21495847      -0.09080808 </v>
   <v>      -0.28472736      -0.14607272       0.06506871 </v>
   <v>       0.26540677       0.19262053       0.00932654 </v>
   <v>       0.02646388      -0.21010392       0.08566856 </v>
   <v>      -0.00966918       0.05368645       0.10078007 </v>
   <v>       0.30934490      -0.11957378      -0.02782479 </v>
   <v>      -0.32277556       0.12248632      -0.05789848 </v>
   <v>       0.03804348      -0.10895179      -0.11093698 </v>
   <v>      -0.02201551       0.16800462       0.14900895 </v>
   <v>      -0.05810626      -0.14034418       0.05094158 </v>
   <v>       0.13619807       0.13907639       0.02681593 </v>
   <v>      -0.05922822      -0.17732561      -0.14706583 </v>
   <v>      -0.00734156       0.15610834      -0.08982520 </v>
   <v>       0.08384815      -0.19025890      -0.01067695 </v>
   <v>      -0.01729396       0.15221734      -0.05788982 </v>
   <v>      -0.05820348      -0.10497806       0.09994968 </v>
   <v>       1.33879246      -0.00559793       0.11641290 </v>
   <v>      -0.60831018      -0.85441443       0.54018702 </v>
   <v>       0.61006786       0.86274708      -0.53449985 </v>
   <v>      -1.31262141       0.09164123      -1.06731940 </v>
   <v>      -0.09035032       0.04837816       1.12011457 </v>
   <v>      -0.61724365       0.69979174       0.70618561 </v>
   <v>       0.45411267      -0.84631886      -0.56237687 </v>
   <v>       0.23688544       0.02504902      -0.00306673 </v>
   <v>       0.09782076      -0.01842744      -0.00248359 </v>
   <v>       0.14741393      -0.09699266       1.13310358 </v>
   <v>      -1.07635082       0.00443418      -1.12366375 </v>
   <v>       0.97377615       0.01334729      -1.07688620 </v>
   <v>      -0.22990896       0.05525595       1.06397928 </v>
   <v>       0.00021439       0.07979574      -0.08129981 </v>
   <v>      -1.10061606      -0.00329145      -0.07876030 </v>
   <v>       1.17212589      -0.04717679      -0.12779576 </v>
  </varray>
  <varray name="stress" >
   <v>      -8.59381052       0.07005177       0.10658418 </v>
   <v>       0.07005165     -14.30884632      -0.03838953 </v>
   <v>       0.10658422      -0.03838974      -8.73994303 </v>
  </varray>
  <energy>
   <i name="e_fr_energy">   -312.08168634 </i>
   <i name="e_wo_entrp">   -312.08168634 </i>
   <i name="e_0_energy">      0.00000000 </i>
  </energy>
  <time name="totalsc"> 1420.41 1421.54</time>
  <eigenvalues>
   <array>
    <dimension dim="1">band</dimension>
    <dimension dim="2">kpoint</dimension>
    <dimension dim="3">spin</dimension>
    <field>eigene</field>
    <field>occ</field>
    <set>
     <set comment="spin 1">
      <set comment="kpoint 1">
       <r>  -40.2614    1.0000 </r>
       <r>  -40.0249    1.0000 </r>
       <r>  -40.0121    1.0000 </r>
       <r>  -39.8857    1.0000 </r>
       <r>  -39.8457    1.0000 </r>
       <r>  -39.7561    1.0000 </r>
       <r>  -39.5595    1.0000 </r>
       <r>  -39.5560    1.0000 </r>
       <r>  -39.4490    1.0000 </r>
       <r>  -39.4016    1.0000 </r>
       <r>  -18.9254    1.0000 </r>
       <r>  -18.9213    1.0000 </r>
       <r>  -18.8547    1.0000 </r>
       <r>  -18.8509    1.0000 </r>
       <r>  -18.8478    1.0000 </r>
       <r>  -18.8438    1.0000 </r>
       <r>  -18.7519    1.0000 </r>
       <r>  -18.7507    1.0000 </r>
       <r>  -18.7383    1.0000 </r>
       <r>  -18.7298    1.0000 </r>
       <r>  -18.7122    1.0000 </r>
       <r>  -18.7114    1.0000 </r>
       <r>  -18.7021    1.0000 </r>
       <r>  -18.7016    1.0000 </r>
       <r>  -18.6951    1.0000 </r>
       <r>  -18.6928    1.0000 </r>
       <r>  -18.6505    1.0000 </r>
       <r>  -18.6440    1.0000 </r>
       <r>  -18.6436    1.0000 </r>
       <r>  -18.6422    1.0000 </r>
       <r>  -18.6407    1.0000 </r>
       <r>  -18.6400    1.0000 </r>
       <r>  -18.6390    1.0000 </r>
       <r>  -18.6387    1.0000 </r>
       <r>  -18.6372    1.0000 </r>
       <r>  -18.6350    1.0000 </r>
       <r>  -18.6330    1.0000 </r>
       <r>  -18.6325    1.0000 </r>
       <r>  -18.6321    1.0000 </r>
       <r>  -18.6311    1.0000 </r>
       <r>  -18.6305    1.0000 </r>
       <r>  -18.6302    1.0000 </r>
       <r>  -18.6284    1.0000 </r>
       <r>  -18.6279    1.0000 </r>
       <r>  -18.6277    1.0000 </r>
       <r>  -18.6233    1.0000 </r>
       <r>  -18.6225    1.0000 </r>
       <r>  -18.6209    1.0000 </r>
       <r>  -18.6197    1.0000 </r>
       <r>  -18.6180    1.0000 </r>
       <r>  -18.5674    1.0000 </r>
       <r>  -18.5632    1.0000 </r>
       <r>  -18.5554    1.0000 </r>
       <r>  -18.5533    1.0000 </r>
       <r>  -18.5501    1.0000 </r>
       <r>  -18.5497    1.0000 </r>
       <r>  -18.5470    1.0000 </r>
       <r>  -18.5401    1.0000 </r>
       <r>  -18.5398    1.0000 </r>
       <r>  -18.5381    1.0000 </r>
       <r>  -18.4904    1.0000 </r>
       <r>  -18.4891    1.0000 </r>
       <r>  -18.4871    1.0000 </r>
       <r>  -18.4846    1.0000 </r>
       <r>  -18.4827    1.0000 </r>
       <r>  -18.4825    1.0000 </r>
       <r>  -18.4806    1.0000 </r>
       <r>  -18.4789    1.0000 </r>
       <r>  -18.4751    1.0000 </r>
       <r>  -18.4742    1.0000 </r>
       <r>  -18.4739    1.0000 </r>
       <r>  -18.4733    1.0000 </r>
       <r>  -18.4726    1.0000 </r>
       <r>  -18.4702    1.0000 </r>
       <r>  -18.4690    1.0000 </r>
       <r>  -18.4681    1.0000 </r>
       <r>  -18.4083    1.0000 </r>
       <r>  -18.4057    1.0000 </r>
       <r>  -18.3971    1.0000 </r>
       <r>  -18.3905    1.0000 </r>
       <r>  -18.3882    1.0000 </r>
       <r>  -18.3874    1.0000 </r>
       <r>  -18.3775    1.0000 </r>
       <r>  -18.3744    1.0000 </r>
       <r>  -18.2984    1.0000 </r>
       <r>  -18.2943    1.0000 </r>
       <r>  -18.1832    1.0000 </r>
       <r>  -18.1792    1.0000 </r>
       <r>  -18.1699    1.0000 </r>
       <r>  -18.1663    1.0000 </r>
       <r>  -13.5648    1.0000 </r>
       <r>  -13.4575    1.0000 </r>
       <r>  -12.8914    1.0000 </r>
       <r>  -12.8122    1.0000 </r>
       <r>  -12.7608    1.0000 </r>
       <r>  -12.7544    1.0000 </r>
       <r>  -12.7488    1.0000 </r>
       <r>  -12.6882    1.0000 </r>
       <r>  -12.6836    1.0000 </r>
       <r>  -12.6684    1.0000 </r>
       <r>  -12.6512    1.0000 </r>
       <r>  -12.6216    1.0000 </r>
       <r>  -12.6066    1.0000 </r>
       <r>  -12.5622    1.0000 </r>
       <r>  -11.9590    1.0000 </r>
       <r>  -11.8952    1.0000 </r>
       <r>   -9.3204    1.0000 </r>
       <r>   -9.0258    1.0000 </r>
       <r>   -8.5301    1.0000 </r>
       <r>   -8.4918    1.0000 </r>
       <r>   -8.4780    1.0000 </r>
       <r>   -8.4352    1.0000 </r>
       <r>   -8.3065    1.0000 </r>
       <r>   -8.2728    1.0000 </r>
       <r>   -8.2516    1.0000 </r>
       <r>   -8.2111    1.0000 </r>
       <r>   -8.0215    1.0000 </r>
       <r>   -8.0188    1.0000 </r>
       <r>   -7.9855    1.0000 </r>
       <r>   -7.9844    1.0000 </r>
       <r>   -7.3490    1.0000 </r>
       <r>   -7.3480    1.0000 </r>
       <r>   -6.3628    1.0000 </r>
       <r>   -6.3594    1.0000 </r>
       <r>   -6.3398    1.0000 </r>
       <r>   -6.3351    1.0000 </r>
       <r>   -5.5213    1.0000 </r>
       <r>   -5.4866    1.0000 </r>
       <r>   -5.3530    1.0000 </r>
       <r>   -5.3380    1.0000 </r>
       <r>   -5.3323    1.0000 </r>
       <r>   -5.2432    1.0000 </r>
       <r>   -5.2037    1.0000 </r>
       <r>   -5.1667    1.0000 </r>
       <r>   -5.1156    1.0000 </r>
       <r>   -5.0469    1.0000 </r>
       <r>   -3.8005    1.0000 </r>
       <r>   -3.6478    1.0000 </r>
       <r>   -1.4104    1.0000 </r>
       <r>   -1.3372    1.0000 </r>
       <r>   -1.0687    1.0000 </r>
       <r>   -1.0222    1.0000 </r>
       <r>   -0.5401    1.0000 </r>
       <r>   -0.5102    1.0000 </r>
       <r>   -0.4739    1.0000 </r>
       <r>   -0.4432    1.0000 </r>
       <r>   -0.1819    1.0000 </r>
       <r>   -0.1544    1.0000 </r>
       <r>   -0.1459    1.0000 </r>
       <r>   -0.1306    1.0000 </r>
       <r>    0.0519    1.0000 </r>
       <r>    0.1759    1.0000 </r>
       <r>    0.3416    1.0000 </r>
       <r>    0.4320    1.0000 </r>
       <r>    0.4858    1.0000 </r>
       <r>    0.5490    1.0000 </r>
       <r>    0.6067    1.0000 </r>
       <r>    0.6547    1.0000 </r>
       <r>    0.7231    1.0000 </r>
       <r>    0.7389    1.0000 </r>
       <r>    0.7470    1.0000 </r>
       <r>    0.7953    1.0000 </r>
       <r>    0.8430    1.0000 </r>
       <r>    0.8787    1.0000 </r>
       <r>    0.9634    1.0000 </r>
       <r>    0.9758    1.0000 </r>
       <r>    0.9884    1.0000 </r>
       <r>    1.0177    1.0000 </r>
       <r>    1.0503    1.0000 </r>
       <r>    1.1147    1.0000 </r>
       <r>    1.1703    1.0000 </r>
       <r>    1.2364    1.0000 </r>
       <r>    1.2743    1.0000 </r>
       <r>    1.3062    1.0000 </r>
       <r>    1.3361    1.0000 </r>
       <r>    1.4020    1.0000 </r>
       <r>    1.4367    1.0000 </r>
       <r>    1.4914    1.0000 </r>
       <r>    1.5045    1.0000 </r>
       <r>    1.5436    1.0000 </r>
       <r>    1.5813    1.0000 </r>
       <r>    1.6596    1.0000 </r>
       <r>    1.6812    1.0000 </r>
       <r>    1.7046    1.0000 </r>
       <r>    1.8298    1.0000 </r>
       <r>    1.8365    1.0000 </r>
       <r>    1.8810    1.0000 </r>
       <r>    1.9040    1.0000 </r>
       <r>    1.9225    1.0000 </r>
       <r>    2.0221    1.0000 </r>
       <r>    2.1064    1.0000 </r>
       <r>    2.1471    1.0000 </r>
       <r>    2.1685    1.0000 </r>
       <r>    2.2695    1.0000 </r>
       <r>    2.3282    1.0000 </r>
       <r>    2.3931    1.0000 </r>
       <r>    2.5315    1.0000 </r>
       <r>    2.5796    1.0000 </r>
       <r>    2.5831    1.0000 </r>
       <r>    2.5918    1.0000 </r>
       <r>    2.5964    1.0000 </r>
       <r>    2.6076    1.0000 </r>
       <r>    2.6282    1.0000 </r>
       <r>    2.6524    1.0000 </r>
       <r>    2.6865    1.0000 </r>
       <r>    2.6958    1.0000 </r>
       <r>    2.7288    1.0000 </r>
       <r>    2.7740    1.0000 </r>
       <r>    2.7924    1.0000 </r>
       <r>    2.8255    1.0000 </r>
       <r>    2.8703    1.0000 </r>
       <r>    2.9066    1.0000 </r>
       <r>    2.9204    1.0000 </r>
       <r>    2.9315    1.0000 </r>
       <r>    2.9654    1.0000 </r>
       <r>    2.9717    1.0000 </r>
       <r>    3.0768    1.0000 </r>
       <r>    3.1097    1.0000 </r>
       <r>    3.1370    1.0000 </r>
       <r>    3.1471    1.0000 </r>
       <r>    3.1591    1.0000 </r>
       <r>    3.1813    1.0000 </r>
       <r>    3.1869    1.0000 </r>
       <r>    3.2314    1.0000 </r>
       <r>    3.2525    1.0000 </r>
       <r>    3.3272    1.0000 </r>
       <r>    3.4349    1.0000 </r>
       <r>    3.4423    1.0000 </r>
       <r>    3.5126    1.0000 </r>
       <r>    3.5407    1.0000 </r>
       <r>    4.1994    1.0000 </r>
       <r>    4.2054    1.0000 </r>
       <r>    4.2218    1.0000 </r>
       <r>    4.2343    1.0000 </r>
       <r>    5.0922    0.0000 </r>
       <r>    5.1000    0.0000 </r>
       <r>    5.1315    0.0000 </r>
       <r>    5.1464    0.0000 </r>
       <r>    5.7635    0.0000 </r>
       <r>    5.7680    0.0000 </r>
       <r>    5.8048    0.0000 </r>
       <r>    5.8093    0.0000 </r>
       <r>    6.1102    0.0000 </r>
       <r>    6.1232    0.0000 </r>
       <r>    6.1337    0.0000 </r>
       <r>    6.1599    0.0000 </r>
       <r>    6.2404    0.0000 </r>
       <r>    6.2503    0.0000 </r>
       <r>    6.2728    0.0000 </r>
       <r>    6.2783    0.0000 </r>
       <r>    7.1463    0.0000 </r>
       <r>    7.1711    0.0000 </r>
       <r>    7.2730    0.0000 </r>
       <r>    7.2997    0.0000 </r>
       <r>    7.8102    0.0000 </r>
       <r>    7.8767    0.0000 </r>
       <r>    7.9300    0.0000 </r>
       <r>    7.9552    0.0000 </r>
       <r>    7.9984    0.0000 </r>
       <r>    8.0616    0.0000 </r>
       <r>    8.1432    0.0000 </r>
       <r>    8.1947    0.0000 </r>
       <r>    8.4575    0.0000 </r>
       <r>    8.5449    0.0000 </r>
       <r>    8.6821    0.0000 </r>
       <r>    8.7811    0.0000 </r>
       <r>    8.7959    0.0000 </r>
       <r>    8.8991    0.0000 </r>
       <r>    8.9392    0.0000 </r>
       <r>    8.9789    0.0000 </r>
       <r>    9.0181    0.0000 </r>
       <r>    9.0712    0.0000 </r>
       <r>    9.0936    0.0000 </r>
       <r>    9.1239    0.0000 </r>
       <r>    9.1285    0.0000 </r>
       <r>    9.1941    0.0000 </r>
       <r>    9.2146    0.0000 </r>
       <r>    9.2611    0.0000 </r>
       <r>    9.4411    0.0000 </r>
       <r>    9.5984    0.0000 </r>
      </set>
      <set comment="kpoint 2">
       <r>  -40.2614    1.0000 </r>
       <r>  -40.0249    1.0000 </r>
       <r>  -40.0121    1.0000 </r>
       <r>  -39.8857    1.0000 </r>
       <r>  -39.8457    1.0000 </r>
       <r>  -39.7561    1.0000 </r>
       <r>  -39.5595    1.0000 </r>
       <r>  -39.5560    1.0000 </r>
       <r>  -39.4490    1.0000 </r>
       <r>  -39.4016    1.0000 </r>
       <r>  -18.9254    1.0000 </r>
       <r>  -18.9213    1.0000 </r>
       <r>  -18.8547    1.0000 </r>
       <r>  -18.8509    1.0000 </r>
       <r>  -18.8478    1.0000 </r>
       <r>  -18.8438    1.0000 </r>
       <r>  -18.7519    1.0000 </r>
       <r>  -18.7507    1.0000 </r>
       <r>  -18.7383    1.0000 </r>
       <r>  -18.7298    1.0000 </r>
       <r>  -18.7120    1.0000 </r>
       <r>  -18.7112    1.0000 </r>
       <r>  -18.7020    1.0000 </r>
       <r>  -18.7015    1.0000 </r>
       <r>  -18.6950    1.0000 </r>
       <r>  -18.6927    1.0000 </r>
       <r>  -18.6514    1.0000 </r>
       <r>  -18.6458    1.0000 </r>
       <r>  -18.6437    1.0000 </r>
       <r>  -18.6411    1.0000 </r>
       <r>  -18.6402    1.0000 </r>
       <r>  -18.6395    1.0000 </r>
       <r>  -18.6389    1.0000 </r>
       <r>  -18.6380    1.0000 </r>
       <r>  -18.6369    1.0000 </r>
       <r>  -18.6366    1.0000 </r>
       <r>  -18.6351    1.0000 </r>
       <r>  -18.6345    1.0000 </r>
       <r>  -18.6319    1.0000 </r>
       <r>  -18.6316    1.0000 </r>
       <r>  -18.6303    1.0000 </r>
       <r>  -18.6285    1.0000 </r>
       <r>  -18.6282    1.0000 </r>
       <r>  -18.6272    1.0000 </r>
       <r>  -18.6257    1.0000 </r>
       <r>  -18.6233    1.0000 </r>
       <r>  -18.6225    1.0000 </r>
       <r>  -18.6210    1.0000 </r>
       <r>  -18.6196    1.0000 </r>
       <r>  -18.6178    1.0000 </r>
       <r>  -18.5674    1.0000 </r>
       <r>  -18.5632    1.0000 </r>
       <r>  -18.5554    1.0000 </r>
       <r>  -18.5535    1.0000 </r>
       <r>  -18.5501    1.0000 </r>
       <r>  -18.5498    1.0000 </r>
       <r>  -18.5470    1.0000 </r>
       <r>  -18.5401    1.0000 </r>
       <r>  -18.5398    1.0000 </r>
       <r>  -18.5381    1.0000 </r>
       <r>  -18.4904    1.0000 </r>
       <r>  -18.4891    1.0000 </r>
       <r>  -18.4871    1.0000 </r>
       <r>  -18.4846    1.0000 </r>
       <r>  -18.4827    1.0000 </r>
       <r>  -18.4825    1.0000 </r>
       <r>  -18.4806    1.0000 </r>
       <r>  -18.4789    1.0000 </r>
       <r>  -18.4751    1.0000 </r>
       <r>  -18.4742    1.0000 </r>
       <r>  -18.4739    1.0000 </r>
       <r>  -18.4733    1.0000 </r>
       <r>  -18.4726    1.0000 </r>
       <r>  -18.4702    1.0000 </r>
       <r>  -18.4690    1.0000 </r>
       <r>  -18.4681    1.0000 </r>
       <r>  -18.4083    1.0000 </r>
       <r>  -18.4057    1.0000 </r>
       <r>  -18.3971    1.0000 </r>
       <r>  -18.3905    1.0000 </r>
       <r>  -18.3882    1.0000 </r>
       <r>  -18.3874    1.0000 </r>
       <r>  -18.3775    1.0000 </r>
       <r>  -18.3744    1.0000 </r>
       <r>  -18.2984    1.0000 </r>
       <r>  -18.2943    1.0000 </r>
       <r>  -18.1832    1.0000 </r>
       <r>  -18.1792    1.0000 </r>
       <r>  -18.1699    1.0000 </r>
       <r>  -18.1663    1.0000 </r>
       <r>  -13.5646    1.0000 </r>
       <r>  -13.4575    1.0000 </r>
       <r>  -12.8717    1.0000 </r>
       <r>  -12.8438    1.0000 </r>
       <r>  -12.7680    1.0000 </r>
       <r>  -12.7542    1.0000 </r>
       <r>  -12.7285    1.0000 </r>
       <r>  -12.6981    1.0000 </r>
       <r>  -12.6776    1.0000 </r>
       <r>  -12.6623    1.0000 </r>
       <r>  -12.6493    1.0000 </r>
       <r>  -12.6247    1.0000 </r>
       <r>  -12.6096    1.0000 </r>
       <r>  -12.5620    1.0000 </r>
       <r>  -11.9590    1.0000 </r>
       <r>  -11.8952    1.0000 </r>
       <r>   -9.1766    1.0000 </r>
       <r>   -9.0183    1.0000 </r>
       <r>   -8.9016    1.0000 </r>
       <r>   -8.7403    1.0000 </r>
       <r>   -8.3919    1.0000 </r>
       <r>   -8.3889    1.0000 </r>
       <r>   -8.2563    1.0000 </r>
       <r>   -8.2481    1.0000 </r>
       <r>   -8.1893    1.0000 </r>
       <r>   -8.1874    1.0000 </r>
       <r>   -8.0532    1.0000 </r>
       <r>   -8.0468    1.0000 </r>
       <r>   -7.7441    1.0000 </r>
       <r>   -7.6318    1.0000 </r>
       <r>   -7.6265    1.0000 </r>
       <r>   -7.5133    1.0000 </r>
       <r>   -6.0124    1.0000 </r>
       <r>   -6.0090    1.0000 </r>
       <r>   -5.8345    1.0000 </r>
       <r>   -5.8296    1.0000 </r>
       <r>   -5.7976    1.0000 </r>
       <r>   -5.7914    1.0000 </r>
       <r>   -5.7310    1.0000 </r>
       <r>   -5.6623    1.0000 </r>
       <r>   -5.6448    1.0000 </r>
       <r>   -5.6438    1.0000 </r>
       <r>   -5.5251    1.0000 </r>
       <r>   -5.4506    1.0000 </r>
       <r>   -4.5007    1.0000 </r>
       <r>   -4.3397    1.0000 </r>
       <r>   -4.3375    1.0000 </r>
       <r>   -4.1661    1.0000 </r>
       <r>   -1.2346    1.0000 </r>
       <r>   -1.0271    1.0000 </r>
       <r>   -0.8887    1.0000 </r>
       <r>   -0.7100    1.0000 </r>
       <r>   -0.4449    1.0000 </r>
       <r>   -0.2477    1.0000 </r>
       <r>   -0.0450    1.0000 </r>
       <r>    0.0097    1.0000 </r>
       <r>    0.0843    1.0000 </r>
       <r>    0.1331    1.0000 </r>
       <r>    0.1565    1.0000 </r>
       <r>    0.2059    1.0000 </r>
       <r>    0.2396    1.0000 </r>
       <r>    0.2895    1.0000 </r>
       <r>    0.3750    1.0000 </r>
       <r>    0.4046    1.0000 </r>
       <r>    0.4561    1.0000 </r>
       <r>    0.4764    1.0000 </r>
       <r>    0.5279    1.0000 </r>
       <r>    0.5758    1.0000 </r>
       <r>    0.5916    1.0000 </r>
       <r>    0.6249    1.0000 </r>
       <r>    0.6509    1.0000 </r>
       <r>    0.7132    1.0000 </r>
       <r>    0.7177    1.0000 </r>
       <r>    0.8399    1.0000 </r>
       <r>    0.9353    1.0000 </r>
       <r>    1.0270    1.0000 </r>
       <r>    1.0545    1.0000 </r>
       <r>    1.0891    1.0000 </r>
       <r>    1.1151    1.0000 </r>
       <r>    1.1291    1.0000 </r>
       <r>    1.1847    1.0000 </r>
       <r>    1.1959    1.0000 </r>
       <r>    1.2345    1.0000 </r>
       <r>    1.2765    1.0000 </r>
       <r>    1.3392    1.0000 </r>
       <r>    1.3680    1.0000 </r>
       <r>    1.4293    1.0000 </r>
       <r>    1.4700    1.0000 </r>
       <r>    1.4821    1.0000 </r>
       <r>    1.5414    1.0000 </r>
       <r>    1.5963    1.0000 </r>
       <r>    1.6075    1.0000 </r>
       <r>    1.6440    1.0000 </r>
       <r>    1.6518    1.0000 </r>
       <r>    1.7295    1.0000 </r>
       <r>    1.7920    1.0000 </r>
       <r>    1.8253    1.0000 </r>
       <r>    1.8741    1.0000 </r>
       <r>    1.8879    1.0000 </r>
       <r>    1.9299    1.0000 </r>
       <r>    1.9724    1.0000 </r>
       <r>    1.9996    1.0000 </r>
       <r>    2.0586    1.0000 </r>
       <r>    2.0755    1.0000 </r>
       <r>    2.1499    1.0000 </r>
       <r>    2.1874    1.0000 </r>
       <r>    2.2039    1.0000 </r>
       <r>    2.2595    1.0000 </r>
       <r>    2.3094    1.0000 </r>
       <r>    2.3767    1.0000 </r>
       <r>    2.4164    1.0000 </r>
       <r>    2.4703    1.0000 </r>
       <r>    2.4890    1.0000 </r>
       <r>    2.5148    1.0000 </r>
       <r>    2.5434    1.0000 </r>
       <r>    2.5784    1.0000 </r>
       <r>    2.6147    1.0000 </r>
       <r>    2.6478    1.0000 </r>
       <r>    2.7066    1.0000 </r>
       <r>    2.7498    1.0000 </r>
       <r>    2.7673    1.0000 </r>
       <r>    2.8101    1.0000 </r>
       <r>    2.8368    1.0000 </r>
       <r>    2.8709    1.0000 </r>
       <r>    2.9008    1.0000 </r>
       <r>    2.9299    1.0000 </r>
       <r>    2.9590    1.0000 </r>
       <r>    2.9698    1.0000 </r>
       <r>    3.0101    1.0000 </r>
       <r>    3.0747    1.0000 </r>
       <r>    3.1051    1.0000 </r>
       <r>    3.1307    1.0000 </r>
       <r>    3.1686    1.0000 </r>
       <r>    3.2790    1.0000 </r>
       <r>    3.2983    1.0000 </r>
       <r>    3.3583    1.0000 </r>
       <r>    3.4424    1.0000 </r>
       <r>    3.4688    1.0000 </r>
       <r>    3.5323    1.0000 </r>
       <r>    3.5575    1.0000 </r>
       <r>    3.5826    1.0000 </r>
       <r>    3.6139    1.0000 </r>
       <r>    3.6795    1.0000 </r>
       <r>    3.7151    1.0000 </r>
       <r>    5.5657    0.0000 </r>
       <r>    5.5739    0.0000 </r>
       <r>    5.7194    0.0000 </r>
       <r>    5.7290    0.0000 </r>
       <r>    5.7518    0.0000 </r>
       <r>    5.7596    0.0000 </r>
       <r>    5.9068    0.0000 </r>
       <r>    5.9170    0.0000 </r>
       <r>    7.2147    0.0000 </r>
       <r>    7.2333    0.0000 </r>
       <r>    7.2699    0.0000 </r>
       <r>    7.3556    0.0000 </r>
       <r>    7.4082    0.0000 </r>
       <r>    7.4349    0.0000 </r>
       <r>    7.4469    0.0000 </r>
       <r>    7.4890    0.0000 </r>
       <r>    7.5056    0.0000 </r>
       <r>    7.5180    0.0000 </r>
       <r>    7.5930    0.0000 </r>
       <r>    7.6000    0.0000 </r>
       <r>    7.8112    0.0000 </r>
       <r>    7.8181    0.0000 </r>
       <r>    7.8565    0.0000 </r>
       <r>    7.8734    0.0000 </r>
       <r>    7.9029    0.0000 </r>
       <r>    7.9061    0.0000 </r>
       <r>    7.9663    0.0000 </r>
       <r>    7.9757    0.0000 </r>
       <r>    7.9999    0.0000 </r>
       <r>    8.0300    0.0000 </r>
       <r>    8.0654    0.0000 </r>
       <r>    8.1149    0.0000 </r>
       <r>    8.2455    0.0000 </r>
       <r>    8.3086    0.0000 </r>
       <r>    8.4447    0.0000 </r>
       <r>    8.6268    0.0000 </r>
       <r>    8.6638    0.0000 </r>
       <r>    8.6926    0.0000 </r>
       <r>    8.7493    0.0000 </r>
       <r>    8.7627    0.0000 </r>
       <r>    8.7768    0.0000 </r>
       <r>    8.8807    0.0000 </r>
       <r>    8.9350    0.0000 </r>
       <r>    8.9412    0.0000 </r>
       <r>    9.1014    0.0000 </r>
       <r>    9.2929    0.0000 </r>
      </set>
      <set comment="kpoint 3">
       <r>  -40.2614    1.0000 </r>
       <r>  -40.0249    1.0000 </r>
       <r>  -40.0121    1.0000 </r>
       <r>  -39.8857    1.0000 </r>
       <r>  -39.8457    1.0000 </r>
       <r>  -39.7561    1.0000 </r>
       <r>  -39.5595    1.0000 </r>
       <r>  -39.5560    1.0000 </r>
       <r>  -39.4490    1.0000 </r>
       <r>  -39.4016    1.0000 </r>
       <r>  -18.9255    1.0000 </r>
       <r>  -18.9211    1.0000 </r>
       <r>  -18.8547    1.0000 </r>
       <r>  -18.8509    1.0000 </r>
       <r>  -18.8478    1.0000 </r>
       <r>  -18.8438    1.0000 </r>
       <r>  -18.7518    1.0000 </r>
       <r>  -18.7508    1.0000 </r>
       <r>  -18.7383    1.0000 </r>
       <r>  -18.7298    1.0000 </r>
       <r>  -18.7122    1.0000 </r>
       <r>  -18.7114    1.0000 </r>
       <r>  -18.7021    1.0000 </r>
       <r>  -18.7016    1.0000 </r>
       <r>  -18.6951    1.0000 </r>
       <r>  -18.6929    1.0000 </r>
       <r>  -18.6505    1.0000 </r>
       <r>  -18.6439    1.0000 </r>
       <r>  -18.6436    1.0000 </r>
       <r>  -18.6422    1.0000 </r>
       <r>  -18.6407    1.0000 </r>
       <r>  -18.6400    1.0000 </r>
       <r>  -18.6390    1.0000 </r>
       <r>  -18.6387    1.0000 </r>
       <r>  -18.6372    1.0000 </r>
       <r>  -18.6350    1.0000 </r>
       <r>  -18.6329    1.0000 </r>
       <r>  -18.6325    1.0000 </r>
       <r>  -18.6321    1.0000 </r>
       <r>  -18.6311    1.0000 </r>
       <r>  -18.6305    1.0000 </r>
       <r>  -18.6301    1.0000 </r>
       <r>  -18.6284    1.0000 </r>
       <r>  -18.6280    1.0000 </r>
       <r>  -18.6277    1.0000 </r>
       <r>  -18.6233    1.0000 </r>
       <r>  -18.6225    1.0000 </r>
       <r>  -18.6209    1.0000 </r>
       <r>  -18.6197    1.0000 </r>
       <r>  -18.6179    1.0000 </r>
       <r>  -18.5674    1.0000 </r>
       <r>  -18.5632    1.0000 </r>
       <r>  -18.5554    1.0000 </r>
       <r>  -18.5534    1.0000 </r>
       <r>  -18.5501    1.0000 </r>
       <r>  -18.5497    1.0000 </r>
       <r>  -18.5470    1.0000 </r>
       <r>  -18.5401    1.0000 </r>
       <r>  -18.5397    1.0000 </r>
       <r>  -18.5381    1.0000 </r>
       <r>  -18.4904    1.0000 </r>
       <r>  -18.4891    1.0000 </r>
       <r>  -18.4871    1.0000 </r>
       <r>  -18.4846    1.0000 </r>
       <r>  -18.4827    1.0000 </r>
       <r>  -18.4825    1.0000 </r>
       <r>  -18.4806    1.0000 </r>
       <r>  -18.4789    1.0000 </r>
       <r>  -18.4750    1.0000 </r>
       <r>  -18.4742    1.0000 </r>
       <r>  -18.4739    1.0000 </r>
       <r>  -18.4733    1.0000 </r>
       <r>  -18.4726    1.0000 </r>
       <r>  -18.4702    1.0000 </r>
       <r>  -18.4690    1.0000 </r>
       <r>  -18.4681    1.0000 </r>
       <r>  -18.4083    1.0000 </r>
       <r>  -18.4057    1.0000 </r>
       <r>  -18.3971    1.0000 </r>
       <r>  -18.3905    1.0000 </r>
       <r>  -18.3883    1.0000 </r>
       <r>  -18.3874    1.0000 </r>
       <r>  -18.3775    1.0000 </r>
       <r>  -18.3744    1.0000 </r>
       <r>  -18.2984    1.0000 </r>
       <r>  -18.2942    1.0000 </r>
       <r>  -18.1832    1.0000 </r>
       <r>  -18.1792    1.0000 </r>
       <r>  -18.1699    1.0000 </r>
       <r>  -18.1663    1.0000 </r>
       <r>  -13.5645    1.0000 </r>
       <r>  -13.4577    1.0000 </r>
       <r>  -12.8896    1.0000 </r>
       <r>  -12.8119    1.0000 </r>
       <r>  -12.7607    1.0000 </r>
       <r>  -12.7544    1.0000 </r>
       <r>  -12.7483    1.0000 </r>
       <r>  -12.6883    1.0000 </r>
       <r>  -12.6837    1.0000 </r>
       <r>  -12.6686    1.0000 </r>
       <r>  -12.6527    1.0000 </r>
       <r>  -12.6223    1.0000 </r>
       <r>  -12.6071    1.0000 </r>
       <r>  -12.5631    1.0000 </r>
       <r>  -11.9581    1.0000 </r>
       <r>  -11.8968    1.0000 </r>
       <r>   -9.3107    1.0000 </r>
       <r>   -9.0326    1.0000 </r>
       <r>   -8.5475    1.0000 </r>
       <r>   -8.5109    1.0000 </r>
       <r>   -8.4961    1.0000 </r>
       <r>   -8.4521    1.0000 </r>
       <r>   -8.2870    1.0000 </r>
       <r>   -8.2521    1.0000 </r>
       <r>   -8.2311    1.0000 </r>
       <r>   -8.1922    1.0000 </r>
       <r>   -8.0257    1.0000 </r>
       <r>   -8.0226    1.0000 </r>
       <r>   -7.9886    1.0000 </r>
       <r>   -7.9873    1.0000 </r>
       <r>   -7.3519    1.0000 </r>
       <r>   -7.3506    1.0000 </r>
       <r>   -6.3543    1.0000 </r>
       <r>   -6.3488    1.0000 </r>
       <r>   -6.3317    1.0000 </r>
       <r>   -6.3237    1.0000 </r>
       <r>   -5.5379    1.0000 </r>
       <r>   -5.4719    1.0000 </r>
       <r>   -5.3916    1.0000 </r>
       <r>   -5.3842    1.0000 </r>
       <r>   -5.3722    1.0000 </r>
       <r>   -5.2631    1.0000 </r>
       <r>   -5.1453    1.0000 </r>
       <r>   -5.1097    1.0000 </r>
       <r>   -5.0769    1.0000 </r>
       <r>   -4.9991    1.0000 </r>
       <r>   -3.8738    1.0000 </r>
       <r>   -3.5629    1.0000 </r>
       <r>   -1.3279    1.0000 </r>
       <r>   -1.2880    1.0000 </r>
       <r>   -1.1841    1.0000 </r>
       <r>   -1.0878    1.0000 </r>
       <r>   -0.4270    1.0000 </r>
       <r>   -0.4124    1.0000 </r>
       <r>   -0.3944    1.0000 </r>
       <r>   -0.3778    1.0000 </r>
       <r>   -0.3486    1.0000 </r>
       <r>   -0.3109    1.0000 </r>
       <r>   -0.2711    1.0000 </r>
       <r>   -0.2193    1.0000 </r>
       <r>   -0.1000    1.0000 </r>
       <r>   -0.0221    1.0000 </r>
       <r>    0.1608    1.0000 </r>
       <r>    0.2489    1.0000 </r>
       <r>    0.2717    1.0000 </r>
       <r>    0.3065    1.0000 </r>
       <r>    0.4087    1.0000 </r>
       <r>    0.4358    1.0000 </r>
       <r>    0.5364    1.0000 </r>
       <r>    0.6233    1.0000 </r>
       <r>    0.7277    1.0000 </r>
       <r>    0.7605    1.0000 </r>
       <r>    0.7736    1.0000 </r>
       <r>    0.8209    1.0000 </r>
       <r>    0.8216    1.0000 </r>
       <r>    0.8975    1.0000 </r>
       <r>    1.0072    1.0000 </r>
       <r>    1.1042    1.0000 </r>
       <r>    1.1401    1.0000 </r>
       <r>    1.2080    1.0000 </r>
       <r>    1.2755    1.0000 </r>
       <r>    1.3297    1.0000 </r>
       <r>    1.4056    1.0000 </r>
       <r>    1.5033    1.0000 </r>
       <r>    1.5301    1.0000 </r>
       <r>    1.6014    1.0000 </r>
       <r>    1.6279    1.0000 </r>
       <r>    1.6454    1.0000 </r>
       <r>    1.6855    1.0000 </r>
       <r>    1.7371    1.0000 </r>
       <r>    1.7763    1.0000 </r>
       <r>    1.7943    1.0000 </r>
       <r>    1.8000    1.0000 </r>
       <r>    1.8141    1.0000 </r>
       <r>    1.8824    1.0000 </r>
       <r>    1.9277    1.0000 </r>
       <r>    1.9476    1.0000 </r>
       <r>    1.9890    1.0000 </r>
       <r>    2.0323    1.0000 </r>
       <r>    2.1047    1.0000 </r>
       <r>    2.1459    1.0000 </r>
       <r>    2.1746    1.0000 </r>
       <r>    2.2405    1.0000 </r>
       <r>    2.3211    1.0000 </r>
       <r>    2.4598    1.0000 </r>
       <r>    2.5095    1.0000 </r>
       <r>    2.5217    1.0000 </r>
       <r>    2.5394    1.0000 </r>
       <r>    2.5640    1.0000 </r>
       <r>    2.5815    1.0000 </r>
       <r>    2.5867    1.0000 </r>
       <r>    2.5900    1.0000 </r>
       <r>    2.5940    1.0000 </r>
       <r>    2.6206    1.0000 </r>
       <r>    2.6435    1.0000 </r>
       <r>    2.6756    1.0000 </r>
       <r>    2.7496    1.0000 </r>
       <r>    2.7552    1.0000 </r>
       <r>    2.7993    1.0000 </r>
       <r>    2.8140    1.0000 </r>
       <r>    2.8382    1.0000 </r>
       <r>    2.8581    1.0000 </r>
       <r>    2.8819    1.0000 </r>
       <r>    2.9225    1.0000 </r>
       <r>    2.9594    1.0000 </r>
       <r>    2.9706    1.0000 </r>
       <r>    3.0011    1.0000 </r>
       <r>    3.0266    1.0000 </r>
       <r>    3.0731    1.0000 </r>
       <r>    3.0972    1.0000 </r>
       <r>    3.1330    1.0000 </r>
       <r>    3.2928    1.0000 </r>
       <r>    3.3334    1.0000 </r>
       <r>    3.3780    1.0000 </r>
       <r>    3.4111    1.0000 </r>
       <r>    3.4278    1.0000 </r>
       <r>    3.4727    1.0000 </r>
       <r>    3.4979    1.0000 </r>
       <r>    3.5215    1.0000 </r>
       <r>    3.5790    1.0000 </r>
       <r>    4.2479    1.0000 </r>
       <r>    4.2531    1.0000 </r>
       <r>    4.2749    1.0000 </r>
       <r>    4.2841    1.0000 </r>
       <r>    5.1646    0.0000 </r>
       <r>    5.1667    0.0000 </r>
       <r>    5.2043    0.0000 </r>
       <r>    5.2048    0.0000 </r>
       <r>    5.7704    0.0000 </r>
       <r>    5.7788    0.0000 </r>
       <r>    5.8121    0.0000 </r>
       <r>    5.8166    0.0000 </r>
       <r>    6.1647    0.0000 </r>
       <r>    6.1793    0.0000 </r>
       <r>    6.1919    0.0000 </r>
       <r>    6.2010    0.0000 </r>
       <r>    6.2544    0.0000 </r>
       <r>    6.2596    0.0000 </r>
       <r>    6.2812    0.0000 </r>
       <r>    6.2967    0.0000 </r>
       <r>    6.7870    0.0000 </r>
       <r>    6.8812    0.0000 </r>
       <r>    6.9868    0.0000 </r>
       <r>    7.0700    0.0000 </r>
       <r>    7.2390    0.0000 </r>
       <r>    7.4032    0.0000 </r>
       <r>    7.4467    0.0000 </r>
       <r>    7.5282    0.0000 </r>
       <r>    7.7519    0.0000 </r>
       <r>    7.8421    0.0000 </r>
       <r>    7.9393    0.0000 </r>
       <r>    7.9663    0.0000 </r>
       <r>    8.0316    0.0000 </r>
       <r>    8.3098    0.0000 </r>
       <r>    8.3432    0.0000 </r>
       <r>    8.4773    0.0000 </r>
       <r>    8.7146    0.0000 </r>
       <r>    8.7679    0.0000 </r>
       <r>    8.9500    0.0000 </r>
       <r>    8.9527    0.0000 </r>
       <r>    9.0184    0.0000 </r>
       <r>    9.0419    0.0000 </r>
       <r>    9.0492    0.0000 </r>
       <r>    9.1154    0.0000 </r>
       <r>    9.1411    0.0000 </r>
       <r>    9.1492    0.0000 </r>
       <r>    9.1752    0.0000 </r>
       <r>    9.2082    0.0000 </r>
       <r>    9.5000    0.0000 </r>
       <r>    9.5765    0.0000 </r>
      </set>
      <set comment="kpoint 4">
       <r>  -40.2614    1.0000 </r>
       <r>  -40.0249    1.0000 </r>
       <r>  -40.0121    1.0000 </r>
       <r>  -39.8857    1.0000 </r>
       <r>  -39.8457    1.0000 </r>
       <r>  -39.7561    1.0000 </r>
       <r>  -39.5595    1.0000 </r>
       <r>  -39.5560    1.0000 </r>
       <r>  -39.4490    1.0000 </r>
       <r>  -39.4016    1.0000 </r>
       <r>  -18.9255    1.0000 </r>
       <r>  -18.9211    1.0000 </r>
       <r>  -18.8547    1.0000 </r>
       <r>  -18.8509    1.0000 </r>
       <r>  -18.8478    1.0000 </r>
       <r>  -18.8438    1.0000 </r>
       <r>  -18.7518    1.0000 </r>
       <r>  -18.7508    1.0000 </r>
       <r>  -18.7383    1.0000 </r>
       <r>  -18.7298    1.0000 </r>
       <r>  -18.7120    1.0000 </r>
       <r>  -18.7112    1.0000 </r>
       <r>  -18.7020    1.0000 </r>
       <r>  -18.7015    1.0000 </r>
       <r>  -18.6950    1.0000 </r>
       <r>  -18.6928    1.0000 </r>
       <r>  -18.6514    1.0000 </r>
       <r>  -18.6458    1.0000 </r>
       <r>  -18.6437    1.0000 </r>
       <r>  -18.6411    1.0000 </r>
       <r>  -18.6402    1.0000 </r>
       <r>  -18.6395    1.0000 </r>
       <r>  -18.6389    1.0000 </r>
       <r>  -18.6380    1.0000 </r>
       <r>  -18.6369    1.0000 </r>
       <r>  -18.6366    1.0000 </r>
       <r>  -18.6351    1.0000 </r>
       <r>  -18.6345    1.0000 </r>
       <r>  -18.6319    1.0000 </r>
       <r>  -18.6316    1.0000 </r>
       <r>  -18.6304    1.0000 </r>
       <r>  -18.6285    1.0000 </r>
       <r>  -18.6282    1.0000 </r>
       <r>  -18.6272    1.0000 </r>
       <r>  -18.6257    1.0000 </r>
       <r>  -18.6233    1.0000 </r>
       <r>  -18.6225    1.0000 </r>
       <r>  -18.6210    1.0000 </r>
       <r>  -18.6196    1.0000 </r>
       <r>  -18.6177    1.0000 </r>
       <r>  -18.5674    1.0000 </r>
       <r>  -18.5632    1.0000 </r>
       <r>  -18.5554    1.0000 </r>
       <r>  -18.5535    1.0000 </r>
       <r>  -18.5501    1.0000 </r>
       <r>  -18.5498    1.0000 </r>
       <r>  -18.5470    1.0000 </r>
       <r>  -18.5401    1.0000 </r>
       <r>  -18.5397    1.0000 </r>
       <r>  -18.5381    1.0000 </r>
       <r>  -18.4904    1.0000 </r>
       <r>  -18.4891    1.0000 </r>
       <r>  -18.4871    1.0000 </r>
       <r>  -18.4846    1.0000 </r>
       <r>  -18.4827    1.0000 </r>
       <r>  -18.4825    1.0000 </r>
       <r>  -18.4806    1.0000 </r>
       <r>  -18.4789    1.0000 </r>
       <r>  -18.4750    1.0000 </r>
       <r>  -18.4742    1.0000 </r>
[...]
       <r>    8.8759    0.0000 </r>
       <r>    8.8904    0.0000 </r>
       <r>    8.9007    0.0000 </r>
       <r>    8.9105    0.0000 </r>
       <r>    8.9297    0.0000 </r>
      </set>
     </set>
    </set>
   </array>
  </eigenvalues>
  <separator name="orbital magnetization" >
   <v name="MAGDIPOLOUT">      0.00000000      0.00000000      0.00000000</v>
  </separator>
  <dos>
   <i name="efermi">      4.43581593 </i>
   <total>
    <array>
     <dimension dim="1">gridpoints</dimension>
     <dimension dim="2">spin</dimension>
     <field>energy</field>
     <field>total</field>
     <field>integrated</field>
     <set>
      <set comment="spin 1">
       <r>   -42.7544     0.0000     0.0000 </r>
       <r>   -42.5716     0.0000     0.0000 </r>
       <r>   -42.3888     0.0000     0.0000 </r>
       <r>   -42.2060     0.0000     0.0000 </r>
       <r>   -42.0232     0.0000     0.0000 </r>
       <r>   -41.8403     0.0000     0.0000 </r>
       <r>   -41.6575     0.0000     0.0000 </r>
       <r>   -41.4747     0.0000     0.0000 </r>
       <r>   -41.2919     0.0000     0.0000 </r>
       <r>   -41.1091     0.0000     0.0000 </r>
       <r>   -40.9262     0.0000     0.0000 </r>
       <r>   -40.7434     0.0000     0.0000 </r>
       <r>   -40.5606     0.0000     0.0000 </r>
       <r>   -40.3778     0.0000     0.0000 </r>
       <r>   -40.1950     0.0000     2.0000 </r>
       <r>   -40.0121     0.0000     4.0000 </r>
       <r>   -39.8293     0.0000    10.0000 </r>
       <r>   -39.6465     0.0000    12.0000 </r>
       <r>   -39.4637     0.0000    16.0000 </r>
       <r>   -39.2809     0.0000    20.0000 </r>
       <r>   -39.0980     0.0000    20.0000 </r>
       <r>   -38.9152     0.0000    20.0000 </r>
       <r>   -38.7324     0.0000    20.0000 </r>
       <r>   -38.5496     0.0000    20.0000 </r>
       <r>   -38.3668     0.0000    20.0000 </r>
       <r>   -38.1839     0.0000    20.0000 </r>
       <r>   -38.0011     0.0000    20.0000 </r>
       <r>   -37.8183     0.0000    20.0000 </r>
       <r>   -37.6355     0.0000    20.0000 </r>
       <r>   -37.4527     0.0000    20.0000 </r>
       <r>   -37.2698     0.0000    20.0000 </r>
       <r>   -37.0870     0.0000    20.0000 </r>
       <r>   -36.9042     0.0000    20.0000 </r>
       <r>   -36.7214     0.0000    20.0000 </r>
       <r>   -36.5386     0.0000    20.0000 </r>
       <r>   -36.3558     0.0000    20.0000 </r>
       <r>   -36.1729     0.0000    20.0000 </r>
       <r>   -35.9901     0.0000    20.0000 </r>
       <r>   -35.8073     0.0000    20.0000 </r>
       <r>   -35.6245     0.0000    20.0000 </r>
       <r>   -35.4417     0.0000    20.0000 </r>
       <r>   -35.2588     0.0000    20.0000 </r>
       <r>   -35.0760     0.0000    20.0000 </r>
       <r>   -34.8932     0.0000    20.0000 </r>
       <r>   -34.7104     0.0000    20.0000 </r>
       <r>   -34.5276     0.0000    20.0000 </r>
       <r>   -34.3447     0.0000    20.0000 </r>
       <r>   -34.1619     0.0000    20.0000 </r>
       <r>   -33.9791     0.0000    20.0000 </r>
       <r>   -33.7963     0.0000    20.0000 </r>
       <r>   -33.6135     0.0000    20.0000 </r>
       <r>   -33.4306     0.0000    20.0000 </r>
       <r>   -33.2478     0.0000    20.0000 </r>
       <r>   -33.0650     0.0000    20.0000 </r>
       <r>   -32.8822     0.0000    20.0000 </r>
       <r>   -32.6994     0.0000    20.0000 </r>
       <r>   -32.5165     0.0000    20.0000 </r>
       <r>   -32.3337     0.0000    20.0000 </r>
       <r>   -32.1509     0.0000    20.0000 </r>
       <r>   -31.9681     0.0000    20.0000 </r>
       <r>   -31.7853     0.0000    20.0000 </r>
       <r>   -31.6024     0.0000    20.0000 </r>
       <r>   -31.4196     0.0000    20.0000 </r>
       <r>   -31.2368     0.0000    20.0000 </r>
       <r>   -31.0540     0.0000    20.0000 </r>
       <r>   -30.8712     0.0000    20.0000 </r>
       <r>   -30.6884     0.0000    20.0000 </r>
       <r>   -30.5055     0.0000    20.0000 </r>
       <r>   -30.3227     0.0000    20.0000 </r>
       <r>   -30.1399     0.0000    20.0000 </r>
       <r>   -29.9571     0.0000    20.0000 </r>
       <r>   -29.7743     0.0000    20.0000 </r>
       <r>   -29.5914     0.0000    20.0000 </r>
       <r>   -29.4086     0.0000    20.0000 </r>
       <r>   -29.2258     0.0000    20.0000 </r>
       <r>   -29.0430     0.0000    20.0000 </r>
       <r>   -28.8602     0.0000    20.0000 </r>
       <r>   -28.6773     0.0000    20.0000 </r>
       <r>   -28.4945     0.0000    20.0000 </r>
       <r>   -28.3117     0.0000    20.0000 </r>
       <r>   -28.1289     0.0000    20.0000 </r>
       <r>   -27.9461     0.0000    20.0000 </r>
       <r>   -27.7632     0.0000    20.0000 </r>
       <r>   -27.5804     0.0000    20.0000 </r>
       <r>   -27.3976     0.0000    20.0000 </r>
       <r>   -27.2148     0.0000    20.0000 </r>
       <r>   -27.0320     0.0000    20.0000 </r>
       <r>   -26.8491     0.0000    20.0000 </r>
       <r>   -26.6663     0.0000    20.0000 </r>
       <r>   -26.4835     0.0000    20.0000 </r>
       <r>   -26.3007     0.0000    20.0000 </r>
       <r>   -26.1179     0.0000    20.0000 </r>
       <r>   -25.9350     0.0000    20.0000 </r>
       <r>   -25.7522     0.0000    20.0000 </r>
       <r>   -25.5694     0.0000    20.0000 </r>
       <r>   -25.3866     0.0000    20.0000 </r>
       <r>   -25.2038     0.0000    20.0000 </r>
       <r>   -25.0210     0.0000    20.0000 </r>
       <r>   -24.8381     0.0000    20.0000 </r>
       <r>   -24.6553     0.0000    20.0000 </r>
       <r>   -24.4725     0.0000    20.0000 </r>
       <r>   -24.2897     0.0000    20.0000 </r>
       <r>   -24.1069     0.0000    20.0000 </r>
       <r>   -23.9240     0.0000    20.0000 </r>
       <r>   -23.7412     0.0000    20.0000 </r>
       <r>   -23.5584     0.0000    20.0000 </r>
       <r>   -23.3756     0.0000    20.0000 </r>
       <r>   -23.1928     0.0000    20.0000 </r>
       <r>   -23.0099     0.0000    20.0000 </r>
       <r>   -22.8271     0.0000    20.0000 </r>
       <r>   -22.6443     0.0000    20.0000 </r>
       <r>   -22.4615     0.0000    20.0000 </r>
       <r>   -22.2787     0.0000    20.0000 </r>
       <r>   -22.0958     0.0000    20.0000 </r>
       <r>   -21.9130     0.0000    20.0000 </r>
       <r>   -21.7302     0.0000    20.0000 </r>
       <r>   -21.5474     0.0000    20.0000 </r>
       <r>   -21.3646     0.0000    20.0000 </r>
       <r>   -21.1817     0.0000    20.0000 </r>
       <r>   -20.9989     0.0000    20.0000 </r>
       <r>   -20.8161     0.0000    20.0000 </r>
       <r>   -20.6333     0.0000    20.0000 </r>
       <r>   -20.4505     0.0000    20.0000 </r>
       <r>   -20.2676     0.0000    20.0000 </r>
       <r>   -20.0848     0.0000    20.0000 </r>
       <r>   -19.9020     0.0000    20.0000 </r>
       <r>   -19.7192     0.0000    20.0000 </r>
       <r>   -19.5364     0.0000    20.0000 </r>
       <r>   -19.3536     0.0000    20.0000 </r>
       <r>   -19.1707     0.0000    20.0000 </r>
       <r>   -18.9879     0.0000    20.0000 </r>
       <r>   -18.8051     0.0000    32.0000 </r>
       <r>   -18.6223  4750.6682    93.6050 </r>
       <r>   -18.4395     0.0000   152.0000 </r>
       <r>   -18.2566     0.0000   172.0000 </r>
       <r>   -18.0738     0.0000   180.0000 </r>
       <r>   -17.8910     0.0000   180.0000 </r>
       <r>   -17.7082     0.0000   180.0000 </r>
       <r>   -17.5254     0.0000   180.0000 </r>
       <r>   -17.3425     0.0000   180.0000 </r>
       <r>   -17.1597     0.0000   180.0000 </r>
       <r>   -16.9769     0.0000   180.0000 </r>
       <r>   -16.7941     0.0000   180.0000 </r>
       <r>   -16.6113     0.0000   180.0000 </r>
       <r>   -16.4284     0.0000   180.0000 </r>
       <r>   -16.2456     0.0000   180.0000 </r>
       <r>   -16.0628     0.0000   180.0000 </r>
       <r>   -15.8800     0.0000   180.0000 </r>
       <r>   -15.6972     0.0000   180.0000 </r>
       <r>   -15.5143     0.0000   180.0000 </r>
       <r>   -15.3315     0.0000   180.0000 </r>
       <r>   -15.1487     0.0000   180.0000 </r>
       <r>   -14.9659     0.0000   180.0000 </r>
       <r>   -14.7831     0.0000   180.0000 </r>
       <r>   -14.6002     0.0000   180.0000 </r>
       <r>   -14.4174     0.0000   180.0000 </r>
       <r>   -14.2346     0.0000   180.0000 </r>
       <r>   -14.0518     0.0000   180.0000 </r>
       <r>   -13.8690     0.0000   180.0000 </r>
       <r>   -13.6862     0.0000   180.0000 </r>
       <r>   -13.5033     0.0000   182.0000 </r>
       <r>   -13.3205     0.0000   184.0000 </r>
       <r>   -13.1377     0.0000   184.0000 </r>
       <r>   -12.9549     0.0000   184.0000 </r>
       <r>   -12.7721    73.3010   189.4302 </r>
       <r>   -12.5892     0.0000   206.0000 </r>
       <r>   -12.4064     0.0000   208.0000 </r>
       <r>   -12.2236     0.0000   208.0000 </r>
       <r>   -12.0408     0.0000   208.0000 </r>
       <r>   -11.8580     0.0000   212.0000 </r>
       <r>   -11.6751     0.0000   212.0000 </r>
       <r>   -11.4923     0.0000   212.0000 </r>
       <r>   -11.3095     0.0000   212.0000 </r>
       <r>   -11.1267     0.0000   212.0000 </r>
       <r>   -10.9439     0.0000   212.0000 </r>
       <r>   -10.7610     0.0000   212.0000 </r>
       <r>   -10.5782     0.0000   212.0000 </r>
       <r>   -10.3954     0.0000   212.0000 </r>
       <r>   -10.2126     0.0000   212.0000 </r>
       <r>   -10.0298     0.0000   212.0000 </r>
       <r>    -9.8469     0.0000   212.0000 </r>
       <r>    -9.6641     0.0000   212.0000 </r>
       <r>    -9.4813     0.0000   212.0000 </r>
       <r>    -9.2985     1.2814   212.0112 </r>
       <r>    -9.1157    10.7766   213.3764 </r>
       <r>    -8.9328     0.0000   216.0000 </r>
       <r>    -8.7500    16.7816   218.1561 </r>
       <r>    -8.5672    12.7113   220.5414 </r>
       <r>    -8.3844    32.2051   224.6489 </r>
       <r>    -8.2016     8.8169   228.1545 </r>
       <r>    -8.0188    27.5022   232.5654 </r>
       <r>    -7.8359    17.6031   236.5223 </r>
       <r>    -7.6531    10.4134   239.9106 </r>
       <r>    -7.4703    13.7201   243.1731 </r>
       <r>    -7.2875     0.0000   244.0000 </r>
       <r>    -7.1047     0.0000   244.0000 </r>
       <r>    -6.9218     0.0000   244.0000 </r>
       <r>    -6.7390     0.0000   244.0000 </r>
       <r>    -6.5562     0.0000   244.0000 </r>
       <r>    -6.3734     0.0000   244.0000 </r>
       <r>    -6.1906    15.6398   245.2366 </r>
       <r>    -6.0077    24.3095   249.5923 </r>
       <r>    -5.8249    17.3552   253.0104 </r>
       <r>    -5.6421    20.3883   257.7413 </r>
       <r>    -5.4593    21.0007   261.6679 </r>
       <r>    -5.2765    17.6363   265.4068 </r>
       <r>    -5.0936     6.1278   267.6652 </r>
       <r>    -4.9108     6.3875   268.4962 </r>
       <r>    -4.7280     7.9554   269.8667 </r>
       <r>    -4.5452    10.4571   271.5490 </r>
       <r>    -4.3624     5.8700   273.0525 </r>
       <r>    -4.1795     7.2347   274.2915 </r>
       <r>    -3.9967     4.2772   275.3603 </r>
       <r>    -3.8139     1.3679   275.8568 </r>
       <r>    -3.6311     0.1778   275.9960 </r>
       <r>    -3.4483     0.0000   276.0000 </r>
       <r>    -3.2654     0.0000   276.0000 </r>
       <r>    -3.0826     0.0000   276.0000 </r>
       <r>    -2.8998     0.0000   276.0000 </r>
       <r>    -2.7170     0.0000   276.0000 </r>
       <r>    -2.5342     0.0000   276.0000 </r>
       <r>    -2.3514     0.0000   276.0000 </r>
       <r>    -2.1685     0.0000   276.0000 </r>
       <r>    -1.9857     0.0000   276.0000 </r>
       <r>    -1.8029     0.0000   276.0000 </r>
       <r>    -1.6201     0.0000   276.0000 </r>
       <r>    -1.4373     0.0000   276.0000 </r>
       <r>    -1.2544     5.1671   276.2711 </r>
       <r>    -1.0716    10.2360   277.8000 </r>
       <r>    -0.8888    13.1017   279.9909 </r>
       <r>    -0.7060     8.7508   282.0524 </r>
       <r>    -0.5232     5.1560   283.2656 </r>
       <r>    -0.3403    18.9594   285.7381 </r>
       <r>    -0.1575    27.7938   289.9550 </r>
       <r>     0.0253    40.1031   296.6990 </r>
       <r>     0.2081    28.9695   302.7828 </r>
       <r>     0.3909    39.5591   309.7183 </r>
       <r>     0.5738    40.3853   316.7581 </r>
       <r>     0.7566    36.5408   323.8690 </r>
       <r>     0.9394    42.0285   329.7749 </r>
       <r>     1.1222    56.5222   337.8644 </r>
       <r>     1.3050    50.5456   345.8586 </r>
       <r>     1.4879    56.0526   354.2215 </r>
       <r>     1.6707    51.5792   363.8488 </r>
       <r>     1.8535    60.6042   373.3202 </r>
       <r>     2.0363    42.4579   381.4987 </r>
       <r>     2.2191    39.9580   389.6799 </r>
       <r>     2.4020    50.2624   397.1460 </r>
       <r>     2.5848    66.9986   408.5066 </r>
       <r>     2.7676    70.9528   420.5492 </r>
       <r>     2.9504    76.6771   432.8994 </r>
       <r>     3.1332    49.4098   444.5137 </r>
       <r>     3.3160    28.5168   451.7307 </r>
       <r>     3.4989    43.6623   458.0753 </r>
       <r>     3.6817    18.8702   463.0521 </r>
       <r>     3.8645    11.2710   465.8617 </r>
       <r>     4.0473     5.8261   467.4247 </r>
       <r>     4.2301     0.4788   467.9924 </r>
       <r>     4.4130     0.0000   468.0000 </r>
       <r>     4.5958     0.0000   468.0000 </r>
       <r>     4.7786     0.0000   468.0000 </r>
       <r>     4.9614     0.0000   468.0000 </r>
       <r>     5.1442     0.2016   468.0032 </r>
       <r>     5.3271     3.8485   468.3501 </r>
       <r>     5.5099     7.8213   469.4168 </r>
       <r>     5.6927     9.1790   471.0781 </r>
       <r>     5.8755    21.4611   474.7659 </r>
       <r>     6.0583    12.7564   477.4973 </r>
       <r>     6.2412    11.4910   479.6651 </r>
       <r>     6.4240    12.9785   481.8841 </r>
       <r>     6.6068    14.6896   484.4136 </r>
       <r>     6.7896    16.3895   487.2545 </r>
       <r>     6.9724    18.6595   490.4365 </r>
       <r>     7.1553    25.5248   494.3334 </r>
       <r>     7.3381    38.5336   500.2205 </r>
       <r>     7.5209    29.1709   507.9019 </r>
       <r>     7.7037    32.4703   512.6123 </r>
       <r>     7.8865    41.5482   520.5830 </r>
       <r>     8.0694    32.4245   528.6710 </r>
       <r>     8.2522    19.9245   533.0765 </r>
       <r>     8.4350    19.3619   536.5241 </r>
       <r>     8.6178    25.7575   540.5838 </r>
       <r>     8.8006    35.3641   545.5473 </r>
       <r>     8.9834    34.9770   553.5671 </r>
       <r>     9.1663    13.2797   557.9078 </r>
       <r>     9.3491     5.4212   559.4635 </r>
       <r>     9.5319     0.8181   559.9770 </r>
       <r>     9.7147     0.0000   560.0000 </r>
       <r>     9.8975     0.0000   560.0000 </r>
       <r>    10.0804     0.0000   560.0000 </r>
       <r>    10.2632     0.0000   560.0000 </r>
       <r>    10.4460     0.0000   560.0000 </r>
       <r>    10.6288     0.0000   560.0000 </r>
       <r>    10.8116     0.0000   560.0000 </r>
       <r>    10.9945     0.0000   560.0000 </r>
       <r>    11.1773     0.0000   560.0000 </r>
       <r>    11.3601     0.0000   560.0000 </r>
       <r>    11.5429     0.0000   560.0000 </r>
       <r>    11.7257     0.0000   560.0000 </r>
       <r>    11.9086     0.0000   560.0000 </r>
       <r>    12.0914     0.0000   560.0000 </r>
      </set>
     </set>
    </array>
   </total>
  </dos>
 </calculation>
 <structure name="finalpos" >
  <crystal>
   <varray name="basis" >
    <v>      11.17850000       0.00000000       0.00000000 </v>
    <v>       0.00000000       9.57460000       0.00000000 </v>
    <v>       0.00000000       0.00000000      11.18240000 </v>
   </varray>
   <i name="volume">   1196.84853820 </i>
   <varray name="rec_basis" >
    <v>       0.08945744       0.00000000       0.00000000 </v>
    <v>       0.00000000       0.10444301       0.00000000 </v>
    <v>       0.00000000       0.00000000       0.08942624 </v>
   </varray>
  </crystal>
  <varray name="positions" >
   <v>       0.37539000       0.00017000       0.43687000 </v>
   <v>       0.12461000       0.99984000       0.18687000 </v>
   <v>       0.37461000       0.00017000       0.18687000 </v>
   <v>       0.62539000       0.99984000       0.43687000 </v>
   <v>       0.87539000       0.00017000       0.43687000 </v>
   <v>       0.62461000       0.99984000       0.18687000 </v>
   <v>       0.12539000       0.99984000       0.93687000 </v>
   <v>       0.37461000       0.00017000       0.68687000 </v>
   <v>       0.62461000       0.99984000       0.68687000 </v>
   <v>       0.87461000       0.00017000       0.68687000 </v>
   <v>       0.87461000       0.00017000       0.18687000 </v>
   <v>       0.12461000       0.99984000       0.68687000 </v>
   <v>       0.62539000       0.99984000       0.93687000 </v>
   <v>       0.00013000       0.29519000       0.06281000 </v>
   <v>       0.25013000       0.70481000       0.06281000 </v>
   <v>       0.24987000       0.29519000       0.31282000 </v>
   <v>       0.49987000       0.70481000       0.31282000 </v>
   <v>       0.50013000       0.29519000       0.06281000 </v>
   <v>       0.75013000       0.70481000       0.06281000 </v>
   <v>       0.74987000       0.29519000       0.31282000 </v>
   <v>       0.99987000       0.70481000       0.31282000 </v>
   <v>       0.00013000       0.29519000       0.56281000 </v>
   <v>       0.25013000       0.70481000       0.56281000 </v>
   <v>       0.24987000       0.29519000       0.81282000 </v>
   <v>       0.49987000       0.70481000       0.81282000 </v>
   <v>       0.50013000       0.29519000       0.56281000 </v>
   <v>       0.75013000       0.70481000       0.56281000 </v>
   <v>       0.74987000       0.29519000       0.81282000 </v>
   <v>       0.99987000       0.70481000       0.81282000 </v>
   <v>       0.25005000       0.32677000       0.06286000 </v>
   <v>       0.00005000       0.67323000       0.06286000 </v>
   <v>       0.49995000       0.32677000       0.31286000 </v>
   <v>       0.24995000       0.67323000       0.31286000 </v>
   <v>       0.75005000       0.32677000       0.06286000 </v>
   <v>       0.50005000       0.67323000       0.06286000 </v>
   <v>       0.99995000       0.32677000       0.31286000 </v>
   <v>       0.74995000       0.67323000       0.31286000 </v>
   <v>       0.25005000       0.32677000       0.56286000 </v>
   <v>       0.00005000       0.67323000       0.56286000 </v>
   <v>       0.49995000       0.32677000       0.81286000 </v>
   <v>       0.24995000       0.67323000       0.81286000 </v>
   <v>       0.75005000       0.32677000       0.56286000 </v>
   <v>       0.50005000       0.67323000       0.56286000 </v>
   <v>       0.99995000       0.32677000       0.81286000 </v>
   <v>       0.74995000       0.67323000       0.81286000 </v>
   <v>       0.49987000       0.07798000       0.06246000 </v>
   <v>       0.24987000       0.92202000       0.06246000 </v>
   <v>       0.25013000       0.07798000       0.31246000 </v>
   <v>       0.00013000       0.92202000       0.31246000 </v>
   <v>       0.99987000       0.07798000       0.06246000 </v>
   <v>       0.74987000       0.92202000       0.06246000 </v>
   <v>       0.75013000       0.07798000       0.31246000 </v>
   <v>       0.50013000       0.92202000       0.31246000 </v>
   <v>       0.49987000       0.07798000       0.56246000 </v>
   <v>       0.24987000       0.92202000       0.56246000 </v>
   <v>       0.25013000       0.07798000       0.81246000 </v>
   <v>       0.00013000       0.92202000       0.81246000 </v>
   <v>       0.99987000       0.07798000       0.56246000 </v>
   <v>       0.74987000       0.92202000       0.56246000 </v>
   <v>       0.75013000       0.07798000       0.81246000 </v>
   <v>       0.50013000       0.92202000       0.81246000 </v>
  </varray>
 </structure>
</modeling>
