<?xml version="1.0" encoding="ISO-8859-1"?>
<modeling>
 <generator>
  <i name="program" type="string">vasp </i>
  <i name="version" type="string">5.4.4.18Apr17-6-g9f103f2a35  </i>
  <i name="subversion" type="string">(build Jul 31 2017 11:33:29) complex            parallel </i>
  <i name="platform" type="string">LinuxIFC </i>
  <i name="date" type="string">2021 09 24 </i>
  <i name="time" type="string">18:06:01 </i>
 </generator>
 <incar>
  <i type="string" name="SYSTEM"> La2O2S</i>
  <i type="string" name="PREC">normal</i>
  <i type="int" name="NELMIN">     4</i>
  <i type="int" name="IBRION">     2</i>
  <i type="int" name="NFREE">    10</i>
  <i name="EDIFF">      0.00000100</i>
  <i name="EDIFFG">     -0.01000000</i>
  <i type="int" name="NSW">   200</i>
  <i type="int" name="ISIF">     3</i>
  <i name="ENCUT">    600.00000000</i>
  <i name="ENAUG">    900.00000000</i>
  <i type="int" name="ISMEAR">    -5</i>
  <i type="logical" name="LWAVE"> F  </i>
  <i type="logical" name="LCHARG"> F  </i>
  <v type="int" name="KPOINT_BSE">    -1     0     0     0</v>
 </incar>
 <structure name="primitive_cell" >
  <crystal>
   <varray name="basis" >
    <v>      11.17850000       0.00000000       0.00000000 </v>
    <v>       0.00000000       9.57460000       0.00000000 </v>
    <v>       0.00000000       0.00000000      11.18240000 </v>
   </varray>
   <i name="volume">   1196.84853820 </i>
   <varray name="rec_basis" >
    <v>       0.08945744       0.00000000       0.00000000 </v>
    <v>       0.00000000       0.10444301       0.00000000 </v>
    <v>       0.00000000       0.00000000       0.08942624 </v>
   </varray>
  </crystal>
  <varray name="positions" >
   <v>       0.37539000       0.00017000       0.43687000 </v>
   <v>      -0.49987000      -0.07798000       0.31246000 </v>
   <v>       0.25013000       0.07798000       0.31246000 </v>
   <v>       0.49987000       0.07798000      -0.43754000 </v>
   <v>       0.24987000      -0.07798000      -0.43754000 </v>
   <v>      -0.37461000      -0.00016000       0.43687000 </v>
   <v>       0.37461000       0.00017000       0.18687000 </v>
   <v>       0.37461000       0.00017000      -0.31313000 </v>
   <v>       0.49987000      -0.29519000       0.31282000 </v>
   <v>       0.24987000       0.29519000       0.31282000 </v>
   <v>      -0.49987000       0.29519000      -0.43719000 </v>
   <v>       0.25013000      -0.29519000      -0.43719000 </v>
   <v>       0.49995000       0.32677000       0.31286000 </v>
   <v>       0.24995000      -0.32677000       0.31286000 </v>
   <v>      -0.49995000      -0.32677000      -0.43714000 </v>
   <v>       0.25005000       0.32677000      -0.43714000 </v>
   <v>      -0.37539000      -0.00016000       0.18687000 </v>
   <v>      -0.37539000      -0.00016000      -0.31313000 </v>
   <v>       0.12461000      -0.00016000      -0.31313000 </v>
   <v>       0.49987000       0.07798000       0.06246000 </v>
   <v>      -0.24987000       0.07798000       0.31246000 </v>
   <v>      -0.25013000      -0.07798000      -0.43754000 </v>
   <v>       0.24987000      -0.07798000       0.06246000 </v>
   <v>       0.00013000      -0.07798000       0.31246000 </v>
   <v>      -0.49987000      -0.07798000      -0.18754000 </v>
   <v>      -0.00013000       0.07798000      -0.43754000 </v>
   <v>       0.25013000       0.07798000      -0.18754000 </v>
   <v>      -0.49987000       0.29519000       0.06281000 </v>
   <v>      -0.25013000       0.29519000       0.31282000 </v>
   <v>       0.25013000      -0.29519000       0.06281000 </v>
   <v>      -0.24987000      -0.29519000      -0.43719000 </v>
   <v>      -0.00013000      -0.29519000       0.31282000 </v>
   <v>       0.00013000       0.29519000      -0.43719000 </v>
   <v>       0.49987000      -0.29519000      -0.18718000 </v>
   <v>       0.24987000       0.29519000      -0.18718000 </v>
   <v>      -0.49995000      -0.32677000       0.06286000 </v>
   <v>       0.25005000       0.32677000       0.06286000 </v>
   <v>      -0.25005000      -0.32677000       0.31286000 </v>
   <v>      -0.24995000       0.32677000      -0.43714000 </v>
   <v>      -0.00005000       0.32677000       0.31286000 </v>
   <v>       0.00005000      -0.32677000      -0.43714000 </v>
   <v>       0.49995000       0.32677000      -0.18714000 </v>
   <v>       0.24995000      -0.32677000      -0.18714000 </v>
   <v>      -0.12461000       0.00017000       0.43687000 </v>
   <v>       0.37539000       0.00017000      -0.06313000 </v>
   <v>      -0.25013000      -0.07798000       0.06246000 </v>
   <v>      -0.00013000       0.07798000       0.06246000 </v>
   <v>      -0.24987000       0.07798000      -0.18754000 </v>
   <v>       0.00013000      -0.07798000      -0.18754000 </v>
   <v>      -0.12539000       0.00017000      -0.31313000 </v>
   <v>      -0.12539000       0.00017000       0.18687000 </v>
   <v>       0.12539000      -0.00016000      -0.06313000 </v>
   <v>      -0.37461000      -0.00016000      -0.06313000 </v>
   <v>      -0.24987000      -0.29519000       0.06281000 </v>
   <v>       0.00013000       0.29519000       0.06281000 </v>
   <v>      -0.25013000       0.29519000      -0.18718000 </v>
   <v>      -0.00013000      -0.29519000      -0.18718000 </v>
   <v>      -0.24995000       0.32677000       0.06286000 </v>
   <v>       0.00005000      -0.32677000       0.06286000 </v>
   <v>      -0.25005000      -0.32677000      -0.18714000 </v>
   <v>      -0.00005000       0.32677000      -0.18714000 </v>
   <v>      -0.12461000       0.00017000      -0.06313000 </v>
  </varray>
 </structure>
 <varray name="primitive_index" >
  <v type="int" >        1 </v>
  <v type="int" >       54 </v>
  <v type="int" >       49 </v>
  <v type="int" >       55 </v>
  <v type="int" >       56 </v>
  <v type="int" >        3 </v>
  <v type="int" >        2 </v>
  <v type="int" >        9 </v>
  <v type="int" >       18 </v>
  <v type="int" >       17 </v>
  <v type="int" >       27 </v>
  <v type="int" >       24 </v>
  <v type="int" >       33 </v>
  <v type="int" >       34 </v>
  <v type="int" >       44 </v>
  <v type="int" >       39 </v>
  <v type="int" >        5 </v>
  <v type="int" >       11 </v>
  <v type="int" >        8 </v>
  <v type="int" >       47 </v>
  <v type="int" >       53 </v>
  <v type="int" >       60 </v>
  <v type="int" >       48 </v>
  <v type="int" >       50 </v>
  <v type="int" >       62 </v>
  <v type="int" >       59 </v>
  <v type="int" >       57 </v>
  <v type="int" >       19 </v>
  <v type="int" >       21 </v>
  <v type="int" >       16 </v>
  <v type="int" >       28 </v>
  <v type="int" >       22 </v>
  <v type="int" >       23 </v>
  <v type="int" >       26 </v>
  <v type="int" >       25 </v>
  <v type="int" >       36 </v>
  <v type="int" >       31 </v>
  <v type="int" >       38 </v>
  <v type="int" >       43 </v>
  <v type="int" >       37 </v>
  <v type="int" >       40 </v>
  <v type="int" >       41 </v>
  <v type="int" >       42 </v>
  <v type="int" >        4 </v>
  <v type="int" >        7 </v>
  <v type="int" >       52 </v>
  <v type="int" >       51 </v>
  <v type="int" >       61 </v>
  <v type="int" >       58 </v>
  <v type="int" >       12 </v>
  <v type="int" >       13 </v>
  <v type="int" >        6 </v>
  <v type="int" >       14 </v>
  <v type="int" >       20 </v>
  <v type="int" >       15 </v>
  <v type="int" >       29 </v>
  <v type="int" >       30 </v>
  <v type="int" >       35 </v>
  <v type="int" >       32 </v>
  <v type="int" >       46 </v>
  <v type="int" >       45 </v>
  <v type="int" >       10 </v>
 </varray>
 <kpoints>
  <generation param="Gamma">
   <v type="int" name="divisions">       2        2        2 </v>
   <v name="usershift">      0.00000000       0.00000000       0.00000000 </v>
   <v name="genvec1">      0.50000000       0.00000000       0.00000000 </v>
   <v name="genvec2">      0.00000000       0.50000000       0.00000000 </v>
   <v name="genvec3">      0.00000000       0.00000000       0.50000000 </v>
   <v name="shift">      0.00000000       0.00000000       0.00000000 </v>
  </generation>
  <varray name="kpointlist" >
   <v>       0.00000000       0.00000000       0.00000000 </v>
   <v>       0.50000000       0.00000000       0.00000000 </v>
   <v>       0.00000000       0.50000000       0.00000000 </v>
   <v>       0.50000000       0.50000000       0.00000000 </v>
   <v>       0.00000000       0.00000000       0.50000000 </v>
   <v>       0.50000000       0.00000000       0.50000000 </v>
   <v>       0.00000000       0.50000000       0.50000000 </v>
   <v>       0.50000000       0.50000000       0.50000000 </v>
  </varray>
  <varray name="weights" >
   <v>       0.12500000 </v>
   <v>       0.12500000 </v>
   <v>       0.12500000 </v>
   <v>       0.12500000 </v>
   <v>       0.12500000 </v>
   <v>       0.12500000 </v>
   <v>       0.12500000 </v>
   <v>       0.12500000 </v>
  </varray>
  <varray name="tetrahedronlist"  type="int" >
   <v type="int" >        2        1        2        4        5 </v>
   <v type="int" >        2        1        3        4        5 </v>
   <v type="int" >        2        3        4        5        7 </v>
   <v type="int" >        2        2        4        5        6 </v>
   <v type="int" >        2        4        5        6        8 </v>
   <v type="int" >        2        4        5        7        8 </v>
   <v type="int" >        2        1        2        3        6 </v>
   <v type="int" >        2        2        3        4        6 </v>
   <v type="int" >        2        3        4        6        8 </v>
   <v type="int" >        2        1        3        5        6 </v>
   <v type="int" >        2        3        5        6        7 </v>
   <v type="int" >        2        3        6        7        8 </v>
   <v type="int" >        2        2        3        4        7 </v>
   <v type="int" >        2        1        2        3        7 </v>
   <v type="int" >        2        1        2        5        7 </v>
   <v type="int" >        2        2        4        7        8 </v>
   <v type="int" >        2        2        6        7        8 </v>
   <v type="int" >        2        2        5        6        7 </v>
   <v type="int" >        2        1        3        4        8 </v>
   <v type="int" >        2        1        2        4        8 </v>
   <v type="int" >        2        1        2        6        8 </v>
   <v type="int" >        2        1        3        7        8 </v>
   <v type="int" >        2        1        5        7        8 </v>
   <v type="int" >        2        1        5        6        8 </v>
  </varray>
  <i name="volumeweight">      0.02083333 </i>
 </kpoints>
 <parameters>
  <separator name="general" >
   <i type="string" name="SYSTEM">La2O2S</i>
   <i type="logical" name="LCOMPAT"> F  </i>
  </separator>
  <separator name="electronic" >
   <i type="string" name="PREC">normal</i>
   <i name="ENMAX">    600.00000000</i>
   <i name="ENAUG">    900.00000000</i>
   <i name="EDIFF">      0.00000100</i>
   <i type="int" name="IALGO">    38</i>
   <i type="int" name="IWAVPR">    11</i>
   <i type="int" name="NBANDS">   308</i>
   <i name="NELECT">    472.00000000</i>
   <i type="int" name="TURBO">     0</i>
   <i type="int" name="IRESTART">     0</i>
   <i type="int" name="NREBOOT">     0</i>
   <i type="int" name="NMIN">     0</i>
   <i name="EREF">      0.00000000</i>
   <separator name="electronic smearing" >
    <i type="int" name="ISMEAR">    -5</i>
    <i name="SIGMA">      0.20000000</i>
    <i name="KSPACING">      0.50000000</i>
    <i type="logical" name="KGAMMA"> T  </i>
   </separator>
   <separator name="electronic projectors" >
    <i type="logical" name="LREAL"> F  </i>
    <v name="ROPT">      0.00000000      0.00000000      0.00000000      0.00000000      0.00000000</v>
    <i type="int" name="LMAXPAW">  -100</i>
    <i type="int" name="LMAXMIX">     2</i>
    <i type="logical" name="NLSPLINE"> F  </i>
   </separator>
   <separator name="electronic startup" >
    <i type="int" name="ISTART">     0</i>
    <i type="int" name="ICHARG">     2</i>
    <i type="int" name="INIWAV">     1</i>
   </separator>
   <separator name="electronic spin" >
    <i type="int" name="ISPIN">     1</i>
    <i type="logical" name="LNONCOLLINEAR"> F  </i>
    <v name="MAGMOM">      1.00000000      1.00000000      1.00000000      1.00000000      1.00000000      1.00000000      1.00000000      1.00000000      1.00000000      1.00000000      1.00000000      1.00000000      1.00000000      1.00000000      1.00000000      1.00000000      1.00000000      1.00000000      1.00000000      1.00000000
      1.00000000      1.00000000      1.00000000      1.00000000      1.00000000      1.00000000      1.00000000      1.00000000      1.00000000      1.00000000      1.00000000      1.00000000      1.00000000      1.00000000      1.00000000      1.00000000      1.00000000      1.00000000      1.00000000      1.00000000
      1.00000000      1.00000000      1.00000000      1.00000000      1.00000000      1.00000000      1.00000000      1.00000000      1.00000000      1.00000000      1.00000000      1.00000000      1.00000000      1.00000000      1.00000000      1.00000000      1.00000000      1.00000000      1.00000000      1.00000000
      1.00000000      1.00000000</v>
    <i name="NUPDOWN">     -1.00000000</i>
    <i type="logical" name="LSORBIT"> F  </i>
    <v name="SAXIS">      0.00000000      0.00000000      1.00000000</v>
    <i type="logical" name="LSPIRAL"> F  </i>
    <v name="QSPIRAL">      0.00000000      0.00000000      0.00000000</v>
    <i type="logical" name="LZEROZ"> F  </i>
   </separator>
   <separator name="electronic exchange-correlation" >
    <i type="logical" name="LASPH"> F  </i>
    <i type="logical" name="LMETAGGA"> F  </i>
   </separator>
   <separator name="electronic convergence" >
    <i type="int" name="NELM">    60</i>
    <i type="int" name="NELMDL">    -5</i>
    <i type="int" name="NELMIN">     4</i>
    <i name="ENINI">    600.00000000</i>
    <separator name="electronic convergence detail" >
     <i type="logical" name="LDIAG"> T  </i>
     <i type="logical" name="LSUBROT"> F  </i>
     <i name="WEIMIN">      0.00100000</i>
     <i name="EBREAK">      0.00000000</i>
     <i name="DEPER">      0.30000000</i>
     <i type="int" name="NRMM">     4</i>
     <i name="TIME">      0.40000000</i>
    </separator>
   </separator>
   <separator name="electronic mixer" >
    <i name="AMIX">      0.40000000</i>
    <i name="BMIX">      1.00000000</i>
    <i name="AMIN">      0.10000000</i>
    <i name="AMIX_MAG">      1.60000000</i>
    <i name="BMIX_MAG">      1.00000000</i>
    <separator name="electronic mixer details" >
     <i type="int" name="IMIX">     4</i>
     <i type="logical" name="MIXFIRST"> F  </i>
     <i type="int" name="MAXMIX">   -45</i>
     <i name="WC">    100.00000000</i>
     <i type="int" name="INIMIX">     1</i>
     <i type="int" name="MIXPRE">     1</i>
     <i type="int" name="MREMOVE">     5</i>
    </separator>
   </separator>
   <separator name="electronic dipolcorrection" >
    <i type="logical" name="LDIPOL"> F  </i>
    <i type="logical" name="LMONO"> F  </i>
    <i type="int" name="IDIPOL">     0</i>
    <i name="EPSILON">      1.00000000</i>
    <v name="DIPOL">   -100.00000000   -100.00000000   -100.00000000</v>
    <i name="EFIELD">      0.00000000</i>
   </separator>
  </separator>
  <separator name="grids" >
   <i type="int" name="NGX">    70</i>
   <i type="int" name="NGY">    60</i>
   <i type="int" name="NGZ">    70</i>
   <i type="int" name="NGXF">   140</i>
   <i type="int" name="NGYF">   120</i>
   <i type="int" name="NGZF">   140</i>
   <i type="logical" name="ADDGRID"> F  </i>
  </separator>
  <separator name="ionic" >
   <i type="int" name="NSW">   200</i>
   <i type="int" name="IBRION">     2</i>
   <i type="int" name="MDALGO">     0</i>
   <i type="int" name="ISIF">     3</i>
   <i name="PSTRESS">      0.00000000</i>
   <i name="EDIFFG">     -0.01000000</i>
   <i type="int" name="NFREE">    10</i>
   <i name="POTIM">      0.50000000</i>
   <i name="SMASS">     -3.00000000</i>
   <i name="SCALEE">      1.00000000</i>
  </separator>
  <separator name="ionic md" >
   <i name="TEBEG">      0.00010000</i>
   <i name="TEEND">      0.00010000</i>
   <i type="int" name="NBLOCK">     1</i>
   <i type="int" name="KBLOCK">   200</i>
   <i type="int" name="NPACO">   256</i>
   <i name="APACO">     16.00000000</i>
  </separator>
  <separator name="symmetry" >
   <i type="int" name="ISYM">     2</i>
   <i name="SYMPREC">      0.00001000</i>
  </separator>
  <separator name="dos" >
   <i type="int" name="LORBIT">     0</i>
   <v name="RWIGS">     -1.00000000     -1.00000000     -1.00000000     -1.00000000     -1.00000000</v>
   <i type="int" name="NEDOS">   301</i>
   <i name="EMIN">     10.00000000</i>
   <i name="EMAX">    -10.00000000</i>
   <i name="EFERMI">      0.00000000</i>
  </separator>
  <separator name="writing" >
   <i type="int" name="NWRITE">     2</i>
   <i type="logical" name="LWAVE"> F  </i>
   <i type="logical" name="LDOWNSAMPLE"> F  </i>
   <i type="logical" name="LCHARG"> F  </i>
   <i type="logical" name="LPARD"> F  </i>
   <i type="logical" name="LVTOT"> F  </i>
   <i type="logical" name="LVHAR"> F  </i>
   <i type="logical" name="LELF"> F  </i>
   <i type="logical" name="LOPTICS"> F  </i>
   <v name="STM">      0.00000000      0.00000000      0.00000000      0.00000000      0.00000000      0.00000000      0.00000000</v>
  </separator>
  <separator name="performance" >
   <i type="int" name="NPAR">    28</i>
   <i type="int" name="NSIM">     4</i>
   <i type="int" name="NBLK">    -1</i>
   <i type="logical" name="LPLANE"> T  </i>
   <i type="logical" name="LSCALAPACK"> T  </i>
   <i type="logical" name="LSCAAWARE"> F  </i>
   <i type="logical" name="LSCALU"> F  </i>
   <i type="logical" name="LASYNC"> F  </i>
   <i type="logical" name="LORBITALREAL"> F  </i>
  </separator>
  <separator name="miscellaneous" >
   <i type="int" name="IDIOT">     3</i>
   <i type="int" name="ISPECIAL">     0</i>
   <i type="logical" name="LMUSIC"> F  </i>
   <v name="POMASS">      7.01000000     24.30500000    208.98000000     32.06600000     16.00000000</v>
   <v name="DARWINR">      0.00000000      0.00000000      0.00000000      0.00000000      0.00000000</v>
   <v name="DARWINV">      1.00000000      1.00000000      1.00000000      1.00000000      1.00000000</v>
   <i type="logical" name="LCORR"> T  </i>
  </separator>
  <i type="logical" name="GGA_COMPAT"> T  </i>
  <i type="logical" name="LBERRY"> F  </i>
  <i type="int" name="ICORELEVEL">     0</i>
  <i type="logical" name="LDAU"> F  </i>
  <i type="int" name="I_CONSTRAINED_M">     0</i>
  <separator name="electronic exchange-correlation" >
   <i type="string" name="GGA">--</i>
   <i type="int" name="VOSKOWN">     0</i>
   <i type="logical" name="LHFCALC"> F  </i>
   <i type="string" name="PRECFOCK"></i>
   <i type="logical" name="LSYMGRAD"> F  </i>
   <i type="logical" name="LHFONE"> F  </i>
   <i type="logical" name="LRHFCALC"> F  </i>
   <i type="logical" name="LTHOMAS"> F  </i>
   <i type="logical" name="LMODELHF"> F  </i>
   <i name="ENCUT4O">     -1.00000000</i>
   <i type="int" name="EXXOEP">     0</i>
   <i type="int" name="FOURORBIT">     0</i>
   <i name="AEXX">      0.00000000</i>
   <i name="HFALPHA">      0.00000000</i>
   <i name="MCALPHA">      0.00000000</i>
   <i name="ALDAX">      1.00000000</i>
   <i name="AGGAX">      1.00000000</i>
   <i name="ALDAC">      1.00000000</i>
   <i name="AGGAC">      1.00000000</i>
   <i type="int" name="NKREDX">     1</i>
   <i type="int" name="NKREDY">     1</i>
   <i type="int" name="NKREDZ">     1</i>
   <i type="logical" name="SHIFTRED"> F  </i>
   <i type="logical" name="ODDONLY"> F  </i>
   <i type="logical" name="EVENONLY"> F  </i>
   <i type="int" name="LMAXFOCK">     0</i>
   <i type="int" name="NMAXFOCKAE">     0</i>
   <i type="logical" name="LFOCKAEDFT"> F  </i>
   <i name="HFSCREEN">      0.00000000</i>
   <i name="HFSCREENC">      0.00000000</i>
   <i type="int" name="NBANDSGWLOW">     0</i>
  </separator>
  <separator name="vdW DFT" >
   <i type="logical" name="LUSE_VDW"> F  </i>
   <i name="Zab_VDW">     -0.84910000</i>
   <i name="PARAM1">      0.12340000</i>
   <i name="PARAM2">      1.00000000</i>
   <i name="PARAM3">      0.00000000</i>
  </separator>
  <separator name="model GW" >
   <i type="int" name="MODEL_GW">     0</i>
   <i name="MODEL_EPS0">     11.58240521</i>
   <i name="MODEL_ALPHA">      1.00000000</i>
  </separator>
  <separator name="linear response parameters" >
   <i type="logical" name="LEPSILON"> F  </i>
   <i type="logical" name="LRPA"> F  </i>
   <i type="logical" name="LNABLA"> F  </i>
   <i type="logical" name="LVEL"> F  </i>
   <i type="int" name="KINTER">     0</i>
   <i name="CSHIFT">      0.10000000</i>
   <i name="OMEGAMAX">     -1.00000000</i>
   <i name="DEG_THRESHOLD">      0.00200000</i>
   <i name="RTIME">     -0.10000000</i>
   <i name="WPLASMAI">      0.00000000</i>
   <v name="DFIELD">      0.00000000      0.00000000      0.00000000</v>
   <v name="WPLASMA">      0.00000000      0.00000000      0.00000000      0.00000000      0.00000000      0.00000000      0.00000000      0.00000000      0.00000000</v>
  </separator>
  <separator name="orbital magnetization" >
   <i type="logical" name="NUCIND"> F  </i>
   <v name="MAGPOS">      0.00000000      0.00000000      0.00000000</v>
   <i type="logical" name="LNICSALL"> T  </i>
   <i type="logical" name="ORBITALMAG"> F  </i>
   <i type="logical" name="LMAGBLOCH"> F  </i>
   <i type="logical" name="LCHIMAG"> F  </i>
   <i type="logical" name="LGAUGE"> T  </i>
   <i type="int" name="MAGATOM">     0</i>
   <v name="MAGDIPOL">      0.00000000      0.00000000      0.00000000</v>
   <v name="AVECCONST">      0.00000000      0.00000000      0.00000000</v>
  </separator>
  <separator name="response functions" >
   <i type="logical" name="LADDER"> F  </i>
   <i type="logical" name="LRPAFORCE"> F  </i>
   <i type="logical" name="LFXC"> F  </i>
   <i type="logical" name="LHARTREE"> T  </i>
   <i type="int" name="IBSE">     0</i>
   <v type="int" name="KPOINT">    -1     0     0     0</v>
   <i type="logical" name="LTCTE"> F  </i>
   <i type="logical" name="LTETE"> F  </i>
   <i type="logical" name="LTRIPLET"> F  </i>
   <i type="logical" name="LFXCEPS"> F  </i>
   <i type="logical" name="LFXHEG"> F  </i>
   <i type="int" name="NATURALO">     2</i>
   <i type="logical" name="L2ORDER"> F  </i>
   <i type="logical" name="LMP2LT"> F  </i>
   <i type="logical" name="LUSEW"> F  </i>
   <i name="ENCUTGW">     -2.00000000</i>
   <i name="ENCUTGWSOFT">     -2.00000000</i>
   <i name="ENCUTLF">     -1.00000000</i>
   <i type="int" name="LMAXMP2">    -1</i>
   <i name="SCISSOR">      0.00000000</i>
   <i type="int" name="NOMEGA">     0</i>
   <i type="int" name="NOMEGAR">     0</i>
   <i type="int" name="NBANDSGW">    -1</i>
   <i type="int" name="NBANDSO">    -1</i>
   <i type="int" name="NBANDSV">    -1</i>
   <i type="int" name="NELM">     1</i>
   <i type="int" name="NELMHF">     1</i>
   <i type="int" name="DIM">     3</i>
   <i type="int" name="ANTIRES">     0</i>
   <i name="OMEGAMAX">    -30.00000000</i>
   <i name="OMEGAMIN">    -30.00000000</i>
   <i name="OMEGATL">   -200.00000000</i>
   <i type="int" name="OMEGAGRID">   140</i>
   <i name="CSHIFT">     -0.10000000</i>
   <i type="logical" name="SELFENERGY"> F  </i>
   <i type="logical" name="LSPECTRAL"> F  </i>
   <i type="logical" name="LSPECTRALGW"> F  </i>
   <i type="logical" name="LSINGLES"> F  </i>
   <i type="logical" name="LFERMIGW"> F  </i>
   <i type="logical" name="ODDONLYGW"> F  </i>
   <i type="logical" name="EVENONLYGW"> F  </i>
   <i type="int" name="NKREDLFX">     1</i>
   <i type="int" name="NKREDLFY">     1</i>
   <i type="int" name="NKREDLFZ">     1</i>
   <i type="int" name="MAXMEM">  2800</i>
   <i type="int" name="TELESCOPE">     0</i>
   <i type="int" name="TAUPAR">     1</i>
   <i type="int" name="OMEGAPAR">    -1</i>
   <i name="LAMBDA">      1.00000000</i>
  </separator>
  <separator name="External order field" >
   <i name="OFIELD_KAPPA">      0.00000000</i>
   <v name="OFIELD_K">      0.00000000      0.00000000      0.00000000</v>
   <i name="OFIELD_Q6_NEAR">      0.00000000</i>
   <i name="OFIELD_Q6_FAR">      0.00000000</i>
   <i name="OFIELD_A">      0.00000000</i>
  </separator>
 </parameters>
 <atominfo>
  <atoms>      62 </atoms>
  <types>       5 </types>
  <array name="atoms" >
   <dimension dim="1">ion</dimension>
   <field type="string">element</field>
   <field type="int">atomtype</field>
   <set>
    <rc><c>Li</c><c>   1</c></rc>
    <rc><c>Li</c><c>   1</c></rc>
    <rc><c>Li</c><c>   1</c></rc>
    <rc><c>Li</c><c>   1</c></rc>
    <rc><c>Li</c><c>   1</c></rc>
    <rc><c>Li</c><c>   1</c></rc>
    <rc><c>Li</c><c>   1</c></rc>
    <rc><c>Li</c><c>   1</c></rc>
    <rc><c>Li</c><c>   1</c></rc>
    <rc><c>Li</c><c>   1</c></rc>
    <rc><c>Li</c><c>   1</c></rc>
    <rc><c>Li</c><c>   1</c></rc>
    <rc><c>Mg</c><c>   2</c></rc>
    <rc><c>Mg</c><c>   2</c></rc>
    <rc><c>Bi</c><c>   3</c></rc>
    <rc><c>Bi</c><c>   3</c></rc>
    <rc><c>Bi</c><c>   3</c></rc>
    <rc><c>Bi</c><c>   3</c></rc>
    <rc><c>Bi</c><c>   3</c></rc>
    <rc><c>Bi</c><c>   3</c></rc>
    <rc><c>Bi</c><c>   3</c></rc>
    <rc><c>Bi</c><c>   3</c></rc>
    <rc><c>Bi</c><c>   3</c></rc>
    <rc><c>Bi</c><c>   3</c></rc>
    <rc><c>Bi</c><c>   3</c></rc>
    <rc><c>Bi</c><c>   3</c></rc>
    <rc><c>Bi</c><c>   3</c></rc>
    <rc><c>Bi</c><c>   3</c></rc>
    <rc><c>Bi</c><c>   3</c></rc>
    <rc><c>Bi</c><c>   3</c></rc>
    <rc><c>S </c><c>   4</c></rc>
    <rc><c>S </c><c>   4</c></rc>
    <rc><c>S </c><c>   4</c></rc>
    <rc><c>S </c><c>   4</c></rc>
    <rc><c>S </c><c>   4</c></rc>
    <rc><c>S </c><c>   4</c></rc>
    <rc><c>S </c><c>   4</c></rc>
    <rc><c>S </c><c>   4</c></rc>
    <rc><c>S </c><c>   4</c></rc>
    <rc><c>S </c><c>   4</c></rc>
    <rc><c>S </c><c>   4</c></rc>
    <rc><c>S </c><c>   4</c></rc>
    <rc><c>S </c><c>   4</c></rc>
    <rc><c>S </c><c>   4</c></rc>
    <rc><c>S </c><c>   4</c></rc>
    <rc><c>S </c><c>   4</c></rc>
    <rc><c>O </c><c>   5</c></rc>
    <rc><c>O </c><c>   5</c></rc>
    <rc><c>O </c><c>   5</c></rc>
    <rc><c>O </c><c>   5</c></rc>
    <rc><c>O </c><c>   5</c></rc>
    <rc><c>O </c><c>   5</c></rc>
    <rc><c>O </c><c>   5</c></rc>
    <rc><c>O </c><c>   5</c></rc>
    <rc><c>O </c><c>   5</c></rc>
    <rc><c>O </c><c>   5</c></rc>
    <rc><c>O </c><c>   5</c></rc>
    <rc><c>O </c><c>   5</c></rc>
    <rc><c>O </c><c>   5</c></rc>
    <rc><c>O </c><c>   5</c></rc>
    <rc><c>O </c><c>   5</c></rc>
    <rc><c>O </c><c>   5</c></rc>
   </set>
  </array>
  <array name="atomtypes" >
   <dimension dim="1">type</dimension>
   <field type="int">atomspertype</field>
   <field type="string">element</field>
   <field>mass</field>
   <field>valence</field>
   <field type="string">pseudopotential</field>
   <set>
    <rc><c>  12</c><c>Li</c><c>      7.01000000</c><c>      3.00000000</c><c>  PAW_PBE Li_sv 10Sep2004               </c></rc>
    <rc><c>   2</c><c>Mg</c><c>     24.30500000</c><c>      2.00000000</c><c>  PAW_PBE Mg 13Apr2007                  </c></rc>
    <rc><c>  16</c><c>Bi</c><c>    208.98000000</c><c>     15.00000000</c><c>  PAW_PBE Bi_d 06Sep2000                </c></rc>
    <rc><c>  16</c><c>S </c><c>     32.06600000</c><c>      6.00000000</c><c>  PAW_PBE S 06Sep2000                   </c></rc>
    <rc><c>  16</c><c>O </c><c>     16.00000000</c><c>      6.00000000</c><c>  PAW_PBE O 08Apr2002                   </c></rc>
   </set>
  </array>
 </atominfo>
 <structure name="initialpos" >
  <crystal>
   <varray name="basis" >
    <v>      11.17850000       0.00000000       0.00000000 </v>
    <v>       0.00000000       9.57460000       0.00000000 </v>
    <v>       0.00000000       0.00000000      11.18240000 </v>
   </varray>
   <i name="volume">   1196.84853820 </i>
   <varray name="rec_basis" >
    <v>       0.08945744       0.00000000       0.00000000 </v>
    <v>       0.00000000       0.10444301       0.00000000 </v>
    <v>       0.00000000       0.00000000       0.08942624 </v>
   </varray>
  </crystal>
  <varray name="positions" >
   <v>       0.37539000       0.00017000       0.43687000 </v>
   <v>       0.37461000       0.00017000       0.18687000 </v>
   <v>       0.62539000       0.99984000       0.43687000 </v>
   <v>       0.87539000       0.00017000       0.43687000 </v>
   <v>       0.62461000       0.99984000       0.18687000 </v>
   <v>       0.12539000       0.99984000       0.93687000 </v>
   <v>       0.37539000       0.00017000       0.93687000 </v>
   <v>       0.12461000       0.99984000       0.68687000 </v>
   <v>       0.37461000       0.00017000       0.68687000 </v>
   <v>       0.87539000       0.00017000       0.93687000 </v>
   <v>       0.62461000       0.99984000       0.68687000 </v>
   <v>       0.87461000       0.00017000       0.68687000 </v>
   <v>       0.87461000       0.00017000       0.18687000 </v>
   <v>       0.62539000       0.99984000       0.93687000 </v>
   <v>       0.00013000       0.29519000       0.06281000 </v>
   <v>       0.25013000       0.70481000       0.06281000 </v>
   <v>       0.24987000       0.29519000       0.31282000 </v>
   <v>       0.49987000       0.70481000       0.31282000 </v>
   <v>       0.50013000       0.29519000       0.06281000 </v>
   <v>       0.75013000       0.70481000       0.06281000 </v>
   <v>       0.74987000       0.29519000       0.31282000 </v>
   <v>       0.99987000       0.70481000       0.31282000 </v>
   <v>       0.00013000       0.29519000       0.56281000 </v>
   <v>       0.25013000       0.70481000       0.56281000 </v>
   <v>       0.24987000       0.29519000       0.81282000 </v>
   <v>       0.49987000       0.70481000       0.81282000 </v>
   <v>       0.50013000       0.29519000       0.56281000 </v>
   <v>       0.75013000       0.70481000       0.56281000 </v>
   <v>       0.74987000       0.29519000       0.81282000 </v>
   <v>       0.99987000       0.70481000       0.81282000 </v>
   <v>       0.25005000       0.32677000       0.06286000 </v>
   <v>       0.00005000       0.67323000       0.06286000 </v>
   <v>       0.49995000       0.32677000       0.31286000 </v>
   <v>       0.24995000       0.67323000       0.31286000 </v>
   <v>       0.75005000       0.32677000       0.06286000 </v>
   <v>       0.50005000       0.67323000       0.06286000 </v>
   <v>       0.99995000       0.32677000       0.31286000 </v>
   <v>       0.74995000       0.67323000       0.31286000 </v>
   <v>       0.25005000       0.32677000       0.56286000 </v>
   <v>       0.00005000       0.67323000       0.56286000 </v>
   <v>       0.49995000       0.32677000       0.81286000 </v>
   <v>       0.24995000       0.67323000       0.81286000 </v>
   <v>       0.75005000       0.32677000       0.56286000 </v>
   <v>       0.50005000       0.67323000       0.56286000 </v>
   <v>       0.99995000       0.32677000       0.81286000 </v>
   <v>       0.74995000       0.67323000       0.81286000 </v>
   <v>       0.49987000       0.07798000       0.06246000 </v>
   <v>       0.24987000       0.92202000       0.06246000 </v>
   <v>       0.25013000       0.07798000       0.31246000 </v>
   <v>       0.00013000       0.92202000       0.31246000 </v>
   <v>       0.99987000       0.07798000       0.06246000 </v>
   <v>       0.74987000       0.92202000       0.06246000 </v>
   <v>       0.75013000       0.07798000       0.31246000 </v>
   <v>       0.50013000       0.92202000       0.31246000 </v>
   <v>       0.49987000       0.07798000       0.56246000 </v>
   <v>       0.24987000       0.92202000       0.56246000 </v>
   <v>       0.25013000       0.07798000       0.81246000 </v>
   <v>       0.00013000       0.92202000       0.81246000 </v>
   <v>       0.99987000       0.07798000       0.56246000 </v>
   <v>       0.74987000       0.92202000       0.56246000 </v>
   <v>       0.75013000       0.07798000       0.81246000 </v>
   <v>       0.50013000       0.92202000       0.81246000 </v>
  </varray>
 </structure>
 <calculation>
  <scstep>
   <time name="dav">   65.21   65.30</time>
   <time name="total">   65.30   65.39</time>
   <energy>
    <i name="alphaZ">   1079.87189334 </i>
    <i name="ewald"> -31099.12603171 </i>
    <i name="hartreedc"> -12724.73997406 </i>
    <i name="XCdc">   1468.94602105 </i>
    <i name="pawpsdc">  36917.91861236 </i>
    <i name="pawaedc"> -36503.41947684 </i>
    <i name="eentropy">      0.00000000 </i>
    <i name="bandstr">   1589.36507967 </i>
    <i name="atom">  45173.57650906 </i>
    <i name="e_fr_energy">   5902.39263288 </i>
    <i name="e_wo_entrp">   5902.39263288 </i>
    <i name="e_0_energy">   5902.39263288 </i>
   </energy>
  </scstep>
  <scstep>
   <time name="dav">   65.29   65.37</time>
   <time name="total">   65.30   65.38</time>
   <energy>
    <i name="e_fr_energy">    757.77118534 </i>
    <i name="e_wo_entrp">    757.77118534 </i>
    <i name="e_0_energy">    757.77118534 </i>
   </energy>
  </scstep>
  <scstep>
   <time name="dav">   71.86   72.04</time>
   <time name="total">   71.86   72.05</time>
   <energy>
    <i name="e_fr_energy">   -242.12102403 </i>
    <i name="e_wo_entrp">   -242.12102403 </i>
    <i name="e_0_energy">   -242.12102403 </i>
   </energy>
  </scstep>
  <scstep>
   <time name="dav">   80.15   80.35</time>
   <time name="total">   80.15   80.35</time>
   <energy>
    <i name="e_fr_energy">   -351.44619069 </i>
    <i name="e_wo_entrp">   -351.44619069 </i>
    <i name="e_0_energy">   -351.44619069 </i>
   </energy>
  </scstep>
  <scstep>
   <time name="dav">  104.87  104.99</time>
   <time name="total">  105.60  105.72</time>
   <energy>
    <i name="e_fr_energy">   -360.24420492 </i>
    <i name="e_wo_entrp">   -360.24420492 </i>
    <i name="e_0_energy">   -360.24420492 </i>
   </energy>
  </scstep>
  <scstep>
   <time name="dav">   92.69   92.69</time>
   <time name="total">   93.50   93.50</time>
   <energy>
    <i name="e_fr_energy">   -300.30870771 </i>
    <i name="e_wo_entrp">   -300.30870771 </i>
    <i name="e_0_energy">   -300.30870771 </i>
   </energy>
  </scstep>
  <scstep>
   <time name="dav">   71.09   71.17</time>
   <time name="total">   71.90   71.98</time>
   <energy>
    <i name="e_fr_energy">   -302.31447802 </i>
    <i name="e_wo_entrp">   -302.31447802 </i>
    <i name="e_0_energy">   -302.31447802 </i>
   </energy>
  </scstep>
  <scstep>
   <time name="dav">   85.16   85.25</time>
   <time name="total">   85.96   86.06</time>
   <energy>
    <i name="e_fr_energy">   -300.88192970 </i>
    <i name="e_wo_entrp">   -300.88192970 </i>
    <i name="e_0_energy">   -300.88192970 </i>
   </energy>
  </scstep>
  <scstep>
   <time name="dav">   74.19   74.33</time>
   <time name="total">   75.00   75.14</time>
   <energy>
    <i name="e_fr_energy">   -300.18444391 </i>
    <i name="e_wo_entrp">   -300.18444391 </i>
    <i name="e_0_energy">   -300.18444391 </i>
   </energy>
  </scstep>
  <scstep>
   <time name="dav">   78.56   78.71</time>
   <time name="total">   79.37   79.52</time>
   <energy>
    <i name="e_fr_energy">   -300.21799407 </i>
    <i name="e_wo_entrp">   -300.21799407 </i>
    <i name="e_0_energy">   -300.21799407 </i>
   </energy>
  </scstep>
  <scstep>
   <time name="dav">   92.23   92.40</time>
   <time name="total">   93.03   93.21</time>
   <energy>
    <i name="e_fr_energy">   -300.22211671 </i>
    <i name="e_wo_entrp">   -300.22211671 </i>
    <i name="e_0_energy">   -300.22211671 </i>
   </energy>
  </scstep>
  <scstep>
   <time name="dav">   80.33   80.31</time>
   <time name="total">   81.14   81.12</time>
   <energy>
    <i name="e_fr_energy">   -300.22770607 </i>
    <i name="e_wo_entrp">   -300.22770607 </i>
    <i name="e_0_energy">   -300.22770607 </i>
   </energy>
  </scstep>
  <scstep>
   <time name="dav">   84.09   84.07</time>
   <time name="total">   84.90   84.88</time>
   <energy>
    <i name="e_fr_energy">   -300.22767306 </i>
    <i name="e_wo_entrp">   -300.22767306 </i>
    <i name="e_0_energy">   -300.22767306 </i>
   </energy>
  </scstep>
  <scstep>
   <time name="dav">   70.23   70.21</time>
   <time name="total">   71.03   71.02</time>
   <energy>
    <i name="e_fr_energy">   -300.22783732 </i>
    <i name="e_wo_entrp">   -300.22783732 </i>
    <i name="e_0_energy">   -300.22783732 </i>
   </energy>
  </scstep>
  <scstep>
   <time name="dav">   89.64   89.62</time>
   <time name="total">   90.45   90.43</time>
   <energy>
    <i name="e_fr_energy">   -300.22795643 </i>
    <i name="e_wo_entrp">   -300.22795643 </i>
    <i name="e_0_energy">   -300.22795643 </i>
   </energy>
  </scstep>
  <scstep>
   <time name="dav">   82.12   82.10</time>
   <time name="total">   82.93   82.92</time>
   <energy>
    <i name="e_fr_energy">   -300.22797021 </i>
    <i name="e_wo_entrp">   -300.22797021 </i>
    <i name="e_0_energy">   -300.22797021 </i>
   </energy>
  </scstep>
  <scstep>
   <time name="dav">   74.60   74.58</time>
   <time name="total">   75.42   75.39</time>
   <energy>
    <i name="e_fr_energy">   -300.22797902 </i>
    <i name="e_wo_entrp">   -300.22797902 </i>
    <i name="e_0_energy">   -300.22797902 </i>
   </energy>
  </scstep>
  <scstep>
   <time name="dav">   69.67   69.69</time>
   <time name="total">   70.48   70.50</time>
   <energy>
    <i name="e_fr_energy">   -300.22798060 </i>
    <i name="e_wo_entrp">   -300.22798060 </i>
    <i name="e_0_energy">   -300.22798060 </i>
   </energy>
  </scstep>
  <scstep>
   <time name="dav">   57.76   57.77</time>
   <time name="total">   57.83   57.85</time>
   <energy>
    <i name="alphaZ">   1079.87189334 </i>
    <i name="ewald"> -31099.12603171 </i>
    <i name="hartreedc"> -12956.02478175 </i>
    <i name="XCdc">   1491.69161991 </i>
    <i name="pawpsdc">  43947.75371429 </i>
    <i name="pawaedc"> -43509.01655992 </i>
    <i name="eentropy">      0.00000000 </i>
    <i name="bandstr">  -4428.95434442 </i>
    <i name="atom">  45173.57650906 </i>
    <i name="e_fr_energy">   -300.22798120 </i>
    <i name="e_wo_entrp">   -300.22798120 </i>
    <i name="e_0_energy">   -300.22798120 </i>
   </energy>
  </scstep>
  <structure>
   <crystal>
    <varray name="basis" >
     <v>      11.17850000       0.00000000       0.00000000 </v>
     <v>       0.00000000       9.57460000       0.00000000 </v>
     <v>       0.00000000       0.00000000      11.18240000 </v>
    </varray>
    <i name="volume">   1196.84853820 </i>
    <varray name="rec_basis" >
     <v>       0.08945744       0.00000000       0.00000000 </v>
     <v>       0.00000000       0.10444301       0.00000000 </v>
     <v>       0.00000000       0.00000000       0.08942624 </v>
    </varray>
   </crystal>
   <varray name="positions" >
    <v>       0.37539000       0.00017000       0.43687000 </v>
    <v>       0.37461000       0.00017000       0.18687000 </v>
    <v>       0.62539000       0.99984000       0.43687000 </v>
    <v>       0.87539000       0.00017000       0.43687000 </v>
    <v>       0.62461000       0.99984000       0.18687000 </v>
    <v>       0.12539000       0.99984000       0.93687000 </v>
    <v>       0.37539000       0.00017000       0.93687000 </v>
    <v>       0.12461000       0.99984000       0.68687000 </v>
    <v>       0.37461000       0.00017000       0.68687000 </v>
    <v>       0.87539000       0.00017000       0.93687000 </v>
    <v>       0.62461000       0.99984000       0.68687000 </v>
    <v>       0.87461000       0.00017000       0.68687000 </v>
    <v>       0.87461000       0.00017000       0.18687000 </v>
    <v>       0.62539000       0.99984000       0.93687000 </v>
    <v>       0.00013000       0.29519000       0.06281000 </v>
    <v>       0.25013000       0.70481000       0.06281000 </v>
    <v>       0.24987000       0.29519000       0.31282000 </v>
    <v>       0.49987000       0.70481000       0.31282000 </v>
    <v>       0.50013000       0.29519000       0.06281000 </v>
    <v>       0.75013000       0.70481000       0.06281000 </v>
    <v>       0.74987000       0.29519000       0.31282000 </v>
    <v>       0.99987000       0.70481000       0.31282000 </v>
    <v>       0.00013000       0.29519000       0.56281000 </v>
    <v>       0.25013000       0.70481000       0.56281000 </v>
    <v>       0.24987000       0.29519000       0.81282000 </v>
    <v>       0.49987000       0.70481000       0.81282000 </v>
    <v>       0.50013000       0.29519000       0.56281000 </v>
    <v>       0.75013000       0.70481000       0.56281000 </v>
    <v>       0.74987000       0.29519000       0.81282000 </v>
    <v>       0.99987000       0.70481000       0.81282000 </v>
    <v>       0.25005000       0.32677000       0.06286000 </v>
    <v>       0.00005000       0.67323000       0.06286000 </v>
    <v>       0.49995000       0.32677000       0.31286000 </v>
    <v>       0.24995000       0.67323000       0.31286000 </v>
    <v>       0.75005000       0.32677000       0.06286000 </v>
    <v>       0.50005000       0.67323000       0.06286000 </v>
    <v>       0.99995000       0.32677000       0.31286000 </v>
    <v>       0.74995000       0.67323000       0.31286000 </v>
    <v>       0.25005000       0.32677000       0.56286000 </v>
    <v>       0.00005000       0.67323000       0.56286000 </v>
    <v>       0.49995000       0.32677000       0.81286000 </v>
    <v>       0.24995000       0.67323000       0.81286000 </v>
    <v>       0.75005000       0.32677000       0.56286000 </v>
    <v>       0.50005000       0.67323000       0.56286000 </v>
    <v>       0.99995000       0.32677000       0.81286000 </v>
    <v>       0.74995000       0.67323000       0.81286000 </v>
    <v>       0.49987000       0.07798000       0.06246000 </v>
    <v>       0.24987000       0.92202000       0.06246000 </v>
    <v>       0.25013000       0.07798000       0.31246000 </v>
    <v>       0.00013000       0.92202000       0.31246000 </v>
    <v>       0.99987000       0.07798000       0.06246000 </v>
    <v>       0.74987000       0.92202000       0.06246000 </v>
    <v>       0.75013000       0.07798000       0.31246000 </v>
    <v>       0.50013000       0.92202000       0.31246000 </v>
    <v>       0.49987000       0.07798000       0.56246000 </v>
    <v>       0.24987000       0.92202000       0.56246000 </v>
    <v>       0.25013000       0.07798000       0.81246000 </v>
    <v>       0.00013000       0.92202000       0.81246000 </v>
    <v>       0.99987000       0.07798000       0.56246000 </v>
    <v>       0.74987000       0.92202000       0.56246000 </v>
    <v>       0.75013000       0.07798000       0.81246000 </v>
    <v>       0.50013000       0.92202000       0.81246000 </v>
   </varray>
  </structure>
  <varray name="forces" >
   <v>      -0.74847765       0.05058624      -0.12846496 </v>
   <v>      -0.82680713      -0.02441493       0.31223711 </v>
   <v>      -0.12708241      -0.06625422       0.09983616 </v>
   <v>       0.75271774      -0.06300530       0.32622122 </v>
   <v>      -0.51915217      -0.00114422       0.57236478 </v>
   <v>       0.11272822      -0.06473937       0.41361588 </v>
   <v>      -0.76466362      -0.05898854       0.15363723 </v>
   <v>       0.05345786       0.00234843      -0.55721899 </v>
   <v>      -0.34343675       0.01315905      -0.31498288 </v>
   <v>       0.75567001       0.05953015      -0.31680176 </v>
   <v>      -0.03280241      -0.00016285      -0.55940174 </v>
   <v>       0.35029866      -0.01288865      -0.31312053 </v>
   <v>       1.61915291       0.01246149       0.57347563 </v>
   <v>      -0.28017835       0.11563159      -0.16756655 </v>
   <v>       0.61689259       0.03705332       0.22398925 </v>
   <v>      -0.27206393       0.97615111       0.33334831 </v>
   <v>      -0.33215216      -1.96628549       0.13073201 </v>
   <v>      -0.44531767      -0.05640263       0.19612839 </v>
   <v>      -0.57305075       1.10197889       0.30433255 </v>
   <v>       0.20895628      -2.05948244       0.16292477 </v>
   <v>       0.10572501       1.09472736       0.34332565 </v>
   <v>       0.69354190       0.98984742       0.24662947 </v>
   <v>       0.40944293      -1.01857222      -0.26861682 </v>
   <v>      -0.27171942       1.03697432      -0.32836309 </v>
   <v>      -0.17424712       0.03334077      -0.16510171 </v>
   <v>      -0.45764213      -1.07972046      -0.30138322 </v>
   <v>      -0.36129714       0.02880046      -0.21211685 </v>
   <v>       0.18982049      -0.06550170      -0.14416547 </v>
   <v>       0.31169411       1.11970397      -0.36851313 </v>
   <v>       0.33763168      -0.03730149      -0.22020819 </v>
   <v>       0.19626138       0.19049008      -0.28838481 </v>
   <v>      -0.47416233      -0.11701807      -0.13162717 </v>
   <v>       0.43389288       0.18795303      -0.17168775 </v>
   <v>       0.22376260      -0.22353086      -0.07936654 </v>
   <v>      -0.15136934      -0.04152054      -0.08374980 </v>
   <v>       0.42836790      -0.04529455      -0.19935751 </v>
   <v>      -0.52367827       0.13196039      -0.23078304 </v>
   <v>      -0.12604690      -0.11955881      -0.27508220 </v>
   <v>       0.19876465       0.24771857       0.31015383 </v>
   <v>      -0.27245123      -0.22196519       0.19356602 </v>
   <v>       0.27409683       0.04107941       0.19815572 </v>
   <v>       0.17072748      -0.23011699       0.06377353 </v>
   <v>      -0.16065315       0.15317804       0.09723987 </v>
   <v>       0.23754770      -0.18451597       0.16935076 </v>
   <v>      -0.25198883       0.19120958       0.16404457 </v>
   <v>      -0.19107311      -0.00115674       0.25897179 </v>
   <v>       0.91877661      -0.97863214      -0.67335736 </v>
   <v>       0.76967282      -0.77877936      -0.77325711 </v>
   <v>       1.25508771       1.62641882      -0.06558456 </v>
   <v>      -1.94504797      -0.69397879      -0.60126743 </v>
   <v>      -1.47469226      -0.05551070      -0.25115520 </v>
   <v>      -0.20532547       1.65146486      -0.13438995 </v>
   <v>       0.28112933      -0.87516074      -0.74450742 </v>
   <v>       0.37902594       0.05983846      -0.16928946 </v>
   <v>       0.24792657      -0.04231792       0.16772376 </v>
   <v>       0.73190867      -0.88908713       0.77737578 </v>
   <v>       0.16259414       0.00743188       0.08204662 </v>
   <v>      -0.26176614       0.03931210       0.15690413 </v>
   <v>      -0.79796000       0.84661225       0.71970236 </v>
   <v>      -0.15229780       0.10074243       0.09369719 </v>
   <v>      -0.65145391      -1.01902832       0.73928827 </v>
   <v>       0.74278394       0.94433287       0.65408059 </v>
  </varray>
  <varray name="stress" >
   <v>      -8.67815946       0.07541867       0.18965960 </v>
   <v>       0.07541897     -13.93274363       0.14388548 </v>
   <v>       0.18965940       0.14388520      -5.56747726 </v>
  </varray>
  <energy>
   <i name="e_fr_energy">   -316.06366805 </i>
   <i name="e_wo_entrp">   -316.06366805 </i>
   <i name="e_0_energy">      0.00000000 </i>
  </energy>
  <time name="totalsc"> 1626.87 1628.12</time>
 </calculation>
 <calculation>
  <scstep>
   <time name="dav">   66.25   66.32</time>
   <time name="total">   67.06   67.13</time>
   <energy>
    <i name="alphaZ">   1097.76061435 </i>
    <i name="ewald"> -31267.95336467 </i>
    <i name="hartreedc"> -13021.64914352 </i>
    <i name="XCdc">   1501.41409956 </i>
    <i name="pawpsdc">  43947.56694105 </i>
    <i name="pawaedc"> -43508.83217417 </i>
    <i name="eentropy">      0.00000000 </i>
    <i name="bandstr">  -4221.55421741 </i>
    <i name="atom">  45173.57650906 </i>
    <i name="e_fr_energy">   -299.67073574 </i>
    <i name="e_wo_entrp">   -299.67073574 </i>
    <i name="e_0_energy">   -299.67073574 </i>
   </energy>
  </scstep>
  <scstep>
   <time name="dav">   75.20   75.23</time>
   <time name="total">   76.01   76.03</time>
   <energy>
    <i name="e_fr_energy">   -301.67174604 </i>
    <i name="e_wo_entrp">   -301.67174604 </i>
    <i name="e_0_energy">   -301.67174604 </i>
   </energy>
  </scstep>
  <scstep>
   <time name="dav">   97.45   97.44</time>
   <time name="total">   98.26   98.26</time>
   <energy>
    <i name="e_fr_energy">   -301.43977868 </i>
    <i name="e_wo_entrp">   -301.43977868 </i>
    <i name="e_0_energy">   -301.43977868 </i>
   </energy>
  </scstep>
  <scstep>
   <time name="dav">   84.27   84.24</time>
   <time name="total">   85.08   85.05</time>
   <energy>
    <i name="e_fr_energy">   -301.32903532 </i>
    <i name="e_wo_entrp">   -301.32903532 </i>
    <i name="e_0_energy">   -301.32903532 </i>
   </energy>
  </scstep>
  <scstep>
   <time name="dav">   82.84   82.83</time>
   <time name="total">   83.64   83.64</time>
   <energy>
    <i name="e_fr_energy">   -301.32838609 </i>
    <i name="e_wo_entrp">   -301.32838609 </i>
    <i name="e_0_energy">   -301.32838609 </i>
   </energy>
  </scstep>
  <scstep>
   <time name="dav">   83.94   83.95</time>
   <time name="total">   84.75   84.77</time>
   <energy>
    <i name="e_fr_energy">   -301.32694934 </i>
    <i name="e_wo_entrp">   -301.32694934 </i>
    <i name="e_0_energy">   -301.32694934 </i>
   </energy>
  </scstep>
  <scstep>
   <time name="dav">   83.95   83.97</time>
   <time name="total">   84.75   84.77</time>
   <energy>
    <i name="e_fr_energy">   -301.32592217 </i>
    <i name="e_wo_entrp">   -301.32592217 </i>
    <i name="e_0_energy">   -301.32592217 </i>
   </energy>
  </scstep>
  <scstep>
   <time name="dav">   96.05   96.07</time>
   <time name="total">   96.86   96.88</time>
   <energy>
    <i name="e_fr_energy">   -301.32593481 </i>
    <i name="e_wo_entrp">   -301.32593481 </i>
    <i name="e_0_energy">   -301.32593481 </i>
   </energy>
  </scstep>
  <scstep>
   <time name="dav">   79.51   79.63</time>
   <time name="total">   80.32   80.44</time>
   <energy>
    <i name="e_fr_energy">   -301.32598539 </i>
    <i name="e_wo_entrp">   -301.32598539 </i>
    <i name="e_0_energy">   -301.32598539 </i>
   </energy>
  </scstep>
  <scstep>
   <time name="dav">   91.81   91.90</time>
   <time name="total">   92.62   92.71</time>
   <energy>
    <i name="e_fr_energy">   -301.32598859 </i>
    <i name="e_wo_entrp">   -301.32598859 </i>
    <i name="e_0_energy">   -301.32598859 </i>
   </energy>
  </scstep>
  <scstep>
   <time name="dav">   70.58   70.64</time>
   <time name="total">   71.40   71.46</time>
   <energy>
    <i name="e_fr_energy">   -301.32598944 </i>
    <i name="e_wo_entrp">   -301.32598944 </i>
    <i name="e_0_energy">   -301.32598944 </i>
   </energy>
  </scstep>
  <scstep>
   <time name="dav">   68.53   68.57</time>
   <time name="total">   68.60   68.65</time>
   <energy>
    <i name="alphaZ">   1097.76061435 </i>
    <i name="ewald"> -31267.95336467 </i>
    <i name="hartreedc"> -12872.11201860 </i>
    <i name="XCdc">   1494.50091776 </i>
    <i name="pawpsdc">  44312.78683317 </i>
    <i name="pawaedc"> -43876.92025836 </i>
    <i name="eentropy">      0.00000000 </i>
    <i name="bandstr">  -4362.96522210 </i>
    <i name="atom">  45173.57650906 </i>
    <i name="e_fr_energy">   -301.32598940 </i>
    <i name="e_wo_entrp">   -301.32598940 </i>
    <i name="e_0_energy">   -301.32598940 </i>
   </energy>
  </scstep>
  <structure>
   <crystal>
    <varray name="basis" >
     <v>      11.12211296       0.00049004       0.00123233 </v>
     <v>       0.00041973       9.49706007       0.00080077 </v>
     <v>       0.00123276       0.00093523      11.14621225 </v>
    </varray>
    <i name="volume">   1177.34511523 </i>
    <varray name="rec_basis" >
     <v>       0.08991097      -0.00000397      -0.00000994 </v>
     <v>      -0.00000464       0.10529574      -0.00000883 </v>
     <v>      -0.00000994      -0.00000756       0.08971658 </v>
    </varray>
   </crystal>
   <varray name="positions" >
    <v>       0.37215982       0.00042488       0.43631578 </v>
    <v>       0.37104178       0.00004698       0.18821704 </v>
    <v>       0.62484155       0.99950617       0.43730071 </v>
    <v>       0.87863848      -0.00014746       0.43827737 </v>
    <v>       0.62236951       0.99983423       0.18933927 </v>
    <v>       0.12587650       0.99951380       0.93865440 </v>
    <v>       0.37208997      -0.00012722       0.93753282 </v>
    <v>       0.12484071       0.99985183       0.68446607 </v>
    <v>       0.37312784       0.00023630       0.68551111 </v>
    <v>       0.87865122       0.00046995       0.93550327 </v>
    <v>       0.62446844       0.99983918       0.68445665 </v>
    <v>       0.87612177       0.00010506       0.68551915 </v>
    <v>       0.88159772       0.00023279       0.18934407 </v>
    <v>       0.62418084       0.00042262       0.93614709 </v>
    <v>       0.00279230       0.29537670       0.06377633 </v>
    <v>       0.24895586       0.70972844       0.06424812 </v>
    <v>       0.24843654       0.28528266       0.31338400 </v>
    <v>       0.49794816       0.70452581       0.31366613 </v>
    <v>       0.49765691       0.30074244       0.06412294 </v>
    <v>       0.75103179       0.69443308       0.06351288 </v>
    <v>       0.75032627       0.30070590       0.31430116 </v>
    <v>       0.00286309       0.70979745       0.31388400 </v>
    <v>       0.00189702       0.29005781       0.56165114 </v>
    <v>       0.24895735       0.71003491       0.56139339 </v>
    <v>       0.24911801       0.29535799       0.81210772 </v>
    <v>       0.49789497       0.69936971       0.81151978 </v>
    <v>       0.49857076       0.29533511       0.56189489 </v>
    <v>       0.75094920       0.70447996       0.56218805 </v>
    <v>       0.75121517       0.30083175       0.81123018 </v>
    <v>       0.00132710       0.70462205       0.81186999 </v>
    <v>       0.25089700       0.32772980       0.06161586 </v>
    <v>      -0.00199633       0.67264039       0.06229214 </v>
    <v>       0.50182254       0.32771702       0.31211931 </v>
    <v>       0.25091568       0.67210372       0.31251760 </v>
    <v>       0.74939674       0.32656079       0.06249869 </v>
    <v>       0.50189869       0.67300178       0.06199994 </v>
    <v>       0.99768998       0.32743490       0.31186437 </v>
    <v>       0.74940602       0.67262759       0.31167325 </v>
    <v>       0.25090780       0.32801816       0.56419805 </v>
    <v>      -0.00112581       0.67211160       0.56369507 </v>
    <v>       0.50113291       0.32697698       0.81371488 </v>
    <v>       0.25068680       0.67207053       0.81313513 </v>
    <v>       0.74935667       0.32754180       0.56327951 </v>
    <v>       0.50107518       0.67230030       0.56359061 </v>
    <v>       0.99886250       0.32773343       0.81356771 </v>
    <v>       0.74912539       0.67322417       0.81397725 </v>
    <v>       0.50383513       0.07304906       0.05955503 </v>
    <v>       0.25319165       0.91809604       0.05912405 </v>
    <v>       0.25554654       0.08617489       0.31217706 </v>
    <v>      -0.00826417       0.91852331       0.30986604 </v>
    <v>       0.99350572       0.07770030       0.06137648 </v>
    <v>       0.74898388       0.93034108       0.06188022 </v>
    <v>       0.75134326       0.07357041       0.30924808 </v>
    <v>       0.50176575       0.92232150       0.31172966 </v>
    <v>       0.50093997       0.07776678       0.56318359 </v>
    <v>       0.25302867       0.91754024       0.56581372 </v>
    <v>       0.25083170       0.07801745       0.81281396 </v>
    <v>      -0.00099969       0.92221808       0.81313691 </v>
    <v>       0.99642627       0.08224575       0.56556491 </v>
    <v>       0.74921273       0.92252760       0.56286422 </v>
    <v>       0.74731854       0.07284552       0.81564941 </v>
    <v>       0.50333561       0.92677812       0.81528181 </v>
   </varray>
  </structure>
  <varray name="forces" >
   <v>      -0.47052134       0.01830811      -0.07727177 </v>
   <v>      -0.46173076      -0.02461730       0.13022863 </v>
   <v>      -0.01106227      -0.03620660      -0.00433419 </v>
   <v>       0.41302959      -0.03398789       0.18762598 </v>
   <v>      -0.16090151       0.00393909       0.24320562 </v>
   <v>       0.01456199      -0.03258953       0.29011122 </v>
   <v>      -0.34922072      -0.03104427       0.07153662 </v>
   <v>       0.03664394       0.00153564      -0.33039300 </v>
   <v>      -0.10556686       0.01590838      -0.09526730 </v>
   <v>       0.26587671       0.03383057      -0.14524902 </v>
   <v>      -0.00896347      -0.00206753      -0.24964591 </v>
   <v>       0.10173578      -0.01774742      -0.08195893 </v>
   <v>       0.23464185       0.10602753      -0.12353655 </v>
   <v>       0.09206590       0.02156800       0.12650131 </v>
   <v>       0.16763294       0.23535734       0.07701665 </v>
   <v>      -0.10747529      -0.99160470       0.14551405 </v>
   <v>      -0.30856822       2.47838119       0.08398476 </v>
   <v>      -0.09498182      -0.22742724       0.03851526 </v>
   <v>      -0.11650496      -0.12168406       0.08200569 </v>
   <v>       0.02699496       0.11274837       0.05876499 </v>
   <v>       0.02168742      -0.07401366       0.04181274 </v>
   <v>       0.36725225      -0.86616270       0.13490775 </v>
   <v>       0.20322873       1.10586205      -0.13748087 </v>
   <v>      -0.13010445      -1.17929275      -0.14495362 </v>
   <v>      -0.01792347       0.31556963      -0.09283261 </v>
   <v>      -0.14554661       0.09855364      -0.08519313 </v>
   <v>      -0.13994743       0.24920615      -0.05098153 </v>
   <v>       0.04315402      -0.19083506      -0.04960559 </v>
   <v>       0.09050057      -0.15540569      -0.07013804 </v>
   <v>       0.08880768      -0.25761452      -0.07853433 </v>
   <v>       0.09797847       0.12073926      -0.12897892 </v>
   <v>      -0.20317108      -0.12366551      -0.01826154 </v>
   <v>       0.16881874       0.20000175      -0.07738410 </v>
   <v>       0.12821551      -0.09037750      -0.03575524 </v>
   <v>      -0.04873708       0.23906695      -0.03841309 </v>
   <v>       0.15227218      -0.19211179      -0.08979600 </v>
   <v>      -0.28555623       0.07290157      -0.14119540 </v>
   <v>      -0.02093204      -0.23796403      -0.10909400 </v>
   <v>       0.10271723       0.15595435       0.16250286 </v>
   <v>      -0.12744731      -0.13263973       0.08286169 </v>
   <v>       0.11423596       0.17947738       0.08713349 </v>
   <v>       0.07035197      -0.21688306       0.01973525 </v>
   <v>      -0.05238902       0.16868773       0.05096271 </v>
   <v>       0.08732929      -0.18539816       0.07673419 </v>
   <v>      -0.10277403       0.18495017       0.06894867 </v>
   <v>      -0.07474531      -0.16398955       0.09001099 </v>
   <v>       0.18094225       0.41762326      -0.20016656 </v>
   <v>       0.51087546       1.12993415      -0.53870563 </v>
   <v>       1.11785323      -2.79459121      -0.03495540 </v>
   <v>      -1.08269576       0.82288707      -0.07249466 </v>
   <v>      -0.65734715      -0.07244135      -0.28697993 </v>
   <v>       0.10649830      -0.57695723       0.06874615 </v>
   <v>       0.29366374       0.33573696      -0.26724032 </v>
   <v>       0.00919896       0.19368654       0.00349899 </v>
   <v>       0.02630840      -0.22815731       0.00793942 </v>
   <v>       0.52486910       1.30254345       0.55022469 </v>
   <v>      -0.00812345      -0.27040338       0.00822669 </v>
   <v>       0.00045990       0.22735423       0.00018321 </v>
   <v>      -0.53256009      -1.23200778       0.54238260 </v>
   <v>      -0.00315742       0.17965661       0.00600185 </v>
   <v>      -0.18906306       0.43431039       0.16595239 </v>
   <v>       0.15731520      -0.40241901       0.15302005 </v>
  </varray>
  <varray name="stress" >
   <v>       5.66705638      -0.47070885       0.09862319 </v>
   <v>      -0.47070889       8.60694189      -0.62086860 </v>
   <v>       0.09862337      -0.62086876       3.94014459 </v>
  </varray>
  <energy>
   <i name="e_fr_energy">   -317.37403893 </i>
   <i name="e_wo_entrp">   -317.37403893 </i>
   <i name="e_0_energy">      0.00000000 </i>
  </energy>
  <time name="totalsc"> 1102.98 1103.47</time>
 </calculation>
 <calculation>
  <scstep>
   <time name="dav">   71.58   71.57</time>
   <time name="total">   72.39   72.37</time>
   <energy>
    <i name="alphaZ">   1095.64512142 </i>
    <i name="ewald"> -31250.28452333 </i>
    <i name="hartreedc"> -12862.62416760 </i>
    <i name="XCdc">   1493.33035012 </i>
    <i name="pawpsdc">  44312.74588224 </i>
    <i name="pawaedc"> -43876.88289815 </i>
    <i name="eentropy">      0.00000000 </i>
    <i name="bandstr">  -4386.86299192 </i>
    <i name="atom">  45173.57650906 </i>
    <i name="e_fr_energy">   -301.35671815 </i>
    <i name="e_wo_entrp">   -301.35671815 </i>
    <i name="e_0_energy">   -301.35671815 </i>
   </energy>
  </scstep>
  <scstep>
   <time name="dav">   72.61   72.61</time>
   <time name="total">   73.43   73.42</time>
   <energy>
    <i name="e_fr_energy">   -301.38217980 </i>
    <i name="e_wo_entrp">   -301.38217980 </i>
    <i name="e_0_energy">   -301.38217980 </i>
   </energy>
  </scstep>
  <scstep>
   <time name="dav">   87.67   87.66</time>
   <time name="total">   88.47   88.46</time>
   <energy>
    <i name="e_fr_energy">   -301.37935311 </i>
    <i name="e_wo_entrp">   -301.37935311 </i>
    <i name="e_0_energy">   -301.37935311 </i>
   </energy>
  </scstep>
  <scstep>
   <time name="dav">   90.67   90.66</time>
   <time name="total">   91.47   91.47</time>
   <energy>
    <i name="e_fr_energy">   -301.37812219 </i>
    <i name="e_wo_entrp">   -301.37812219 </i>
    <i name="e_0_energy">   -301.37812219 </i>
   </energy>
  </scstep>
  <scstep>
   <time name="dav">   82.46   82.45</time>
   <time name="total">   83.28   83.26</time>
   <energy>
    <i name="e_fr_energy">   -301.37806310 </i>
    <i name="e_wo_entrp">   -301.37806310 </i>
    <i name="e_0_energy">   -301.37806310 </i>
   </energy>
  </scstep>
  <scstep>
   <time name="dav">   77.60   77.58</time>
   <time name="total">   78.41   78.39</time>
   <energy>
    <i name="e_fr_energy">   -301.37802386 </i>
    <i name="e_wo_entrp">   -301.37802386 </i>
    <i name="e_0_energy">   -301.37802386 </i>
   </energy>
  </scstep>
  <scstep>
   <time name="dav">   95.84   95.82</time>
   <time name="total">   96.66   96.64</time>
   <energy>
    <i name="e_fr_energy">   -301.37799695 </i>
    <i name="e_wo_entrp">   -301.37799695 </i>
    <i name="e_0_energy">   -301.37799695 </i>
   </energy>
  </scstep>
  <scstep>
   <time name="dav">   82.28   82.27</time>
   <time name="total">   83.08   83.09</time>
   <energy>
    <i name="e_fr_energy">   -301.37799423 </i>
    <i name="e_wo_entrp">   -301.37799423 </i>
    <i name="e_0_energy">   -301.37799423 </i>
   </energy>
  </scstep>
  <scstep>
   <time name="dav">   70.55   70.52</time>
   <time name="total">   70.62   70.60</time>
   <energy>
    <i name="alphaZ">   1095.64512142 </i>
    <i name="ewald"> -31250.28452333 </i>
    <i name="hartreedc"> -12880.27304791 </i>
    <i name="XCdc">   1494.14987689 </i>
    <i name="pawpsdc">  44261.36708093 </i>
    <i name="pawaedc"> -43825.03417225 </i>
    <i name="eentropy">      0.00000000 </i>
    <i name="bandstr">  -4370.52483968 </i>
    <i name="atom">  45173.57650906 </i>
    <i name="e_fr_energy">   -301.37799487 </i>
    <i name="e_wo_entrp">   -301.37799487 </i>
    <i name="e_0_energy">   -301.37799487 </i>
   </energy>
  </scstep>
  <structure>
   <crystal>
    <varray name="basis" >
     <v>      11.12871494       0.00043266       0.00108804 </v>
     <v>       0.00037059       9.50613870       0.00070701 </v>
     <v>       0.00108842       0.00082573      11.15044923 </v>
    </varray>
    <i name="volume">   1179.61835609 </i>
    <varray name="rec_basis" >
     <v>       0.08985764      -0.00000350      -0.00000877 </v>
     <v>      -0.00000409       0.10519518      -0.00000779 </v>
     <v>      -0.00000877      -0.00000667       0.08968249 </v>
    </varray>
   </crystal>
   <varray name="positions" >
    <v>       0.37253993       0.00039477       0.43638084 </v>
    <v>       0.37146169       0.00006150       0.18805877 </v>
    <v>       0.62490610       0.99954558       0.43725011 </v>
    <v>       0.87825622      -0.00010995       0.43811210 </v>
    <v>       0.62263320       0.99983493       0.18904919 </v>
    <v>       0.12581927       0.99955233       0.93844481 </v>
    <v>       0.37247831      -0.00009215       0.93745491 </v>
    <v>       0.12481353       0.99985041       0.68474845 </v>
    <v>       0.37330224       0.00022845       0.68567071 </v>
    <v>       0.87826743       0.00043455       0.93566385 </v>
    <v>       0.62448506       0.99983925       0.68474013 </v>
    <v>       0.87594385       0.00011272       0.68567784 </v>
    <v>       0.88077546       0.00022545       0.18905354 </v>
    <v>       0.62432313       0.00035383       0.93623200 </v>
    <v>       0.00247902       0.29535469       0.06366285 </v>
    <v>       0.24909407       0.70914788       0.06407922 </v>
    <v>       0.24860519       0.28645211       0.31331765 </v>
    <v>       0.49817432       0.70455935       0.31356671 </v>
    <v>       0.49794797       0.30008703       0.06396873 </v>
    <v>       0.75092563       0.69565797       0.06343024 </v>
    <v>       0.75027262       0.30005483       0.31412723 </v>
    <v>       0.00251091       0.70920877       0.31375910 </v>
    <v>       0.00168904       0.29066361       0.56178725 </v>
    <v>       0.24909535       0.70941814       0.56155982 </v>
    <v>       0.24920649       0.29533815       0.81219138 </v>
    <v>       0.49812734       0.70001185       0.81167244 </v>
    <v>       0.49875424       0.29531796       0.56200237 </v>
    <v>       0.75085279       0.70451892       0.56226111 </v>
    <v>       0.75105688       0.30016579       0.81141699 </v>
    <v>       0.00115562       0.70464424       0.81198160 </v>
    <v>       0.25079731       0.32761650       0.06176202 </v>
    <v>      -0.00175553       0.67270997       0.06235881 </v>
    <v>       0.50160218       0.32760524       0.31220635 </v>
    <v>       0.25080204       0.67223666       0.31255782 </v>
    <v>       0.74947361       0.32658548       0.06254112 </v>
    <v>       0.50168113       0.67302872       0.06210099 </v>
    <v>       0.99795592       0.32735639       0.31198129 </v>
    <v>       0.74947002       0.67269868       0.31181264 </v>
    <v>       0.25080688       0.32787085       0.56404090 </v>
    <v>      -0.00098744       0.67224362       0.56359696 </v>
    <v>       0.50099372       0.32695257       0.81361448 </v>
    <v>       0.25060010       0.67220740       0.81310281 </v>
    <v>       0.74943827       0.32745070       0.56323023 </v>
    <v>       0.50095454       0.67241005       0.56350479 </v>
    <v>       0.99899049       0.32761971       0.81348458 </v>
    <v>       0.74922244       0.67322487       0.81384600 </v>
    <v>       0.50336847       0.07363109       0.05989627 </v>
    <v>       0.25280071       0.91855920       0.05951591 </v>
    <v>       0.25490917       0.08520760       0.31221043 </v>
    <v>      -0.00727642       0.91893598       0.31017059 </v>
    <v>       0.99425464       0.07773327       0.06150367 </v>
    <v>       0.74908819       0.92935886       0.06194838 </v>
    <v>       0.75120043       0.07409088       0.30962534 </v>
    <v>       0.50157325       0.92228591       0.31181547 </v>
    <v>       0.50081407       0.07779196       0.56309860 </v>
    <v>       0.25265699       0.91806908       0.56541979 </v>
    <v>       0.25074913       0.07801303       0.81277239 </v>
    <v>      -0.00086675       0.92219470       0.81305738 </v>
    <v>       0.99683158       0.08174224       0.56520019 </v>
    <v>       0.74929009       0.92246769       0.56281674 </v>
    <v>       0.74764941       0.07345161       0.81527469 </v>
    <v>       0.50295844       0.92621653       0.81495043 </v>
   </varray>
  </structure>
  <varray name="forces" >
   <v>      -0.50549750       0.02385182      -0.08495846 </v>
   <v>      -0.50627231      -0.02178493       0.15271024 </v>
   <v>      -0.02492712      -0.03959534       0.00762382 </v>
   <v>       0.45489268      -0.03721935       0.20288205 </v>
   <v>      -0.20225609       0.00252401       0.28223183 </v>
   <v>       0.02646876      -0.03678082       0.30546408 </v>
   <v>      -0.39977805      -0.03568365       0.08307665 </v>
   <v>       0.03874817       0.00154350      -0.35813504 </v>
   <v>      -0.13462867       0.01393727      -0.12219578 </v>
   <v>       0.32455991       0.03690708      -0.16354140 </v>
   <v>      -0.01196187      -0.00170699      -0.28646158 </v>
   <v>       0.13224237      -0.01548540      -0.11014099 </v>
   <v>       0.41578767       0.07963875      -0.02734922 </v>
   <v>       0.04230246       0.03372334       0.08929639 </v>
   <v>       0.22041504       0.21306501       0.09491487 </v>
   <v>      -0.12137093      -0.70959157       0.16376950 </v>
   <v>      -0.28566145       1.72663086       0.08601450 </v>
   <v>      -0.13823632      -0.20554337       0.05684162 </v>
   <v>      -0.17336149      -0.00313298       0.10967418 </v>
   <v>       0.04981653      -0.06885861       0.07139315 </v>
   <v>       0.03181039       0.04151220       0.07763325 </v>
   <v>       0.39612896      -0.61026046       0.14480146 </v>
   <v>       0.22206739       0.79896916      -0.14781487 </v>
   <v>      -0.14153484      -0.85677195      -0.16136796 </v>
   <v>      -0.03602743       0.28050840      -0.10188708 </v>
   <v>      -0.18477948      -0.01663434      -0.11227424 </v>
   <v>      -0.16731197       0.22162593      -0.06962531 </v>
   <v>       0.06122374      -0.17516656      -0.06050367 </v>
   <v>       0.11850477      -0.03174438      -0.10627257 </v>
   <v>       0.11810743      -0.23029079      -0.09612640 </v>
   <v>       0.11057768       0.13016599      -0.14833539 </v>
   <v>      -0.23798679      -0.12387260      -0.03165280 </v>
   <v>       0.20183944       0.19984447      -0.08904468 </v>
   <v>       0.13950995      -0.10774934      -0.04097311 </v>
   <v>      -0.06036994       0.20873450      -0.04362714 </v>
   <v>       0.18589654      -0.17635762      -0.10290723 </v>
   <v>      -0.31577755       0.08164722      -0.15200255 </v>
   <v>      -0.03280446      -0.22469333      -0.12989671 </v>
   <v>       0.11459818       0.16874165       0.18107470 </v>
   <v>      -0.14529305      -0.14424785       0.09650120 </v>
   <v>       0.13344991       0.16443706       0.10015626 </v>
   <v>       0.08349713      -0.21881581       0.02477675 </v>
   <v>      -0.06512230       0.16727450       0.05651095 </v>
   <v>       0.10543034      -0.18571454       0.08847215 </v>
   <v>      -0.12158076       0.18608950       0.08007301 </v>
   <v>      -0.08851131      -0.14654361       0.11026544 </v>
   <v>       0.27684176       0.27311751      -0.26407718 </v>
   <v>       0.53756096       0.85727345      -0.56324874 </v>
   <v>       1.11009457      -2.05241653      -0.03544583 </v>
   <v>      -1.19285629       0.62520150      -0.15262632 </v>
   <v>      -0.75976719      -0.07607687      -0.27964317 </v>
   <v>       0.06950621      -0.38362491       0.04463857 </v>
   <v>       0.29313157       0.21363432      -0.32556184 </v>
   <v>       0.05445797       0.17662632      -0.01732565 </v>
   <v>       0.05318220      -0.20500602       0.02706899 </v>
   <v>       0.54527234       0.98535508       0.57309130 </v>
   <v>       0.01212087      -0.23557122       0.01723946 </v>
   <v>      -0.03093940       0.20439242       0.01946110 </v>
   <v>      -0.55910805      -0.93316821       0.55974634 </v>
   <v>      -0.02125724       0.16918993       0.01648325 </v>
   <v>      -0.25059084       0.28542991       0.24031855 </v>
   <v>       0.23552681      -0.26148269       0.22081731 </v>
  </varray>
  <varray name="stress" >
   <v>       3.76498722      -0.34438553       0.09146606 </v>
   <v>      -0.34438514       4.53227402      -0.48429789 </v>
   <v>       0.09146599      -0.48429811       2.62666855 </v>
  </varray>
  <energy>
   <i name="e_fr_energy">   -317.40009233 </i>
   <i name="e_wo_entrp">   -317.40009233 </i>
   <i name="e_0_energy">      0.00000000 </i>
  </energy>
  <time name="totalsc">  851.58  851.44</time>
 </calculation>
 <calculation>
  <scstep>
   <time name="dav">   67.57   67.56</time>
   <time name="total">   68.38   68.37</time>
   <energy>
    <i name="alphaZ">   1095.35016238 </i>
    <i name="ewald"> -31360.35277289 </i>
    <i name="hartreedc"> -12774.65413061 </i>
    <i name="XCdc">   1493.31342775 </i>
    <i name="pawpsdc">  44261.51146367 </i>
    <i name="pawaedc"> -43825.17867569 </i>
    <i name="eentropy">      0.00000000 </i>
    <i name="bandstr">  -4364.40354408 </i>
    <i name="atom">  45173.57650906 </i>
    <i name="e_fr_energy">   -300.83756040 </i>
    <i name="e_wo_entrp">   -300.83756040 </i>
    <i name="e_0_energy">   -300.83756040 </i>
   </energy>
  </scstep>
  <scstep>
   <time name="dav">   77.56   77.53</time>
   <time name="total">   78.38   78.35</time>
   <energy>
    <i name="e_fr_energy">   -301.88516398 </i>
    <i name="e_wo_entrp">   -301.88516398 </i>
    <i name="e_0_energy">   -301.88516398 </i>
   </energy>
  </scstep>
  <scstep>
   <time name="dav">   91.14   91.12</time>
   <time name="total">   91.94   91.92</time>
   <energy>
    <i name="e_fr_energy">   -301.86924801 </i>
    <i name="e_wo_entrp">   -301.86924801 </i>
    <i name="e_0_energy">   -301.86924801 </i>
   </energy>
  </scstep>
  <scstep>
   <time name="dav">   76.42   76.40</time>
   <time name="total">   77.24   77.22</time>
   <energy>
    <i name="e_fr_energy">   -301.84888450 </i>
    <i name="e_wo_entrp">   -301.84888450 </i>
    <i name="e_0_energy">   -301.84888450 </i>
   </energy>
  </scstep>
  <scstep>
   <time name="dav">   83.23   83.41</time>
   <time name="total">   84.03   84.22</time>
   <energy>
    <i name="e_fr_energy">   -301.83747142 </i>
    <i name="e_wo_entrp">   -301.83747142 </i>
    <i name="e_0_energy">   -301.83747142 </i>
   </energy>
  </scstep>
  <scstep>
   <time name="dav">   81.11   81.31</time>
   <time name="total">   81.92   82.13</time>
   <energy>
    <i name="e_fr_energy">   -301.83793472 </i>
    <i name="e_wo_entrp">   -301.83793472 </i>
    <i name="e_0_energy">   -301.83793472 </i>
   </energy>
  </scstep>
  <scstep>
   <time name="dav">   86.58   86.94</time>
   <time name="total">   87.37   87.75</time>
   <energy>
    <i name="e_fr_energy">   -301.83791525 </i>
    <i name="e_wo_entrp">   -301.83791525 </i>
    <i name="e_0_energy">   -301.83791525 </i>
   </energy>
  </scstep>
  <scstep>
   <time name="dav">   77.65   77.99</time>
   <time name="total">   78.47   78.81</time>
   <energy>
    <i name="e_fr_energy">   -301.83781770 </i>
    <i name="e_wo_entrp">   -301.83781770 </i>
    <i name="e_0_energy">   -301.83781770 </i>
   </energy>
  </scstep>
  <scstep>
   <time name="dav">   80.79   81.18</time>
   <time name="total">   81.61   82.00</time>
   <energy>
    <i name="e_fr_energy">   -301.83780554 </i>
    <i name="e_wo_entrp">   -301.83780554 </i>
    <i name="e_0_energy">   -301.83780554 </i>
   </energy>
  </scstep>
  <scstep>
   <time name="dav">   77.03   77.33</time>
   <time name="total">   77.83   78.15</time>
   <energy>
    <i name="e_fr_energy">   -301.83781390 </i>
    <i name="e_wo_entrp">   -301.83781390 </i>
    <i name="e_0_energy">   -301.83781390 </i>
   </energy>
  </scstep>
  <scstep>
   <time name="dav">   84.10   84.37</time>
   <time name="total">   84.91   85.19</time>
   <energy>
    <i name="e_fr_energy">   -301.83781534 </i>
    <i name="e_wo_entrp">   -301.83781534 </i>
    <i name="e_0_energy">   -301.83781534 </i>
   </energy>
  </scstep>
  <scstep>
   <time name="dav">   63.20   63.37</time>
   <time name="total">   63.28   63.45</time>
   <energy>
    <i name="alphaZ">   1095.35016238 </i>
    <i name="ewald"> -31360.35277289 </i>
    <i name="hartreedc"> -12772.47339757 </i>
    <i name="XCdc">   1493.18944288 </i>
    <i name="pawpsdc">  44080.06941689 </i>
    <i name="pawaedc"> -43640.64551972 </i>
    <i name="eentropy">      0.00000000 </i>
    <i name="bandstr">  -4370.55165588 </i>
    <i name="atom">  45173.57650906 </i>
    <i name="e_fr_energy">   -301.83781485 </i>
    <i name="e_wo_entrp">   -301.83781485 </i>
    <i name="e_0_energy">   -301.83781485 </i>
   </energy>
  </scstep>
  <structure>
   <crystal>
    <varray name="basis" >
     <v>      11.13213361      -0.00153796       0.00209537 </v>
     <v>      -0.00131218       9.50278327      -0.00158486 </v>
     <v>       0.00209766      -0.00186336      11.15396444 </v>
    </varray>
    <i name="volume">   1179.93600711 </i>
    <varray name="rec_basis" >
     <v>       0.08983004       0.00001240      -0.00001689 </v>
     <v>       0.00001454       0.10523233       0.00001758 </v>
     <v>      -0.00001687       0.00001495       0.08965423 </v>
    </varray>
   </crystal>
   <varray name="positions" >
    <v>       0.36924266       0.00060475       0.43582393 </v>
    <v>       0.36803987      -0.00009061       0.18918619 </v>
    <v>       0.62460406       0.99922941       0.43743644 </v>
    <v>       0.88134575      -0.00040872       0.43947246 </v>
    <v>       0.62097402       0.99984526       0.19112513 </v>
    <v>       0.12610545       0.99925267       0.94037375 </v>
    <v>       0.36960347      -0.00037570       0.93804332 </v>
    <v>       0.12506045       0.99986251       0.68237532 </v>
    <v>       0.37220136       0.00032148       0.68466843 </v>
    <v>       0.88080999       0.00072521       0.93448370 </v>
    <v>       0.62438391       0.99983068       0.68266650 </v>
    <v>       0.87704544       0.00001267       0.68472916 </v>
    <v>       0.88503918       0.00064244       0.18982254 </v>
    <v>       0.62406897       0.00073028       0.93635070 </v>
    <v>       0.00436589       0.29647757       0.06440930 </v>
    <v>       0.24815952       0.70739803       0.06528581 </v>
    <v>       0.24688205       0.29145014       0.31388268 </v>
    <v>       0.49690053       0.70343858       0.31410974 </v>
    <v>       0.49632783       0.30206625       0.06490181 </v>
    <v>       0.75145970       0.69158865       0.06398353 </v>
    <v>       0.75057061       0.30224210       0.31498491 </v>
    <v>       0.00526023       0.70797585       0.31475133 </v>
    <v>       0.00326228       0.29277959       0.56074788 </v>
    <v>       0.24807622       0.70704916       0.56037152 </v>
    <v>       0.24878456       0.29678880       0.81150605 </v>
    <v>       0.49663763       0.69797510       0.81073323 </v>
    <v>       0.49748730       0.29646860       0.56138089 </v>
    <v>       0.75140557       0.70353223       0.56178300 </v>
    <v>       0.75204055       0.30203534       0.81039905 </v>
    <v>       0.00217780       0.70343540       0.81123559 </v>
    <v>       0.25156898       0.32860649       0.06069010 </v>
    <v>      -0.00349614       0.67188434       0.06202216 </v>
    <v>       0.50312757       0.32893589       0.31156493 </v>
    <v>       0.25173870       0.67129801       0.31226219 </v>
    <v>       0.74898398       0.32754487       0.06222753 </v>
    <v>       0.50313058       0.67207269       0.06135845 </v>
    <v>       0.99580944       0.32800009       0.31098307 </v>
[...]
       <r>   11.5359    0.0000 </r>
       <r>   11.5576    0.0000 </r>
       <r>   11.6052    0.0000 </r>
       <r>   11.6758    0.0000 </r>
      </set>
     </set>
    </set>
   </array>
  </eigenvalues>
  <separator name="orbital magnetization" >
   <v name="MAGDIPOLOUT">      0.00000000      0.00000000      0.00000000</v>
  </separator>
  <dos>
   <i name="efermi">      4.45605070 </i>
   <total>
    <array>
     <dimension dim="1">gridpoints</dimension>
     <dimension dim="2">spin</dimension>
     <field>energy</field>
     <field>total</field>
     <field>integrated</field>
     <set>
      <set comment="spin 1">
       <r>   -42.4576     0.0000     0.0000 </r>
       <r>   -42.2663     0.0000     0.0000 </r>
       <r>   -42.0750     0.0000     0.0000 </r>
       <r>   -41.8837     0.0000     0.0000 </r>
       <r>   -41.6924     0.0000     0.0000 </r>
       <r>   -41.5011     0.0000     0.0000 </r>
       <r>   -41.3098     0.0000     0.0000 </r>
       <r>   -41.1185     0.0000     0.0000 </r>
       <r>   -40.9272     0.0000     0.0000 </r>
       <r>   -40.7360     0.0000     0.0000 </r>
       <r>   -40.5447     0.0000     0.0000 </r>
       <r>   -40.3534     0.0000     0.0000 </r>
       <r>   -40.1621     0.0000     0.0000 </r>
       <r>   -39.9708     0.0000     0.0000 </r>
       <r>   -39.7795     0.0000     2.0000 </r>
       <r>   -39.5882     0.0000     6.0000 </r>
       <r>   -39.3969     0.0000    14.0000 </r>
       <r>   -39.2056     0.0000    22.0000 </r>
       <r>   -39.0144     0.0000    24.0000 </r>
       <r>   -38.8231     0.0000    24.0000 </r>
       <r>   -38.6318     0.0000    24.0000 </r>
       <r>   -38.4405     0.0000    24.0000 </r>
       <r>   -38.2492     0.0000    24.0000 </r>
       <r>   -38.0579     0.0000    24.0000 </r>
       <r>   -37.8666     0.0000    24.0000 </r>
       <r>   -37.6753     0.0000    24.0000 </r>
       <r>   -37.4840     0.0000    24.0000 </r>
       <r>   -37.2928     0.0000    24.0000 </r>
       <r>   -37.1015     0.0000    24.0000 </r>
       <r>   -36.9102     0.0000    24.0000 </r>
       <r>   -36.7189     0.0000    24.0000 </r>
       <r>   -36.5276     0.0000    24.0000 </r>
       <r>   -36.3363     0.0000    24.0000 </r>
       <r>   -36.1450     0.0000    24.0000 </r>
       <r>   -35.9537     0.0000    24.0000 </r>
       <r>   -35.7624     0.0000    24.0000 </r>
       <r>   -35.5712     0.0000    24.0000 </r>
       <r>   -35.3799     0.0000    24.0000 </r>
       <r>   -35.1886     0.0000    24.0000 </r>
       <r>   -34.9973     0.0000    24.0000 </r>
       <r>   -34.8060     0.0000    24.0000 </r>
       <r>   -34.6147     0.0000    24.0000 </r>
       <r>   -34.4234     0.0000    24.0000 </r>
       <r>   -34.2321     0.0000    24.0000 </r>
       <r>   -34.0408     0.0000    24.0000 </r>
       <r>   -33.8496     0.0000    24.0000 </r>
       <r>   -33.6583     0.0000    24.0000 </r>
       <r>   -33.4670     0.0000    24.0000 </r>
       <r>   -33.2757     0.0000    24.0000 </r>
       <r>   -33.0844     0.0000    24.0000 </r>
       <r>   -32.8931     0.0000    24.0000 </r>
       <r>   -32.7018     0.0000    24.0000 </r>
       <r>   -32.5105     0.0000    24.0000 </r>
       <r>   -32.3192     0.0000    24.0000 </r>
       <r>   -32.1280     0.0000    24.0000 </r>
       <r>   -31.9367     0.0000    24.0000 </r>
       <r>   -31.7454     0.0000    24.0000 </r>
       <r>   -31.5541     0.0000    24.0000 </r>
       <r>   -31.3628     0.0000    24.0000 </r>
       <r>   -31.1715     0.0000    24.0000 </r>
       <r>   -30.9802     0.0000    24.0000 </r>
       <r>   -30.7889     0.0000    24.0000 </r>
       <r>   -30.5976     0.0000    24.0000 </r>
       <r>   -30.4064     0.0000    24.0000 </r>
       <r>   -30.2151     0.0000    24.0000 </r>
       <r>   -30.0238     0.0000    24.0000 </r>
       <r>   -29.8325     0.0000    24.0000 </r>
       <r>   -29.6412     0.0000    24.0000 </r>
       <r>   -29.4499     0.0000    24.0000 </r>
       <r>   -29.2586     0.0000    24.0000 </r>
       <r>   -29.0673     0.0000    24.0000 </r>
       <r>   -28.8760     0.0000    24.0000 </r>
       <r>   -28.6848     0.0000    24.0000 </r>
       <r>   -28.4935     0.0000    24.0000 </r>
       <r>   -28.3022     0.0000    24.0000 </r>
       <r>   -28.1109     0.0000    24.0000 </r>
       <r>   -27.9196     0.0000    24.0000 </r>
       <r>   -27.7283     0.0000    24.0000 </r>
       <r>   -27.5370     0.0000    24.0000 </r>
       <r>   -27.3457     0.0000    24.0000 </r>
       <r>   -27.1544     0.0000    24.0000 </r>
       <r>   -26.9632     0.0000    24.0000 </r>
       <r>   -26.7719     0.0000    24.0000 </r>
       <r>   -26.5806     0.0000    24.0000 </r>
       <r>   -26.3893     0.0000    24.0000 </r>
       <r>   -26.1980     0.0000    24.0000 </r>
       <r>   -26.0067     0.0000    24.0000 </r>
       <r>   -25.8154     0.0000    24.0000 </r>
       <r>   -25.6241     0.0000    24.0000 </r>
       <r>   -25.4328     0.0000    24.0000 </r>
       <r>   -25.2416     0.0000    24.0000 </r>
       <r>   -25.0503     0.0000    24.0000 </r>
       <r>   -24.8590     0.0000    24.0000 </r>
       <r>   -24.6677     0.0000    24.0000 </r>
       <r>   -24.4764     0.0000    24.0000 </r>
       <r>   -24.2851     0.0000    24.0000 </r>
       <r>   -24.0938     0.0000    24.0000 </r>
       <r>   -23.9025     0.0000    24.0000 </r>
       <r>   -23.7112     0.0000    24.0000 </r>
       <r>   -23.5200     0.0000    24.0000 </r>
       <r>   -23.3287     0.0000    24.0000 </r>
       <r>   -23.1374     0.0000    24.0000 </r>
       <r>   -22.9461     0.0000    24.0000 </r>
       <r>   -22.7548     0.0000    24.0000 </r>
       <r>   -22.5635     0.0000    24.0000 </r>
       <r>   -22.3722     0.0000    24.0000 </r>
       <r>   -22.1809     0.0000    24.0000 </r>
       <r>   -21.9896     0.0000    24.0000 </r>
       <r>   -21.7984     0.0000    24.0000 </r>
       <r>   -21.6071     0.0000    24.0000 </r>
       <r>   -21.4158     0.0000    24.0000 </r>
       <r>   -21.2245     0.0000    24.0000 </r>
       <r>   -21.0332     0.0000    24.0000 </r>
       <r>   -20.8419     0.0000    24.0000 </r>
       <r>   -20.6506     0.0000    24.0000 </r>
       <r>   -20.4593     0.0000    24.0000 </r>
       <r>   -20.2680     0.0000    24.0000 </r>
       <r>   -20.0768     0.0000    24.0000 </r>
       <r>   -19.8855     0.0000    24.0000 </r>
       <r>   -19.6942     0.0000    24.0000 </r>
       <r>   -19.5029     0.0000    24.0000 </r>
       <r>   -19.3116     0.0000    24.0000 </r>
       <r>   -19.1203     0.0000    24.0000 </r>
       <r>   -18.9290     0.0000    24.0000 </r>
       <r>   -18.7377     0.0000    24.0000 </r>
       <r>   -18.5464     0.0000    48.0000 </r>
       <r>   -18.3552     0.0000   140.0000 </r>
       <r>   -18.1639     0.0000   180.0000 </r>
       <r>   -17.9726     0.0000   184.0000 </r>
       <r>   -17.7813     0.0000   184.0000 </r>
       <r>   -17.5900     0.0000   184.0000 </r>
       <r>   -17.3987     0.0000   184.0000 </r>
       <r>   -17.2074     0.0000   184.0000 </r>
       <r>   -17.0161     0.0000   184.0000 </r>
       <r>   -16.8248     0.0000   184.0000 </r>
       <r>   -16.6336     0.0000   184.0000 </r>
       <r>   -16.4423     0.0000   184.0000 </r>
       <r>   -16.2510     0.0000   184.0000 </r>
       <r>   -16.0597     0.0000   184.0000 </r>
       <r>   -15.8684     0.0000   184.0000 </r>
       <r>   -15.6771     0.0000   184.0000 </r>
       <r>   -15.4858     0.0000   184.0000 </r>
       <r>   -15.2945     0.0000   184.0000 </r>
       <r>   -15.1032     0.0000   184.0000 </r>
       <r>   -14.9119     0.0000   184.0000 </r>
       <r>   -14.7207     0.0000   184.0000 </r>
       <r>   -14.5294     0.0000   184.0000 </r>
       <r>   -14.3381     0.0000   184.0000 </r>
       <r>   -14.1468     0.0000   184.0000 </r>
       <r>   -13.9555     0.0000   184.0000 </r>
       <r>   -13.7642     0.0000   184.0000 </r>
       <r>   -13.5729     0.0000   184.0000 </r>
       <r>   -13.3816     0.0000   184.0000 </r>
       <r>   -13.1903     0.0000   184.0000 </r>
       <r>   -12.9991     0.0000   186.0000 </r>
       <r>   -12.8078     0.0000   188.0000 </r>
       <r>   -12.6165     0.0000   196.0000 </r>
       <r>   -12.4252   273.1235   207.0546 </r>
       <r>   -12.2339     0.0000   216.0000 </r>
       <r>   -12.0426     0.0000   216.0000 </r>
       <r>   -11.8513     0.0000   216.0000 </r>
       <r>   -11.6600     0.0000   216.0000 </r>
       <r>   -11.4687     0.0000   216.0000 </r>
       <r>   -11.2775     0.0000   216.0000 </r>
       <r>   -11.0862     0.0000   216.0000 </r>
       <r>   -10.8949     0.0000   216.0000 </r>
       <r>   -10.7036     0.0000   216.0000 </r>
       <r>   -10.5123     0.0000   216.0000 </r>
       <r>   -10.3210     0.0000   216.0000 </r>
       <r>   -10.1297     0.0000   216.0000 </r>
       <r>    -9.9384     0.0000   216.0000 </r>
       <r>    -9.7471     0.0000   216.0000 </r>
       <r>    -9.5559     0.0000   216.0000 </r>
       <r>    -9.3646     0.0000   216.0000 </r>
       <r>    -9.1733    14.3442   217.0432 </r>
       <r>    -8.9820    13.5297   218.3462 </r>
       <r>    -8.7907     2.7552   220.0717 </r>
       <r>    -8.5994    24.9509   222.4246 </r>
       <r>    -8.4081    49.3140   225.4609 </r>
       <r>    -8.2168    24.1239   230.2978 </r>
       <r>    -8.0255     0.4160   232.0005 </r>
       <r>    -7.8343    31.8839   238.4582 </r>
       <r>    -7.6430    12.0358   243.3138 </r>
       <r>    -7.4517    24.5797   246.0767 </r>
       <r>    -7.2604     0.0000   248.0000 </r>
       <r>    -7.0691     0.0000   248.0000 </r>
       <r>    -6.8778     0.0000   248.0000 </r>
       <r>    -6.6865     0.0000   248.0000 </r>
       <r>    -6.4952     0.0000   248.0000 </r>
       <r>    -6.3039     0.0000   248.0000 </r>
       <r>    -6.1127    10.5345   248.4220 </r>
       <r>    -5.9214    26.9453   253.3070 </r>
       <r>    -5.7301    10.6275   256.3500 </r>
       <r>    -5.5388    32.6699   260.9029 </r>
       <r>    -5.3475    21.5050   265.8077 </r>
       <r>    -5.1562    15.4820   269.8312 </r>
       <r>    -4.9649     5.2437   271.8076 </r>
       <r>    -4.7736     7.1637   272.5137 </r>
       <r>    -4.5823    15.1982   274.6851 </r>
       <r>    -4.3911     4.8175   276.3822 </r>
       <r>    -4.1998     6.2408   277.3150 </r>
       <r>    -4.0085     7.9923   278.8597 </r>
       <r>    -3.8172     2.1221   279.6593 </r>
       <r>    -3.6259     0.8498   279.9434 </r>
       <r>    -3.4346     0.0000   280.0000 </r>
       <r>    -3.2433     0.0000   280.0000 </r>
       <r>    -3.0520     0.0000   280.0000 </r>
       <r>    -2.8607     0.0000   280.0000 </r>
       <r>    -2.6695     0.0000   280.0000 </r>
       <r>    -2.4782     0.0000   280.0000 </r>
       <r>    -2.2869     0.0000   280.0000 </r>
       <r>    -2.0956     0.0000   280.0000 </r>
       <r>    -1.9043     0.0000   280.0000 </r>
       <r>    -1.7130     0.0000   280.0000 </r>
       <r>    -1.5217     0.0000   280.0000 </r>
       <r>    -1.3304     0.0000   280.0000 </r>
       <r>    -1.1391     5.5629   280.2981 </r>
       <r>    -0.9479     7.6031   281.7610 </r>
       <r>    -0.7566     8.6968   282.9675 </r>
       <r>    -0.5653    12.4095   285.3293 </r>
       <r>    -0.3740     7.8101   287.0857 </r>
       <r>    -0.1827    24.4665   290.2585 </r>
       <r>     0.0086    27.7936   295.1776 </r>
       <r>     0.1999    41.5991   302.3705 </r>
       <r>     0.3912    32.6834   309.3836 </r>
       <r>     0.5825    31.4887   317.4920 </r>
       <r>     0.7737    33.5287   323.4137 </r>
       <r>     0.9650    32.8867   329.7050 </r>
       <r>     1.1563    29.6701   337.0149 </r>
       <r>     1.3476    33.7477   346.3600 </r>
       <r>     1.5389    39.8962   354.5361 </r>
       <r>     1.7302    50.5860   363.9123 </r>
       <r>     1.9215    49.6718   373.3018 </r>
       <r>     2.1128    54.8916   382.8329 </r>
       <r>     2.3041    49.5582   391.5783 </r>
       <r>     2.4953    53.0588   400.6400 </r>
       <r>     2.6866    71.8012   414.3439 </r>
       <r>     2.8779    60.7564   426.4309 </r>
       <r>     3.0692    66.9955   439.9821 </r>
       <r>     3.2605    38.2488   450.3013 </r>
       <r>     3.4518    22.4404   456.8876 </r>
       <r>     3.6431    51.6814   464.3019 </r>
       <r>     3.8344    14.5138   468.6222 </r>
       <r>     4.0257     8.4981   470.8229 </r>
       <r>     4.2169     2.4971   471.8743 </r>
       <r>     4.4082     0.0000   472.0000 </r>
       <r>     4.5995     0.0000   472.0000 </r>
       <r>     4.7908     0.0000   472.0000 </r>
       <r>     4.9821     0.0000   472.0000 </r>
       <r>     5.1734     0.0000   472.0000 </r>
       <r>     5.3647     0.9277   472.0235 </r>
       <r>     5.5560     6.5247   472.7297 </r>
       <r>     5.7473    10.9458   474.5006 </r>
       <r>     5.9385    31.0705   476.7615 </r>
       <r>     6.1298    14.3466   481.0105 </r>
       <r>     6.3211    12.7697   483.5595 </r>
       <r>     6.5124    13.1523   485.9920 </r>
       <r>     6.7037    14.5987   488.6464 </r>
       <r>     6.8950    16.4100   491.5966 </r>
       <r>     7.0863    19.0290   494.9430 </r>
       <r>     7.2776    22.3849   498.9745 </r>
       <r>     7.4689    29.4474   503.7861 </r>
       <r>     7.6601    36.3623   510.5086 </r>
       <r>     7.8514    30.1975   516.5224 </r>
       <r>     8.0427    38.1779   522.8144 </r>
       <r>     8.2340    33.2974   529.9510 </r>
       <r>     8.4253    25.7498   535.6184 </r>
       <r>     8.6166    26.3914   540.2992 </r>
       <r>     8.8079    30.9169   545.9470 </r>
       <r>     8.9992    36.7851   552.8658 </r>
       <r>     9.1905    26.9178   559.4075 </r>
       <r>     9.3817    19.9265   563.8020 </r>
       <r>     9.5730     7.2891   566.3003 </r>
       <r>     9.7643     5.7703   567.3181 </r>
       <r>     9.9556    14.1527   569.5095 </r>
       <r>    10.1469    12.8830   571.7337 </r>
       <r>    10.3382    15.3935   574.0452 </r>
       <r>    10.5295    22.5534   577.5081 </r>
       <r>    10.7208    26.1179   582.5689 </r>
       <r>    10.9121    46.1844   589.1439 </r>
       <r>    11.1033    18.5280   595.1403 </r>
       <r>    11.2946    24.7375   599.5570 </r>
       <r>    11.4859    29.6240   604.6970 </r>
       <r>    11.6772    27.1152   610.6305 </r>
       <r>    11.8685    12.5906   614.4582 </r>
       <r>    12.0598     2.5998   615.8019 </r>
       <r>    12.2511     0.1542   615.9964 </r>
       <r>    12.4424     0.0000   616.0000 </r>
       <r>    12.6337     0.0000   616.0000 </r>
       <r>    12.8249     0.0000   616.0000 </r>
       <r>    13.0162     0.0000   616.0000 </r>
       <r>    13.2075     0.0000   616.0000 </r>
       <r>    13.3988     0.0000   616.0000 </r>
       <r>    13.5901     0.0000   616.0000 </r>
       <r>    13.7814     0.0000   616.0000 </r>
       <r>    13.9727     0.0000   616.0000 </r>
       <r>    14.1640     0.0000   616.0000 </r>
       <r>    14.3553     0.0000   616.0000 </r>
       <r>    14.5465     0.0000   616.0000 </r>
       <r>    14.7378     0.0000   616.0000 </r>
       <r>    14.9291     0.0000   616.0000 </r>
      </set>
     </set>
    </array>
   </total>
  </dos>
 </calculation>
 <structure name="finalpos" >
  <crystal>
   <varray name="basis" >
    <v>      11.17815998       0.03283984      -0.00231403 </v>
    <v>       0.02824509       9.46963046       0.06388077 </v>
    <v>      -0.00234213       0.07526058      11.19216930 </v>
   </varray>
   <i name="volume">   1184.66100774 </i>
   <varray name="rec_basis" >
    <v>       0.08946095      -0.00026697       0.00002052 </v>
    <v>      -0.00031040       0.10560646      -0.00071020 </v>
    <v>       0.00002027      -0.00060282       0.08935224 </v>
   </varray>
  </crystal>
  <varray name="positions" >
   <v>       0.37005758      -0.00087085       0.44370128 </v>
   <v>       0.23269237      -0.02395003       0.19896648 </v>
   <v>       0.62768383       0.99622866       0.45050631 </v>
   <v>       0.99297002      -0.01324094       0.44440691 </v>
   <v>       0.58958680       0.02292335       0.21142996 </v>
   <v>       0.12094382       0.99416271       0.93818674 </v>
   <v>       0.36726321       0.00026570       0.94303018 </v>
   <v>       0.13519515       0.00266932       0.68301745 </v>
   <v>       0.37868943       0.00428585       0.69325930 </v>
   <v>       0.88145623      -0.00186512       0.92760790 </v>
   <v>       0.62431262       0.00191926       0.68579659 </v>
   <v>       0.87682827      -0.00217794       0.68233649 </v>
   <v>       0.86494383      -0.00277823       0.17822149 </v>
   <v>       0.63110593      -0.00413307       0.94034936 </v>
   <v>      -0.00093356       0.30171799       0.06135620 </v>
   <v>       0.25163358       0.69213931       0.05783818 </v>
   <v>       0.25333721       0.29962403       0.31604814 </v>
   <v>       0.50175474       0.70434400       0.31753975 </v>
   <v>       0.49933736       0.30574499       0.06130893 </v>
   <v>       0.75268325       0.67967899       0.05985528 </v>
   <v>       0.74994184       0.30584879       0.30740017 </v>
   <v>      -0.00109731       0.68794037       0.30738997 </v>
   <v>       0.00218090       0.30286031       0.56547290 </v>
   <v>       0.25486771       0.70462179       0.56259298 </v>
   <v>       0.25076477       0.30110125       0.81166535 </v>
   <v>       0.50205730       0.69473012       0.81251966 </v>
   <v>       0.50069272       0.30253084       0.56209115 </v>
   <v>       0.75007401       0.70313516       0.56240863 </v>
   <v>       0.75069139       0.30680181       0.80831521 </v>
   <v>       0.00371026       0.69929867       0.80928762 </v>
   <v>       0.25093969       0.32569282       0.06196085 </v>
   <v>       0.00160421       0.64663920       0.05769078 </v>
   <v>       0.50234707       0.34508725       0.31075679 </v>
   <v>       0.24932051       0.71358341       0.30534491 </v>
   <v>       0.75061327       0.35584315       0.05914991 </v>
   <v>       0.50325583       0.66429686       0.05696359 </v>
   <v>      -0.00090178       0.31337576       0.31133896 </v>
   <v>       0.75019258       0.65043499       0.30579507 </v>
   <v>       0.25047805       0.34924276       0.56335399 </v>
   <v>       0.00113574       0.69947303       0.55653146 </v>
   <v>       0.50232692       0.34999187       0.81281256 </v>
   <v>       0.25072799       0.64809952       0.80903113 </v>
   <v>       0.75136335       0.33556697       0.56189026 </v>
   <v>       0.50262175       0.64535728       0.55983099 </v>
   <v>       0.00069581       0.34976026       0.81190152 </v>
   <v>       0.74986349       0.64845419       0.80753056 </v>
   <v>       0.51799059       0.08591305       0.05166599 </v>
   <v>       0.24447999       0.90925073       0.04012492 </v>
   <v>       0.26795036       0.08883075       0.32592657 </v>
   <v>      -0.02703983       0.90319497       0.29417188 </v>
   <v>       0.97477715       0.08387010       0.05206217 </v>
   <v>       0.75881850       0.90839750       0.04801223 </v>
   <v>       0.73852209       0.08899475       0.27905301 </v>
   <v>       0.51606047       0.91760742       0.33945879 </v>
   <v>       0.50263736       0.08362109       0.57238736 </v>
   <v>       0.27035973       0.91734102       0.58405205 </v>
   <v>       0.25384841       0.08140348       0.81292275 </v>
   <v>       0.00108055       0.91855926       0.81577830 </v>
   <v>       0.00315376       0.08723934       0.58576164 </v>
   <v>       0.73854689       0.91882245       0.57784497 </v>
   <v>       0.74550332       0.08201643       0.82011260 </v>
   <v>       0.51130094       0.91888128       0.82121487 </v>
  </varray>
 </structure>
</modeling>
