<?xml version="1.0" encoding="ISO-8859-1"?>
<modeling>
 <generator>
  <i name="program" type="string">vasp </i>
  <i name="version" type="string">5.4.4.18Apr17-6-g9f103f2a35  </i>
  <i name="subversion" type="string">(build Jul 31 2017 11:33:29) complex            parallel </i>
  <i name="platform" type="string">LinuxIFC </i>
  <i name="date" type="string">2021 09 29 </i>
  <i name="time" type="string">04:48:20 </i>
 </generator>
 <incar>
  <i type="string" name="SYSTEM"> La2O2S</i>
  <i type="string" name="PREC">normal</i>
  <i type="int" name="NELMIN">     4</i>
  <i type="int" name="IBRION">     2</i>
  <i type="int" name="NFREE">    10</i>
  <i name="EDIFF">      0.00000100</i>
  <i name="EDIFFG">     -0.01000000</i>
  <i type="int" name="NSW">     1</i>
  <i type="int" name="ISIF">     2</i>
  <i name="ENCUT">    600.00000000</i>
  <i name="ENAUG">    900.00000000</i>
  <i type="int" name="ISMEAR">    -5</i>
  <i type="logical" name="LWAVE"> F  </i>
  <i type="logical" name="LCHARG"> F  </i>
  <v type="int" name="KPOINT_BSE">    -1     0     0     0</v>
 </incar>
 <structure name="primitive_cell" >
  <crystal>
   <varray name="basis" >
    <v>      11.17850000       0.00000000       0.00000000 </v>
    <v>       0.00000000       9.57460000       0.00000000 </v>
    <v>       0.00000000       0.00000000      11.18240000 </v>
   </varray>
   <i name="volume">   1196.84853820 </i>
   <varray name="rec_basis" >
    <v>       0.08945744       0.00000000       0.00000000 </v>
    <v>       0.00000000       0.10444301       0.00000000 </v>
    <v>       0.00000000       0.00000000       0.08942624 </v>
   </varray>
  </crystal>
  <varray name="positions" >
   <v>       0.37539000       0.00017000       0.43687000 </v>
   <v>      -0.49987000      -0.07798000       0.31246000 </v>
   <v>       0.25013000       0.07798000       0.31246000 </v>
   <v>       0.49987000       0.07798000      -0.43754000 </v>
   <v>       0.24987000      -0.07798000      -0.43754000 </v>
   <v>      -0.37461000      -0.00016000       0.43687000 </v>
   <v>       0.37461000       0.00017000       0.18687000 </v>
   <v>       0.37461000       0.00017000      -0.31313000 </v>
   <v>       0.49987000      -0.29519000       0.31282000 </v>
   <v>       0.24987000       0.29519000       0.31282000 </v>
   <v>      -0.49987000       0.29519000      -0.43719000 </v>
   <v>       0.25013000      -0.29519000      -0.43719000 </v>
   <v>       0.49995000       0.32677000       0.31286000 </v>
   <v>       0.24995000      -0.32677000       0.31286000 </v>
   <v>      -0.49995000      -0.32677000      -0.43714000 </v>
   <v>       0.25005000       0.32677000      -0.43714000 </v>
   <v>      -0.37539000      -0.00016000       0.18687000 </v>
   <v>       0.12461000      -0.00016000       0.18687000 </v>
   <v>       0.12461000      -0.00016000      -0.31313000 </v>
   <v>       0.49987000       0.07798000       0.06246000 </v>
   <v>      -0.24987000       0.07798000       0.31246000 </v>
   <v>      -0.25013000      -0.07798000      -0.43754000 </v>
   <v>       0.24987000      -0.07798000       0.06246000 </v>
   <v>       0.00013000      -0.07798000       0.31246000 </v>
   <v>      -0.49987000      -0.07798000      -0.18754000 </v>
   <v>      -0.00013000       0.07798000      -0.43754000 </v>
   <v>       0.25013000       0.07798000      -0.18754000 </v>
   <v>      -0.49987000       0.29519000       0.06281000 </v>
   <v>      -0.25013000       0.29519000       0.31282000 </v>
   <v>       0.25013000      -0.29519000       0.06281000 </v>
   <v>      -0.24987000      -0.29519000      -0.43719000 </v>
   <v>      -0.00013000      -0.29519000       0.31282000 </v>
   <v>       0.00013000       0.29519000      -0.43719000 </v>
   <v>       0.49987000      -0.29519000      -0.18718000 </v>
   <v>       0.24987000       0.29519000      -0.18718000 </v>
   <v>      -0.49995000      -0.32677000       0.06286000 </v>
   <v>       0.25005000       0.32677000       0.06286000 </v>
   <v>      -0.25005000      -0.32677000       0.31286000 </v>
   <v>      -0.24995000       0.32677000      -0.43714000 </v>
   <v>      -0.00005000       0.32677000       0.31286000 </v>
   <v>       0.00005000      -0.32677000      -0.43714000 </v>
   <v>       0.49995000       0.32677000      -0.18714000 </v>
   <v>       0.24995000      -0.32677000      -0.18714000 </v>
   <v>      -0.12461000       0.00017000       0.43687000 </v>
   <v>       0.37539000       0.00017000      -0.06313000 </v>
   <v>      -0.25013000      -0.07798000       0.06246000 </v>
   <v>      -0.00013000       0.07798000       0.06246000 </v>
   <v>      -0.24987000       0.07798000      -0.18754000 </v>
   <v>       0.00013000      -0.07798000      -0.18754000 </v>
   <v>      -0.12539000       0.00017000       0.18687000 </v>
   <v>      -0.12539000       0.00017000      -0.31313000 </v>
   <v>       0.12539000      -0.00016000      -0.06313000 </v>
   <v>      -0.37461000      -0.00016000      -0.06313000 </v>
   <v>      -0.24987000      -0.29519000       0.06281000 </v>
   <v>       0.00013000       0.29519000       0.06281000 </v>
   <v>      -0.25013000       0.29519000      -0.18718000 </v>
   <v>      -0.00013000      -0.29519000      -0.18718000 </v>
   <v>      -0.24995000       0.32677000       0.06286000 </v>
   <v>       0.00005000      -0.32677000       0.06286000 </v>
   <v>      -0.25005000      -0.32677000      -0.18714000 </v>
   <v>      -0.00005000       0.32677000      -0.18714000 </v>
   <v>      -0.12461000       0.00017000      -0.06313000 </v>
  </varray>
 </structure>
 <varray name="primitive_index" >
  <v type="int" >        1 </v>
  <v type="int" >       54 </v>
  <v type="int" >       49 </v>
  <v type="int" >       55 </v>
  <v type="int" >       56 </v>
  <v type="int" >        4 </v>
  <v type="int" >        3 </v>
  <v type="int" >       10 </v>
  <v type="int" >       18 </v>
  <v type="int" >       17 </v>
  <v type="int" >       27 </v>
  <v type="int" >       24 </v>
  <v type="int" >       33 </v>
  <v type="int" >       34 </v>
  <v type="int" >       44 </v>
  <v type="int" >       39 </v>
  <v type="int" >        6 </v>
  <v type="int" >        2 </v>
  <v type="int" >       13 </v>
  <v type="int" >       47 </v>
  <v type="int" >       53 </v>
  <v type="int" >       60 </v>
  <v type="int" >       48 </v>
  <v type="int" >       50 </v>
  <v type="int" >       62 </v>
  <v type="int" >       59 </v>
  <v type="int" >       57 </v>
  <v type="int" >       19 </v>
  <v type="int" >       21 </v>
  <v type="int" >       16 </v>
  <v type="int" >       28 </v>
  <v type="int" >       22 </v>
  <v type="int" >       23 </v>
  <v type="int" >       26 </v>
  <v type="int" >       25 </v>
  <v type="int" >       36 </v>
  <v type="int" >       31 </v>
  <v type="int" >       38 </v>
  <v type="int" >       43 </v>
  <v type="int" >       37 </v>
  <v type="int" >       40 </v>
  <v type="int" >       41 </v>
  <v type="int" >       42 </v>
  <v type="int" >        5 </v>
  <v type="int" >        9 </v>
  <v type="int" >       52 </v>
  <v type="int" >       51 </v>
  <v type="int" >       61 </v>
  <v type="int" >       58 </v>
  <v type="int" >        7 </v>
  <v type="int" >       12 </v>
  <v type="int" >        8 </v>
  <v type="int" >       14 </v>
  <v type="int" >       20 </v>
  <v type="int" >       15 </v>
  <v type="int" >       29 </v>
  <v type="int" >       30 </v>
  <v type="int" >       35 </v>
  <v type="int" >       32 </v>
  <v type="int" >       46 </v>
  <v type="int" >       45 </v>
  <v type="int" >       11 </v>
 </varray>
 <kpoints>
  <generation param="Gamma">
   <v type="int" name="divisions">       2        2        2 </v>
   <v name="usershift">      0.00000000       0.00000000       0.00000000 </v>
   <v name="genvec1">      0.50000000       0.00000000       0.00000000 </v>
   <v name="genvec2">      0.00000000       0.50000000       0.00000000 </v>
   <v name="genvec3">      0.00000000       0.00000000       0.50000000 </v>
   <v name="shift">      0.00000000       0.00000000       0.00000000 </v>
  </generation>
  <varray name="kpointlist" >
   <v>       0.00000000       0.00000000       0.00000000 </v>
   <v>       0.50000000       0.00000000       0.00000000 </v>
   <v>       0.00000000       0.50000000       0.00000000 </v>
   <v>       0.50000000       0.50000000       0.00000000 </v>
   <v>       0.00000000       0.00000000       0.50000000 </v>
   <v>       0.50000000       0.00000000       0.50000000 </v>
   <v>       0.00000000       0.50000000       0.50000000 </v>
   <v>       0.50000000       0.50000000       0.50000000 </v>
  </varray>
  <varray name="weights" >
   <v>       0.12500000 </v>
   <v>       0.12500000 </v>
   <v>       0.12500000 </v>
   <v>       0.12500000 </v>
   <v>       0.12500000 </v>
   <v>       0.12500000 </v>
   <v>       0.12500000 </v>
   <v>       0.12500000 </v>
  </varray>
  <varray name="tetrahedronlist"  type="int" >
   <v type="int" >        2        1        2        4        5 </v>
   <v type="int" >        2        1        3        4        5 </v>
   <v type="int" >        2        3        4        5        7 </v>
   <v type="int" >        2        2        4        5        6 </v>
   <v type="int" >        2        4        5        6        8 </v>
   <v type="int" >        2        4        5        7        8 </v>
   <v type="int" >        2        1        2        3        6 </v>
   <v type="int" >        2        2        3        4        6 </v>
   <v type="int" >        2        3        4        6        8 </v>
   <v type="int" >        2        1        3        5        6 </v>
   <v type="int" >        2        3        5        6        7 </v>
   <v type="int" >        2        3        6        7        8 </v>
   <v type="int" >        2        2        3        4        7 </v>
   <v type="int" >        2        1        2        3        7 </v>
   <v type="int" >        2        1        2        5        7 </v>
   <v type="int" >        2        2        4        7        8 </v>
   <v type="int" >        2        2        6        7        8 </v>
   <v type="int" >        2        2        5        6        7 </v>
   <v type="int" >        2        1        3        4        8 </v>
   <v type="int" >        2        1        2        4        8 </v>
   <v type="int" >        2        1        2        6        8 </v>
   <v type="int" >        2        1        3        7        8 </v>
   <v type="int" >        2        1        5        7        8 </v>
   <v type="int" >        2        1        5        6        8 </v>
  </varray>
  <i name="volumeweight">      0.02083333 </i>
 </kpoints>
 <parameters>
  <separator name="general" >
   <i type="string" name="SYSTEM">La2O2S</i>
   <i type="logical" name="LCOMPAT"> F  </i>
  </separator>
  <separator name="electronic" >
   <i type="string" name="PREC">normal</i>
   <i name="ENMAX">    600.00000000</i>
   <i name="ENAUG">    900.00000000</i>
   <i name="EDIFF">      0.00000100</i>
   <i type="int" name="IALGO">    38</i>
   <i type="int" name="IWAVPR">    11</i>
   <i type="int" name="NBANDS">   308</i>
   <i name="NELECT">    472.00000000</i>
   <i type="int" name="TURBO">     0</i>
   <i type="int" name="IRESTART">     0</i>
   <i type="int" name="NREBOOT">     0</i>
   <i type="int" name="NMIN">     0</i>
   <i name="EREF">      0.00000000</i>
   <separator name="electronic smearing" >
    <i type="int" name="ISMEAR">    -5</i>
    <i name="SIGMA">      0.20000000</i>
    <i name="KSPACING">      0.50000000</i>
    <i type="logical" name="KGAMMA"> T  </i>
   </separator>
   <separator name="electronic projectors" >
    <i type="logical" name="LREAL"> F  </i>
    <v name="ROPT">      0.00000000      0.00000000      0.00000000      0.00000000      0.00000000</v>
    <i type="int" name="LMAXPAW">  -100</i>
    <i type="int" name="LMAXMIX">     2</i>
    <i type="logical" name="NLSPLINE"> F  </i>
   </separator>
   <separator name="electronic startup" >
    <i type="int" name="ISTART">     0</i>
    <i type="int" name="ICHARG">     2</i>
    <i type="int" name="INIWAV">     1</i>
   </separator>
   <separator name="electronic spin" >
    <i type="int" name="ISPIN">     1</i>
    <i type="logical" name="LNONCOLLINEAR"> F  </i>
    <v name="MAGMOM">      1.00000000      1.00000000      1.00000000      1.00000000      1.00000000      1.00000000      1.00000000      1.00000000      1.00000000      1.00000000      1.00000000      1.00000000      1.00000000      1.00000000      1.00000000      1.00000000      1.00000000      1.00000000      1.00000000      1.00000000
      1.00000000      1.00000000      1.00000000      1.00000000      1.00000000      1.00000000      1.00000000      1.00000000      1.00000000      1.00000000      1.00000000      1.00000000      1.00000000      1.00000000      1.00000000      1.00000000      1.00000000      1.00000000      1.00000000      1.00000000
      1.00000000      1.00000000      1.00000000      1.00000000      1.00000000      1.00000000      1.00000000      1.00000000      1.00000000      1.00000000      1.00000000      1.00000000      1.00000000      1.00000000      1.00000000      1.00000000      1.00000000      1.00000000      1.00000000      1.00000000
      1.00000000      1.00000000</v>
    <i name="NUPDOWN">     -1.00000000</i>
    <i type="logical" name="LSORBIT"> F  </i>
    <v name="SAXIS">      0.00000000      0.00000000      1.00000000</v>
    <i type="logical" name="LSPIRAL"> F  </i>
    <v name="QSPIRAL">      0.00000000      0.00000000      0.00000000</v>
    <i type="logical" name="LZEROZ"> F  </i>
   </separator>
   <separator name="electronic exchange-correlation" >
    <i type="logical" name="LASPH"> F  </i>
    <i type="logical" name="LMETAGGA"> F  </i>
   </separator>
   <separator name="electronic convergence" >
    <i type="int" name="NELM">    60</i>
    <i type="int" name="NELMDL">    -5</i>
    <i type="int" name="NELMIN">     4</i>
    <i name="ENINI">    600.00000000</i>
    <separator name="electronic convergence detail" >
     <i type="logical" name="LDIAG"> T  </i>
     <i type="logical" name="LSUBROT"> F  </i>
     <i name="WEIMIN">      0.00100000</i>
     <i name="EBREAK">      0.00000000</i>
     <i name="DEPER">      0.30000000</i>
     <i type="int" name="NRMM">     4</i>
     <i name="TIME">      0.40000000</i>
    </separator>
   </separator>
   <separator name="electronic mixer" >
    <i name="AMIX">      0.40000000</i>
    <i name="BMIX">      1.00000000</i>
    <i name="AMIN">      0.10000000</i>
    <i name="AMIX_MAG">      1.60000000</i>
    <i name="BMIX_MAG">      1.00000000</i>
    <separator name="electronic mixer details" >
     <i type="int" name="IMIX">     4</i>
     <i type="logical" name="MIXFIRST"> F  </i>
     <i type="int" name="MAXMIX">   -45</i>
     <i name="WC">    100.00000000</i>
     <i type="int" name="INIMIX">     1</i>
     <i type="int" name="MIXPRE">     1</i>
     <i type="int" name="MREMOVE">     5</i>
    </separator>
   </separator>
   <separator name="electronic dipolcorrection" >
    <i type="logical" name="LDIPOL"> F  </i>
    <i type="logical" name="LMONO"> F  </i>
    <i type="int" name="IDIPOL">     0</i>
    <i name="EPSILON">      1.00000000</i>
    <v name="DIPOL">   -100.00000000   -100.00000000   -100.00000000</v>
    <i name="EFIELD">      0.00000000</i>
   </separator>
  </separator>
  <separator name="grids" >
   <i type="int" name="NGX">    70</i>
   <i type="int" name="NGY">    60</i>
   <i type="int" name="NGZ">    70</i>
   <i type="int" name="NGXF">   140</i>
   <i type="int" name="NGYF">   120</i>
   <i type="int" name="NGZF">   140</i>
   <i type="logical" name="ADDGRID"> F  </i>
  </separator>
  <separator name="ionic" >
   <i type="int" name="NSW">     1</i>
   <i type="int" name="IBRION">     2</i>
   <i type="int" name="MDALGO">     0</i>
   <i type="int" name="ISIF">     2</i>
   <i name="PSTRESS">      0.00000000</i>
   <i name="EDIFFG">     -0.01000000</i>
   <i type="int" name="NFREE">    10</i>
   <i name="POTIM">      0.50000000</i>
   <i name="SMASS">     -3.00000000</i>
   <i name="SCALEE">      1.00000000</i>
  </separator>
  <separator name="ionic md" >
   <i name="TEBEG">      0.00010000</i>
   <i name="TEEND">      0.00010000</i>
   <i type="int" name="NBLOCK">     1</i>
   <i type="int" name="KBLOCK">     1</i>
   <i type="int" name="NPACO">   256</i>
   <i name="APACO">     16.00000000</i>
  </separator>
  <separator name="symmetry" >
   <i type="int" name="ISYM">     2</i>
   <i name="SYMPREC">      0.00001000</i>
  </separator>
  <separator name="dos" >
   <i type="int" name="LORBIT">     0</i>
   <v name="RWIGS">     -1.00000000     -1.00000000     -1.00000000     -1.00000000     -1.00000000</v>
   <i type="int" name="NEDOS">   301</i>
   <i name="EMIN">     10.00000000</i>
   <i name="EMAX">    -10.00000000</i>
   <i name="EFERMI">      0.00000000</i>
  </separator>
  <separator name="writing" >
   <i type="int" name="NWRITE">     2</i>
   <i type="logical" name="LWAVE"> F  </i>
   <i type="logical" name="LDOWNSAMPLE"> F  </i>
   <i type="logical" name="LCHARG"> F  </i>
   <i type="logical" name="LPARD"> F  </i>
   <i type="logical" name="LVTOT"> F  </i>
   <i type="logical" name="LVHAR"> F  </i>
   <i type="logical" name="LELF"> F  </i>
   <i type="logical" name="LOPTICS"> F  </i>
   <v name="STM">      0.00000000      0.00000000      0.00000000      0.00000000      0.00000000      0.00000000      0.00000000</v>
  </separator>
  <separator name="performance" >
   <i type="int" name="NPAR">    28</i>
   <i type="int" name="NSIM">     4</i>
   <i type="int" name="NBLK">    -1</i>
   <i type="logical" name="LPLANE"> T  </i>
   <i type="logical" name="LSCALAPACK"> T  </i>
   <i type="logical" name="LSCAAWARE"> F  </i>
   <i type="logical" name="LSCALU"> F  </i>
   <i type="logical" name="LASYNC"> F  </i>
   <i type="logical" name="LORBITALREAL"> F  </i>
  </separator>
  <separator name="miscellaneous" >
   <i type="int" name="IDIOT">     3</i>
   <i type="int" name="ISPECIAL">     0</i>
   <i type="logical" name="LMUSIC"> F  </i>
   <v name="POMASS">      7.01000000     24.30500000    208.98000000     32.06600000     16.00000000</v>
   <v name="DARWINR">      0.00000000      0.00000000      0.00000000      0.00000000      0.00000000</v>
   <v name="DARWINV">      1.00000000      1.00000000      1.00000000      1.00000000      1.00000000</v>
   <i type="logical" name="LCORR"> T  </i>
  </separator>
  <i type="logical" name="GGA_COMPAT"> T  </i>
  <i type="logical" name="LBERRY"> F  </i>
  <i type="int" name="ICORELEVEL">     0</i>
  <i type="logical" name="LDAU"> F  </i>
  <i type="int" name="I_CONSTRAINED_M">     0</i>
  <separator name="electronic exchange-correlation" >
   <i type="string" name="GGA">--</i>
   <i type="int" name="VOSKOWN">     0</i>
   <i type="logical" name="LHFCALC"> F  </i>
   <i type="string" name="PRECFOCK"></i>
   <i type="logical" name="LSYMGRAD"> F  </i>
   <i type="logical" name="LHFONE"> F  </i>
   <i type="logical" name="LRHFCALC"> F  </i>
   <i type="logical" name="LTHOMAS"> F  </i>
   <i type="logical" name="LMODELHF"> F  </i>
   <i name="ENCUT4O">     -1.00000000</i>
   <i type="int" name="EXXOEP">     0</i>
   <i type="int" name="FOURORBIT">     0</i>
   <i name="AEXX">      0.00000000</i>
   <i name="HFALPHA">      0.00000000</i>
   <i name="MCALPHA">      0.00000000</i>
   <i name="ALDAX">      1.00000000</i>
   <i name="AGGAX">      1.00000000</i>
   <i name="ALDAC">      1.00000000</i>
   <i name="AGGAC">      1.00000000</i>
   <i type="int" name="NKREDX">     1</i>
   <i type="int" name="NKREDY">     1</i>
   <i type="int" name="NKREDZ">     1</i>
   <i type="logical" name="SHIFTRED"> F  </i>
   <i type="logical" name="ODDONLY"> F  </i>
   <i type="logical" name="EVENONLY"> F  </i>
   <i type="int" name="LMAXFOCK">     0</i>
   <i type="int" name="NMAXFOCKAE">     0</i>
   <i type="logical" name="LFOCKAEDFT"> F  </i>
   <i name="HFSCREEN">      0.00000000</i>
   <i name="HFSCREENC">      0.00000000</i>
   <i type="int" name="NBANDSGWLOW">     0</i>
  </separator>
  <separator name="vdW DFT" >
   <i type="logical" name="LUSE_VDW"> F  </i>
   <i name="Zab_VDW">     -0.84910000</i>
   <i name="PARAM1">      0.12340000</i>
   <i name="PARAM2">      1.00000000</i>
   <i name="PARAM3">      0.00000000</i>
  </separator>
  <separator name="model GW" >
   <i type="int" name="MODEL_GW">     0</i>
   <i name="MODEL_EPS0">     11.58240521</i>
   <i name="MODEL_ALPHA">      1.00000000</i>
  </separator>
  <separator name="linear response parameters" >
   <i type="logical" name="LEPSILON"> F  </i>
   <i type="logical" name="LRPA"> F  </i>
   <i type="logical" name="LNABLA"> F  </i>
   <i type="logical" name="LVEL"> F  </i>
   <i type="int" name="KINTER">     0</i>
   <i name="CSHIFT">      0.10000000</i>
   <i name="OMEGAMAX">     -1.00000000</i>
   <i name="DEG_THRESHOLD">      0.00200000</i>
   <i name="RTIME">     -0.10000000</i>
   <i name="WPLASMAI">      0.00000000</i>
   <v name="DFIELD">      0.00000000      0.00000000      0.00000000</v>
   <v name="WPLASMA">      0.00000000      0.00000000      0.00000000      0.00000000      0.00000000      0.00000000      0.00000000      0.00000000      0.00000000</v>
  </separator>
  <separator name="orbital magnetization" >
   <i type="logical" name="NUCIND"> F  </i>
   <v name="MAGPOS">      0.00000000      0.00000000      0.00000000</v>
   <i type="logical" name="LNICSALL"> T  </i>
   <i type="logical" name="ORBITALMAG"> F  </i>
   <i type="logical" name="LMAGBLOCH"> F  </i>
   <i type="logical" name="LCHIMAG"> F  </i>
   <i type="logical" name="LGAUGE"> T  </i>
   <i type="int" name="MAGATOM">     0</i>
   <v name="MAGDIPOL">      0.00000000      0.00000000      0.00000000</v>
   <v name="AVECCONST">      0.00000000      0.00000000      0.00000000</v>
  </separator>
  <separator name="response functions" >
   <i type="logical" name="LADDER"> F  </i>
   <i type="logical" name="LRPAFORCE"> F  </i>
   <i type="logical" name="LFXC"> F  </i>
   <i type="logical" name="LHARTREE"> T  </i>
   <i type="int" name="IBSE">     0</i>
   <v type="int" name="KPOINT">    -1     0     0     0</v>
   <i type="logical" name="LTCTE"> F  </i>
   <i type="logical" name="LTETE"> F  </i>
   <i type="logical" name="LTRIPLET"> F  </i>
   <i type="logical" name="LFXCEPS"> F  </i>
   <i type="logical" name="LFXHEG"> F  </i>
   <i type="int" name="NATURALO">     2</i>
   <i type="logical" name="L2ORDER"> F  </i>
   <i type="logical" name="LMP2LT"> F  </i>
   <i type="logical" name="LUSEW"> F  </i>
   <i name="ENCUTGW">     -2.00000000</i>
   <i name="ENCUTGWSOFT">     -2.00000000</i>
   <i name="ENCUTLF">     -1.00000000</i>
   <i type="int" name="LMAXMP2">    -1</i>
   <i name="SCISSOR">      0.00000000</i>
   <i type="int" name="NOMEGA">     0</i>
   <i type="int" name="NOMEGAR">     0</i>
   <i type="int" name="NBANDSGW">    -1</i>
   <i type="int" name="NBANDSO">    -1</i>
   <i type="int" name="NBANDSV">    -1</i>
   <i type="int" name="NELM">     1</i>
   <i type="int" name="NELMHF">     1</i>
   <i type="int" name="DIM">     3</i>
   <i type="int" name="ANTIRES">     0</i>
   <i name="OMEGAMAX">    -30.00000000</i>
   <i name="OMEGAMIN">    -30.00000000</i>
   <i name="OMEGATL">   -200.00000000</i>
   <i type="int" name="OMEGAGRID">   140</i>
   <i name="CSHIFT">     -0.10000000</i>
   <i type="logical" name="SELFENERGY"> F  </i>
   <i type="logical" name="LSPECTRAL"> F  </i>
   <i type="logical" name="LSPECTRALGW"> F  </i>
   <i type="logical" name="LSINGLES"> F  </i>
   <i type="logical" name="LFERMIGW"> F  </i>
   <i type="logical" name="ODDONLYGW"> F  </i>
   <i type="logical" name="EVENONLYGW"> F  </i>
   <i type="int" name="NKREDLFX">     1</i>
   <i type="int" name="NKREDLFY">     1</i>
   <i type="int" name="NKREDLFZ">     1</i>
   <i type="int" name="MAXMEM">  2800</i>
   <i type="int" name="TELESCOPE">     0</i>
   <i type="int" name="TAUPAR">     1</i>
   <i type="int" name="OMEGAPAR">    -1</i>
   <i name="LAMBDA">      1.00000000</i>
  </separator>
  <separator name="External order field" >
   <i name="OFIELD_KAPPA">      0.00000000</i>
   <v name="OFIELD_K">      0.00000000      0.00000000      0.00000000</v>
   <i name="OFIELD_Q6_NEAR">      0.00000000</i>
   <i name="OFIELD_Q6_FAR">      0.00000000</i>
   <i name="OFIELD_A">      0.00000000</i>
  </separator>
 </parameters>
 <atominfo>
  <atoms>      62 </atoms>
  <types>       5 </types>
  <array name="atoms" >
   <dimension dim="1">ion</dimension>
   <field type="string">element</field>
   <field type="int">atomtype</field>
   <set>
    <rc><c>Li</c><c>   1</c></rc>
    <rc><c>Li</c><c>   1</c></rc>
    <rc><c>Li</c><c>   1</c></rc>
    <rc><c>Li</c><c>   1</c></rc>
    <rc><c>Li</c><c>   1</c></rc>
    <rc><c>Li</c><c>   1</c></rc>
    <rc><c>Li</c><c>   1</c></rc>
    <rc><c>Li</c><c>   1</c></rc>
    <rc><c>Li</c><c>   1</c></rc>
    <rc><c>Li</c><c>   1</c></rc>
    <rc><c>Li</c><c>   1</c></rc>
    <rc><c>Li</c><c>   1</c></rc>
    <rc><c>Mg</c><c>   2</c></rc>
    <rc><c>Mg</c><c>   2</c></rc>
    <rc><c>Bi</c><c>   3</c></rc>
    <rc><c>Bi</c><c>   3</c></rc>
    <rc><c>Bi</c><c>   3</c></rc>
    <rc><c>Bi</c><c>   3</c></rc>
    <rc><c>Bi</c><c>   3</c></rc>
    <rc><c>Bi</c><c>   3</c></rc>
    <rc><c>Bi</c><c>   3</c></rc>
    <rc><c>Bi</c><c>   3</c></rc>
    <rc><c>Bi</c><c>   3</c></rc>
    <rc><c>Bi</c><c>   3</c></rc>
    <rc><c>Bi</c><c>   3</c></rc>
    <rc><c>Bi</c><c>   3</c></rc>
    <rc><c>Bi</c><c>   3</c></rc>
    <rc><c>Bi</c><c>   3</c></rc>
    <rc><c>Bi</c><c>   3</c></rc>
    <rc><c>Bi</c><c>   3</c></rc>
    <rc><c>S </c><c>   4</c></rc>
    <rc><c>S </c><c>   4</c></rc>
    <rc><c>S </c><c>   4</c></rc>
    <rc><c>S </c><c>   4</c></rc>
    <rc><c>S </c><c>   4</c></rc>
    <rc><c>S </c><c>   4</c></rc>
    <rc><c>S </c><c>   4</c></rc>
    <rc><c>S </c><c>   4</c></rc>
    <rc><c>S </c><c>   4</c></rc>
    <rc><c>S </c><c>   4</c></rc>
    <rc><c>S </c><c>   4</c></rc>
    <rc><c>S </c><c>   4</c></rc>
    <rc><c>S </c><c>   4</c></rc>
    <rc><c>S </c><c>   4</c></rc>
    <rc><c>S </c><c>   4</c></rc>
    <rc><c>S </c><c>   4</c></rc>
    <rc><c>O </c><c>   5</c></rc>
    <rc><c>O </c><c>   5</c></rc>
    <rc><c>O </c><c>   5</c></rc>
    <rc><c>O </c><c>   5</c></rc>
    <rc><c>O </c><c>   5</c></rc>
    <rc><c>O </c><c>   5</c></rc>
    <rc><c>O </c><c>   5</c></rc>
    <rc><c>O </c><c>   5</c></rc>
    <rc><c>O </c><c>   5</c></rc>
    <rc><c>O </c><c>   5</c></rc>
    <rc><c>O </c><c>   5</c></rc>
    <rc><c>O </c><c>   5</c></rc>
    <rc><c>O </c><c>   5</c></rc>
    <rc><c>O </c><c>   5</c></rc>
    <rc><c>O </c><c>   5</c></rc>
    <rc><c>O </c><c>   5</c></rc>
   </set>
  </array>
  <array name="atomtypes" >
   <dimension dim="1">type</dimension>
   <field type="int">atomspertype</field>
   <field type="string">element</field>
   <field>mass</field>
   <field>valence</field>
   <field type="string">pseudopotential</field>
   <set>
    <rc><c>  12</c><c>Li</c><c>      7.01000000</c><c>      3.00000000</c><c>  PAW_PBE Li_sv 10Sep2004               </c></rc>
    <rc><c>   2</c><c>Mg</c><c>     24.30500000</c><c>      2.00000000</c><c>  PAW_PBE Mg 13Apr2007                  </c></rc>
    <rc><c>  16</c><c>Bi</c><c>    208.98000000</c><c>     15.00000000</c><c>  PAW_PBE Bi_d 06Sep2000                </c></rc>
    <rc><c>  16</c><c>S </c><c>     32.06600000</c><c>      6.00000000</c><c>  PAW_PBE S 06Sep2000                   </c></rc>
    <rc><c>  16</c><c>O </c><c>     16.00000000</c><c>      6.00000000</c><c>  PAW_PBE O 08Apr2002                   </c></rc>
   </set>
  </array>
 </atominfo>
 <structure name="initialpos" >
  <crystal>
   <varray name="basis" >
    <v>      11.17850000       0.00000000       0.00000000 </v>
    <v>       0.00000000       9.57460000       0.00000000 </v>
    <v>       0.00000000       0.00000000      11.18240000 </v>
   </varray>
   <i name="volume">   1196.84853820 </i>
   <varray name="rec_basis" >
    <v>       0.08945744       0.00000000       0.00000000 </v>
    <v>       0.00000000       0.10444301       0.00000000 </v>
    <v>       0.00000000       0.00000000       0.08942624 </v>
   </varray>
  </crystal>
  <varray name="positions" >
   <v>       0.37539000       0.00017000       0.43687000 </v>
   <v>       0.12461000       0.99984000       0.18687000 </v>
   <v>       0.37461000       0.00017000       0.18687000 </v>
   <v>       0.62539000       0.99984000       0.43687000 </v>
   <v>       0.87539000       0.00017000       0.43687000 </v>
   <v>       0.62461000       0.99984000       0.18687000 </v>
   <v>       0.87461000       0.00017000       0.18687000 </v>
   <v>       0.12539000       0.99984000       0.93687000 </v>
   <v>       0.37539000       0.00017000       0.93687000 </v>
   <v>       0.37461000       0.00017000       0.68687000 </v>
   <v>       0.87539000       0.00017000       0.93687000 </v>
   <v>       0.87461000       0.00017000       0.68687000 </v>
   <v>       0.12461000       0.99984000       0.68687000 </v>
   <v>       0.62539000       0.99984000       0.93687000 </v>
   <v>       0.00013000       0.29519000       0.06281000 </v>
   <v>       0.25013000       0.70481000       0.06281000 </v>
   <v>       0.24987000       0.29519000       0.31282000 </v>
   <v>       0.49987000       0.70481000       0.31282000 </v>
   <v>       0.50013000       0.29519000       0.06281000 </v>
   <v>       0.75013000       0.70481000       0.06281000 </v>
   <v>       0.74987000       0.29519000       0.31282000 </v>
   <v>       0.99987000       0.70481000       0.31282000 </v>
   <v>       0.00013000       0.29519000       0.56281000 </v>
   <v>       0.25013000       0.70481000       0.56281000 </v>
   <v>       0.24987000       0.29519000       0.81282000 </v>
   <v>       0.49987000       0.70481000       0.81282000 </v>
   <v>       0.50013000       0.29519000       0.56281000 </v>
   <v>       0.75013000       0.70481000       0.56281000 </v>
   <v>       0.74987000       0.29519000       0.81282000 </v>
   <v>       0.99987000       0.70481000       0.81282000 </v>
   <v>       0.25005000       0.32677000       0.06286000 </v>
   <v>       0.00005000       0.67323000       0.06286000 </v>
   <v>       0.49995000       0.32677000       0.31286000 </v>
   <v>       0.24995000       0.67323000       0.31286000 </v>
   <v>       0.75005000       0.32677000       0.06286000 </v>
   <v>       0.50005000       0.67323000       0.06286000 </v>
   <v>       0.99995000       0.32677000       0.31286000 </v>
   <v>       0.74995000       0.67323000       0.31286000 </v>
   <v>       0.25005000       0.32677000       0.56286000 </v>
   <v>       0.00005000       0.67323000       0.56286000 </v>
   <v>       0.49995000       0.32677000       0.81286000 </v>
   <v>       0.24995000       0.67323000       0.81286000 </v>
   <v>       0.75005000       0.32677000       0.56286000 </v>
   <v>       0.50005000       0.67323000       0.56286000 </v>
   <v>       0.99995000       0.32677000       0.81286000 </v>
   <v>       0.74995000       0.67323000       0.81286000 </v>
   <v>       0.49987000       0.07798000       0.06246000 </v>
   <v>       0.24987000       0.92202000       0.06246000 </v>
   <v>       0.25013000       0.07798000       0.31246000 </v>
   <v>       0.00013000       0.92202000       0.31246000 </v>
   <v>       0.99987000       0.07798000       0.06246000 </v>
   <v>       0.74987000       0.92202000       0.06246000 </v>
   <v>       0.75013000       0.07798000       0.31246000 </v>
   <v>       0.50013000       0.92202000       0.31246000 </v>
   <v>       0.49987000       0.07798000       0.56246000 </v>
   <v>       0.24987000       0.92202000       0.56246000 </v>
   <v>       0.25013000       0.07798000       0.81246000 </v>
   <v>       0.00013000       0.92202000       0.81246000 </v>
   <v>       0.99987000       0.07798000       0.56246000 </v>
   <v>       0.74987000       0.92202000       0.56246000 </v>
   <v>       0.75013000       0.07798000       0.81246000 </v>
   <v>       0.50013000       0.92202000       0.81246000 </v>
  </varray>
 </structure>
 <calculation>
  <scstep>
   <time name="dav">   66.05   66.07</time>
   <time name="total">   66.13   66.15</time>
   <energy>
    <i name="alphaZ">   1079.87189334 </i>
    <i name="ewald"> -31114.18980679 </i>
    <i name="hartreedc"> -12710.89012825 </i>
    <i name="XCdc">   1468.88761848 </i>
    <i name="pawpsdc">  36917.91861236 </i>
    <i name="pawaedc"> -36503.41947684 </i>
    <i name="eentropy">      0.00000000 </i>
    <i name="bandstr">   1583.51072828 </i>
    <i name="atom">  45173.57650906 </i>
    <i name="e_fr_energy">   5895.26594964 </i>
    <i name="e_wo_entrp">   5895.26594964 </i>
    <i name="e_0_energy">   5895.26594964 </i>
   </energy>
  </scstep>
  <scstep>
   <time name="dav">   66.08   66.12</time>
   <time name="total">   66.09   66.13</time>
   <energy>
    <i name="e_fr_energy">    755.01010410 </i>
    <i name="e_wo_entrp">    755.01010410 </i>
    <i name="e_0_energy">    755.01010410 </i>
   </energy>
  </scstep>
  <scstep>
   <time name="dav">   73.15   73.15</time>
   <time name="total">   73.15   73.15</time>
   <energy>
    <i name="e_fr_energy">   -244.55625283 </i>
    <i name="e_wo_entrp">   -244.55625283 </i>
    <i name="e_0_energy">   -244.55625283 </i>
   </energy>
  </scstep>
  <scstep>
   <time name="dav">   81.49   81.50</time>
   <time name="total">   81.49   81.51</time>
   <energy>
    <i name="e_fr_energy">   -352.26976066 </i>
    <i name="e_wo_entrp">   -352.26976066 </i>
    <i name="e_0_energy">   -352.26976066 </i>
   </energy>
  </scstep>
  <scstep>
   <time name="dav">  106.11  106.12</time>
   <time name="total">  106.85  106.85</time>
   <energy>
    <i name="e_fr_energy">   -360.99265328 </i>
    <i name="e_wo_entrp">   -360.99265328 </i>
    <i name="e_0_energy">   -360.99265328 </i>
   </energy>
  </scstep>
  <scstep>
   <time name="dav">   92.32   92.33</time>
   <time name="total">   93.12   93.14</time>
   <energy>
    <i name="e_fr_energy">   -301.08473513 </i>
    <i name="e_wo_entrp">   -301.08473513 </i>
    <i name="e_0_energy">   -301.08473513 </i>
   </energy>
  </scstep>
  <scstep>
   <time name="dav">   72.73   72.78</time>
   <time name="total">   73.55   73.60</time>
   <energy>
    <i name="e_fr_energy">   -303.26405801 </i>
    <i name="e_wo_entrp">   -303.26405801 </i>
    <i name="e_0_energy">   -303.26405801 </i>
   </energy>
  </scstep>
  <scstep>
   <time name="dav">   84.53   84.64</time>
   <time name="total">   85.36   85.47</time>
   <energy>
    <i name="e_fr_energy">   -301.87415094 </i>
    <i name="e_wo_entrp">   -301.87415094 </i>
    <i name="e_0_energy">   -301.87415094 </i>
   </energy>
  </scstep>
  <scstep>
   <time name="dav">   89.75   89.85</time>
   <time name="total">   90.56   90.66</time>
   <energy>
    <i name="e_fr_energy">   -301.27091002 </i>
    <i name="e_wo_entrp">   -301.27091002 </i>
    <i name="e_0_energy">   -301.27091002 </i>
   </energy>
  </scstep>
  <scstep>
   <time name="dav">   79.48   79.60</time>
   <time name="total">   80.30   80.42</time>
   <energy>
    <i name="e_fr_energy">   -301.22975874 </i>
    <i name="e_wo_entrp">   -301.22975874 </i>
    <i name="e_0_energy">   -301.22975874 </i>
   </energy>
  </scstep>
  <scstep>
   <time name="dav">   87.91   88.04</time>
   <time name="total">   88.72   88.86</time>
   <energy>
    <i name="e_fr_energy">   -301.24291881 </i>
    <i name="e_wo_entrp">   -301.24291881 </i>
    <i name="e_0_energy">   -301.24291881 </i>
   </energy>
  </scstep>
  <scstep>
   <time name="dav">   82.43   82.51</time>
   <time name="total">   83.24   83.32</time>
   <energy>
    <i name="e_fr_energy">   -301.24777413 </i>
    <i name="e_wo_entrp">   -301.24777413 </i>
    <i name="e_0_energy">   -301.24777413 </i>
   </energy>
  </scstep>
  <scstep>
   <time name="dav">   88.16   88.34</time>
   <time name="total">   88.97   89.15</time>
   <energy>
    <i name="e_fr_energy">   -301.24860573 </i>
    <i name="e_wo_entrp">   -301.24860573 </i>
    <i name="e_0_energy">   -301.24860573 </i>
   </energy>
  </scstep>
  <scstep>
   <time name="dav">   75.84   76.04</time>
   <time name="total">   76.65   76.85</time>
   <energy>
    <i name="e_fr_energy">   -301.24888260 </i>
    <i name="e_wo_entrp">   -301.24888260 </i>
    <i name="e_0_energy">   -301.24888260 </i>
   </energy>
  </scstep>
  <scstep>
   <time name="dav">   97.56   97.73</time>
   <time name="total">   98.37   98.54</time>
   <energy>
    <i name="e_fr_energy">   -301.24891951 </i>
    <i name="e_wo_entrp">   -301.24891951 </i>
    <i name="e_0_energy">   -301.24891951 </i>
   </energy>
  </scstep>
  <scstep>
   <time name="dav">   70.87   70.94</time>
   <time name="total">   71.70   71.78</time>
   <energy>
    <i name="e_fr_energy">   -301.24893364 </i>
    <i name="e_wo_entrp">   -301.24893364 </i>
    <i name="e_0_energy">   -301.24893364 </i>
   </energy>
  </scstep>
  <scstep>
   <time name="dav">   79.07   79.08</time>
   <time name="total">   79.88   79.90</time>
   <energy>
    <i name="e_fr_energy">   -301.24893610 </i>
    <i name="e_wo_entrp">   -301.24893610 </i>
    <i name="e_0_energy">   -301.24893610 </i>
   </energy>
  </scstep>
  <scstep>
   <time name="dav">   58.99   59.04</time>
   <time name="total">   59.07   59.12</time>
   <energy>
    <i name="alphaZ">   1079.87189334 </i>
    <i name="ewald"> -31114.18980679 </i>
    <i name="hartreedc"> -12945.85138599 </i>
    <i name="XCdc">   1491.81506560 </i>
    <i name="pawpsdc">  43947.35118327 </i>
    <i name="pawaedc"> -43508.39320704 </i>
    <i name="eentropy">      0.00000000 </i>
    <i name="bandstr">  -4425.42918810 </i>
    <i name="atom">  45173.57650906 </i>
    <i name="e_fr_energy">   -301.24893665 </i>
    <i name="e_wo_entrp">   -301.24893665 </i>
    <i name="e_0_energy">   -301.24893665 </i>
   </energy>
  </scstep>
  <structure>
   <crystal>
    <varray name="basis" >
     <v>      11.17850000       0.00000000       0.00000000 </v>
     <v>       0.00000000       9.57460000       0.00000000 </v>
     <v>       0.00000000       0.00000000      11.18240000 </v>
    </varray>
    <i name="volume">   1196.84853820 </i>
    <varray name="rec_basis" >
     <v>       0.08945744       0.00000000       0.00000000 </v>
     <v>       0.00000000       0.10444301       0.00000000 </v>
     <v>       0.00000000       0.00000000       0.08942624 </v>
    </varray>
   </crystal>
   <varray name="positions" >
    <v>       0.37539000       0.00017000       0.43687000 </v>
    <v>       0.12461000       0.99984000       0.18687000 </v>
    <v>       0.37461000       0.00017000       0.18687000 </v>
    <v>       0.62539000       0.99984000       0.43687000 </v>
    <v>       0.87539000       0.00017000       0.43687000 </v>
    <v>       0.62461000       0.99984000       0.18687000 </v>
    <v>       0.87461000       0.00017000       0.18687000 </v>
    <v>       0.12539000       0.99984000       0.93687000 </v>
    <v>       0.37539000       0.00017000       0.93687000 </v>
    <v>       0.37461000       0.00017000       0.68687000 </v>
    <v>       0.87539000       0.00017000       0.93687000 </v>
    <v>       0.87461000       0.00017000       0.68687000 </v>
    <v>       0.12461000       0.99984000       0.68687000 </v>
    <v>       0.62539000       0.99984000       0.93687000 </v>
    <v>       0.00013000       0.29519000       0.06281000 </v>
    <v>       0.25013000       0.70481000       0.06281000 </v>
    <v>       0.24987000       0.29519000       0.31282000 </v>
    <v>       0.49987000       0.70481000       0.31282000 </v>
    <v>       0.50013000       0.29519000       0.06281000 </v>
    <v>       0.75013000       0.70481000       0.06281000 </v>
    <v>       0.74987000       0.29519000       0.31282000 </v>
    <v>       0.99987000       0.70481000       0.31282000 </v>
    <v>       0.00013000       0.29519000       0.56281000 </v>
    <v>       0.25013000       0.70481000       0.56281000 </v>
    <v>       0.24987000       0.29519000       0.81282000 </v>
    <v>       0.49987000       0.70481000       0.81282000 </v>
    <v>       0.50013000       0.29519000       0.56281000 </v>
    <v>       0.75013000       0.70481000       0.56281000 </v>
    <v>       0.74987000       0.29519000       0.81282000 </v>
    <v>       0.99987000       0.70481000       0.81282000 </v>
    <v>       0.25005000       0.32677000       0.06286000 </v>
    <v>       0.00005000       0.67323000       0.06286000 </v>
    <v>       0.49995000       0.32677000       0.31286000 </v>
    <v>       0.24995000       0.67323000       0.31286000 </v>
    <v>       0.75005000       0.32677000       0.06286000 </v>
    <v>       0.50005000       0.67323000       0.06286000 </v>
    <v>       0.99995000       0.32677000       0.31286000 </v>
    <v>       0.74995000       0.67323000       0.31286000 </v>
    <v>       0.25005000       0.32677000       0.56286000 </v>
    <v>       0.00005000       0.67323000       0.56286000 </v>
    <v>       0.49995000       0.32677000       0.81286000 </v>
    <v>       0.24995000       0.67323000       0.81286000 </v>
    <v>       0.75005000       0.32677000       0.56286000 </v>
    <v>       0.50005000       0.67323000       0.56286000 </v>
    <v>       0.99995000       0.32677000       0.81286000 </v>
    <v>       0.74995000       0.67323000       0.81286000 </v>
    <v>       0.49987000       0.07798000       0.06246000 </v>
    <v>       0.24987000       0.92202000       0.06246000 </v>
    <v>       0.25013000       0.07798000       0.31246000 </v>
    <v>       0.00013000       0.92202000       0.31246000 </v>
    <v>       0.99987000       0.07798000       0.06246000 </v>
    <v>       0.74987000       0.92202000       0.06246000 </v>
    <v>       0.75013000       0.07798000       0.31246000 </v>
    <v>       0.50013000       0.92202000       0.31246000 </v>
    <v>       0.49987000       0.07798000       0.56246000 </v>
    <v>       0.24987000       0.92202000       0.56246000 </v>
    <v>       0.25013000       0.07798000       0.81246000 </v>
    <v>       0.00013000       0.92202000       0.81246000 </v>
    <v>       0.99987000       0.07798000       0.56246000 </v>
    <v>       0.74987000       0.92202000       0.56246000 </v>
    <v>       0.75013000       0.07798000       0.81246000 </v>
    <v>       0.50013000       0.92202000       0.81246000 </v>
   </varray>
  </structure>
  <varray name="forces" >
   <v>      -0.26420229       0.12796124       0.08383078 </v>
   <v>       0.01018717       0.00016521       0.57577560 </v>
   <v>      -0.24330252      -0.00703448       0.32809368 </v>
   <v>      -0.01006767       0.00012117       0.49239837 </v>
   <v>       0.25212117      -0.13048634       0.08044487 </v>
   <v>       0.00613548       0.00022061       0.56390078 </v>
   <v>       0.25532652       0.00620314       0.32334896 </v>
   <v>      -0.00601863       0.00018310       0.50523917 </v>
   <v>      -0.23536708      -0.13037548      -0.07326211 </v>
   <v>       0.74246653       0.00078447      -0.31712478 </v>
   <v>       0.22438101       0.13019458      -0.06961366 </v>
   <v>      -0.73152655      -0.00267803      -0.31203158 </v>
   <v>       0.02536516       0.00345335      -1.11393440 </v>
   <v>      -0.02556275       0.00362546      -0.96887738 </v>
   <v>       0.05819252       0.04457470       0.26082300 </v>
   <v>      -0.06798693      -0.04361734       0.26048515 </v>
   <v>      -0.13656202      -1.03676923       0.21405993 </v>
   <v>      -0.03497216      -0.00820230       0.23130858 </v>
   <v>      -0.15616552       1.04023962       0.26716000 </v>
   <v>       0.14467029      -1.04702761       0.26911932 </v>
   <v>       0.04495953       0.00884258       0.23089199 </v>
   <v>       0.15304837       1.03348710       0.21320103 </v>
   <v>      -0.01831770       0.00200889      -0.44607202 </v>
   <v>       0.00892691       0.00874662      -0.44500250 </v>
   <v>       0.12771516       1.04845880      -0.05530943 </v>
   <v>       0.09425463      -0.02444497      -0.45094845 </v>
   <v>       0.16363605      -1.02725608      -0.05394691 </v>
   <v>      -0.18114508       1.02309560      -0.05547536 </v>
   <v>      -0.08510879       0.03554477      -0.45122365 </v>
   <v>      -0.11511697      -1.05606930      -0.05421280 </v>
   <v>       0.07338592       0.15289194      -0.25528066 </v>
   <v>      -0.07638430      -0.15249983      -0.25561128 </v>
   <v>       0.11194777       0.22819489      -0.27287408 </v>
   <v>       0.11652979      -0.19378490      -0.10762959 </v>
   <v>      -0.12650145       0.09908031      -0.11013566 </v>
   <v>       0.12711093      -0.10000986      -0.10875802 </v>
   <v>      -0.11621047       0.19320989      -0.10598079 </v>
   <v>      -0.10946014      -0.22803828      -0.27315840 </v>
   <v>      -0.14124425       0.15279414       0.33681941 </v>
   <v>       0.13816231      -0.15182235       0.33765477 </v>
   <v>      -0.04361012       0.07767350       0.30437992 </v>
   <v>      -0.12871808      -0.10699198       0.03277045 </v>
   <v>       0.11591197       0.19896120       0.06606286 </v>
   <v>      -0.11519830      -0.19985632       0.06443995 </v>
   <v>       0.12715079       0.10580919       0.03137829 </v>
   <v>       0.04708985      -0.07641995       0.30497782 </v>
   <v>       0.58039054      -0.85637088      -0.56686129 </v>
   <v>       0.08170849       0.08746959      -0.24096477 </v>
   <v>       0.65011583       0.83780326      -0.69120245 </v>
   <v>      -0.66589108      -0.83454145      -0.69019919 </v>
   <v>      -0.07265331      -0.08839366      -0.24142417 </v>
   <v>      -0.55757975       0.85526660      -0.55898752 </v>
   <v>      -0.07991556       0.02512947      -0.24068830 </v>
   <v>       0.06998748      -0.02546131      -0.24108163 </v>
   <v>      -0.65801094       0.84558684      -0.51933211 </v>
   <v>       0.03578060      -0.04554425       1.32981877 </v>
   <v>      -0.57603378      -0.85082546      -0.39161428 </v>
   <v>       0.55208179       0.85049112      -0.38382977 </v>
   <v>      -0.03570087       0.04194805       1.32752433 </v>
   <v>       0.67509102      -0.84142168      -0.51838024 </v>
   <v>       0.18732078      -0.06945808       1.30104000 </v>
   <v>      -0.18661727       0.06518036       1.30408145 </v>
  </varray>
  <varray name="stress" >
   <v>      -6.80827044      -0.01579288      -0.00010559 </v>
   <v>      -0.01579257     -14.39782700      -0.03373469 </v>
   <v>      -0.00010553      -0.03373492     -10.53381030 </v>
  </varray>
  <energy>
   <i name="e_fr_energy">   -317.04541062 </i>
   <i name="e_wo_entrp">   -317.04541062 </i>
   <i name="e_0_energy">      0.00000000 </i>
  </energy>
  <time name="totalsc"> 1578.44 1580.08</time>
  <eigenvalues>
   <array>
    <dimension dim="1">band</dimension>
    <dimension dim="2">kpoint</dimension>
    <dimension dim="3">spin</dimension>
    <field>eigene</field>
    <field>occ</field>
    <set>
     <set comment="spin 1">
      <set comment="kpoint 1">
       <r>  -40.2551    1.0000 </r>
       <r>  -40.2483    1.0000 </r>
       <r>  -40.2415    1.0000 </r>
       <r>  -40.1541    1.0000 </r>
       <r>  -39.7997    1.0000 </r>
       <r>  -39.7948    1.0000 </r>
       <r>  -39.7837    1.0000 </r>
       <r>  -39.7791    1.0000 </r>
       <r>  -39.4225    1.0000 </r>
       <r>  -39.3446    1.0000 </r>
       <r>  -39.3384    1.0000 </r>
       <r>  -39.3305    1.0000 </r>
       <r>  -18.9052    1.0000 </r>
       <r>  -18.9022    1.0000 </r>
       <r>  -18.8974    1.0000 </r>
       <r>  -18.8946    1.0000 </r>
       <r>  -18.8371    1.0000 </r>
       <r>  -18.8350    1.0000 </r>
       <r>  -18.8305    1.0000 </r>
       <r>  -18.8284    1.0000 </r>
       <r>  -18.8222    1.0000 </r>
       <r>  -18.8203    1.0000 </r>
       <r>  -18.8139    1.0000 </r>
       <r>  -18.8120    1.0000 </r>
       <r>  -18.7293    1.0000 </r>
       <r>  -18.7265    1.0000 </r>
       <r>  -18.7249    1.0000 </r>
       <r>  -18.7222    1.0000 </r>
       <r>  -18.7157    1.0000 </r>
       <r>  -18.7130    1.0000 </r>
       <r>  -18.7121    1.0000 </r>
       <r>  -18.7095    1.0000 </r>
       <r>  -18.6979    1.0000 </r>
       <r>  -18.6950    1.0000 </r>
       <r>  -18.6878    1.0000 </r>
       <r>  -18.6855    1.0000 </r>
       <r>  -18.6852    1.0000 </r>
       <r>  -18.6823    1.0000 </r>
       <r>  -18.6766    1.0000 </r>
       <r>  -18.6747    1.0000 </r>
       <r>  -18.6658    1.0000 </r>
       <r>  -18.6644    1.0000 </r>
       <r>  -18.6603    1.0000 </r>
       <r>  -18.6585    1.0000 </r>
       <r>  -18.5551    1.0000 </r>
       <r>  -18.5521    1.0000 </r>
       <r>  -18.5466    1.0000 </r>
       <r>  -18.5439    1.0000 </r>
       <r>  -18.5435    1.0000 </r>
       <r>  -18.5396    1.0000 </r>
       <r>  -18.5369    1.0000 </r>
       <r>  -18.5347    1.0000 </r>
       <r>  -18.5317    1.0000 </r>
       <r>  -18.5284    1.0000 </r>
       <r>  -18.5272    1.0000 </r>
       <r>  -18.5241    1.0000 </r>
       <r>  -18.5225    1.0000 </r>
       <r>  -18.5216    1.0000 </r>
       <r>  -18.5208    1.0000 </r>
       <r>  -18.5196    1.0000 </r>
       <r>  -18.5125    1.0000 </r>
       <r>  -18.5111    1.0000 </r>
       <r>  -18.5103    1.0000 </r>
       <r>  -18.5089    1.0000 </r>
       <r>  -18.3961    1.0000 </r>
       <r>  -18.3922    1.0000 </r>
       <r>  -18.3787    1.0000 </r>
       <r>  -18.3751    1.0000 </r>
       <r>  -18.3746    1.0000 </r>
       <r>  -18.3741    1.0000 </r>
       <r>  -18.3730    1.0000 </r>
       <r>  -18.3724    1.0000 </r>
       <r>  -18.3633    1.0000 </r>
       <r>  -18.3628    1.0000 </r>
       <r>  -18.3616    1.0000 </r>
       <r>  -18.3613    1.0000 </r>
       <r>  -18.3595    1.0000 </r>
       <r>  -18.3583    1.0000 </r>
       <r>  -18.3459    1.0000 </r>
       <r>  -18.3446    1.0000 </r>
       <r>  -18.2790    1.0000 </r>
       <r>  -18.2773    1.0000 </r>
       <r>  -18.2702    1.0000 </r>
       <r>  -18.2686    1.0000 </r>
       <r>  -18.1614    1.0000 </r>
       <r>  -18.1597    1.0000 </r>
       <r>  -18.1582    1.0000 </r>
       <r>  -18.1566    1.0000 </r>
       <r>  -18.1477    1.0000 </r>
       <r>  -18.1459    1.0000 </r>
       <r>  -18.1443    1.0000 </r>
       <r>  -18.1425    1.0000 </r>
       <r>  -13.5499    1.0000 </r>
       <r>  -13.5175    1.0000 </r>
       <r>  -13.4389    1.0000 </r>
       <r>  -13.4134    1.0000 </r>
       <r>  -12.8466    1.0000 </r>
       <r>  -12.7669    1.0000 </r>
       <r>  -12.7605    1.0000 </r>
       <r>  -12.6930    1.0000 </r>
       <r>  -12.6680    1.0000 </r>
       <r>  -12.5799    1.0000 </r>
       <r>  -12.5729    1.0000 </r>
       <r>  -12.5042    1.0000 </r>
       <r>  -11.9451    1.0000 </r>
       <r>  -11.9203    1.0000 </r>
       <r>  -11.8985    1.0000 </r>
       <r>  -11.8612    1.0000 </r>
       <r>   -9.3066    1.0000 </r>
       <r>   -9.0146    1.0000 </r>
       <r>   -8.5372    1.0000 </r>
       <r>   -8.4806    1.0000 </r>
       <r>   -8.4273    1.0000 </r>
       <r>   -8.4096    1.0000 </r>
       <r>   -8.3203    1.0000 </r>
       <r>   -8.2691    1.0000 </r>
       <r>   -8.1990    1.0000 </r>
       <r>   -8.1926    1.0000 </r>
       <r>   -7.9704    1.0000 </r>
       <r>   -7.9693    1.0000 </r>
       <r>   -7.9556    1.0000 </r>
       <r>   -7.9550    1.0000 </r>
       <r>   -7.3190    1.0000 </r>
       <r>   -7.3181    1.0000 </r>
       <r>   -6.3460    1.0000 </r>
       <r>   -6.3437    1.0000 </r>
       <r>   -6.3319    1.0000 </r>
       <r>   -6.3289    1.0000 </r>
       <r>   -5.5357    1.0000 </r>
       <r>   -5.4914    1.0000 </r>
       <r>   -5.3514    1.0000 </r>
       <r>   -5.3261    1.0000 </r>
       <r>   -5.3187    1.0000 </r>
       <r>   -5.1864    1.0000 </r>
       <r>   -5.1195    1.0000 </r>
       <r>   -5.1116    1.0000 </r>
       <r>   -5.0791    1.0000 </r>
       <r>   -4.9715    1.0000 </r>
       <r>   -3.7640    1.0000 </r>
       <r>   -3.6088    1.0000 </r>
       <r>   -1.3747    1.0000 </r>
       <r>   -1.3411    1.0000 </r>
       <r>   -1.0462    1.0000 </r>
       <r>   -1.0187    1.0000 </r>
       <r>   -0.5473    1.0000 </r>
       <r>   -0.4850    1.0000 </r>
       <r>   -0.4544    1.0000 </r>
       <r>   -0.4205    1.0000 </r>
       <r>   -0.1753    1.0000 </r>
       <r>   -0.1405    1.0000 </r>
       <r>   -0.1244    1.0000 </r>
       <r>   -0.0972    1.0000 </r>
       <r>    0.0462    1.0000 </r>
       <r>    0.0632    1.0000 </r>
       <r>    0.2913    1.0000 </r>
       <r>    0.3033    1.0000 </r>
       <r>    0.3905    1.0000 </r>
       <r>    0.4539    1.0000 </r>
       <r>    0.5106    1.0000 </r>
       <r>    0.6371    1.0000 </r>
       <r>    0.6633    1.0000 </r>
       <r>    0.6748    1.0000 </r>
       <r>    0.8109    1.0000 </r>
       <r>    0.8344    1.0000 </r>
       <r>    0.8467    1.0000 </r>
       <r>    0.8786    1.0000 </r>
       <r>    0.9458    1.0000 </r>
       <r>    0.9770    1.0000 </r>
       <r>    0.9931    1.0000 </r>
       <r>    1.0485    1.0000 </r>
       <r>    1.0631    1.0000 </r>
       <r>    1.0809    1.0000 </r>
       <r>    1.1190    1.0000 </r>
       <r>    1.1660    1.0000 </r>
       <r>    1.2318    1.0000 </r>
       <r>    1.2729    1.0000 </r>
       <r>    1.3577    1.0000 </r>
       <r>    1.4131    1.0000 </r>
       <r>    1.4300    1.0000 </r>
       <r>    1.4327    1.0000 </r>
       <r>    1.5817    1.0000 </r>
       <r>    1.5940    1.0000 </r>
       <r>    1.6340    1.0000 </r>
       <r>    1.6351    1.0000 </r>
       <r>    1.7005    1.0000 </r>
       <r>    1.7885    1.0000 </r>
       <r>    1.8563    1.0000 </r>
       <r>    1.8842    1.0000 </r>
       <r>    1.9031    1.0000 </r>
       <r>    1.9416    1.0000 </r>
       <r>    1.9532    1.0000 </r>
       <r>    2.0332    1.0000 </r>
       <r>    2.0645    1.0000 </r>
       <r>    2.2457    1.0000 </r>
       <r>    2.2772    1.0000 </r>
       <r>    2.3501    1.0000 </r>
       <r>    2.3702    1.0000 </r>
       <r>    2.4349    1.0000 </r>
       <r>    2.4734    1.0000 </r>
       <r>    2.5516    1.0000 </r>
       <r>    2.5991    1.0000 </r>
       <r>    2.6082    1.0000 </r>
       <r>    2.6088    1.0000 </r>
       <r>    2.6147    1.0000 </r>
       <r>    2.6372    1.0000 </r>
       <r>    2.6481    1.0000 </r>
       <r>    2.6737    1.0000 </r>
       <r>    2.6759    1.0000 </r>
       <r>    2.7079    1.0000 </r>
       <r>    2.8147    1.0000 </r>
       <r>    2.8186    1.0000 </r>
       <r>    2.8718    1.0000 </r>
       <r>    2.9234    1.0000 </r>
       <r>    2.9380    1.0000 </r>
       <r>    3.0668    1.0000 </r>
       <r>    3.1011    1.0000 </r>
       <r>    3.1145    1.0000 </r>
       <r>    3.1348    1.0000 </r>
       <r>    3.1657    1.0000 </r>
       <r>    3.1700    1.0000 </r>
       <r>    3.1999    1.0000 </r>
       <r>    3.2205    1.0000 </r>
       <r>    3.2308    1.0000 </r>
       <r>    3.2650    1.0000 </r>
       <r>    3.3064    1.0000 </r>
       <r>    3.3348    1.0000 </r>
       <r>    3.3367    1.0000 </r>
       <r>    3.4238    1.0000 </r>
       <r>    3.4859    1.0000 </r>
       <r>    3.4952    1.0000 </r>
       <r>    3.5781    1.0000 </r>
       <r>    3.6287    1.0000 </r>
       <r>    4.2475    1.0000 </r>
       <r>    4.2518    1.0000 </r>
       <r>    4.2521    1.0000 </r>
       <r>    4.2583    1.0000 </r>
       <r>    5.1384    0.0000 </r>
       <r>    5.1412    0.0000 </r>
       <r>    5.1432    0.0000 </r>
       <r>    5.1468    0.0000 </r>
       <r>    5.7872    0.0000 </r>
       <r>    5.7967    0.0000 </r>
       <r>    5.7985    0.0000 </r>
       <r>    5.8024    0.0000 </r>
       <r>    6.1289    0.0000 </r>
       <r>    6.1412    0.0000 </r>
       <r>    6.1967    0.0000 </r>
       <r>    6.2041    0.0000 </r>
       <r>    6.2688    0.0000 </r>
       <r>    6.2736    0.0000 </r>
       <r>    6.3172    0.0000 </r>
       <r>    6.3221    0.0000 </r>
       <r>    7.1631    0.0000 </r>
       <r>    7.1789    0.0000 </r>
       <r>    7.2295    0.0000 </r>
       <r>    7.2597    0.0000 </r>
       <r>    7.8163    0.0000 </r>
       <r>    7.8614    0.0000 </r>
       <r>    7.8992    0.0000 </r>
       <r>    7.9395    0.0000 </r>
       <r>    8.0899    0.0000 </r>
       <r>    8.1076    0.0000 </r>
       <r>    8.2288    0.0000 </r>
       <r>    8.2476    0.0000 </r>
       <r>    8.5236    0.0000 </r>
       <r>    8.6363    0.0000 </r>
       <r>    8.7781    0.0000 </r>
       <r>    8.8272    0.0000 </r>
       <r>    8.8290    0.0000 </r>
       <r>    8.9101    0.0000 </r>
       <r>    8.9594    0.0000 </r>
       <r>    8.9860    0.0000 </r>
       <r>    9.0648    0.0000 </r>
       <r>    9.0852    0.0000 </r>
       <r>    9.1066    0.0000 </r>
       <r>    9.1323    0.0000 </r>
       <r>    9.1398    0.0000 </r>
       <r>    9.2120    0.0000 </r>
       <r>    9.2383    0.0000 </r>
       <r>    9.3156    0.0000 </r>
       <r>    9.4547    0.0000 </r>
       <r>    9.5397    0.0000 </r>
       <r>    9.5862    0.0000 </r>
       <r>    9.6449    0.0000 </r>
       <r>    9.6941    0.0000 </r>
       <r>    9.7099    0.0000 </r>
       <r>    9.7383    0.0000 </r>
       <r>    9.7620    0.0000 </r>
       <r>   10.2104    0.0000 </r>
       <r>   10.2580    0.0000 </r>
       <r>   10.2756    0.0000 </r>
       <r>   10.2965    0.0000 </r>
       <r>   10.4332    0.0000 </r>
       <r>   10.5476    0.0000 </r>
       <r>   10.5739    0.0000 </r>
       <r>   10.6187    0.0000 </r>
       <r>   10.6373    0.0000 </r>
       <r>   10.7314    0.0000 </r>
       <r>   10.9474    0.0000 </r>
       <r>   11.3023    0.0000 </r>
       <r>   11.4148    0.0000 </r>
       <r>   11.4420    0.0000 </r>
       <r>   11.5602    0.0000 </r>
       <r>   11.6533    0.0000 </r>
       <r>   11.7312    0.0000 </r>
       <r>   11.8199    0.0000 </r>
       <r>   11.8972    0.0000 </r>
       <r>   11.9014    0.0000 </r>
      </set>
      <set comment="kpoint 2">
       <r>  -40.2551    1.0000 </r>
       <r>  -40.2483    1.0000 </r>
       <r>  -40.2415    1.0000 </r>
       <r>  -40.1541    1.0000 </r>
       <r>  -39.7997    1.0000 </r>
       <r>  -39.7948    1.0000 </r>
       <r>  -39.7837    1.0000 </r>
       <r>  -39.7791    1.0000 </r>
       <r>  -39.4225    1.0000 </r>
       <r>  -39.3446    1.0000 </r>
       <r>  -39.3384    1.0000 </r>
       <r>  -39.3305    1.0000 </r>
       <r>  -18.9051    1.0000 </r>
       <r>  -18.9022    1.0000 </r>
       <r>  -18.8973    1.0000 </r>
       <r>  -18.8946    1.0000 </r>
       <r>  -18.8368    1.0000 </r>
       <r>  -18.8347    1.0000 </r>
       <r>  -18.8304    1.0000 </r>
       <r>  -18.8284    1.0000 </r>
       <r>  -18.8224    1.0000 </r>
       <r>  -18.8205    1.0000 </r>
       <r>  -18.8140    1.0000 </r>
       <r>  -18.8121    1.0000 </r>
       <r>  -18.7293    1.0000 </r>
       <r>  -18.7267    1.0000 </r>
       <r>  -18.7247    1.0000 </r>
       <r>  -18.7222    1.0000 </r>
       <r>  -18.7157    1.0000 </r>
       <r>  -18.7130    1.0000 </r>
       <r>  -18.7121    1.0000 </r>
       <r>  -18.7095    1.0000 </r>
       <r>  -18.6981    1.0000 </r>
       <r>  -18.6952    1.0000 </r>
       <r>  -18.6878    1.0000 </r>
       <r>  -18.6856    1.0000 </r>
       <r>  -18.6851    1.0000 </r>
       <r>  -18.6823    1.0000 </r>
       <r>  -18.6766    1.0000 </r>
       <r>  -18.6746    1.0000 </r>
       <r>  -18.6658    1.0000 </r>
       <r>  -18.6644    1.0000 </r>
       <r>  -18.6603    1.0000 </r>
       <r>  -18.6585    1.0000 </r>
       <r>  -18.5550    1.0000 </r>
       <r>  -18.5520    1.0000 </r>
       <r>  -18.5466    1.0000 </r>
       <r>  -18.5439    1.0000 </r>
       <r>  -18.5435    1.0000 </r>
       <r>  -18.5396    1.0000 </r>
       <r>  -18.5368    1.0000 </r>
       <r>  -18.5348    1.0000 </r>
       <r>  -18.5318    1.0000 </r>
       <r>  -18.5284    1.0000 </r>
       <r>  -18.5272    1.0000 </r>
       <r>  -18.5241    1.0000 </r>
       <r>  -18.5225    1.0000 </r>
       <r>  -18.5215    1.0000 </r>
       <r>  -18.5208    1.0000 </r>
       <r>  -18.5196    1.0000 </r>
       <r>  -18.5125    1.0000 </r>
       <r>  -18.5111    1.0000 </r>
       <r>  -18.5103    1.0000 </r>
       <r>  -18.5089    1.0000 </r>
       <r>  -18.3961    1.0000 </r>
       <r>  -18.3923    1.0000 </r>
       <r>  -18.3787    1.0000 </r>
       <r>  -18.3752    1.0000 </r>
       <r>  -18.3746    1.0000 </r>
       <r>  -18.3740    1.0000 </r>
       <r>  -18.3731    1.0000 </r>
       <r>  -18.3726    1.0000 </r>
       <r>  -18.3633    1.0000 </r>
       <r>  -18.3627    1.0000 </r>
       <r>  -18.3616    1.0000 </r>
       <r>  -18.3612    1.0000 </r>
       <r>  -18.3595    1.0000 </r>
       <r>  -18.3582    1.0000 </r>
       <r>  -18.3460    1.0000 </r>
       <r>  -18.3447    1.0000 </r>
       <r>  -18.2790    1.0000 </r>
       <r>  -18.2773    1.0000 </r>
       <r>  -18.2702    1.0000 </r>
       <r>  -18.2686    1.0000 </r>
       <r>  -18.1614    1.0000 </r>
       <r>  -18.1597    1.0000 </r>
       <r>  -18.1582    1.0000 </r>
       <r>  -18.1566    1.0000 </r>
       <r>  -18.1477    1.0000 </r>
       <r>  -18.1460    1.0000 </r>
       <r>  -18.1442    1.0000 </r>
       <r>  -18.1425    1.0000 </r>
       <r>  -13.5368    1.0000 </r>
       <r>  -13.5334    1.0000 </r>
       <r>  -13.4259    1.0000 </r>
       <r>  -13.4236    1.0000 </r>
       <r>  -12.8471    1.0000 </r>
       <r>  -12.7745    1.0000 </r>
       <r>  -12.7506    1.0000 </r>
       <r>  -12.6952    1.0000 </r>
       <r>  -12.6653    1.0000 </r>
       <r>  -12.5919    1.0000 </r>
       <r>  -12.5612    1.0000 </r>
       <r>  -12.5062    1.0000 </r>
       <r>  -11.9386    1.0000 </r>
       <r>  -11.9368    1.0000 </r>
       <r>  -11.8757    1.0000 </r>
       <r>  -11.8741    1.0000 </r>
       <r>   -9.0958    1.0000 </r>
       <r>   -9.0939    1.0000 </r>
       <r>   -8.8234    1.0000 </r>
       <r>   -8.8214    1.0000 </r>
       <r>   -8.3042    1.0000 </r>
       <r>   -8.2993    1.0000 </r>
       <r>   -8.2648    1.0000 </r>
       <r>   -8.2603    1.0000 </r>
       <r>   -8.1216    1.0000 </r>
       <r>   -8.1179    1.0000 </r>
       <r>   -8.0745    1.0000 </r>
       <r>   -8.0709    1.0000 </r>
       <r>   -7.6515    1.0000 </r>
       <r>   -7.6499    1.0000 </r>
       <r>   -7.5426    1.0000 </r>
       <r>   -7.5412    1.0000 </r>
       <r>   -5.9736    1.0000 </r>
       <r>   -5.9713    1.0000 </r>
       <r>   -5.8813    1.0000 </r>
       <r>   -5.8793    1.0000 </r>
       <r>   -5.8212    1.0000 </r>
       <r>   -5.8157    1.0000 </r>
       <r>   -5.7219    1.0000 </r>
       <r>   -5.7166    1.0000 </r>
       <r>   -5.5408    1.0000 </r>
       <r>   -5.5392    1.0000 </r>
       <r>   -5.3993    1.0000 </r>
       <r>   -5.3983    1.0000 </r>
       <r>   -4.3795    1.0000 </r>
       <r>   -4.3780    1.0000 </r>
       <r>   -4.2084    1.0000 </r>
       <r>   -4.2067    1.0000 </r>
       <r>   -1.1112    1.0000 </r>
       <r>   -1.1074    1.0000 </r>
       <r>   -0.7808    1.0000 </r>
       <r>   -0.7789    1.0000 </r>
       <r>   -0.4391    1.0000 </r>
       <r>   -0.4104    1.0000 </r>
       <r>   -0.0473    1.0000 </r>
       <r>    0.0051    1.0000 </r>
       <r>    0.0605    1.0000 </r>
       <r>    0.0676    1.0000 </r>
       <r>    0.1636    1.0000 </r>
       <r>    0.1814    1.0000 </r>
       <r>    0.1992    1.0000 </r>
       <r>    0.2044    1.0000 </r>
       <r>    0.3361    1.0000 </r>
       <r>    0.3642    1.0000 </r>
       <r>    0.5232    1.0000 </r>
       <r>    0.5635    1.0000 </r>
       <r>    0.5841    1.0000 </r>
       <r>    0.6023    1.0000 </r>
       <r>    0.6377    1.0000 </r>
       <r>    0.6659    1.0000 </r>
       <r>    0.6988    1.0000 </r>
       <r>    0.7234    1.0000 </r>
       <r>    0.8016    1.0000 </r>
       <r>    0.8106    1.0000 </r>
       <r>    0.9051    1.0000 </r>
       <r>    0.9067    1.0000 </r>
       <r>    0.9581    1.0000 </r>
       <r>    0.9764    1.0000 </r>
       <r>    1.0277    1.0000 </r>
       <r>    1.0617    1.0000 </r>
       <r>    1.0754    1.0000 </r>
       <r>    1.1662    1.0000 </r>
       <r>    1.2640    1.0000 </r>
       <r>    1.2762    1.0000 </r>
       <r>    1.3575    1.0000 </r>
       <r>    1.3592    1.0000 </r>
       <r>    1.4030    1.0000 </r>
       <r>    1.4140    1.0000 </r>
       <r>    1.4888    1.0000 </r>
       <r>    1.5503    1.0000 </r>
       <r>    1.5836    1.0000 </r>
       <r>    1.6382    1.0000 </r>
       <r>    1.6428    1.0000 </r>
       <r>    1.6661    1.0000 </r>
       <r>    1.7422    1.0000 </r>
       <r>    1.7526    1.0000 </r>
       <r>    1.8256    1.0000 </r>
       <r>    1.9504    1.0000 </r>
       <r>    1.9646    1.0000 </r>
       <r>    2.0091    1.0000 </r>
       <r>    2.0337    1.0000 </r>
       <r>    2.0716    1.0000 </r>
       <r>    2.0842    1.0000 </r>
       <r>    2.1065    1.0000 </r>
       <r>    2.1504    1.0000 </r>
       <r>    2.1762    1.0000 </r>
       <r>    2.2816    1.0000 </r>
       <r>    2.2960    1.0000 </r>
       <r>    2.3770    1.0000 </r>
       <r>    2.4227    1.0000 </r>
       <r>    2.4541    1.0000 </r>
       <r>    2.5273    1.0000 </r>
       <r>    2.5447    1.0000 </r>
       <r>    2.5631    1.0000 </r>
       <r>    2.6102    1.0000 </r>
       <r>    2.6512    1.0000 </r>
       <r>    2.6658    1.0000 </r>
       <r>    2.6893    1.0000 </r>
       <r>    2.7412    1.0000 </r>
       <r>    2.7529    1.0000 </r>
       <r>    2.7938    1.0000 </r>
       <r>    2.8153    1.0000 </r>
       <r>    2.8726    1.0000 </r>
       <r>    2.8834    1.0000 </r>
       <r>    2.9483    1.0000 </r>
       <r>    2.9851    1.0000 </r>
       <r>    3.0641    1.0000 </r>
       <r>    3.0847    1.0000 </r>
       <r>    3.1432    1.0000 </r>
       <r>    3.1670    1.0000 </r>
       <r>    3.1794    1.0000 </r>
       <r>    3.1884    1.0000 </r>
       <r>    3.2742    1.0000 </r>
       <r>    3.3122    1.0000 </r>
       <r>    3.3357    1.0000 </r>
       <r>    3.3641    1.0000 </r>
       <r>    3.5878    1.0000 </r>
       <r>    3.5975    1.0000 </r>
       <r>    3.6024    1.0000 </r>
       <r>    3.6084    1.0000 </r>
       <r>    3.6378    1.0000 </r>
       <r>    3.6454    1.0000 </r>
       <r>    3.8052    1.0000 </r>
       <r>    3.8087    1.0000 </r>
       <r>    5.7123    0.0000 </r>
       <r>    5.7149    0.0000 </r>
       <r>    5.7232    0.0000 </r>
       <r>    5.7252    0.0000 </r>
       <r>    5.7955    0.0000 </r>
       <r>    5.7964    0.0000 </r>
       <r>    5.8275    0.0000 </r>
       <r>    5.8283    0.0000 </r>
       <r>    7.2305    0.0000 </r>
       <r>    7.2449    0.0000 </r>
       <r>    7.2910    0.0000 </r>
       <r>    7.3197    0.0000 </r>
       <r>    7.3419    0.0000 </r>
       <r>    7.3941    0.0000 </r>
       <r>    7.4601    0.0000 </r>
       <r>    7.4756    0.0000 </r>
       <r>    7.4792    0.0000 </r>
       <r>    7.4931    0.0000 </r>
       <r>    7.5233    0.0000 </r>
       <r>    7.5840    0.0000 </r>
       <r>    7.8477    0.0000 </r>
       <r>    7.8509    0.0000 </r>
       <r>    7.8837    0.0000 </r>
       <r>    7.8914    0.0000 </r>
       <r>    7.9348    0.0000 </r>
       <r>    7.9450    0.0000 </r>
       <r>    7.9672    0.0000 </r>
       <r>    7.9819    0.0000 </r>
       <r>    8.0653    0.0000 </r>
       <r>    8.0670    0.0000 </r>
       <r>    8.2223    0.0000 </r>
       <r>    8.2249    0.0000 </r>
       <r>    8.3962    0.0000 </r>
       <r>    8.4057    0.0000 </r>
       <r>    8.5920    0.0000 </r>
       <r>    8.5948    0.0000 </r>
       <r>    8.7151    0.0000 </r>
       <r>    8.7195    0.0000 </r>
       <r>    8.7962    0.0000 </r>
       <r>    8.7979    0.0000 </r>
       <r>    8.8744    0.0000 </r>
       <r>    8.8751    0.0000 </r>
       <r>    8.9781    0.0000 </r>
       <r>    8.9788    0.0000 </r>
       <r>    9.2155    0.0000 </r>
       <r>    9.2347    0.0000 </r>
       <r>    9.4861    0.0000 </r>
       <r>    9.4878    0.0000 </r>
       <r>    9.4963    0.0000 </r>
       <r>    9.5155    0.0000 </r>
       <r>   10.3006    0.0000 </r>
       <r>   10.3021    0.0000 </r>
       <r>   10.4998    0.0000 </r>
       <r>   10.5385    0.0000 </r>
       <r>   10.5608    0.0000 </r>
       <r>   10.6540    0.0000 </r>
       <r>   10.6612    0.0000 </r>
       <r>   10.7146    0.0000 </r>
       <r>   10.7917    0.0000 </r>
       <r>   10.8071    0.0000 </r>
       <r>   10.8121    0.0000 </r>
       <r>   10.8463    0.0000 </r>
       <r>   10.8824    0.0000 </r>
       <r>   10.9985    0.0000 </r>
       <r>   11.2353    0.0000 </r>
       <r>   11.2716    0.0000 </r>
       <r>   11.3407    0.0000 </r>
       <r>   11.3663    0.0000 </r>
       <r>   11.4030    0.0000 </r>
       <r>   11.4761    0.0000 </r>
       <r>   11.5420    0.0000 </r>
       <r>   11.5631    0.0000 </r>
      </set>
      <set comment="kpoint 3">
       <r>  -40.2551    1.0000 </r>
       <r>  -40.2483    1.0000 </r>
       <r>  -40.2415    1.0000 </r>
       <r>  -40.1541    1.0000 </r>
       <r>  -39.7997    1.0000 </r>
       <r>  -39.7948    1.0000 </r>
       <r>  -39.7837    1.0000 </r>
       <r>  -39.7791    1.0000 </r>
       <r>  -39.4225    1.0000 </r>
       <r>  -39.3446    1.0000 </r>
       <r>  -39.3384    1.0000 </r>
       <r>  -39.3305    1.0000 </r>
       <r>  -18.9054    1.0000 </r>
       <r>  -18.9020    1.0000 </r>
       <r>  -18.8976    1.0000 </r>
       <r>  -18.8943    1.0000 </r>
       <r>  -18.8371    1.0000 </r>
       <r>  -18.8351    1.0000 </r>
       <r>  -18.8305    1.0000 </r>
       <r>  -18.8284    1.0000 </r>
       <r>  -18.8222    1.0000 </r>
       <r>  -18.8203    1.0000 </r>
       <r>  -18.8139    1.0000 </r>
       <r>  -18.8120    1.0000 </r>
       <r>  -18.7293    1.0000 </r>
       <r>  -18.7266    1.0000 </r>
       <r>  -18.7248    1.0000 </r>
       <r>  -18.7222    1.0000 </r>
       <r>  -18.7157    1.0000 </r>
       <r>  -18.7130    1.0000 </r>
       <r>  -18.7121    1.0000 </r>
       <r>  -18.7095    1.0000 </r>
       <r>  -18.6979    1.0000 </r>
       <r>  -18.6950    1.0000 </r>
       <r>  -18.6878    1.0000 </r>
       <r>  -18.6855    1.0000 </r>
       <r>  -18.6851    1.0000 </r>
       <r>  -18.6823    1.0000 </r>
       <r>  -18.6766    1.0000 </r>
       <r>  -18.6747    1.0000 </r>
       <r>  -18.6657    1.0000 </r>
       <r>  -18.6644    1.0000 </r>
       <r>  -18.6603    1.0000 </r>
       <r>  -18.6585    1.0000 </r>
       <r>  -18.5551    1.0000 </r>
       <r>  -18.5521    1.0000 </r>
       <r>  -18.5466    1.0000 </r>
       <r>  -18.5440    1.0000 </r>
       <r>  -18.5434    1.0000 </r>
       <r>  -18.5396    1.0000 </r>
       <r>  -18.5368    1.0000 </r>
       <r>  -18.5347    1.0000 </r>
       <r>  -18.5318    1.0000 </r>
       <r>  -18.5283    1.0000 </r>
       <r>  -18.5272    1.0000 </r>
       <r>  -18.5241    1.0000 </r>
       <r>  -18.5225    1.0000 </r>
       <r>  -18.5215    1.0000 </r>
       <r>  -18.5208    1.0000 </r>
       <r>  -18.5196    1.0000 </r>
       <r>  -18.5125    1.0000 </r>
       <r>  -18.5112    1.0000 </r>
       <r>  -18.5105    1.0000 </r>
       <r>  -18.5087    1.0000 </r>
       <r>  -18.3961    1.0000 </r>
       <r>  -18.3923    1.0000 </r>
       <r>  -18.3786    1.0000 </r>
       <r>  -18.3751    1.0000 </r>
       <r>  -18.3746    1.0000 </r>
       <r>  -18.3741    1.0000 </r>
       <r>  -18.3730    1.0000 </r>
       <r>  -18.3724    1.0000 </r>
       <r>  -18.3633    1.0000 </r>
       <r>  -18.3628    1.0000 </r>
       <r>  -18.3616    1.0000 </r>
       <r>  -18.3613    1.0000 </r>
       <r>  -18.3595    1.0000 </r>
       <r>  -18.3583    1.0000 </r>
       <r>  -18.3459    1.0000 </r>
       <r>  -18.3446    1.0000 </r>
       <r>  -18.2791    1.0000 </r>
       <r>  -18.2772    1.0000 </r>
       <r>  -18.2703    1.0000 </r>
       <r>  -18.2685    1.0000 </r>
       <r>  -18.1614    1.0000 </r>
       <r>  -18.1597    1.0000 </r>
       <r>  -18.1582    1.0000 </r>
       <r>  -18.1566    1.0000 </r>
       <r>  -18.1477    1.0000 </r>
       <r>  -18.1459    1.0000 </r>
       <r>  -18.1443    1.0000 </r>
       <r>  -18.1425    1.0000 </r>
       <r>  -13.5495    1.0000 </r>
       <r>  -13.5174    1.0000 </r>
       <r>  -13.4391    1.0000 </r>
       <r>  -13.4135    1.0000 </r>
       <r>  -12.8461    1.0000 </r>
       <r>  -12.7678    1.0000 </r>
       <r>  -12.7600    1.0000 </r>
       <r>  -12.6936    1.0000 </r>
       <r>  -12.6674    1.0000 </r>
       <r>  -12.5805    1.0000 </r>
       <r>  -12.5724    1.0000 </r>
       <r>  -12.5047    1.0000 </r>
       <r>  -11.9440    1.0000 </r>
       <r>  -11.9196    1.0000 </r>
       <r>  -11.9009    1.0000 </r>
       <r>  -11.8620    1.0000 </r>
       <r>   -9.2980    1.0000 </r>
       <r>   -9.0201    1.0000 </r>
       <r>   -8.5565    1.0000 </r>
       <r>   -8.4991    1.0000 </r>
       <r>   -8.4445    1.0000 </r>
       <r>   -8.4274    1.0000 </r>
       <r>   -8.2990    1.0000 </r>
       <r>   -8.2499    1.0000 </r>
       <r>   -8.1794    1.0000 </r>
       <r>   -8.1734    1.0000 </r>
       <r>   -7.9734    1.0000 </r>
       <r>   -7.9731    1.0000 </r>
       <r>   -7.9581    1.0000 </r>
       <r>   -7.9578    1.0000 </r>
       <r>   -7.3215    1.0000 </r>
       <r>   -7.3212    1.0000 </r>
       <r>   -6.3377    1.0000 </r>
       <r>   -6.3326    1.0000 </r>
       <r>   -6.3215    1.0000 </r>
       <r>   -6.3201    1.0000 </r>
       <r>   -5.5533    1.0000 </r>
       <r>   -5.4734    1.0000 </r>
       <r>   -5.3918    1.0000 </r>
       <r>   -5.3629    1.0000 </r>
       <r>   -5.3479    1.0000 </r>
       <r>   -5.1486    1.0000 </r>
       <r>   -5.1299    1.0000 </r>
       <r>   -5.0683    1.0000 </r>
       <r>   -5.0339    1.0000 </r>
       <r>   -4.9255    1.0000 </r>
       <r>   -3.8349    1.0000 </r>
       <r>   -3.5267    1.0000 </r>
       <r>   -1.3055    1.0000 </r>
       <r>   -1.2804    1.0000 </r>
       <r>   -1.1427    1.0000 </r>
       <r>   -1.1032    1.0000 </r>
       <r>   -0.4139    1.0000 </r>
       <r>   -0.3875    1.0000 </r>
       <r>   -0.3685    1.0000 </r>
       <r>   -0.3665    1.0000 </r>
       <r>   -0.3442    1.0000 </r>
       <r>   -0.3260    1.0000 </r>
       <r>   -0.2498    1.0000 </r>
       <r>   -0.2116    1.0000 </r>
       <r>   -0.0949    1.0000 </r>
       <r>   -0.0555    1.0000 </r>
       <r>   -0.0527    1.0000 </r>
       <r>    0.0274    1.0000 </r>
       <r>    0.2486    1.0000 </r>
       <r>    0.3520    1.0000 </r>
       <r>    0.4344    1.0000 </r>
       <r>    0.4870    1.0000 </r>
       <r>    0.6129    1.0000 </r>
       <r>    0.6234    1.0000 </r>
       <r>    0.7297    1.0000 </r>
       <r>    0.7593    1.0000 </r>
       <r>    0.7758    1.0000 </r>
       <r>    0.8355    1.0000 </r>
       <r>    0.8386    1.0000 </r>
       <r>    0.9838    1.0000 </r>
       <r>    1.0106    1.0000 </r>
       <r>    1.1186    1.0000 </r>
       <r>    1.1652    1.0000 </r>
       <r>    1.2033    1.0000 </r>
       <r>    1.2268    1.0000 </r>
       <r>    1.2950    1.0000 </r>
       <r>    1.3331    1.0000 </r>
       <r>    1.3562    1.0000 </r>
       <r>    1.3943    1.0000 </r>
       <r>    1.4168    1.0000 </r>
       <r>    1.5033    1.0000 </r>
       <r>    1.5124    1.0000 </r>
       <r>    1.6267    1.0000 </r>
       <r>    1.7159    1.0000 </r>
       <r>    1.7814    1.0000 </r>
       <r>    1.7875    1.0000 </r>
       <r>    1.8275    1.0000 </r>
       <r>    1.9105    1.0000 </r>
       <r>    1.9760    1.0000 </r>
       <r>    1.9898    1.0000 </r>
       <r>    2.0301    1.0000 </r>
       <r>    2.1019    1.0000 </r>
       <r>    2.1112    1.0000 </r>
       <r>    2.1497    1.0000 </r>
       <r>    2.1536    1.0000 </r>
       <r>    2.2900    1.0000 </r>
       <r>    2.3717    1.0000 </r>
       <r>    2.4071    1.0000 </r>
       <r>    2.4083    1.0000 </r>
       <r>    2.4854    1.0000 </r>
       <r>    2.5238    1.0000 </r>
       <r>    2.5612    1.0000 </r>
       <r>    2.5658    1.0000 </r>
       <r>    2.5728    1.0000 </r>
       <r>    2.5929    1.0000 </r>
       <r>    2.6081    1.0000 </r>
       <r>    2.6083    1.0000 </r>
       <r>    2.6197    1.0000 </r>
       <r>    2.6218    1.0000 </r>
       <r>    2.7230    1.0000 </r>
       <r>    2.7363    1.0000 </r>
       <r>    2.8161    1.0000 </r>
       <r>    2.8430    1.0000 </r>
       <r>    2.9001    1.0000 </r>
       <r>    2.9159    1.0000 </r>
       <r>    2.9835    1.0000 </r>
       <r>    2.9957    1.0000 </r>
       <r>    3.0380    1.0000 </r>
       <r>    3.0702    1.0000 </r>
       <r>    3.0852    1.0000 </r>
       <r>    3.1017    1.0000 </r>
       <r>    3.1064    1.0000 </r>
       <r>    3.1586    1.0000 </r>
       <r>    3.2155    1.0000 </r>
       <r>    3.2888    1.0000 </r>
       <r>    3.3563    1.0000 </r>
       <r>    3.4134    1.0000 </r>
       <r>    3.4544    1.0000 </r>
       <r>    3.4658    1.0000 </r>
       <r>    3.5047    1.0000 </r>
       <r>    3.5203    1.0000 </r>
       <r>    3.5212    1.0000 </r>
       <r>    3.5955    1.0000 </r>
       <r>    3.6539    1.0000 </r>
       <r>    4.2993    1.0000 </r>
       <r>    4.3005    1.0000 </r>
       <r>    4.3050    1.0000 </r>
       <r>    4.3102    1.0000 </r>
       <r>    5.2042    0.0000 </r>
       <r>    5.2087    0.0000 </r>
       <r>    5.2111    0.0000 </r>
       <r>    5.2137    0.0000 </r>
       <r>    5.8000    0.0000 </r>
       <r>    5.8031    0.0000 </r>
       <r>    5.8057    0.0000 </r>
       <r>    5.8119    0.0000 </r>
       <r>    6.1931    0.0000 </r>
       <r>    6.2001    0.0000 </r>
       <r>    6.2461    0.0000 </r>
       <r>    6.2522    0.0000 </r>
       <r>    6.2772    0.0000 </r>
       <r>    6.2838    0.0000 </r>
       <r>    6.3263    0.0000 </r>
       <r>    6.3339    0.0000 </r>
       <r>    6.7664    0.0000 </r>
       <r>    6.8631    0.0000 </r>
       <r>    6.9706    0.0000 </r>
       <r>    7.0150    0.0000 </r>
       <r>    7.2790    0.0000 </r>
       <r>    7.3113    0.0000 </r>
       <r>    7.5553    0.0000 </r>
       <r>    7.6572    0.0000 </r>
       <r>    7.8081    0.0000 </r>
       <r>    7.8503    0.0000 </r>
       <r>    7.9702    0.0000 </r>
       <r>    8.0242    0.0000 </r>
       <r>    8.1021    0.0000 </r>
       <r>    8.3595    0.0000 </r>
       <r>    8.4286    0.0000 </r>
       <r>    8.4978    0.0000 </r>
       <r>    8.7073    0.0000 </r>
       <r>    8.8481    0.0000 </r>
       <r>    8.9105    0.0000 </r>
       <r>    8.9394    0.0000 </r>
       <r>    9.0157    0.0000 </r>
       <r>    9.0648    0.0000 </r>
       <r>    9.1198    0.0000 </r>
       <r>    9.1323    0.0000 </r>
       <r>    9.1549    0.0000 </r>
       <r>    9.1705    0.0000 </r>
       <r>    9.1939    0.0000 </r>
       <r>    9.2716    0.0000 </r>
       <r>    9.5005    0.0000 </r>
       <r>    9.5515    0.0000 </r>
       <r>    9.7364    0.0000 </r>
       <r>    9.7670    0.0000 </r>
       <r>    9.7734    0.0000 </r>
       <r>    9.7995    0.0000 </r>
[...]
       <r>   11.3754    0.0000 </r>
       <r>   11.3863    0.0000 </r>
       <r>   11.3995    0.0000 </r>
       <r>   11.5528    0.0000 </r>
      </set>
     </set>
    </set>
   </array>
  </eigenvalues>
  <separator name="orbital magnetization" >
   <v name="MAGDIPOLOUT">      0.00000000      0.00000000      0.00000000</v>
  </separator>
  <dos>
   <i name="efermi">      4.39071511 </i>
   <total>
    <array>
     <dimension dim="1">gridpoints</dimension>
     <dimension dim="2">spin</dimension>
     <field>energy</field>
     <field>total</field>
     <field>integrated</field>
     <set>
      <set comment="spin 1">
       <r>   -42.8837     0.0000     0.0000 </r>
       <r>   -42.6909     0.0000     0.0000 </r>
       <r>   -42.4982     0.0000     0.0000 </r>
       <r>   -42.3054     0.0000     0.0000 </r>
       <r>   -42.1126     0.0000     0.0000 </r>
       <r>   -41.9199     0.0000     0.0000 </r>
       <r>   -41.7271     0.0000     0.0000 </r>
       <r>   -41.5344     0.0000     0.0000 </r>
       <r>   -41.3416     0.0000     0.0000 </r>
       <r>   -41.1488     0.0000     0.0000 </r>
       <r>   -40.9561     0.0000     0.0000 </r>
       <r>   -40.7633     0.0000     0.0000 </r>
       <r>   -40.5706     0.0000     0.0000 </r>
       <r>   -40.3778     0.0000     0.0000 </r>
       <r>   -40.1850     0.0000     6.0000 </r>
       <r>   -39.9923     0.0000     8.0000 </r>
       <r>   -39.7995     0.0000    10.0000 </r>
       <r>   -39.6068     0.0000    16.0000 </r>
       <r>   -39.4140     0.0000    18.0000 </r>
       <r>   -39.2212     0.0000    24.0000 </r>
       <r>   -39.0285     0.0000    24.0000 </r>
       <r>   -38.8357     0.0000    24.0000 </r>
       <r>   -38.6430     0.0000    24.0000 </r>
       <r>   -38.4502     0.0000    24.0000 </r>
       <r>   -38.2574     0.0000    24.0000 </r>
       <r>   -38.0647     0.0000    24.0000 </r>
       <r>   -37.8719     0.0000    24.0000 </r>
       <r>   -37.6792     0.0000    24.0000 </r>
       <r>   -37.4864     0.0000    24.0000 </r>
       <r>   -37.2936     0.0000    24.0000 </r>
       <r>   -37.1009     0.0000    24.0000 </r>
       <r>   -36.9081     0.0000    24.0000 </r>
       <r>   -36.7154     0.0000    24.0000 </r>
       <r>   -36.5226     0.0000    24.0000 </r>
       <r>   -36.3298     0.0000    24.0000 </r>
       <r>   -36.1371     0.0000    24.0000 </r>
       <r>   -35.9443     0.0000    24.0000 </r>
       <r>   -35.7516     0.0000    24.0000 </r>
       <r>   -35.5588     0.0000    24.0000 </r>
       <r>   -35.3660     0.0000    24.0000 </r>
       <r>   -35.1733     0.0000    24.0000 </r>
       <r>   -34.9805     0.0000    24.0000 </r>
       <r>   -34.7878     0.0000    24.0000 </r>
       <r>   -34.5950     0.0000    24.0000 </r>
       <r>   -34.4022     0.0000    24.0000 </r>
       <r>   -34.2095     0.0000    24.0000 </r>
       <r>   -34.0167     0.0000    24.0000 </r>
       <r>   -33.8240     0.0000    24.0000 </r>
       <r>   -33.6312     0.0000    24.0000 </r>
       <r>   -33.4384     0.0000    24.0000 </r>
       <r>   -33.2457     0.0000    24.0000 </r>
       <r>   -33.0529     0.0000    24.0000 </r>
       <r>   -32.8602     0.0000    24.0000 </r>
       <r>   -32.6674     0.0000    24.0000 </r>
       <r>   -32.4746     0.0000    24.0000 </r>
       <r>   -32.2819     0.0000    24.0000 </r>
       <r>   -32.0891     0.0000    24.0000 </r>
       <r>   -31.8964     0.0000    24.0000 </r>
       <r>   -31.7036     0.0000    24.0000 </r>
       <r>   -31.5108     0.0000    24.0000 </r>
       <r>   -31.3181     0.0000    24.0000 </r>
       <r>   -31.1253     0.0000    24.0000 </r>
       <r>   -30.9326     0.0000    24.0000 </r>
       <r>   -30.7398     0.0000    24.0000 </r>
       <r>   -30.5470     0.0000    24.0000 </r>
       <r>   -30.3543     0.0000    24.0000 </r>
       <r>   -30.1615     0.0000    24.0000 </r>
       <r>   -29.9688     0.0000    24.0000 </r>
       <r>   -29.7760     0.0000    24.0000 </r>
       <r>   -29.5832     0.0000    24.0000 </r>
       <r>   -29.3905     0.0000    24.0000 </r>
       <r>   -29.1977     0.0000    24.0000 </r>
       <r>   -29.0050     0.0000    24.0000 </r>
       <r>   -28.8122     0.0000    24.0000 </r>
       <r>   -28.6194     0.0000    24.0000 </r>
       <r>   -28.4267     0.0000    24.0000 </r>
       <r>   -28.2339     0.0000    24.0000 </r>
       <r>   -28.0412     0.0000    24.0000 </r>
       <r>   -27.8484     0.0000    24.0000 </r>
       <r>   -27.6556     0.0000    24.0000 </r>
       <r>   -27.4629     0.0000    24.0000 </r>
       <r>   -27.2701     0.0000    24.0000 </r>
       <r>   -27.0774     0.0000    24.0000 </r>
       <r>   -26.8846     0.0000    24.0000 </r>
       <r>   -26.6918     0.0000    24.0000 </r>
       <r>   -26.4991     0.0000    24.0000 </r>
       <r>   -26.3063     0.0000    24.0000 </r>
       <r>   -26.1136     0.0000    24.0000 </r>
       <r>   -25.9208     0.0000    24.0000 </r>
       <r>   -25.7280     0.0000    24.0000 </r>
       <r>   -25.5353     0.0000    24.0000 </r>
       <r>   -25.3425     0.0000    24.0000 </r>
       <r>   -25.1498     0.0000    24.0000 </r>
       <r>   -24.9570     0.0000    24.0000 </r>
       <r>   -24.7642     0.0000    24.0000 </r>
       <r>   -24.5715     0.0000    24.0000 </r>
       <r>   -24.3787     0.0000    24.0000 </r>
       <r>   -24.1860     0.0000    24.0000 </r>
       <r>   -23.9932     0.0000    24.0000 </r>
       <r>   -23.8004     0.0000    24.0000 </r>
       <r>   -23.6077     0.0000    24.0000 </r>
       <r>   -23.4149     0.0000    24.0000 </r>
       <r>   -23.2222     0.0000    24.0000 </r>
       <r>   -23.0294     0.0000    24.0000 </r>
       <r>   -22.8366     0.0000    24.0000 </r>
       <r>   -22.6439     0.0000    24.0000 </r>
       <r>   -22.4511     0.0000    24.0000 </r>
       <r>   -22.2584     0.0000    24.0000 </r>
       <r>   -22.0656     0.0000    24.0000 </r>
       <r>   -21.8728     0.0000    24.0000 </r>
       <r>   -21.6801     0.0000    24.0000 </r>
       <r>   -21.4873     0.0000    24.0000 </r>
       <r>   -21.2946     0.0000    24.0000 </r>
       <r>   -21.1018     0.0000    24.0000 </r>
       <r>   -20.9090     0.0000    24.0000 </r>
       <r>   -20.7163     0.0000    24.0000 </r>
       <r>   -20.5235     0.0000    24.0000 </r>
       <r>   -20.3308     0.0000    24.0000 </r>
       <r>   -20.1380     0.0000    24.0000 </r>
       <r>   -19.9452     0.0000    24.0000 </r>
       <r>   -19.7525     0.0000    24.0000 </r>
       <r>   -19.5597     0.0000    24.0000 </r>
       <r>   -19.3670     0.0000    24.0000 </r>
       <r>   -19.1742     0.0000    24.0000 </r>
       <r>   -18.9814     0.0000    24.0000 </r>
       <r>   -18.7887     0.0000    48.0000 </r>
       <r>   -18.5959     0.0000    88.0000 </r>
       <r>   -18.4032     0.0000   128.0000 </r>
       <r>   -18.2104     0.0000   168.0000 </r>
       <r>   -18.0176     0.0000   184.0000 </r>
       <r>   -17.8249     0.0000   184.0000 </r>
       <r>   -17.6321     0.0000   184.0000 </r>
       <r>   -17.4394     0.0000   184.0000 </r>
       <r>   -17.2466     0.0000   184.0000 </r>
       <r>   -17.0538     0.0000   184.0000 </r>
       <r>   -16.8611     0.0000   184.0000 </r>
       <r>   -16.6683     0.0000   184.0000 </r>
       <r>   -16.4756     0.0000   184.0000 </r>
       <r>   -16.2828     0.0000   184.0000 </r>
       <r>   -16.0900     0.0000   184.0000 </r>
       <r>   -15.8973     0.0000   184.0000 </r>
       <r>   -15.7045     0.0000   184.0000 </r>
       <r>   -15.5118     0.0000   184.0000 </r>
       <r>   -15.3190     0.0000   184.0000 </r>
       <r>   -15.1262     0.0000   184.0000 </r>
       <r>   -14.9335     0.0000   184.0000 </r>
       <r>   -14.7407     0.0000   184.0000 </r>
       <r>   -14.5480     0.0000   184.0000 </r>
       <r>   -14.3552     0.0000   184.0000 </r>
       <r>   -14.1624     0.0000   184.0000 </r>
       <r>   -13.9697     0.0000   184.0000 </r>
       <r>   -13.7769     0.0000   184.0000 </r>
       <r>   -13.5842     0.0000   184.0000 </r>
       <r>   -13.3914     0.0000   192.0000 </r>
       <r>   -13.1986     0.0000   192.0000 </r>
       <r>   -13.0059     0.0000   192.0000 </r>
       <r>   -12.8131     0.0000   194.0000 </r>
       <r>   -12.6204     0.0000   202.0000 </r>
       <r>   -12.4276     0.0000   208.0000 </r>
       <r>   -12.2348     0.0000   208.0000 </r>
       <r>   -12.0421     0.0000   208.0000 </r>
       <r>   -11.8493     0.0000   216.0000 </r>
       <r>   -11.6566     0.0000   216.0000 </r>
       <r>   -11.4638     0.0000   216.0000 </r>
       <r>   -11.2710     0.0000   216.0000 </r>
       <r>   -11.0783     0.0000   216.0000 </r>
       <r>   -10.8855     0.0000   216.0000 </r>
       <r>   -10.6928     0.0000   216.0000 </r>
       <r>   -10.5000     0.0000   216.0000 </r>
       <r>   -10.3072     0.0000   216.0000 </r>
       <r>   -10.1145     0.0000   216.0000 </r>
       <r>    -9.9217     0.0000   216.0000 </r>
       <r>    -9.7290     0.0000   216.0000 </r>
       <r>    -9.5362     0.0000   216.0000 </r>
       <r>    -9.3434     0.0000   216.0000 </r>
       <r>    -9.1507     9.8864   216.9271 </r>
       <r>    -8.9579     0.0000   220.0000 </r>
       <r>    -8.7652    19.4671   221.3345 </r>
       <r>    -8.5724    12.7361   224.4185 </r>
       <r>    -8.3796    33.0184   228.1140 </r>
       <r>    -8.1869     1.6476   232.0059 </r>
       <r>    -7.9941    40.7299   236.0731 </r>
       <r>    -7.8014    16.0133   240.7206 </r>
       <r>    -7.6086     0.0000   244.0000 </r>
       <r>    -7.4158    12.3818   247.4058 </r>
       <r>    -7.2231     0.0000   248.0000 </r>
       <r>    -7.0303     0.0000   248.0000 </r>
       <r>    -6.8376     0.0000   248.0000 </r>
       <r>    -6.6448     0.0000   248.0000 </r>
       <r>    -6.4520     0.0000   248.0000 </r>
       <r>    -6.2593     9.6618   248.3703 </r>
       <r>    -6.0665    29.3217   252.3846 </r>
       <r>    -5.8738     0.0000   256.0000 </r>
       <r>    -5.6810    33.6735   260.1771 </r>
       <r>    -5.4882    18.8024   264.2354 </r>
       <r>    -5.2955    20.7428   268.0045 </r>
       <r>    -5.1027     9.6177   271.1497 </r>
       <r>    -4.9100     4.8961   272.2689 </r>
       <r>    -4.7172     7.7532   273.7026 </r>
       <r>    -4.5244     9.7326   275.3449 </r>
       <r>    -4.3317     5.7124   276.9106 </r>
       <r>    -4.1389     7.2824   278.2504 </r>
       <r>    -3.9462     4.2404   279.3881 </r>
       <r>    -3.7534     1.2571   279.8814 </r>
       <r>    -3.5606     0.0475   279.9995 </r>
       <r>    -3.3679     0.0000   280.0000 </r>
       <r>    -3.1751     0.0000   280.0000 </r>
       <r>    -2.9824     0.0000   280.0000 </r>
       <r>    -2.7896     0.0000   280.0000 </r>
       <r>    -2.5968     0.0000   280.0000 </r>
       <r>    -2.4041     0.0000   280.0000 </r>
       <r>    -2.2113     0.0000   280.0000 </r>
       <r>    -2.0186     0.0000   280.0000 </r>
       <r>    -1.8258     0.0000   280.0000 </r>
       <r>    -1.6330     0.0000   280.0000 </r>
       <r>    -1.4403     0.0000   280.0000 </r>
       <r>    -1.2475     5.1616   280.2310 </r>
       <r>    -1.0548     9.9676   281.7993 </r>
       <r>    -0.8620    13.7178   284.2406 </r>
       <r>    -0.6692     8.8780   286.4573 </r>
       <r>    -0.4765     7.3016   287.7200 </r>
       <r>    -0.2837    23.1170   291.2290 </r>
       <r>    -0.0910    37.4062   296.9406 </r>
       <r>     0.1018    39.1424   304.0658 </r>
       <r>     0.2946    36.2462   310.5444 </r>
       <r>     0.4873    39.2827   317.5461 </r>
       <r>     0.6801    19.7514   324.8726 </r>
       <r>     0.8728    27.1836   331.5688 </r>
       <r>     1.0656    42.1587   339.9680 </r>
       <r>     1.2584    51.5297   348.4020 </r>
       <r>     1.4511    53.0221   358.2080 </r>
       <r>     1.6439    53.8181   367.1066 </r>
       <r>     1.8366    39.8293   375.1106 </r>
       <r>     2.0294    41.3607   382.9445 </r>
       <r>     2.2222    51.0918   392.0475 </r>
       <r>     2.4149    55.4208   401.1158 </r>
       <r>     2.6077    65.0908   412.9135 </r>
       <r>     2.8004    61.9190   423.9376 </r>
       <r>     2.9932    57.9825   434.8275 </r>
       <r>     3.1860    56.4997   446.0961 </r>
       <r>     3.3787    40.2342   454.2509 </r>
       <r>     3.5715    43.9287   462.1513 </r>
       <r>     3.7642    25.6777   467.1279 </r>
       <r>     3.9570    11.3126   470.1742 </r>
       <r>     4.1498     4.5430   471.7027 </r>
       <r>     4.3425     0.0000   472.0000 </r>
       <r>     4.5353     0.0000   472.0000 </r>
       <r>     4.7280     0.0000   472.0000 </r>
       <r>     4.9208     0.0000   472.0000 </r>
       <r>     5.1136     0.0000   472.0000 </r>
       <r>     5.3063     3.1783   472.2123 </r>
       <r>     5.4991     7.8756   473.2775 </r>
       <r>     5.6918     9.1753   475.1157 </r>
       <r>     5.8846    25.9352   478.3595 </r>
       <r>     6.0774    13.1166   481.5054 </r>
       <r>     6.2701    11.5966   483.8330 </r>
       <r>     6.4629    13.3652   486.2174 </r>
       <r>     6.6556    15.4109   488.9914 </r>
       <r>     6.8484    17.4036   492.1514 </r>
       <r>     7.0412    20.7991   495.7864 </r>
       <r>     7.2339    31.3949   500.6340 </r>
       <r>     7.4267    37.9885   507.2571 </r>
       <r>     7.6194    20.8974   513.4493 </r>
       <r>     7.8122    49.4858   519.9361 </r>
       <r>     8.0050    45.1309   528.2436 </r>
       <r>     8.1977    23.5966   534.7187 </r>
       <r>     8.3905    19.4647   538.7357 </r>
       <r>     8.5832    23.4129   542.6073 </r>
       <r>     8.7760    28.8546   547.9599 </r>
       <r>     8.9688    43.1994   555.9335 </r>
       <r>     9.1615    19.2911   561.7568 </r>
       <r>     9.3543    13.6125   564.7173 </r>
       <r>     9.5470    16.7827   567.2852 </r>
       <r>     9.7398    17.6283   571.1013 </r>
       <r>     9.9326     3.3049   572.1850 </r>
       <r>    10.1253     8.7554   573.2793 </r>
       <r>    10.3181    23.3383   576.6270 </r>
       <r>    10.5108    27.6481   582.1577 </r>
       <r>    10.7036    33.0029   588.7849 </r>
       <r>    10.8964    34.7260   596.1333 </r>
       <r>    11.0891    13.2407   599.5643 </r>
       <r>    11.2819    28.9877   603.6366 </r>
       <r>    11.4746    21.8999   608.5538 </r>
       <r>    11.6674    15.8651   612.2250 </r>
       <r>    11.8602     8.9373   614.6147 </r>
       <r>    12.0529     3.1188   615.7472 </r>
       <r>    12.2457     0.1489   615.9967 </r>
       <r>    12.4384     0.0000   616.0000 </r>
       <r>    12.6312     0.0000   616.0000 </r>
       <r>    12.8240     0.0000   616.0000 </r>
       <r>    13.0167     0.0000   616.0000 </r>
       <r>    13.2095     0.0000   616.0000 </r>
       <r>    13.4022     0.0000   616.0000 </r>
       <r>    13.5950     0.0000   616.0000 </r>
       <r>    13.7878     0.0000   616.0000 </r>
       <r>    13.9805     0.0000   616.0000 </r>
       <r>    14.1733     0.0000   616.0000 </r>
       <r>    14.3660     0.0000   616.0000 </r>
       <r>    14.5588     0.0000   616.0000 </r>
       <r>    14.7516     0.0000   616.0000 </r>
       <r>    14.9443     0.0000   616.0000 </r>
      </set>
     </set>
    </array>
   </total>
  </dos>
 </calculation>
 <structure name="finalpos" >
  <crystal>
   <varray name="basis" >
    <v>      11.17850000       0.00000000       0.00000000 </v>
    <v>       0.00000000       9.57460000       0.00000000 </v>
    <v>       0.00000000       0.00000000      11.18240000 </v>
   </varray>
   <i name="volume">   1196.84853820 </i>
   <varray name="rec_basis" >
    <v>       0.08945744       0.00000000       0.00000000 </v>
    <v>       0.00000000       0.10444301       0.00000000 </v>
    <v>       0.00000000       0.00000000       0.08942624 </v>
   </varray>
  </crystal>
  <varray name="positions" >
   <v>       0.37539000       0.00017000       0.43687000 </v>
   <v>       0.12461000       0.99984000       0.18687000 </v>
   <v>       0.37461000       0.00017000       0.18687000 </v>
   <v>       0.62539000       0.99984000       0.43687000 </v>
   <v>       0.87539000       0.00017000       0.43687000 </v>
   <v>       0.62461000       0.99984000       0.18687000 </v>
   <v>       0.87461000       0.00017000       0.18687000 </v>
   <v>       0.12539000       0.99984000       0.93687000 </v>
   <v>       0.37539000       0.00017000       0.93687000 </v>
   <v>       0.37461000       0.00017000       0.68687000 </v>
   <v>       0.87539000       0.00017000       0.93687000 </v>
   <v>       0.87461000       0.00017000       0.68687000 </v>
   <v>       0.12461000       0.99984000       0.68687000 </v>
   <v>       0.62539000       0.99984000       0.93687000 </v>
   <v>       0.00013000       0.29519000       0.06281000 </v>
   <v>       0.25013000       0.70481000       0.06281000 </v>
   <v>       0.24987000       0.29519000       0.31282000 </v>
   <v>       0.49987000       0.70481000       0.31282000 </v>
   <v>       0.50013000       0.29519000       0.06281000 </v>
   <v>       0.75013000       0.70481000       0.06281000 </v>
   <v>       0.74987000       0.29519000       0.31282000 </v>
   <v>       0.99987000       0.70481000       0.31282000 </v>
   <v>       0.00013000       0.29519000       0.56281000 </v>
   <v>       0.25013000       0.70481000       0.56281000 </v>
   <v>       0.24987000       0.29519000       0.81282000 </v>
   <v>       0.49987000       0.70481000       0.81282000 </v>
   <v>       0.50013000       0.29519000       0.56281000 </v>
   <v>       0.75013000       0.70481000       0.56281000 </v>
   <v>       0.74987000       0.29519000       0.81282000 </v>
   <v>       0.99987000       0.70481000       0.81282000 </v>
   <v>       0.25005000       0.32677000       0.06286000 </v>
   <v>       0.00005000       0.67323000       0.06286000 </v>
   <v>       0.49995000       0.32677000       0.31286000 </v>
   <v>       0.24995000       0.67323000       0.31286000 </v>
   <v>       0.75005000       0.32677000       0.06286000 </v>
   <v>       0.50005000       0.67323000       0.06286000 </v>
   <v>       0.99995000       0.32677000       0.31286000 </v>
   <v>       0.74995000       0.67323000       0.31286000 </v>
   <v>       0.25005000       0.32677000       0.56286000 </v>
   <v>       0.00005000       0.67323000       0.56286000 </v>
   <v>       0.49995000       0.32677000       0.81286000 </v>
   <v>       0.24995000       0.67323000       0.81286000 </v>
   <v>       0.75005000       0.32677000       0.56286000 </v>
   <v>       0.50005000       0.67323000       0.56286000 </v>
   <v>       0.99995000       0.32677000       0.81286000 </v>
   <v>       0.74995000       0.67323000       0.81286000 </v>
   <v>       0.49987000       0.07798000       0.06246000 </v>
   <v>       0.24987000       0.92202000       0.06246000 </v>
   <v>       0.25013000       0.07798000       0.31246000 </v>
   <v>       0.00013000       0.92202000       0.31246000 </v>
   <v>       0.99987000       0.07798000       0.06246000 </v>
   <v>       0.74987000       0.92202000       0.06246000 </v>
   <v>       0.75013000       0.07798000       0.31246000 </v>
   <v>       0.50013000       0.92202000       0.31246000 </v>
   <v>       0.49987000       0.07798000       0.56246000 </v>
   <v>       0.24987000       0.92202000       0.56246000 </v>
   <v>       0.25013000       0.07798000       0.81246000 </v>
   <v>       0.00013000       0.92202000       0.81246000 </v>
   <v>       0.99987000       0.07798000       0.56246000 </v>
   <v>       0.74987000       0.92202000       0.56246000 </v>
   <v>       0.75013000       0.07798000       0.81246000 </v>
   <v>       0.50013000       0.92202000       0.81246000 </v>
  </varray>
 </structure>
</modeling>
