<?xml version="1.0" encoding="ISO-8859-1"?>
<modeling>
 <generator>
  <i name="program" type="string">vasp </i>
  <i name="version" type="string">5.3.3  </i>
  <i name="subversion" type="string">18Dez12 (build Nov 19 2020 19:34:37) complex                          parallel </i>
  <i name="platform" type="string">LinuxIFC </i>
  <i name="date" type="string">2021 09 23 </i>
  <i name="time" type="string">10:26:37 </i>
 </generator>
 <incar>
  <i type="string" name="SYSTEM"> La2O2S</i>
  <i type="string" name="PREC">normal</i>
  <i type="int" name="NELMIN">     4</i>
  <i type="int" name="IBRION">     2</i>
  <i type="int" name="NFREE">    10</i>
  <i name="EDIFF">      0.00000100</i>
  <i name="EDIFFG">     -0.01000000</i>
  <i type="int" name="NSW">   200</i>
  <i type="int" name="ISIF">     3</i>
  <i name="ENCUT">    600.00000000</i>
  <i name="ENAUG">    900.00000000</i>
  <i type="int" name="ISMEAR">    -5</i>
  <i type="logical" name="LWAVE"> F  </i>
  <i type="logical" name="LCHARG"> F  </i>
 </incar>
 <kpoints>
  <generation param="Gamma">
   <v type="int" name="divisions">       2        2        2 </v>
   <v name="usershift">      0.00000000       0.00000000       0.00000000 </v>
   <v name="genvec1">      0.50000000       0.00000000       0.00000000 </v>
   <v name="genvec2">      0.00000000       0.50000000       0.00000000 </v>
   <v name="genvec3">      0.00000000       0.00000000       0.50000000 </v>
   <v name="shift">      0.00000000       0.00000000       0.00000000 </v>
  </generation>
  <varray name="kpointlist" >
   <v>       0.00000000       0.00000000       0.00000000 </v>
   <v>       0.50000000       0.00000000       0.00000000 </v>
   <v>       0.00000000       0.50000000       0.00000000 </v>
   <v>       0.50000000       0.50000000       0.00000000 </v>
   <v>       0.00000000       0.00000000       0.50000000 </v>
   <v>       0.50000000       0.00000000       0.50000000 </v>
   <v>       0.00000000       0.50000000       0.50000000 </v>
   <v>       0.50000000       0.50000000       0.50000000 </v>
  </varray>
  <varray name="weights" >
   <v>       0.12500000 </v>
   <v>       0.12500000 </v>
   <v>       0.12500000 </v>
   <v>       0.12500000 </v>
   <v>       0.12500000 </v>
   <v>       0.12500000 </v>
   <v>       0.12500000 </v>
   <v>       0.12500000 </v>
  </varray>
  <varray name="tetrahedronlist"  type="int" >
   <v type="int" >        2        1        2        4        5 </v>
   <v type="int" >        2        1        3        4        5 </v>
   <v type="int" >        2        3        4        5        7 </v>
   <v type="int" >        2        2        4        5        6 </v>
   <v type="int" >        2        4        5        6        8 </v>
   <v type="int" >        2        4        5        7        8 </v>
   <v type="int" >        2        1        2        3        6 </v>
   <v type="int" >        2        2        3        4        6 </v>
   <v type="int" >        2        3        4        6        8 </v>
   <v type="int" >        2        1        3        5        6 </v>
   <v type="int" >        2        3        5        6        7 </v>
   <v type="int" >        2        3        6        7        8 </v>
   <v type="int" >        2        2        3        4        7 </v>
   <v type="int" >        2        1        2        3        7 </v>
   <v type="int" >        2        1        2        5        7 </v>
   <v type="int" >        2        2        4        7        8 </v>
   <v type="int" >        2        2        6        7        8 </v>
   <v type="int" >        2        2        5        6        7 </v>
   <v type="int" >        2        1        3        4        8 </v>
   <v type="int" >        2        1        2        4        8 </v>
   <v type="int" >        2        1        2        6        8 </v>
   <v type="int" >        2        1        3        7        8 </v>
   <v type="int" >        2        1        5        7        8 </v>
   <v type="int" >        2        1        5        6        8 </v>
  </varray>
  <i name="volumeweight">      0.02083333 </i>
 </kpoints>
 <parameters>
  <separator name="general" >
   <i type="string" name="SYSTEM">La2O2S</i>
   <i type="logical" name="LCOMPAT"> F  </i>
  </separator>
  <separator name="electronic" >
   <i type="string" name="PREC">normal</i>
   <i name="ENMAX">    600.00000000</i>
   <i name="ENAUG">    900.00000000</i>
   <i name="EDIFF">      0.00000100</i>
   <i type="int" name="IALGO">    38</i>
   <i type="int" name="IWAVPR">    11</i>
   <i type="int" name="NBANDS">   280</i>
   <i name="NELECT">    452.00000000</i>
   <i type="int" name="TURBO">     0</i>
   <i type="int" name="IRESTART">     0</i>
   <i type="int" name="NREBOOT">     0</i>
   <i type="int" name="NMIN">     0</i>
   <i name="EREF">      0.00000000</i>
   <separator name="electronic smearing" >
    <i type="int" name="ISMEAR">    -5</i>
    <i name="SIGMA">      0.20000000</i>
    <i name="KSPACING">      0.50000000</i>
    <i type="logical" name="KGAMMA"> T  </i>
   </separator>
   <separator name="electronic projectors" >
    <i type="logical" name="LREAL"> F  </i>
    <v name="ROPT">      0.00000000      0.00000000      0.00000000      0.00000000      0.00000000</v>
    <i type="int" name="LMAXPAW">  -100</i>
    <i type="int" name="LMAXMIX">     2</i>
    <i type="logical" name="NLSPLINE"> F  </i>
   </separator>
   <separator name="electronic startup" >
    <i type="int" name="ISTART">     0</i>
    <i type="int" name="ICHARG">     2</i>
    <i type="int" name="INIWAV">     1</i>
   </separator>
   <separator name="electronic spin" >
    <i type="int" name="ISPIN">     1</i>
    <i type="logical" name="LNONCOLLINEAR"> F  </i>
    <v name="MAGMOM">      1.00000000      1.00000000      1.00000000      1.00000000      1.00000000      1.00000000      1.00000000      1.00000000      1.00000000      1.00000000      1.00000000      1.00000000      1.00000000      1.00000000      1.00000000      1.00000000      1.00000000      1.00000000      1.00000000      1.00000000
      1.00000000      1.00000000      1.00000000      1.00000000      1.00000000      1.00000000      1.00000000      1.00000000      1.00000000      1.00000000      1.00000000      1.00000000      1.00000000      1.00000000      1.00000000      1.00000000      1.00000000      1.00000000      1.00000000      1.00000000
      1.00000000      1.00000000      1.00000000      1.00000000      1.00000000      1.00000000      1.00000000      1.00000000      1.00000000      1.00000000      1.00000000      1.00000000      1.00000000      1.00000000      1.00000000      1.00000000      1.00000000</v>
    <i name="NUPDOWN">     -1.00000000</i>
    <i type="logical" name="LSORBIT"> F  </i>
    <v name="SAXIS">      0.00000000      0.00000000      1.00000000</v>
    <i type="logical" name="LSPIRAL"> F  </i>
    <v name="QSPIRAL">      0.00000000      0.00000000      0.00000000</v>
    <i type="logical" name="LZEROZ"> F  </i>
   </separator>
   <separator name="electronic exchange-correlation" >
    <i type="logical" name="LASPH"> F  </i>
    <i type="logical" name="LMETAGGA"> F  </i>
   </separator>
   <separator name="electronic convergence" >
    <i type="int" name="NELM">    60</i>
    <i type="int" name="NELMDL">    -5</i>
    <i type="int" name="NELMIN">     4</i>
    <i name="ENINI">    600.00000000</i>
    <separator name="electronic convergence detail" >
     <i type="logical" name="LDIAG"> T  </i>
     <i type="logical" name="LSUBROT"> T  </i>
     <i name="WEIMIN">      0.00100000</i>
     <i name="EBREAK">      0.00000000</i>
     <i name="DEPER">      0.30000000</i>
     <i type="int" name="NRMM">     4</i>
     <i name="TIME">      0.40000000</i>
    </separator>
   </separator>
   <separator name="electronic mixer" >
    <i name="AMIX">      0.40000000</i>
    <i name="BMIX">      1.00000000</i>
    <i name="AMIN">      0.10000000</i>
    <i name="AMIX_MAG">      1.60000000</i>
    <i name="BMIX_MAG">      1.00000000</i>
    <separator name="electronic mixer details" >
     <i type="int" name="IMIX">     4</i>
     <i type="int" name="MAXMIX">   -45</i>
     <i name="WC">    100.00000000</i>
     <i type="int" name="INIMIX">     1</i>
     <i type="int" name="MIXPRE">     1</i>
     <i type="int" name="MREMOVE">     5</i>
    </separator>
   </separator>
   <separator name="electronic dipolcorrection" >
    <i type="logical" name="LDIPOL"> F  </i>
    <i type="logical" name="LMONO"> F  </i>
    <i type="int" name="IDIPOL">     0</i>
    <i name="EPSILON">      1.00000000</i>
    <v name="DIPOL">   -100.00000000   -100.00000000   -100.00000000</v>
    <i name="EFIELD">      0.00000000</i>
   </separator>
  </separator>
  <separator name="grids" >
   <i type="int" name="NGX">    70</i>
   <i type="int" name="NGY">    60</i>
   <i type="int" name="NGZ">    70</i>
   <i type="int" name="NGXF">   140</i>
   <i type="int" name="NGYF">   120</i>
   <i type="int" name="NGZF">   140</i>
   <i type="logical" name="ADDGRID"> F  </i>
  </separator>
  <separator name="ionic" >
   <i type="int" name="NSW">   200</i>
   <i type="int" name="IBRION">     2</i>
   <i type="int" name="ISIF">     3</i>
   <i name="PSTRESS">      0.00000000</i>
   <i name="EDIFFG">     -0.01000000</i>
   <i type="int" name="NFREE">    10</i>
   <i name="POTIM">      0.50000000</i>
   <i name="SMASS">     -3.00000000</i>
   <i name="SCALEE">      1.00000000</i>
  </separator>
  <separator name="ionic md" >
   <i name="TEBEG">      0.00010000</i>
   <i name="TEEND">      0.00010000</i>
   <i type="int" name="NBLOCK">     1</i>
   <i type="int" name="KBLOCK">   200</i>
   <i type="int" name="NPACO">   256</i>
   <i name="APACO">     16.00000000</i>
  </separator>
  <separator name="symmetry" >
   <i type="int" name="ISYM">     2</i>
   <i name="SYMPREC">      0.00001000</i>
  </separator>
  <separator name="dos" >
   <i type="logical" name="LORBIT"> F  </i>
   <v name="RWIGS">     -1.00000000     -1.00000000     -1.00000000     -1.00000000     -1.00000000</v>
   <i type="int" name="NEDOS">   301</i>
   <i name="EMIN">     10.00000000</i>
   <i name="EMAX">    -10.00000000</i>
   <i name="EFERMI">      0.00000000</i>
  </separator>
  <separator name="writing" >
   <i type="int" name="NWRITE">     2</i>
   <i type="logical" name="LWAVE"> F  </i>
   <i type="logical" name="LCHARG"> F  </i>
   <i type="logical" name="LPARD"> F  </i>
   <i type="logical" name="LVTOT"> F  </i>
   <i type="logical" name="LVHAR"> F  </i>
   <i type="logical" name="LELF"> F  </i>
   <i type="logical" name="LOPTICS"> F  </i>
   <v name="STM">      0.00000000      0.00000000      0.00000000      0.00000000      0.00000000      0.00000000      0.00000000</v>
  </separator>
  <separator name="performance" >
   <i type="int" name="NPAR">    40</i>
   <i type="int" name="NSIM">     4</i>
   <i type="int" name="NBLK">    -1</i>
   <i type="logical" name="LPLANE"> T  </i>
   <i type="logical" name="LSCALAPACK"> F  </i>
   <i type="logical" name="LSCAAWARE"> F  </i>
   <i type="logical" name="LSCALU"> F  </i>
   <i type="logical" name="LASYNC"> F  </i>
   <i type="logical" name="LORBITALREAL"> F  </i>
  </separator>
  <separator name="miscellaneous" >
   <i type="int" name="IDIOT">     3</i>
   <i type="logical" name="LMUSIC"> F  </i>
   <v name="POMASS">      7.01000000     24.30500000    208.98000000     32.06600000     16.00000000</v>
   <v name="DARWINR">      0.00000000      0.00000000      0.00000000      0.00000000      0.00000000</v>
   <v name="DARWINV">      1.00000000      1.00000000      1.00000000      1.00000000      1.00000000</v>
   <i type="logical" name="LCORR"> T  </i>
  </separator>
  <i type="logical" name="GGA_COMPAT"> T  </i>
  <i type="logical" name="LBERRY"> F  </i>
  <i type="int" name="ICORELEVEL">     0</i>
  <i type="logical" name="LDAU"> F  </i>
  <i type="int" name="I_CONSTRAINED_M">     0</i>
  <separator name="electronic exchange-correlation" >
   <i type="string" name="GGA">--</i>
   <i type="int" name="VOSKOWN">     0</i>
   <i type="logical" name="LHFCALC"> F  </i>
   <i type="string" name="PRECFOCK"></i>
   <i type="logical" name="LSYMGRAD"> F  </i>
   <i type="logical" name="LHFONE"> F  </i>
   <i type="logical" name="LRHFCALC"> F  </i>
   <i type="logical" name="LTHOMAS"> F  </i>
   <i type="logical" name="LMODELHF"> F  </i>
   <i name="ENCUT4O">     -1.00000000</i>
   <i type="int" name="EXXOEP">     0</i>
   <i type="int" name="FOURORBIT">     0</i>
   <i name="AEXX">      0.00000000</i>
   <i name="HFALPHA">      0.00000000</i>
   <i name="MCALPHA">      0.00000000</i>
   <i name="ALDAX">      1.00000000</i>
   <i name="AGGAX">      1.00000000</i>
   <i name="ALDAC">      1.00000000</i>
   <i name="AGGAC">      1.00000000</i>
   <i type="int" name="NKREDX">     1</i>
   <i type="int" name="NKREDY">     1</i>
   <i type="int" name="NKREDZ">     1</i>
   <i type="logical" name="SHIFTRED"> F  </i>
   <i type="logical" name="ODDONLY"> F  </i>
   <i type="logical" name="EVENONLY"> F  </i>
   <i type="int" name="LMAXFOCK">     0</i>
   <i type="int" name="NMAXFOCKAE">     0</i>
   <i type="logical" name="LFOCKAEDFT"> F  </i>
   <i name="HFSCREEN">      0.00000000</i>
   <i name="HFSCREENC">      0.00000000</i>
   <i type="int" name="NBANDSGWLOW">     0</i>
  </separator>
  <separator name="vdW DFT" >
   <i type="logical" name="LUSE_VDW"> F  </i>
   <i name="Zab_VDW">     -0.84910000</i>
   <i name="PARAM1">      0.12340000</i>
   <i name="PARAM2">      1.00000000</i>
   <i name="PARAM3">      0.00000000</i>
  </separator>
  <separator name="model GW" >
   <i type="int" name="MODEL_GW">     0</i>
   <i name="MODEL_EPS0">     12.59840567</i>
   <i name="MODEL_ALPHA">      1.00000000</i>
  </separator>
  <separator name="linear response parameters" >
   <i type="logical" name="LEPSILON"> F  </i>
   <i type="logical" name="LRPA"> F  </i>
   <i type="logical" name="LNABLA"> F  </i>
   <i type="logical" name="LVEL"> F  </i>
   <i type="int" name="KINTER">     0</i>
   <i name="CSHIFT">      0.10000000</i>
   <i name="OMEGAMAX">     -1.00000000</i>
   <i name="DEG_THRESHOLD">      0.00200000</i>
  </separator>
  <separator name="orbital magnetization" >
   <i type="logical" name="NUCIND"> F  </i>
   <v name="MAGPOS">      0.00000000      0.00000000      0.00000000</v>
   <i type="logical" name="LNICSALL"> T  </i>
   <i type="logical" name="ORBITALMAG"> F  </i>
   <i type="logical" name="LMAGBLOCH"> F  </i>
   <i type="logical" name="LCHIMAG"> F  </i>
   <i type="logical" name="LGAUGE"> T  </i>
   <i type="int" name="MAGATOM">     0</i>
   <v name="MAGDIPOL">      0.00000000      0.00000000      0.00000000</v>
   <v name="AVECCONST">      0.00000000      0.00000000      0.00000000</v>
  </separator>
  <separator name="response functions" >
   <i type="logical" name="LADDER"> F  </i>
   <i type="logical" name="LFXC"> F  </i>
   <i type="logical" name="LHARTREE"> T  </i>
   <i type="int" name="IBSE">     0</i>
   <i type="logical" name="LTCTE"> F  </i>
   <i type="logical" name="LTETE"> F  </i>
   <i type="logical" name="LTRIPLET"> F  </i>
   <i type="logical" name="LFXCEPS"> F  </i>
   <i type="logical" name="L2ORDER"> F  </i>
   <i type="logical" name="LUSEW"> F  </i>
   <i name="ENCUTGW">     -2.00000000</i>
   <i name="ENCUTGWSOFT">     -2.00000000</i>
   <i name="ENCUTLF">     -1.00000000</i>
   <i type="int" name="LMAXMP2">    -1</i>
   <i name="SCISSOR">      0.00000000</i>
   <i type="int" name="NOMEGA">     0</i>
   <i type="int" name="NOMEGAR">     0</i>
   <i type="int" name="NBANDSGW">    -1</i>
   <i type="int" name="NBANDSO">    -1</i>
   <i type="int" name="NBANDSV">    -1</i>
   <i type="int" name="NELM">     1</i>
   <i type="int" name="DIM">     3</i>
   <i type="int" name="ANTIRES">     0</i>
   <i name="OMEGAMAX">    -30.00000000</i>
   <i name="OMEGATL">   -200.00000000</i>
   <i type="int" name="OMEGAGRID">     0</i>
   <i name="CSHIFT">     -0.10000000</i>
   <i type="logical" name="SELFENERGY"> F  </i>
   <i type="logical" name="LSPECTRAL"> F  </i>
   <i type="logical" name="ODDONLYGW"> F  </i>
   <i type="logical" name="EVENONLYGW"> F  </i>
   <i type="int" name="NKREDLFX">     1</i>
   <i type="int" name="NKREDLFY">     1</i>
   <i type="int" name="NKREDLFZ">     1</i>
   <i type="int" name="MAXMEM">  1800</i>
   <i type="int" name="TELESCOPE">     0</i>
  </separator>
 </parameters>
 <atominfo>
  <atoms>      57 </atoms>
  <types>       5 </types>
  <array name="atoms" >
   <dimension dim="1">ion</dimension>
   <field type="string">element</field>
   <field type="int">atomtype</field>
   <set>
    <rc><c>Li</c><c>   1</c></rc>
    <rc><c>Li</c><c>   1</c></rc>
    <rc><c>Mg</c><c>   2</c></rc>
    <rc><c>Mg</c><c>   2</c></rc>
    <rc><c>Mg</c><c>   2</c></rc>
    <rc><c>Mg</c><c>   2</c></rc>
    <rc><c>Mg</c><c>   2</c></rc>
    <rc><c>Mg</c><c>   2</c></rc>
    <rc><c>Mg</c><c>   2</c></rc>
    <rc><c>Bi</c><c>   3</c></rc>
    <rc><c>Bi</c><c>   3</c></rc>
    <rc><c>Bi</c><c>   3</c></rc>
    <rc><c>Bi</c><c>   3</c></rc>
    <rc><c>Bi</c><c>   3</c></rc>
    <rc><c>Bi</c><c>   3</c></rc>
    <rc><c>Bi</c><c>   3</c></rc>
    <rc><c>Bi</c><c>   3</c></rc>
    <rc><c>Bi</c><c>   3</c></rc>
    <rc><c>Bi</c><c>   3</c></rc>
    <rc><c>Bi</c><c>   3</c></rc>
    <rc><c>Bi</c><c>   3</c></rc>
    <rc><c>Bi</c><c>   3</c></rc>
    <rc><c>Bi</c><c>   3</c></rc>
    <rc><c>Bi</c><c>   3</c></rc>
    <rc><c>Bi</c><c>   3</c></rc>
    <rc><c>S </c><c>   4</c></rc>
    <rc><c>S </c><c>   4</c></rc>
    <rc><c>S </c><c>   4</c></rc>
    <rc><c>S </c><c>   4</c></rc>
    <rc><c>S </c><c>   4</c></rc>
    <rc><c>S </c><c>   4</c></rc>
    <rc><c>S </c><c>   4</c></rc>
    <rc><c>S </c><c>   4</c></rc>
    <rc><c>S </c><c>   4</c></rc>
    <rc><c>S </c><c>   4</c></rc>
    <rc><c>S </c><c>   4</c></rc>
    <rc><c>S </c><c>   4</c></rc>
    <rc><c>S </c><c>   4</c></rc>
    <rc><c>S </c><c>   4</c></rc>
    <rc><c>S </c><c>   4</c></rc>
    <rc><c>S </c><c>   4</c></rc>
    <rc><c>O </c><c>   5</c></rc>
    <rc><c>O </c><c>   5</c></rc>
    <rc><c>O </c><c>   5</c></rc>
    <rc><c>O </c><c>   5</c></rc>
    <rc><c>O </c><c>   5</c></rc>
    <rc><c>O </c><c>   5</c></rc>
    <rc><c>O </c><c>   5</c></rc>
    <rc><c>O </c><c>   5</c></rc>
    <rc><c>O </c><c>   5</c></rc>
    <rc><c>O </c><c>   5</c></rc>
    <rc><c>O </c><c>   5</c></rc>
    <rc><c>O </c><c>   5</c></rc>
    <rc><c>O </c><c>   5</c></rc>
    <rc><c>O </c><c>   5</c></rc>
    <rc><c>O </c><c>   5</c></rc>
    <rc><c>O </c><c>   5</c></rc>
   </set>
  </array>
  <array name="atomtypes" >
   <dimension dim="1">type</dimension>
   <field type="int">atomspertype</field>
   <field type="string">element</field>
   <field>mass</field>
   <field>valence</field>
   <field type="string">pseudopotential</field>
   <set>
    <rc><c>   2</c><c>Li</c><c>      7.01000000</c><c>      3.00000000</c><c>  PAW_PBE Li_sv 10Sep2004               </c></rc>
    <rc><c>   7</c><c>Mg</c><c>     24.30500000</c><c>      2.00000000</c><c>  PAW_PBE Mg 13Apr2007                  </c></rc>
    <rc><c>  16</c><c>Bi</c><c>    208.98000000</c><c>     15.00000000</c><c>  PAW_PBE Bi_d 06Sep2000                </c></rc>
    <rc><c>  16</c><c>S </c><c>     32.06600000</c><c>      6.00000000</c><c>  PAW_PBE S 06Sep2000                   </c></rc>
    <rc><c>  16</c><c>O </c><c>     16.00000000</c><c>      6.00000000</c><c>  PAW_PBE O 08Apr2002                   </c></rc>
   </set>
  </array>
 </atominfo>
 <structure name="initialpos" >
  <crystal>
   <varray name="basis" >
    <v>      11.17850000       0.00000000       0.00000000 </v>
    <v>       0.00000000       9.57460000       0.00000000 </v>
    <v>       0.00000000       0.00000000      11.18240000 </v>
   </varray>
   <i name="volume">   1196.84853820 </i>
   <varray name="rec_basis" >
    <v>       0.08945744       0.00000000       0.00000000 </v>
    <v>       0.00000000       0.10444301       0.00000000 </v>
    <v>       0.00000000       0.00000000       0.08942624 </v>
   </varray>
  </crystal>
  <varray name="positions" >
   <v>       0.87539000       0.00017000       0.43687000 </v>
   <v>       0.87461000       0.00017000       0.68687000 </v>
   <v>       0.62539000       0.99984000       0.43687000 </v>
   <v>       0.62461000       0.99984000       0.18687000 </v>
   <v>       0.87461000       0.00017000       0.18687000 </v>
   <v>       0.12461000       0.99984000       0.68687000 </v>
   <v>       0.37461000       0.00017000       0.68687000 </v>
   <v>       0.62539000       0.99984000       0.93687000 </v>
   <v>       0.87539000       0.00017000       0.93687000 </v>
   <v>       0.00013000       0.29519000       0.06281000 </v>
   <v>       0.25013000       0.70481000       0.06281000 </v>
   <v>       0.24987000       0.29519000       0.31282000 </v>
   <v>       0.49987000       0.70481000       0.31282000 </v>
   <v>       0.50013000       0.29519000       0.06281000 </v>
   <v>       0.75013000       0.70481000       0.06281000 </v>
   <v>       0.74987000       0.29519000       0.31282000 </v>
   <v>       0.99987000       0.70481000       0.31282000 </v>
   <v>       0.00013000       0.29519000       0.56281000 </v>
   <v>       0.25013000       0.70481000       0.56281000 </v>
   <v>       0.24987000       0.29519000       0.81282000 </v>
   <v>       0.49987000       0.70481000       0.81282000 </v>
   <v>       0.50013000       0.29519000       0.56281000 </v>
   <v>       0.75013000       0.70481000       0.56281000 </v>
   <v>       0.74987000       0.29519000       0.81282000 </v>
   <v>       0.99987000       0.70481000       0.81282000 </v>
   <v>       0.25005000       0.32677000       0.06286000 </v>
   <v>       0.00005000       0.67323000       0.06286000 </v>
   <v>       0.49995000       0.32677000       0.31286000 </v>
   <v>       0.24995000       0.67323000       0.31286000 </v>
   <v>       0.75005000       0.32677000       0.06286000 </v>
   <v>       0.50005000       0.67323000       0.06286000 </v>
   <v>       0.99995000       0.32677000       0.31286000 </v>
   <v>       0.74995000       0.67323000       0.31286000 </v>
   <v>       0.25005000       0.32677000       0.56286000 </v>
   <v>       0.00005000       0.67323000       0.56286000 </v>
   <v>       0.49995000       0.32677000       0.81286000 </v>
   <v>       0.24995000       0.67323000       0.81286000 </v>
   <v>       0.75005000       0.32677000       0.56286000 </v>
   <v>       0.50005000       0.67323000       0.56286000 </v>
   <v>       0.99995000       0.32677000       0.81286000 </v>
   <v>       0.74995000       0.67323000       0.81286000 </v>
   <v>       0.49987000       0.07798000       0.06246000 </v>
   <v>       0.24987000       0.92202000       0.06246000 </v>
   <v>       0.25013000       0.07798000       0.31246000 </v>
   <v>       0.00013000       0.92202000       0.31246000 </v>
   <v>       0.99987000       0.07798000       0.06246000 </v>
   <v>       0.74987000       0.92202000       0.06246000 </v>
   <v>       0.75013000       0.07798000       0.31246000 </v>
   <v>       0.50013000       0.92202000       0.31246000 </v>
   <v>       0.49987000       0.07798000       0.56246000 </v>
   <v>       0.24987000       0.92202000       0.56246000 </v>
   <v>       0.25013000       0.07798000       0.81246000 </v>
   <v>       0.00013000       0.92202000       0.81246000 </v>
   <v>       0.99987000       0.07798000       0.56246000 </v>
   <v>       0.74987000       0.92202000       0.56246000 </v>
   <v>       0.75013000       0.07798000       0.81246000 </v>
   <v>       0.50013000       0.92202000       0.81246000 </v>
  </varray>
 </structure>
 <calculation>
  <scstep>
   <time name="dav">   39.53   39.61</time>
   <time name="total">   39.61   39.72</time>
   <energy>
    <i name="alphaZ">   1047.62774490 </i>
    <i name="ewald"> -29898.49627434 </i>
    <i name="hartreedc"> -12745.35984751 </i>
    <i name="XCdc">   1099.80782658 </i>
    <i name="pawpsdc">  36446.83583027 </i>
    <i name="pawaedc"> -35618.96860492 </i>
    <i name="eentropy">      0.00000000 </i>
    <i name="bandstr">   1802.16242099 </i>
    <i name="atom">  43261.00331033 </i>
    <i name="e_fr_energy">   5394.61240631 </i>
    <i name="e_wo_entrp">   5394.61240631 </i>
    <i name="e_0_energy">   5394.61240631 </i>
   </energy>
  </scstep>
  <scstep>
   <time name="dav">   40.49   40.77</time>
   <time name="total">   40.50   40.83</time>
   <energy>
    <i name="e_fr_energy">    607.13256366 </i>
    <i name="e_wo_entrp">    607.13256366 </i>
    <i name="e_0_energy">    607.13256366 </i>
   </energy>
  </scstep>
  <scstep>
   <time name="dav">   45.58   45.78</time>
   <time name="total">   45.58   45.80</time>
   <energy>
    <i name="e_fr_energy">   -257.79509531 </i>
    <i name="e_wo_entrp">   -257.79509531 </i>
    <i name="e_0_energy">   -257.79509531 </i>
   </energy>
  </scstep>
  <scstep>
   <time name="dav">   49.47   49.81</time>
   <time name="total">   49.47   49.82</time>
   <energy>
    <i name="e_fr_energy">   -323.86907274 </i>
    <i name="e_wo_entrp">   -323.86907274 </i>
    <i name="e_0_energy">   -323.86907274 </i>
   </energy>
  </scstep>
  <scstep>
   <time name="dav">   62.15   62.93</time>
   <time name="total">   62.58   63.39</time>
   <energy>
    <i name="e_fr_energy">   -327.64096840 </i>
    <i name="e_wo_entrp">   -327.64096840 </i>
    <i name="e_0_energy">   -327.64096840 </i>
   </energy>
  </scstep>
  <scstep>
   <time name="dav">   56.44   56.77</time>
   <time name="total">   56.94   57.28</time>
   <energy>
    <i name="e_fr_energy">   -278.49575605 </i>
    <i name="e_wo_entrp">   -278.49575605 </i>
    <i name="e_0_energy">   -278.49575605 </i>
   </energy>
  </scstep>
  <scstep>
   <time name="dav">   45.75   46.13</time>
   <time name="total">   46.23   46.63</time>
   <energy>
    <i name="e_fr_energy">   -282.88888574 </i>
    <i name="e_wo_entrp">   -282.88888574 </i>
    <i name="e_0_energy">   -282.88888574 </i>
   </energy>
  </scstep>
  <scstep>
   <time name="dav">   56.11   56.23</time>
   <time name="total">   56.62   56.76</time>
   <energy>
    <i name="e_fr_energy">   -276.96568747 </i>
    <i name="e_wo_entrp">   -276.96568747 </i>
    <i name="e_0_energy">   -276.96568747 </i>
   </energy>
  </scstep>
  <scstep>
   <time name="dav">   53.82   54.01</time>
   <time name="total">   54.35   54.57</time>
   <energy>
    <i name="e_fr_energy">   -281.52129379 </i>
    <i name="e_wo_entrp">   -281.52129379 </i>
    <i name="e_0_energy">   -281.52129379 </i>
   </energy>
  </scstep>
  <scstep>
   <time name="dav">   46.25   46.47</time>
   <time name="total">   46.73   46.99</time>
   <energy>
    <i name="e_fr_energy">   -275.48137229 </i>
    <i name="e_wo_entrp">   -275.48137229 </i>
    <i name="e_0_energy">   -275.48137229 </i>
   </energy>
  </scstep>
  <scstep>
   <time name="dav">   45.45   45.67</time>
   <time name="total">   45.93   46.20</time>
   <energy>
    <i name="e_fr_energy">   -275.69675625 </i>
    <i name="e_wo_entrp">   -275.69675625 </i>
    <i name="e_0_energy">   -275.69675625 </i>
   </energy>
  </scstep>
  <scstep>
   <time name="dav">   46.73   46.92</time>
   <time name="total">   47.23   47.45</time>
   <energy>
    <i name="e_fr_energy">   -275.50675036 </i>
    <i name="e_wo_entrp">   -275.50675036 </i>
    <i name="e_0_energy">   -275.50675036 </i>
   </energy>
  </scstep>
  <scstep>
   <time name="dav">   52.55   52.73</time>
   <time name="total">   53.04   53.24</time>
   <energy>
    <i name="e_fr_energy">   -275.32273895 </i>
    <i name="e_wo_entrp">   -275.32273895 </i>
    <i name="e_0_energy">   -275.32273895 </i>
   </energy>
  </scstep>
  <scstep>
   <time name="dav">   52.78   53.28</time>
   <time name="total">   53.25   53.81</time>
   <energy>
    <i name="e_fr_energy">   -275.10801239 </i>
    <i name="e_wo_entrp">   -275.10801239 </i>
    <i name="e_0_energy">   -275.10801239 </i>
   </energy>
  </scstep>
  <scstep>
   <time name="dav">   45.96   46.38</time>
   <time name="total">   46.46   46.91</time>
   <energy>
    <i name="e_fr_energy">   -275.08865076 </i>
    <i name="e_wo_entrp">   -275.08865076 </i>
    <i name="e_0_energy">   -275.08865076 </i>
   </energy>
  </scstep>
  <scstep>
   <time name="dav">   54.30   54.84</time>
   <time name="total">   54.78   55.37</time>
   <energy>
    <i name="e_fr_energy">   -275.02713796 </i>
    <i name="e_wo_entrp">   -275.02713796 </i>
    <i name="e_0_energy">   -275.02713796 </i>
   </energy>
  </scstep>
  <scstep>
   <time name="dav">   49.75   50.64</time>
   <time name="total">   50.24   51.16</time>
   <energy>
    <i name="e_fr_energy">   -274.99234547 </i>
    <i name="e_wo_entrp">   -274.99234547 </i>
    <i name="e_0_energy">   -274.99234547 </i>
   </energy>
  </scstep>
  <scstep>
   <time name="dav">   47.50   47.96</time>
   <time name="total">   48.00   48.50</time>
   <energy>
    <i name="e_fr_energy">   -274.99320690 </i>
    <i name="e_wo_entrp">   -274.99320690 </i>
    <i name="e_0_energy">   -274.99320690 </i>
   </energy>
  </scstep>
  <scstep>
   <time name="dav">   50.05   50.56</time>
   <time name="total">   50.56   51.09</time>
   <energy>
    <i name="e_fr_energy">   -274.99450734 </i>
    <i name="e_wo_entrp">   -274.99450734 </i>
    <i name="e_0_energy">   -274.99450734 </i>
   </energy>
  </scstep>
  <scstep>
   <time name="dav">   48.04   48.15</time>
   <time name="total">   48.53   48.66</time>
   <energy>
    <i name="e_fr_energy">   -274.99582165 </i>
    <i name="e_wo_entrp">   -274.99582165 </i>
    <i name="e_0_energy">   -274.99582165 </i>
   </energy>
  </scstep>
  <scstep>
   <time name="dav">   48.02   48.59</time>
   <time name="total">   48.51   49.10</time>
   <energy>
    <i name="e_fr_energy">   -274.99644835 </i>
    <i name="e_wo_entrp">   -274.99644835 </i>
    <i name="e_0_energy">   -274.99644835 </i>
   </energy>
  </scstep>
  <scstep>
   <time name="dav">   45.90   46.47</time>
   <time name="total">   46.38   47.01</time>
   <energy>
    <i name="e_fr_energy">   -274.99690181 </i>
    <i name="e_wo_entrp">   -274.99690181 </i>
    <i name="e_0_energy">   -274.99690181 </i>
   </energy>
  </scstep>
  <scstep>
   <time name="dav">   47.15   47.88</time>
   <time name="total">   47.65   48.44</time>
   <energy>
    <i name="e_fr_energy">   -274.99563596 </i>
    <i name="e_wo_entrp">   -274.99563596 </i>
    <i name="e_0_energy">   -274.99563596 </i>
   </energy>
  </scstep>
  <scstep>
   <time name="dav">   43.89   44.47</time>
   <time name="total">   44.38   44.99</time>
   <energy>
    <i name="e_fr_energy">   -274.99565702 </i>
    <i name="e_wo_entrp">   -274.99565702 </i>
    <i name="e_0_energy">   -274.99565702 </i>
   </energy>
  </scstep>
  <scstep>
   <time name="dav">   43.55   44.39</time>
   <time name="total">   44.03   44.90</time>
   <energy>
    <i name="e_fr_energy">   -274.99513275 </i>
    <i name="e_wo_entrp">   -274.99513275 </i>
    <i name="e_0_energy">   -274.99513275 </i>
   </energy>
  </scstep>
  <scstep>
   <time name="dav">   41.79   42.17</time>
   <time name="total">   42.29   42.69</time>
   <energy>
    <i name="e_fr_energy">   -274.99554990 </i>
    <i name="e_wo_entrp">   -274.99554990 </i>
    <i name="e_0_energy">   -274.99554990 </i>
   </energy>
  </scstep>
  <scstep>
   <time name="dav">   30.97   31.23</time>
   <time name="total">   31.46   31.77</time>
   <energy>
    <i name="e_fr_energy">   -274.99536477 </i>
    <i name="e_wo_entrp">   -274.99536477 </i>
    <i name="e_0_energy">   -274.99536477 </i>
   </energy>
  </scstep>
  <scstep>
   <time name="dav">   31.17   31.25</time>
   <time name="total">   31.67   31.80</time>
   <energy>
    <i name="e_fr_energy">   -274.99542503 </i>
    <i name="e_wo_entrp">   -274.99542503 </i>
    <i name="e_0_energy">   -274.99542503 </i>
   </energy>
  </scstep>
  <scstep>
   <time name="dav">   30.99   31.24</time>
   <time name="total">   31.48   31.76</time>
   <energy>
    <i name="e_fr_energy">   -274.99537191 </i>
    <i name="e_wo_entrp">   -274.99537191 </i>
    <i name="e_0_energy">   -274.99537191 </i>
   </energy>
  </scstep>
  <scstep>
   <time name="dav">   30.94   31.23</time>
   <time name="total">   31.44   31.76</time>
   <energy>
    <i name="e_fr_energy">   -274.99537806 </i>
    <i name="e_wo_entrp">   -274.99537806 </i>
    <i name="e_0_energy">   -274.99537806 </i>
   </energy>
  </scstep>
  <scstep>
   <time name="dav">   30.96   31.17</time>
   <time name="total">   31.46   31.68</time>
   <energy>
    <i name="e_fr_energy">   -274.99538491 </i>
    <i name="e_wo_entrp">   -274.99538491 </i>
    <i name="e_0_energy">   -274.99538491 </i>
   </energy>
  </scstep>
  <scstep>
   <time name="dav">   31.03   31.26</time>
   <time name="total">   31.52   31.77</time>
   <energy>
    <i name="e_fr_energy">   -274.99538682 </i>
    <i name="e_wo_entrp">   -274.99538682 </i>
    <i name="e_0_energy">   -274.99538682 </i>
   </energy>
  </scstep>
  <scstep>
   <time name="dav">   30.85   31.50</time>
   <time name="total">   31.34   32.01</time>
   <energy>
    <i name="e_fr_energy">   -274.99538988 </i>
    <i name="e_wo_entrp">   -274.99538988 </i>
    <i name="e_0_energy">   -274.99538988 </i>
   </energy>
  </scstep>
  <scstep>
   <time name="dav">   30.88   31.19</time>
   <time name="total">   31.38   31.72</time>
   <energy>
    <i name="e_fr_energy">   -274.99538796 </i>
    <i name="e_wo_entrp">   -274.99538796 </i>
    <i name="e_0_energy">   -274.99538796 </i>
   </energy>
  </scstep>
  <scstep>
   <time name="dav">   31.04   31.23</time>
   <time name="total">   31.10   31.31</time>
   <energy>
    <i name="alphaZ">   1047.62774490 </i>
    <i name="ewald"> -29898.49627434 </i>
    <i name="hartreedc"> -12966.00136607 </i>
    <i name="XCdc">   1124.58364427 </i>
    <i name="pawpsdc">  43502.14448731 </i>
    <i name="pawaedc"> -42647.25610994 </i>
    <i name="eentropy">      0.00000000 </i>
    <i name="bandstr">  -3698.60082504 </i>
    <i name="atom">  43261.00331033 </i>
    <i name="e_fr_energy">   -274.99538858 </i>
    <i name="e_wo_entrp">   -274.99538858 </i>
    <i name="e_0_energy">   -274.99538858 </i>
   </energy>
  </scstep>
  <structure>
   <crystal>
    <varray name="basis" >
     <v>      11.17850000       0.00000000       0.00000000 </v>
     <v>       0.00000000       9.57460000       0.00000000 </v>
     <v>       0.00000000       0.00000000      11.18240000 </v>
    </varray>
    <i name="volume">   1196.84853820 </i>
    <varray name="rec_basis" >
     <v>       0.08945744       0.00000000       0.00000000 </v>
     <v>       0.00000000       0.10444301       0.00000000 </v>
     <v>       0.00000000       0.00000000       0.08942624 </v>
    </varray>
   </crystal>
   <varray name="positions" >
    <v>       0.87539000       0.00017000       0.43687000 </v>
    <v>       0.87461000       0.00017000       0.68687000 </v>
    <v>       0.62539000       0.99984000       0.43687000 </v>
    <v>       0.62461000       0.99984000       0.18687000 </v>
    <v>       0.87461000       0.00017000       0.18687000 </v>
    <v>       0.12461000       0.99984000       0.68687000 </v>
    <v>       0.37461000       0.00017000       0.68687000 </v>
    <v>       0.62539000       0.99984000       0.93687000 </v>
    <v>       0.87539000       0.00017000       0.93687000 </v>
    <v>       0.00013000       0.29519000       0.06281000 </v>
    <v>       0.25013000       0.70481000       0.06281000 </v>
    <v>       0.24987000       0.29519000       0.31282000 </v>
    <v>       0.49987000       0.70481000       0.31282000 </v>
    <v>       0.50013000       0.29519000       0.06281000 </v>
    <v>       0.75013000       0.70481000       0.06281000 </v>
    <v>       0.74987000       0.29519000       0.31282000 </v>
    <v>       0.99987000       0.70481000       0.31282000 </v>
    <v>       0.00013000       0.29519000       0.56281000 </v>
    <v>       0.25013000       0.70481000       0.56281000 </v>
    <v>       0.24987000       0.29519000       0.81282000 </v>
    <v>       0.49987000       0.70481000       0.81282000 </v>
    <v>       0.50013000       0.29519000       0.56281000 </v>
    <v>       0.75013000       0.70481000       0.56281000 </v>
    <v>       0.74987000       0.29519000       0.81282000 </v>
    <v>       0.99987000       0.70481000       0.81282000 </v>
    <v>       0.25005000       0.32677000       0.06286000 </v>
    <v>       0.00005000       0.67323000       0.06286000 </v>
    <v>       0.49995000       0.32677000       0.31286000 </v>
    <v>       0.24995000       0.67323000       0.31286000 </v>
    <v>       0.75005000       0.32677000       0.06286000 </v>
    <v>       0.50005000       0.67323000       0.06286000 </v>
    <v>       0.99995000       0.32677000       0.31286000 </v>
    <v>       0.74995000       0.67323000       0.31286000 </v>
    <v>       0.25005000       0.32677000       0.56286000 </v>
    <v>       0.00005000       0.67323000       0.56286000 </v>
    <v>       0.49995000       0.32677000       0.81286000 </v>
    <v>       0.24995000       0.67323000       0.81286000 </v>
    <v>       0.75005000       0.32677000       0.56286000 </v>
    <v>       0.50005000       0.67323000       0.56286000 </v>
    <v>       0.99995000       0.32677000       0.81286000 </v>
    <v>       0.74995000       0.67323000       0.81286000 </v>
    <v>       0.49987000       0.07798000       0.06246000 </v>
    <v>       0.24987000       0.92202000       0.06246000 </v>
    <v>       0.25013000       0.07798000       0.31246000 </v>
    <v>       0.00013000       0.92202000       0.31246000 </v>
    <v>       0.99987000       0.07798000       0.06246000 </v>
    <v>       0.74987000       0.92202000       0.06246000 </v>
    <v>       0.75013000       0.07798000       0.31246000 </v>
    <v>       0.50013000       0.92202000       0.31246000 </v>
    <v>       0.49987000       0.07798000       0.56246000 </v>
    <v>       0.24987000       0.92202000       0.56246000 </v>
    <v>       0.25013000       0.07798000       0.81246000 </v>
    <v>       0.00013000       0.92202000       0.81246000 </v>
    <v>       0.99987000       0.07798000       0.56246000 </v>
    <v>       0.74987000       0.92202000       0.56246000 </v>
    <v>       0.75013000       0.07798000       0.81246000 </v>
    <v>       0.50013000       0.92202000       0.81246000 </v>
   </varray>
  </structure>
  <varray name="forces" >
   <v>       1.08372470      -0.24796823       0.49041931 </v>
   <v>      -0.37350714      -0.01063044      -0.52552432 </v>
   <v>      -1.43560528      -0.31741318       1.80453505 </v>
   <v>      -2.78163842       0.09769314       0.29854336 </v>
   <v>       3.00252587      -0.02281369       1.09103197 </v>
   <v>      -0.05942600       0.12549229      -0.21704420 </v>
   <v>       0.93230579       0.00089434      -0.03279626 </v>
   <v>      -2.45435937       0.28619071      -1.74063841 </v>
   <v>       2.19103840       0.38754680      -0.94462340 </v>
   <v>       1.27456240       0.31955423       0.25514714 </v>
   <v>      -0.01597164       2.92669209       0.28183120 </v>
   <v>      -0.04408580      -2.89585822      -0.16656170 </v>
   <v>      -1.22676981      -0.28031085      -0.01356694 </v>
   <v>      -1.28692136       0.32802603       0.13467556 </v>
   <v>       0.01403283      -4.01646508       0.05319907 </v>
   <v>       0.17841402       3.15997032       0.30923481 </v>
   <v>       1.08439251       0.77183316       0.05319682 </v>
   <v>       0.50476196       0.08702881      -0.43343177 </v>
   <v>      -0.02667947      -0.15199178      -0.73611105 </v>
   <v>       0.04440178       0.12909306       0.58259090 </v>
   <v>      -0.52229092       0.02149299      -0.00152973 </v>
   <v>      -0.46205182      -0.05554864      -0.13414314 </v>
   <v>      -0.03877828      -0.20970287       0.14566786 </v>
   <v>      -0.17141179       1.30111227      -0.52314695 </v>
   <v>       0.68343242      -1.06144179       0.11307283 </v>
   <v>      -0.00655779       0.17864297      -0.42943885 </v>
   <v>      -0.90616504       0.05886977      -0.22063317 </v>
   <v>       0.85121916      -0.02692733      -0.04870194 </v>
   <v>       0.10345903      -0.20666749       0.39363446 </v>
   <v>      -0.00096475      -0.21092349       0.01097934 </v>
   <v>       0.91138555       0.06092372      -0.03046122 </v>
   <v>      -0.82979032       0.03814151      -0.08559228 </v>
   <v>      -0.12595842       0.06781308      -0.23414984 </v>
   <v>      -0.01882868       0.14767252       0.49543616 </v>
   <v>      -0.21107265      -0.13057229       0.27545313 </v>
   <v>       0.34263251       0.05599708       0.04609358 </v>
   <v>      -0.09596043      -0.12734595      -0.44738244 </v>
   <v>      -0.01109339      -0.01023113      -0.07577222 </v>
   <v>       0.24419303      -0.09290384       0.02394077 </v>
   <v>      -0.35018092       0.05642293       0.01750841 </v>
   <v>       0.09612893       0.14160060       0.29854444 </v>
   <v>       2.79003538      -0.55272189      -0.03215962 </v>
   <v>       0.00352597      -2.49517459      -0.12282449 </v>
   <v>       0.02880612       2.47450703       0.09339029 </v>
   <v>      -2.25988097      -0.40513725      -0.53292634 </v>
   <v>      -2.76845924      -0.54650509      -0.16203620 </v>
   <v>       0.00100687       3.07075344       0.06211069 </v>
   <v>      -0.48134934      -2.45168179      -0.83274024 </v>
   <v>       2.67428470       0.45709157      -0.07973246 </v>
   <v>       0.28582956       0.25198317      -0.03607609 </v>
   <v>      -0.02212282       0.09478664       2.19941130 </v>
   <v>      -0.09206999      -0.12416979      -2.15328893 </v>
   <v>      -1.01192859       0.76630225      -0.53305080 </v>
   <v>      -0.39652372      -0.05061953       1.25062338 </v>
   <v>       0.15135394       0.29170587      -1.23717869 </v>
   <v>       0.64936893      -1.27436784       1.87875550 </v>
   <v>       0.36158178      -0.17974037       0.10423636 </v>
  </varray>
  <varray name="stress" >
   <v>       0.32826174       0.35861669      -1.43957545 </v>
   <v>       0.35861693      -8.20724913       0.11699837 </v>
   <v>      -1.43957540       0.11699821       3.81677750 </v>
  </varray>
  <energy>
   <i name="e_fr_energy">   -285.76205588 </i>
   <i name="e_wo_entrp">   -285.76205588 </i>
   <i name="e_0_energy">      0.00000000 </i>
  </energy>
  <time name="totalsc"> 1635.81 1651.31</time>
 </calculation>
 <calculation>
  <scstep>
   <time name="dav">   46.16   46.23</time>
   <time name="total">   46.66   46.73</time>
   <energy>
    <i name="alphaZ">   1050.34002826 </i>
    <i name="ewald"> -29925.94702667 </i>
    <i name="hartreedc"> -12955.83354753 </i>
    <i name="XCdc">   1126.30282971 </i>
    <i name="pawpsdc">  43502.14429137 </i>
    <i name="pawaedc"> -42647.25591001 </i>
    <i name="eentropy">      0.00000000 </i>
    <i name="bandstr">  -3685.01041800 </i>
    <i name="atom">  43261.00331033 </i>
    <i name="e_fr_energy">   -274.25644254 </i>
    <i name="e_wo_entrp">   -274.25644254 </i>
    <i name="e_0_energy">   -274.25644254 </i>
   </energy>
  </scstep>
  <scstep>
   <time name="dav">   45.07   45.47</time>
   <time name="total">   45.57   46.01</time>
   <energy>
    <i name="e_fr_energy">   -279.50659706 </i>
    <i name="e_wo_entrp">   -279.50659706 </i>
    <i name="e_0_energy">   -279.50659706 </i>
   </energy>
  </scstep>
  <scstep>
   <time name="dav">   56.43   56.54</time>
   <time name="total">   56.92   57.10</time>
   <energy>
    <i name="e_fr_energy">   -279.22513334 </i>
    <i name="e_wo_entrp">   -279.22513334 </i>
    <i name="e_0_energy">   -279.22513334 </i>
   </energy>
  </scstep>
  <scstep>
   <time name="dav">   50.25   51.61</time>
   <time name="total">   50.73   52.11</time>
   <energy>
    <i name="e_fr_energy">   -279.11342048 </i>
    <i name="e_wo_entrp">   -279.11342048 </i>
    <i name="e_0_energy">   -279.11342048 </i>
   </energy>
  </scstep>
  <scstep>
   <time name="dav">   53.13   54.03</time>
   <time name="total">   53.62   54.53</time>
   <energy>
    <i name="e_fr_energy">   -279.04907130 </i>
    <i name="e_wo_entrp">   -279.04907130 </i>
    <i name="e_0_energy">   -279.04907130 </i>
   </energy>
  </scstep>
  <scstep>
   <time name="dav">   51.49   52.39</time>
   <time name="total">   51.96   52.90</time>
   <energy>
    <i name="e_fr_energy">   -279.03123735 </i>
    <i name="e_wo_entrp">   -279.03123735 </i>
    <i name="e_0_energy">   -279.03123735 </i>
   </energy>
  </scstep>
  <scstep>
   <time name="dav">   45.50   46.34</time>
   <time name="total">   45.99   46.85</time>
   <energy>
    <i name="e_fr_energy">   -279.03297892 </i>
    <i name="e_wo_entrp">   -279.03297892 </i>
    <i name="e_0_energy">   -279.03297892 </i>
   </energy>
  </scstep>
  <scstep>
   <time name="dav">   50.49   51.46</time>
   <time name="total">   50.97   51.97</time>
   <energy>
    <i name="e_fr_energy">   -279.03222424 </i>
    <i name="e_wo_entrp">   -279.03222424 </i>
    <i name="e_0_energy">   -279.03222424 </i>
   </energy>
  </scstep>
  <scstep>
   <time name="dav">   49.53   50.47</time>
   <time name="total">   50.00   50.98</time>
   <energy>
    <i name="e_fr_energy">   -279.03193207 </i>
    <i name="e_wo_entrp">   -279.03193207 </i>
    <i name="e_0_energy">   -279.03193207 </i>
   </energy>
  </scstep>
  <scstep>
   <time name="dav">   52.49   53.11</time>
   <time name="total">   52.98   53.61</time>
   <energy>
    <i name="e_fr_energy">   -279.03196984 </i>
    <i name="e_wo_entrp">   -279.03196984 </i>
    <i name="e_0_energy">   -279.03196984 </i>
   </energy>
  </scstep>
  <scstep>
   <time name="dav">   48.73   49.34</time>
   <time name="total">   49.22   49.85</time>
   <energy>
    <i name="e_fr_energy">   -279.03197650 </i>
    <i name="e_wo_entrp">   -279.03197650 </i>
    <i name="e_0_energy">   -279.03197650 </i>
   </energy>
  </scstep>
  <scstep>
   <time name="dav">   42.30   42.37</time>
   <time name="total">   42.79   42.87</time>
   <energy>
    <i name="e_fr_energy">   -279.03197868 </i>
    <i name="e_wo_entrp">   -279.03197868 </i>
    <i name="e_0_energy">   -279.03197868 </i>
   </energy>
  </scstep>
  <scstep>
   <time name="dav">   45.00   45.08</time>
   <time name="total">   45.06   45.15</time>
   <energy>
    <i name="alphaZ">   1050.34002826 </i>
    <i name="ewald"> -29925.94702667 </i>
    <i name="hartreedc"> -12949.29991141 </i>
    <i name="XCdc">   1126.66872304 </i>
    <i name="pawpsdc">  43642.80593364 </i>
    <i name="pawaedc"> -42789.51562786 </i>
    <i name="eentropy">      0.00000000 </i>
    <i name="bandstr">  -3695.08740891 </i>
    <i name="atom">  43261.00331033 </i>
    <i name="e_fr_energy">   -279.03197958 </i>
    <i name="e_wo_entrp">   -279.03197958 </i>
    <i name="e_0_energy">   -279.03197958 </i>
   </energy>
  </scstep>
  <structure>
   <crystal>
    <varray name="basis" >
     <v>      11.18082000       0.00253454      -0.01017426 </v>
     <v>       0.00217088       9.52491753       0.00070825 </v>
     <v>      -0.01017781       0.00082718      11.20938465 </v>
    </varray>
    <i name="volume">   1193.75792726 </i>
    <varray name="rec_basis" >
     <v>       0.08943896      -0.00002039       0.00008121 </v>
     <v>      -0.00002381       0.10498779      -0.00000777 </v>
     <v>       0.00008118      -0.00000665       0.08921104 </v>
    </varray>
   </crystal>
   <varray name="positions" >
    <v>       0.88006699      -0.00107941       0.43898575 </v>
    <v>       0.87299807       0.00011644       0.68460280 </v>
    <v>       0.61919441       0.99824068       0.44465505 </v>
    <v>       0.61260538       0.00033224       0.18815796 </v>
    <v>       0.88756789       0.00005505       0.19157689 </v>
    <v>       0.12435354       0.00047231       0.68593364 </v>
    <v>       0.37863352       0.00017451       0.68672851 </v>
    <v>       0.61479781       0.00128200       0.92936061 </v>
    <v>       0.88484579       0.00212270       0.93279474 </v>
    <v>       0.00563058       0.29680011       0.06391075 </v>
    <v>       0.25006107       0.71955645       0.06402586 </v>
    <v>       0.24967974       0.28059891       0.31210143 </v>
    <v>       0.49457567       0.70339762       0.31276147 </v>
    <v>       0.49457608       0.29684279       0.06339101 </v>
    <v>       0.75019056       0.68457261       0.06303951 </v>
    <v>       0.75063998       0.31111185       0.31415409 </v>
    <v>       0.00454987       0.70869896       0.31304950 </v>
    <v>       0.00230838       0.29562850       0.56094011 </v>
    <v>       0.25001486       0.70404417       0.55963430 </v>
    <v>       0.25006162       0.29584045       0.81533339 </v>
    <v>       0.49761597       0.70491829       0.81281340 </v>
    <v>       0.49813594       0.29491011       0.56223129 </v>
    <v>       0.74996265       0.70375339       0.56343843 </v>
    <v>       0.74913024       0.30174579       0.81056306 </v>
    <v>       0.00281946       0.69946181       0.81330781 </v>
    <v>       0.25002170       0.32767011       0.06100733 </v>
    <v>      -0.00386070       0.67352662       0.06190815 </v>
    <v>       0.50362358       0.32663432       0.31264989 </v>
    <v>       0.25039649       0.67218868       0.31455820 </v>
    <v>       0.75004584       0.32570724       0.06290737 </v>
    <v>       0.50398323       0.67353697       0.06272859 </v>
    <v>       0.99636890       0.32696218       0.31249074 </v>
    <v>       0.74940641       0.67357168       0.31184984 </v>
    <v>       0.24996874       0.32751406       0.56499739 </v>
    <v>      -0.00086092       0.67257210       0.56404835 </v>
    <v>       0.50142869       0.32705215       0.81305886 </v>
    <v>       0.24953587       0.67258835       0.81092992 </v>
    <v>       0.75000212       0.32671845       0.56253311 </v>
    <v>       0.50110386       0.67276189       0.56296328 </v>
    <v>       0.99843874       0.32705429       0.81293553 </v>
    <v>       0.75036486       0.67394347       0.81414797 </v>
    <v>       0.51191086       0.07519505       0.06232126 </v>
    <v>       0.24988522       0.90944779       0.06193012 </v>
    <v>       0.25025432       0.09044807       0.31286290 </v>
    <v>      -0.00962289       0.91997867       0.31016087 </v>
    <v>       0.98792226       0.07522638       0.06176095 </v>
    <v>       0.74987435       0.93749232       0.06272796 </v>
    <v>       0.74805266       0.06562694       0.30886743 </v>
    <v>       0.51167132       0.92432311       0.31211602 </v>
    <v>       0.50110354       0.07924964       0.56230436 </v>
    <v>       0.24977453       0.92249759       0.57194861 </v>
    <v>       0.24973266       0.07735436       0.80317037 </v>
    <v>      -0.00423714       0.92588110       0.81016033 </v>
    <v>       0.99815874       0.07772495       0.56785539 </v>
    <v>       0.75052319       0.92348979       0.55712261 </v>
    <v>       0.75293246       0.07155896       0.82056525 </v>
    <v>       0.50169047       0.92111436       0.81290969 </v>
   </varray>
  </structure>
  <varray name="forces" >
   <v>       0.48079322      -0.14665170       0.21655545 </v>
   <v>      -0.44082756      -0.00715365      -0.27811103 </v>
   <v>      -0.26785004      -0.13456895       0.58281659 </v>
   <v>       0.10269289       0.04201185      -0.08459855 </v>
   <v>      -0.03086330       0.19063008      -0.02042546 </v>
   <v>      -0.21545432       0.02186158       0.02744694 </v>
   <v>       0.59632764      -0.00628955       0.00634510 </v>
   <v>      -0.21166905       0.20916855      -0.43135638 </v>
   <v>       0.24620340       0.07546532      -0.04201958 </v>
   <v>       0.43347151      -0.36755742       0.10352470 </v>
   <v>      -0.00381014      -4.10098827       0.10533029 </v>
   <v>      -0.00504774       3.97448319      -0.00143615 </v>
   <v>      -0.49325980       0.28348453      -0.07621420 </v>
   <v>      -0.45118326      -0.35301169       0.13769135 </v>
   <v>       0.00366427      -0.05632474       0.09983092 </v>
   <v>       0.02103846      -0.05325635      -0.09234774 </v>
   <v>       0.48581042      -0.25847311       0.02147300 </v>
   <v>       0.33517542       0.09673479      -0.21850329 </v>
   <v>      -0.04495886      -0.02488262      -0.31241024 </v>
   <v>      -0.03785048      -0.02543742       0.20637832 </v>
   <v>      -0.27212418      -0.45562189       0.09812640 </v>
   <v>      -0.32087114       0.48722006      -0.16850888 </v>
   <v>       0.01705699       0.11299835      -0.01368376 </v>
   <v>      -0.00710604      -0.42703614      -0.01066575 </v>
   <v>       0.34869819       0.01821621       0.10871321 </v>
   <v>       0.00632542       0.07182629      -0.34522031 </v>
   <v>      -0.51521409      -0.09170330      -0.10096923 </v>
   <v>       0.52555291       0.09024633      -0.03070952 </v>
   <v>       0.07031810      -0.08045265       0.33966443 </v>
   <v>      -0.00396070       0.43309037      -0.03909960 </v>
   <v>       0.51518547      -0.08561684      -0.02877400 </v>
   <v>      -0.51972865       0.05832048      -0.07540219 </v>
   <v>      -0.03708899      -0.39122880      -0.03734786 </v>
   <v>      -0.00606614       0.20886017       0.39114506 </v>
   <v>      -0.10103873      -0.12054677       0.13373422 </v>
   <v>       0.17477828       0.00478949       0.04055896 </v>
   <v>      -0.03806096      -0.19843721      -0.34603540 </v>
   <v>      -0.02042470       0.06877257      -0.02174566 </v>
   <v>       0.12112437      -0.03086595      -0.00874989 </v>
   <v>      -0.17788274       0.13312677       0.03134178 </v>
   <v>       0.02186424      -0.10504470       0.09636523 </v>
   <v>       0.92295732       0.79859359      -0.43301975 </v>
   <v>      -0.00346811       4.69104021      -0.16038318 </v>
   <v>       0.02390679      -4.56532785       0.10541369 </v>
   <v>      -0.84204816       0.01250326       0.33217998 </v>
   <v>      -0.94175880       0.77958544      -0.05623526 </v>
   <v>       0.00516834      -0.79933765      -0.06552971 </v>
   <v>      -0.29651357       0.76583808      -0.11261540 </v>
   <v>       0.98393460      -0.69891455       0.54600488 </v>
   <v>      -0.05829625      -0.11986254       0.25041126 </v>
   <v>       0.11718084      -0.20057511       1.43539290 </v>
   <v>       0.08274153       0.20201263      -1.45632852 </v>
   <v>      -0.23536020      -0.48395603      -0.81435904 </v>
   <v>      -0.27673455       0.02902594       0.81252079 </v>
   <v>       0.17049207      -0.21137052      -0.68389097 </v>
   <v>       0.33081917       0.74179817       0.76488304 </v>
   <v>      -0.26676059      -0.00121036      -0.42715197 </v>
  </varray>
  <varray name="stress" >
   <v>       7.52382896      -0.56487689       1.65631427 </v>
   <v>      -0.56487694       5.60969508      -0.93641696 </v>
   <v>       1.65631407      -0.93641702       8.10200605 </v>
  </varray>
  <energy>
   <i name="e_fr_energy">   -289.83452002 </i>
   <i name="e_wo_entrp">   -289.83452002 </i>
   <i name="e_0_energy">      0.00000000 </i>
  </energy>
  <time name="totalsc">  718.63  727.22</time>
 </calculation>
 <calculation>
  <scstep>
   <time name="dav">   41.89   42.23</time>
   <time name="total">   42.39   42.76</time>
   <energy>
    <i name="alphaZ">   1050.06476108 </i>
    <i name="ewald"> -29928.36247815 </i>
    <i name="hartreedc"> -12946.04815947 </i>
    <i name="XCdc">   1126.43264397 </i>
    <i name="pawpsdc">  43642.57976906 </i>
    <i name="pawaedc"> -42789.28882164 </i>
    <i name="eentropy">      0.00000000 </i>
    <i name="bandstr">  -3695.42136218 </i>
    <i name="atom">  43261.00331033 </i>
    <i name="e_fr_energy">   -279.04033700 </i>
    <i name="e_wo_entrp">   -279.04033700 </i>
    <i name="e_0_energy">   -279.04033700 </i>
   </energy>
  </scstep>
  <scstep>
   <time name="dav">   46.20   46.49</time>
   <time name="total">   46.68   46.99</time>
   <energy>
    <i name="e_fr_energy">   -279.09941280 </i>
    <i name="e_wo_entrp">   -279.09941280 </i>
    <i name="e_0_energy">   -279.09941280 </i>
   </energy>
  </scstep>
  <scstep>
   <time name="dav">   50.85   51.21</time>
   <time name="total">   51.33   51.72</time>
   <energy>
    <i name="e_fr_energy">   -279.09695502 </i>
    <i name="e_wo_entrp">   -279.09695502 </i>
    <i name="e_0_energy">   -279.09695502 </i>
   </energy>
  </scstep>
  <scstep>
   <time name="dav">   50.31   51.12</time>
   <time name="total">   50.80   51.65</time>
   <energy>
    <i name="e_fr_energy">   -279.09532954 </i>
    <i name="e_wo_entrp">   -279.09532954 </i>
    <i name="e_0_energy">   -279.09532954 </i>
   </energy>
  </scstep>
  <scstep>
   <time name="dav">   48.27   48.69</time>
   <time name="total">   48.74   49.20</time>
   <energy>
    <i name="e_fr_energy">   -279.09399194 </i>
    <i name="e_wo_entrp">   -279.09399194 </i>
    <i name="e_0_energy">   -279.09399194 </i>
   </energy>
  </scstep>
  <scstep>
   <time name="dav">   50.55   50.88</time>
   <time name="total">   51.04   51.39</time>
   <energy>
    <i name="e_fr_energy">   -279.09398199 </i>
    <i name="e_wo_entrp">   -279.09398199 </i>
    <i name="e_0_energy">   -279.09398199 </i>
   </energy>
  </scstep>
  <scstep>
   <time name="dav">   48.39   48.79</time>
   <time name="total">   48.88   49.33</time>
   <energy>
    <i name="e_fr_energy">   -279.09397898 </i>
    <i name="e_wo_entrp">   -279.09397898 </i>
    <i name="e_0_energy">   -279.09397898 </i>
   </energy>
  </scstep>
  <scstep>
   <time name="dav">   47.19   47.66</time>
   <time name="total">   47.67   48.17</time>
   <energy>
    <i name="e_fr_energy">   -279.09397187 </i>
    <i name="e_wo_entrp">   -279.09397187 </i>
    <i name="e_0_energy">   -279.09397187 </i>
   </energy>
  </scstep>
  <scstep>
   <time name="dav">   44.07   44.43</time>
   <time name="total">   44.56   44.97</time>
   <energy>
    <i name="e_fr_energy">   -279.09396858 </i>
    <i name="e_wo_entrp">   -279.09396858 </i>
    <i name="e_0_energy">   -279.09396858 </i>
   </energy>
  </scstep>
  <scstep>
   <time name="dav">   44.11   44.84</time>
   <time name="total">   44.17   44.91</time>
   <energy>
    <i name="alphaZ">   1050.06476108 </i>
    <i name="ewald"> -29928.36247815 </i>
    <i name="hartreedc"> -12946.90101569 </i>
    <i name="XCdc">   1126.41340240 </i>
    <i name="pawpsdc">  43607.16755081 </i>
    <i name="pawaedc"> -42753.37727285 </i>
    <i name="eentropy">      0.00000000 </i>
    <i name="bandstr">  -3695.10222740 </i>
    <i name="atom">  43261.00331033 </i>
    <i name="e_fr_energy">   -279.09396946 </i>
    <i name="e_wo_entrp">   -279.09396946 </i>
    <i name="e_0_energy">   -279.09396946 </i>
   </energy>
  </scstep>
  <structure>
   <crystal>
    <varray name="basis" >
     <v>      11.18058623       0.00227915      -0.00914907 </v>
     <v>       0.00195214       9.52992368       0.00063688 </v>
     <v>      -0.00915226       0.00074383      11.20666560 </v>
    </varray>
    <i name="volume">   1194.07086261 </i>
    <varray name="rec_basis" >
     <v>       0.08944081      -0.00001833       0.00007305 </v>
     <v>      -0.00002140       0.10493264      -0.00000698 </v>
     <v>       0.00007302      -0.00000598       0.08923267 </v>
    </varray>
   </crystal>
   <varray name="positions" >
    <v>       0.87959560      -0.00095272       0.43877264 </v>
    <v>       0.87316066       0.00012180       0.68483085 </v>
    <v>       0.61981782       0.99840257       0.44387305 </v>
    <v>       0.61381465       0.00028207       0.18802960 </v>
    <v>       0.88626205       0.00006708       0.19110256 </v>
    <v>       0.12437947       0.00040825       0.68602779 </v>
    <v>       0.37822819       0.00017416       0.68674237 </v>
    <v>       0.61586560       0.00113559       0.93011643 </v>
    <v>       0.88389360       0.00192513       0.93320354 </v>
    <v>       0.00507637       0.29663718       0.06379961 </v>
    <v>       0.25006819       0.71806281       0.06390375 </v>
    <v>       0.24969869       0.28207681       0.31217358 </v>
    <v>       0.49510901       0.70354054       0.31276783 </v>
    <v>       0.49513557       0.29667524       0.06333313 </v>
    <v>       0.75018404       0.68662243       0.06301630 </v>
    <v>       0.75056260       0.30949918       0.31402002 </v>
    <v>       0.00407847       0.70830518       0.31302603 </v>
    <v>       0.00208911       0.29558413       0.56112787 </v>
    <v>       0.25002674       0.70412171       0.55995353 </v>
    <v>       0.25004210       0.29577459       0.81508073 </v>
    <v>       0.49784305       0.70490727       0.81281427 </v>
    <v>       0.49833687       0.29493840       0.56228964 </v>
    <v>       0.74997943       0.70386041       0.56337527 </v>
    <v>       0.74920510       0.30108173       0.81079004 </v>
    <v>       0.00252218       0.70000361       0.81325847 </v>
    <v>       0.25002474       0.32757892       0.06119357 </v>
    <v>      -0.00346664       0.67349646       0.06200419 </v>
    <v>       0.50325351       0.32664816       0.31267068 </v>
    <v>       0.25035134       0.67229418       0.31438745 </v>
    <v>       0.75004623       0.32581489       0.06290260 </v>
    <v>       0.50358701       0.67350598       0.06274144 </v>
    <v>       0.99672971       0.32694262       0.31252819 </v>
    <v>       0.74946127       0.67353705       0.31195143 </v>
    <v>       0.24997675       0.32743872       0.56478255 </v>
    <v>      -0.00076927       0.67263872       0.56392897 </v>
    <v>       0.50127971       0.32702361       0.81303873 </v>
    <v>       0.24957775       0.67265332       0.81112397 </v>
    <v>       0.75000698       0.32672367       0.56256597 </v>
    <v>       0.50099767       0.67280934       0.56295280 </v>
    <v>       0.99859098       0.32702546       0.81292808 </v>
    <v>       0.75032296       0.67387123       0.81401847 </v>
    <v>       0.51069779       0.07547746       0.06233409 </v>
    <v>       0.24988349       0.91072121       0.06198330 </v>
    <v>       0.25024200       0.08918520       0.31282247 </v>
    <v>      -0.00864019       0.92018515       0.31039286 </v>
    <v>       0.98912591       0.07550496       0.06183229 </v>
    <v>       0.74987419       0.93592515       0.06270112 </v>
    <v>       0.74826202       0.06687807       0.30922866 </v>
    <v>       0.51050869       0.92409013       0.31214956 </v>
    <v>       0.50097931       0.07912108       0.56231990 </v>
    <v>       0.24978328       0.92244930       0.57099482 </v>
    <v>       0.24977352       0.07741764       0.80410420 </v>
    <v>      -0.00379690       0.92548987       0.81039192 </v>
    <v>       0.99833063       0.07775078       0.56731320 </v>
    <v>       0.75045791       0.92334089       0.55765908 </v>
    <v>       0.75264926       0.07220948       0.81975021 </v>
    <v>       0.50153320       0.92120614       0.81286434 </v>
   </varray>
  </structure>
  <varray name="forces" >
   <v>       0.54092291      -0.15606171       0.24076928 </v>
   <v>      -0.43205383      -0.00720526      -0.30345148 </v>
   <v>      -0.38701439      -0.14289264       0.70168607 </v>
   <v>      -0.21563754       0.04089268      -0.04606425 </v>
   <v>       0.30222890       0.13734904       0.11801960 </v>
   <v>      -0.19043675       0.03227918       0.00146694 </v>
   <v>       0.62608844      -0.00588783       0.00222555 </v>
   <v>      -0.44234279       0.19863814      -0.55983300 </v>
   <v>       0.44551035       0.10424179      -0.11708614 </v>
   <v>       0.52951600      -0.30463046       0.12072796 </v>
   <v>      -0.00521627      -2.84063624       0.10959956 </v>
   <v>      -0.00591012       2.73913233      -0.01079841 </v>
   <v>      -0.57927594       0.22996591      -0.07032639 </v>
   <v>      -0.54662749      -0.29051589       0.13856439 </v>
   <v>       0.00468266      -0.26358211       0.09581720 </v>
   <v>       0.03756117       0.13465924      -0.05448507 </v>
   <v>       0.54742918      -0.14347875       0.02271688 </v>
   <v>       0.35981704       0.09434833      -0.24165837 </v>
   <v>      -0.04306015      -0.04101843      -0.36022189 </v>
   <v>      -0.02952398      -0.00685569       0.24919026 </v>
   <v>      -0.30317824      -0.40256840       0.08847723 </v>
   <v>      -0.34154598       0.42659214      -0.16634200 </v>
   <v>       0.01093902       0.08430838      -0.00002928 </v>
   <v>      -0.02520582      -0.29318618      -0.06056819 </v>
   <v>       0.39096534      -0.07008158       0.11005072 </v>
   <v>       0.00501709       0.08361889      -0.36310981 </v>
   <v>      -0.56805916      -0.08033474      -0.11346448 </v>
   <v>       0.57089666       0.08185715      -0.03144637 </v>
   <v>       0.07509187      -0.09441165       0.35439674 </v>
   <v>      -0.00380817       0.37858888      -0.03555619 </v>
   <v>       0.56842874      -0.07457430      -0.03034088 </v>
   <v>      -0.56468638       0.05945325      -0.07597638 </v>
   <v>      -0.04546873      -0.34985314      -0.05799866 </v>
   <v>      -0.00754607       0.20519438       0.40797520 </v>
   <v>      -0.11606032      -0.12185204       0.14923846 </v>
   <v>       0.19694381       0.01067426       0.04064114 </v>
   <v>      -0.04450435      -0.19366967      -0.36161850 </v>
   <v>      -0.01965551       0.06270381      -0.02807241 </v>
   <v>       0.13747214      -0.03755346      -0.00479822 </v>
   <v>      -0.20041837       0.12584528       0.02864191 </v>
   <v>       0.02927644      -0.08371860       0.11878321 </v>
   <v>       1.14421316       0.64586241      -0.36936113 </v>
   <v>      -0.00257571       3.42131774      -0.14669222 </v>
   <v>       0.02191497      -3.31969207       0.10181017 </v>
   <v>      -1.02130461      -0.00452861       0.19693060 </v>
   <v>      -1.15504193       0.63279429      -0.07046251 </v>
   <v>       0.00505626      -0.57906988      -0.05443685 </v>
   <v>      -0.32164234       0.56646126      -0.18314034 </v>
   <v>       1.18929327      -0.56148268       0.44796019 </v>
   <v>      -0.01452931      -0.08309103       0.21463537 </v>
   <v>       0.09970168      -0.16504678       1.51926781 </v>
   <v>       0.06200755       0.16495114      -1.53310933 </v>
   <v>      -0.32944558      -0.36864084      -0.77368759 </v>
   <v>      -0.29024642       0.01998759       0.85961636 </v>
   <v>       0.16673240      -0.16277210      -0.74046949 </v>
   <v>       0.36935925       0.57746323       0.88116284 </v>
   <v>      -0.18504409      -0.01028796      -0.35576580 </v>
  </varray>
  <varray name="stress" >
   <v>       6.46396860      -0.41830911       1.31453300 </v>
   <v>      -0.41830903       1.06192450      -0.68492881 </v>
   <v>       1.31453302      -0.68492882       7.19859828 </v>
  </varray>
  <energy>
   <i name="e_fr_energy">   -289.89243127 </i>
   <i name="e_wo_entrp">   -289.89243127 </i>
   <i name="e_0_energy">      0.00000000 </i>
  </energy>
  <time name="totalsc">  552.40  557.88</time>
 </calculation>
 <calculation>
  <scstep>
   <time name="dav">   45.45   45.78</time>
   <time name="total">   45.93   46.28</time>
   <energy>
    <i name="alphaZ">   1041.46724788 </i>
    <i name="ewald"> -29926.32730965 </i>
    <i name="hartreedc"> -12836.13424825 </i>
    <i name="XCdc">   1121.28283793 </i>
    <i name="pawpsdc">  43607.19983822 </i>
    <i name="pawaedc"> -42753.41018014 </i>
    <i name="eentropy">      0.00000000 </i>
    <i name="bandstr">  -3792.80635896 </i>
    <i name="atom">  43261.00331033 </i>
    <i name="e_fr_energy">   -277.72486263 </i>
    <i name="e_wo_entrp">   -277.72486263 </i>
    <i name="e_0_energy">   -277.72486263 </i>
   </energy>
  </scstep>
  <scstep>
   <time name="dav">   45.05   45.39</time>
   <time name="total">   45.53   45.90</time>
   <energy>
    <i name="e_fr_energy">   -280.62316629 </i>
    <i name="e_wo_entrp">   -280.62316629 </i>
    <i name="e_0_energy">   -280.62316629 </i>
   </energy>
  </scstep>
  <scstep>
   <time name="dav">   53.72   54.07</time>
   <time name="total">   54.20   54.58</time>
   <energy>
    <i name="e_fr_energy">   -280.26620279 </i>
    <i name="e_wo_entrp">   -280.26620279 </i>
    <i name="e_0_energy">   -280.26620279 </i>
   </energy>
  </scstep>
  <scstep>
   <time name="dav">   44.83   45.15</time>
   <time name="total">   45.34   45.68</time>
   <energy>
    <i name="e_fr_energy">   -280.18046337 </i>
    <i name="e_wo_entrp">   -280.18046337 </i>
    <i name="e_0_energy">   -280.18046337 </i>
   </energy>
  </scstep>
  <scstep>
   <time name="dav">   49.17   49.50</time>
   <time name="total">   49.65   50.02</time>
   <energy>
    <i name="e_fr_energy">   -280.13598567 </i>
    <i name="e_wo_entrp">   -280.13598567 </i>
    <i name="e_0_energy">   -280.13598567 </i>
   </energy>
  </scstep>
  <scstep>
   <time name="dav">   49.91   50.34</time>
   <time name="total">   50.40   50.84</time>
   <energy>
    <i name="e_fr_energy">   -280.12780885 </i>
    <i name="e_wo_entrp">   -280.12780885 </i>
    <i name="e_0_energy">   -280.12780885 </i>
   </energy>
  </scstep>
  <scstep>
   <time name="dav">   52.39   52.72</time>
   <time name="total">   52.89   53.26</time>
   <energy>
    <i name="e_fr_energy">   -280.12818168 </i>
    <i name="e_wo_entrp">   -280.12818168 </i>
    <i name="e_0_energy">   -280.12818168 </i>
   </energy>
  </scstep>
  <scstep>
   <time name="dav">   49.93   50.21</time>
   <time name="total">   50.42   50.71</time>
   <energy>
    <i name="e_fr_energy">   -280.12749185 </i>
    <i name="e_wo_entrp">   -280.12749185 </i>
    <i name="e_0_energy">   -280.12749185 </i>
   </energy>
  </scstep>
  <scstep>
   <time name="dav">   48.23   48.43</time>
   <time name="total">   48.68   48.94</time>
   <energy>
    <i name="e_fr_energy">   -280.12731005 </i>
    <i name="e_wo_entrp">   -280.12731005 </i>
    <i name="e_0_energy">   -280.12731005 </i>
   </energy>
  </scstep>
  <scstep>
   <time name="dav">   50.63   51.11</time>
   <time name="total">   51.11   51.61</time>
   <energy>
    <i name="e_fr_energy">   -280.12732820 </i>
    <i name="e_wo_entrp">   -280.12732820 </i>
    <i name="e_0_energy">   -280.12732820 </i>
   </energy>
  </scstep>
  <scstep>
   <time name="dav">   50.86   51.10</time>
   <time name="total">   51.34   51.61</time>
   <energy>
    <i name="e_fr_energy">   -280.12733685 </i>
    <i name="e_wo_entrp">   -280.12733685 </i>
    <i name="e_0_energy">   -280.12733685 </i>
   </energy>
  </scstep>
  <scstep>
   <time name="dav">   45.73   46.14</time>
   <time name="total">   46.22   46.69</time>
   <energy>
    <i name="e_fr_energy">   -280.12734019 </i>
    <i name="e_wo_entrp">   -280.12734019 </i>
    <i name="e_0_energy">   -280.12734019 </i>
   </energy>
  </scstep>
  <scstep>
   <time name="dav">   40.99   41.04</time>
   <time name="total">   41.48   41.59</time>
   <energy>
    <i name="e_fr_energy">   -280.12734321 </i>
    <i name="e_wo_entrp">   -280.12734321 </i>
    <i name="e_0_energy">   -280.12734321 </i>
   </energy>
  </scstep>
  <scstep>
   <time name="dav">   36.92   37.23</time>
   <time name="total">   36.98   37.32</time>
   <energy>
    <i name="alphaZ">   1041.46724788 </i>
    <i name="ewald"> -29926.32730965 </i>
    <i name="hartreedc"> -12911.30775718 </i>
    <i name="XCdc">   1124.73996602 </i>
    <i name="pawpsdc">  43290.84527959 </i>
    <i name="pawaedc"> -42432.37238689 </i>
    <i name="eentropy">      0.00000000 </i>
    <i name="bandstr">  -3728.17569408 </i>
    <i name="atom">  43261.00331033 </i>
    <i name="e_fr_energy">   -280.12734397 </i>
    <i name="e_wo_entrp">   -280.12734397 </i>
    <i name="e_0_energy">   -280.12734397 </i>
   </energy>
  </scstep>
  <structure>
   <crystal>
    <varray name="basis" >
     <v>      11.22602305       0.00023497      -0.00350732 </v>
     <v>       0.00021699       9.51968915      -0.00315803 </v>
     <v>      -0.00348560      -0.00372301      11.26553864 </v>
    </varray>
    <i name="volume">   1203.92814811 </i>
    <varray name="rec_basis" >
     <v>       0.08907875      -0.00000202       0.00002756 </v>
     <v>      -0.00000219       0.10504546       0.00003471 </v>
     <v>       0.00002773       0.00002945       0.08876630 </v>
    </varray>
   </crystal>
   <varray name="positions" >
    <v>       0.88344339      -0.00214643       0.44049537 </v>
    <v>       0.87079494       0.00006884       0.68279461 </v>
    <v>       0.61612085       0.99715847       0.44942008 </v>
    <v>       0.60890101       0.00065096       0.18825979 </v>
    <v>       0.89186129       0.00070835       0.19317097 </v>
    <v>       0.12348851       0.00078042       0.68572168 </v>
    <v>       0.38221656       0.00014551       0.68670794 </v>
    <v>       0.61045999       0.00260563       0.92525202 </v>
    <v>       0.88892780       0.00309529       0.93135780 </v>
    <v>       0.00914977       0.29566450       0.06467846 </v>
    <v>       0.25002547       0.70891270       0.06477107 </v>
    <v>       0.24960852       0.29077548       0.31188838 </v>
    <v>       0.49089451       0.70420910       0.31244823 </v>
    <v>       0.49097372       0.29578885       0.06410757 </v>
    <v>       0.75022583       0.67853538       0.06349732 </v>
    <v>       0.75097722       0.31550086       0.31423407 </v>
    <v>       0.00795315       0.70889537       0.31320134 </v>
    <v>       0.00433515       0.29619861       0.55948820 </v>
    <v>       0.24980427       0.70366195       0.55737732 </v>
    <v>       0.24998267       0.29595836       0.81696802 </v>
    <v>       0.49581044       0.70294718       0.81318373 </v>
    <v>       0.49622699       0.29696120       0.56139361 </v>
    <v>       0.74997004       0.70392462       0.56358423 </v>
    <v>       0.74885097       0.30182383       0.80978330 </v>
    <v>       0.00515932       0.69786365       0.81388725 </v>
    <v>       0.25003463       0.32829540       0.05904550 </v>
    <v>      -0.00717268       0.67319830       0.06120589 </v>
    <v>       0.50689166       0.32700789       0.31247108 </v>
    <v>       0.25081950       0.67147677       0.31644777 </v>
    <v>       0.75002837       0.32733675       0.06276828 </v>
    <v>       0.50730143       0.67323804       0.06257278 </v>
    <v>       0.99314799       0.32730279       0.31208191 </v>
    <v>       0.74908762       0.67191631       0.31137048 </v>
    <v>       0.24991952       0.32870561       0.56721444 </v>
    <v>      -0.00156266       0.67181402       0.56495325 </v>
    <v>       0.50260550       0.32717074       0.81327740 </v>
    <v>       0.24924996       0.67147797       0.80895627 </v>
    <v>       0.74990768       0.32701746       0.56233870 </v>
    <v>       0.50193029       0.67246602       0.56296771 </v>
    <v>       0.99723981       0.32774523       0.81307288 </v>
    <v>       0.75058584       0.67369484       0.81494826 </v>
    <v>       0.51954786       0.07774611       0.06073703 </v>
    <v>       0.24987479       0.92348002       0.06118751 </v>
    <v>       0.25037871       0.07689558       0.31338677 </v>
    <v>      -0.01620938       0.91948065       0.31045243 </v>
    <v>       0.98025858       0.07772345       0.06129513 </v>
    <v>       0.74989649       0.93823612       0.06256054 </v>
    <v>       0.74620823       0.06555018       0.30725925 </v>
    <v>       0.51938633       0.92207434       0.31393200 </v>
    <v>       0.50132982       0.07913411       0.56317375 </v>
    <v>       0.25018093       0.92178978       0.58056058 </v>
    <v>       0.24989529       0.07802695       0.79454669 </v>
    <v>      -0.00664888       0.92495581       0.80636102 </v>
    <v>       0.99653744       0.07776449       0.57273279 </v>
    <v>       0.75137664       0.92302605       0.55276066 </v>
    <v>       0.75515028       0.07292166       0.82616577 </v>
    <v>       0.50127003       0.92085188       0.81151312 </v>
   </varray>
  </structure>
  <varray name="forces" >
   <v>       0.23709747      -0.11190097       0.13588708 </v>
   <v>      -0.40748473      -0.01375495      -0.17461349 </v>
   <v>       0.22137255      -0.07779754       0.11320914 </v>
   <v>       1.09202508       0.04138146      -0.12977300 </v>
   <v>      -1.23847100       0.37969226      -0.48648808 </v>
   <v>      -0.27728950      -0.01753699       0.10140124 </v>
   <v>       0.33460962      -0.01745538       0.00864470 </v>
   <v>       0.56325297       0.15913220      -0.08342499 </v>
   <v>      -0.40652376      -0.14328607       0.00096629 </v>
   <v>      -0.17059309      -0.17491683      -0.01229964 </v>
   <v>      -0.00825326       2.67325997      -0.19260894 </v>
   <v>       0.04616415      -2.57202707       0.16612946 </v>
   <v>       0.16117102       0.19718672      -0.06573758 </v>
   <v>       0.16108988      -0.18631648       0.07900791 </v>
   <v>       0.00193982       0.39014317       0.10241053 </v>
   <v>      -0.09198177      -0.45045107      -0.21830510 </v>
   <v>      -0.09906525      -0.13432119      -0.00495076 </v>
   <v>       0.08850326      -0.07248576      -0.02387695 </v>
   <v>      -0.04124353       0.17399061       0.17840014 </v>
   <v>      -0.06396391      -0.16258429      -0.17742304 </v>
   <v>      -0.05855911      -0.25479104       0.09809767 </v>
   <v>      -0.10954967       0.21267850      -0.13481475 </v>
   <v>       0.04405419       0.00794480      -0.09105734 </v>
   <v>       0.09346570      -0.41002181       0.18500714 </v>
   <v>       0.05048824       0.16890315       0.04571295 </v>
   <v>       0.00648783       0.03233234      -0.05174029 </v>
   <v>      -0.01462386      -0.07622624       0.00077031 </v>
   <v>       0.05176851       0.08537670      -0.00739813 </v>
   <v>      -0.01230947      -0.03910425       0.04412356 </v>
   <v>      -0.00345815       0.57749221      -0.03969552 </v>
   <v>       0.01281496      -0.07032152      -0.00901116 </v>
   <v>      -0.04006031       0.02474106      -0.05835826 </v>
   <v>       0.00957880      -0.50294282       0.05841712 </v>
   <v>       0.00613984       0.25070495       0.12181072 </v>
   <v>       0.02757003      -0.12123309       0.00297443 </v>
   <v>      -0.00828261      -0.02792544       0.04130783 </v>
   <v>       0.01393489      -0.24395202      -0.10894598 </v>
   <v>      -0.02211670       0.06097695       0.00655031 </v>
   <v>      -0.01214888      -0.01121368      -0.04058565 </v>
   <v>       0.00913030       0.13376099       0.05063488 </v>
   <v>      -0.02195754      -0.12056244      -0.02587124 </v>
   <v>       0.16172714       0.85676380      -0.49997988 </v>
   <v>       0.00009029      -2.27009090      -0.05278792 </v>
   <v>      -0.00403859       2.17802120       0.06982663 </v>
   <v>      -0.06969231      -0.45707336       0.88959246 </v>
   <v>      -0.12119587       0.86670483       0.01909323 </v>
   <v>       0.01111168      -1.19126613      -0.05800933 </v>
   <v>      -0.16538705       1.14398211       0.01034122 </v>
   <v>       0.24181659      -0.82244380       0.70857289 </v>
   <v>      -0.18846549       0.22137564       0.35320261 </v>
   <v>       0.18866671      -0.58905101       0.79970162 </v>
   <v>       0.15336746       0.54574265      -0.84880260 </v>
   <v>      -0.01285005      -0.59591705      -0.66802901 </v>
   <v>      -0.21224644       0.22100962       0.49552712 </v>
   <v>       0.17034374      -0.18874211      -0.37170865 </v>
   <v>       0.10976460       0.78983528       0.28493450 </v>
[...]
       <r>    8.8799    0.0000 </r>
       <r>    9.0408    0.0000 </r>
       <r>    9.0673    0.0000 </r>
       <r>    9.1565    0.0000 </r>
       <r>    9.2293    0.0000 </r>
       <r>    9.3746    0.0000 </r>
       <r>    9.9162    0.0000 </r>
       <r>   10.0170    0.0000 </r>
       <r>   10.2079    0.0000 </r>
       <r>   10.2709    0.0000 </r>
       <r>   10.3751    0.0000 </r>
       <r>   10.3859    0.0000 </r>
      </set>
     </set>
    </set>
   </array>
  </eigenvalues>
  <separator name="orbital magnetization" >
   <v name="MAGDIPOLOUT">      0.00000000      0.00000000      0.00000000</v>
  </separator>
  <dos>
   <i name="efermi">      4.19385471 </i>
   <total>
    <array>
     <dimension dim="1">gridpoints</dimension>
     <dimension dim="2">spin</dimension>
     <field>energy</field>
     <field>total</field>
     <field>integrated</field>
     <set>
      <set comment="spin 1">
       <r>   -42.4463     0.0000     0.0000 </r>
       <r>   -42.2616     0.0000     0.0000 </r>
       <r>   -42.0769     0.0000     0.0000 </r>
       <r>   -41.8921     0.0000     0.0000 </r>
       <r>   -41.7074     0.0000     0.0000 </r>
       <r>   -41.5227     0.0000     0.0000 </r>
       <r>   -41.3380     0.0000     0.0000 </r>
       <r>   -41.1533     0.0000     0.0000 </r>
       <r>   -40.9686     0.0000     0.0000 </r>
       <r>   -40.7839     0.0000     0.0000 </r>
       <r>   -40.5991     0.0000     0.0000 </r>
       <r>   -40.4144     0.0000     0.0000 </r>
       <r>   -40.2297     0.0000     0.0000 </r>
       <r>   -40.0450     0.0000     0.0000 </r>
       <r>   -39.8603     0.0000     2.0000 </r>
       <r>   -39.6756     0.0000     2.0000 </r>
       <r>   -39.4909     0.0000     4.0000 </r>
       <r>   -39.3062     0.0000     4.0000 </r>
       <r>   -39.1214     0.0000     4.0000 </r>
       <r>   -38.9367     0.0000     4.0000 </r>
       <r>   -38.7520     0.0000     4.0000 </r>
       <r>   -38.5673     0.0000     4.0000 </r>
       <r>   -38.3826     0.0000     4.0000 </r>
       <r>   -38.1979     0.0000     4.0000 </r>
       <r>   -38.0132     0.0000     4.0000 </r>
       <r>   -37.8284     0.0000     4.0000 </r>
       <r>   -37.6437     0.0000     4.0000 </r>
       <r>   -37.4590     0.0000     4.0000 </r>
       <r>   -37.2743     0.0000     4.0000 </r>
       <r>   -37.0896     0.0000     4.0000 </r>
       <r>   -36.9049     0.0000     4.0000 </r>
       <r>   -36.7202     0.0000     4.0000 </r>
       <r>   -36.5355     0.0000     4.0000 </r>
       <r>   -36.3507     0.0000     4.0000 </r>
       <r>   -36.1660     0.0000     4.0000 </r>
       <r>   -35.9813     0.0000     4.0000 </r>
       <r>   -35.7966     0.0000     4.0000 </r>
       <r>   -35.6119     0.0000     4.0000 </r>
       <r>   -35.4272     0.0000     4.0000 </r>
       <r>   -35.2425     0.0000     4.0000 </r>
       <r>   -35.0577     0.0000     4.0000 </r>
       <r>   -34.8730     0.0000     4.0000 </r>
       <r>   -34.6883     0.0000     4.0000 </r>
       <r>   -34.5036     0.0000     4.0000 </r>
       <r>   -34.3189     0.0000     4.0000 </r>
       <r>   -34.1342     0.0000     4.0000 </r>
       <r>   -33.9495     0.0000     4.0000 </r>
       <r>   -33.7648     0.0000     4.0000 </r>
       <r>   -33.5800     0.0000     4.0000 </r>
       <r>   -33.3953     0.0000     4.0000 </r>
       <r>   -33.2106     0.0000     4.0000 </r>
       <r>   -33.0259     0.0000     4.0000 </r>
       <r>   -32.8412     0.0000     4.0000 </r>
       <r>   -32.6565     0.0000     4.0000 </r>
       <r>   -32.4718     0.0000     4.0000 </r>
       <r>   -32.2870     0.0000     4.0000 </r>
       <r>   -32.1023     0.0000     4.0000 </r>
       <r>   -31.9176     0.0000     4.0000 </r>
       <r>   -31.7329     0.0000     4.0000 </r>
       <r>   -31.5482     0.0000     4.0000 </r>
       <r>   -31.3635     0.0000     4.0000 </r>
       <r>   -31.1788     0.0000     4.0000 </r>
       <r>   -30.9940     0.0000     4.0000 </r>
       <r>   -30.8093     0.0000     4.0000 </r>
       <r>   -30.6246     0.0000     4.0000 </r>
       <r>   -30.4399     0.0000     4.0000 </r>
       <r>   -30.2552     0.0000     4.0000 </r>
       <r>   -30.0705     0.0000     4.0000 </r>
       <r>   -29.8858     0.0000     4.0000 </r>
       <r>   -29.7011     0.0000     4.0000 </r>
       <r>   -29.5163     0.0000     4.0000 </r>
       <r>   -29.3316     0.0000     4.0000 </r>
       <r>   -29.1469     0.0000     4.0000 </r>
       <r>   -28.9622     0.0000     4.0000 </r>
       <r>   -28.7775     0.0000     4.0000 </r>
       <r>   -28.5928     0.0000     4.0000 </r>
       <r>   -28.4081     0.0000     4.0000 </r>
       <r>   -28.2233     0.0000     4.0000 </r>
       <r>   -28.0386     0.0000     4.0000 </r>
       <r>   -27.8539     0.0000     4.0000 </r>
       <r>   -27.6692     0.0000     4.0000 </r>
       <r>   -27.4845     0.0000     4.0000 </r>
       <r>   -27.2998     0.0000     4.0000 </r>
       <r>   -27.1151     0.0000     4.0000 </r>
       <r>   -26.9304     0.0000     4.0000 </r>
       <r>   -26.7456     0.0000     4.0000 </r>
       <r>   -26.5609     0.0000     4.0000 </r>
       <r>   -26.3762     0.0000     4.0000 </r>
       <r>   -26.1915     0.0000     4.0000 </r>
       <r>   -26.0068     0.0000     4.0000 </r>
       <r>   -25.8221     0.0000     4.0000 </r>
       <r>   -25.6374     0.0000     4.0000 </r>
       <r>   -25.4526     0.0000     4.0000 </r>
       <r>   -25.2679     0.0000     4.0000 </r>
       <r>   -25.0832     0.0000     4.0000 </r>
       <r>   -24.8985     0.0000     4.0000 </r>
       <r>   -24.7138     0.0000     4.0000 </r>
       <r>   -24.5291     0.0000     4.0000 </r>
       <r>   -24.3444     0.0000     4.0000 </r>
       <r>   -24.1597     0.0000     4.0000 </r>
       <r>   -23.9749     0.0000     4.0000 </r>
       <r>   -23.7902     0.0000     4.0000 </r>
       <r>   -23.6055     0.0000     4.0000 </r>
       <r>   -23.4208     0.0000     4.0000 </r>
       <r>   -23.2361     0.0000     4.0000 </r>
       <r>   -23.0514     0.0000     4.0000 </r>
       <r>   -22.8667     0.0000     4.0000 </r>
       <r>   -22.6819     0.0000     4.0000 </r>
       <r>   -22.4972     0.0000     4.0000 </r>
       <r>   -22.3125     0.0000     4.0000 </r>
       <r>   -22.1278     0.0000     4.0000 </r>
       <r>   -21.9431     0.0000     4.0000 </r>
       <r>   -21.7584     0.0000     4.0000 </r>
       <r>   -21.5737     0.0000     4.0000 </r>
       <r>   -21.3890     0.0000     4.0000 </r>
       <r>   -21.2042     0.0000     4.0000 </r>
       <r>   -21.0195     0.0000     4.0000 </r>
       <r>   -20.8348     0.0000     4.0000 </r>
       <r>   -20.6501     0.0000     4.0000 </r>
       <r>   -20.4654     0.0000     4.0000 </r>
       <r>   -20.2807     0.0000     4.0000 </r>
       <r>   -20.0960     0.0000     4.0000 </r>
       <r>   -19.9112     0.0000     4.0000 </r>
       <r>   -19.7265     0.0000     4.0000 </r>
       <r>   -19.5418     0.0000     4.0000 </r>
       <r>   -19.3571     0.0000     4.0000 </r>
       <r>   -19.1724     0.0000     4.0000 </r>
       <r>   -18.9877     0.0000     4.0000 </r>
       <r>   -18.8030     0.0000    22.0000 </r>
       <r>   -18.6183     0.0000    84.0000 </r>
       <r>   -18.4335     0.0000   148.0000 </r>
       <r>   -18.2488     0.0000   162.0000 </r>
       <r>   -18.0641     0.0000   164.0000 </r>
       <r>   -17.8794     0.0000   164.0000 </r>
       <r>   -17.6947     0.0000   164.0000 </r>
       <r>   -17.5100     0.0000   164.0000 </r>
       <r>   -17.3253     0.0000   164.0000 </r>
       <r>   -17.1405     0.0000   164.0000 </r>
       <r>   -16.9558     0.0000   164.0000 </r>
       <r>   -16.7711     0.0000   164.0000 </r>
       <r>   -16.5864     0.0000   164.0000 </r>
       <r>   -16.4017     0.0000   164.0000 </r>
       <r>   -16.2170     0.0000   164.0000 </r>
       <r>   -16.0323     0.0000   164.0000 </r>
       <r>   -15.8476     0.0000   164.0000 </r>
       <r>   -15.6628     0.0000   164.0000 </r>
       <r>   -15.4781     0.0000   164.0000 </r>
       <r>   -15.2934     0.0000   164.0000 </r>
       <r>   -15.1087     0.0000   164.0000 </r>
       <r>   -14.9240     0.0000   164.0000 </r>
       <r>   -14.7393     0.0000   164.0000 </r>
       <r>   -14.5546     0.0000   164.0000 </r>
       <r>   -14.3698     0.0000   164.0000 </r>
       <r>   -14.1851     0.0000   164.0000 </r>
       <r>   -14.0004     0.0000   166.0000 </r>
       <r>   -13.8157     0.0000   166.0000 </r>
       <r>   -13.6310     0.0000   166.0000 </r>
       <r>   -13.4463    48.5871   166.5118 </r>
       <r>   -13.2616    27.3874   170.5621 </r>
       <r>   -13.0768     0.0000   174.0000 </r>
       <r>   -12.8921     0.0000   182.0000 </r>
       <r>   -12.7074     0.0000   190.0000 </r>
       <r>   -12.5227     0.0000   196.0000 </r>
       <r>   -12.3380     0.0000   196.0000 </r>
       <r>   -12.1533     0.0000   196.0000 </r>
       <r>   -11.9686     0.0000   196.0000 </r>
       <r>   -11.7839     0.0000   196.0000 </r>
       <r>   -11.5991     0.0000   196.0000 </r>
       <r>   -11.4144     0.0000   196.0000 </r>
       <r>   -11.2297     0.0000   196.0000 </r>
       <r>   -11.0450     0.0000   196.0000 </r>
       <r>   -10.8603     0.0000   196.0000 </r>
       <r>   -10.6756     0.0000   196.0000 </r>
       <r>   -10.4909     0.0000   196.0000 </r>
       <r>   -10.3061     0.0000   196.0000 </r>
       <r>   -10.1214     0.0000   196.0000 </r>
       <r>    -9.9367     0.0000   196.0000 </r>
       <r>    -9.7520     0.0000   196.0000 </r>
       <r>    -9.5673     0.0000   196.0000 </r>
       <r>    -9.3826     0.0000   196.0000 </r>
       <r>    -9.1979    11.8175   196.6935 </r>
       <r>    -9.0132    11.5004   198.2017 </r>
       <r>    -8.8284     4.8536   200.1117 </r>
       <r>    -8.6437     9.4623   202.1656 </r>
       <r>    -8.4590    26.2920   205.0381 </r>
       <r>    -8.2743    19.3828   209.6921 </r>
       <r>    -8.0896     3.3698   212.0079 </r>
       <r>    -7.9049    30.4104   216.5707 </r>
       <r>    -7.7202    24.9368   221.7777 </r>
       <r>    -7.5354     9.2841   224.0900 </r>
       <r>    -7.3507     7.0686   227.8147 </r>
       <r>    -7.1660     0.0000   228.0000 </r>
       <r>    -6.9813     0.0000   228.0000 </r>
       <r>    -6.7966     0.0000   228.0000 </r>
       <r>    -6.6119     0.0000   228.0000 </r>
       <r>    -6.4272     2.2991   228.0325 </r>
       <r>    -6.2425    12.1045   230.2898 </r>
       <r>    -6.0577    26.9075   233.7717 </r>
       <r>    -5.8730     3.1230   238.0240 </r>
       <r>    -5.6883    18.0331   241.5582 </r>
       <r>    -5.5036    15.3309   244.9601 </r>
       <r>    -5.3189    15.5279   248.7865 </r>
       <r>    -5.1342    11.2772   250.8814 </r>
       <r>    -4.9495     2.5295   252.0435 </r>
       <r>    -4.7647    14.9608   254.4280 </r>
       <r>    -4.5800     6.3483   255.8406 </r>
       <r>    -4.3953     8.9020   257.0065 </r>
       <r>    -4.2106     6.8571   258.8675 </r>
       <r>    -4.0259     2.9687   259.6843 </r>
       <r>    -3.8412     0.3843   259.9948 </r>
       <r>    -3.6565     0.0000   260.0000 </r>
       <r>    -3.4718     0.0000   260.0000 </r>
       <r>    -3.2870     0.0000   260.0000 </r>
       <r>    -3.1023     0.0000   260.0000 </r>
       <r>    -2.9176     0.0000   260.0000 </r>
       <r>    -2.7329     0.0000   260.0000 </r>
       <r>    -2.5482     0.0000   260.0000 </r>
       <r>    -2.3635     0.0000   260.0000 </r>
       <r>    -2.1788     0.0000   260.0000 </r>
       <r>    -1.9940     0.0000   260.0000 </r>
       <r>    -1.8093     0.0000   260.0000 </r>
       <r>    -1.6246     0.0000   260.0000 </r>
       <r>    -1.4399     0.0000   260.0000 </r>
       <r>    -1.2552     0.0824   260.0002 </r>
       <r>    -1.0705     9.5561   261.3261 </r>
       <r>    -0.8858    10.2913   263.1631 </r>
       <r>    -0.7011    12.8029   265.3736 </r>
       <r>    -0.5163    13.8458   268.0798 </r>
       <r>    -0.3316    40.5146   272.2184 </r>
       <r>    -0.1469    38.1898   278.8795 </r>
       <r>     0.0378    39.4526   285.6156 </r>
       <r>     0.2225    38.6423   293.7741 </r>
       <r>     0.4072    41.1536   300.6163 </r>
       <r>     0.5919    38.8279   308.0815 </r>
       <r>     0.7767    43.9446   316.2378 </r>
       <r>     0.9614    55.8030   324.7199 </r>
       <r>     1.1461    45.1222   332.5288 </r>
       <r>     1.3308    43.2361   340.8130 </r>
       <r>     1.5155    53.6560   349.5147 </r>
       <r>     1.7002    46.3842   356.6105 </r>
       <r>     1.8849    40.7751   364.7190 </r>
       <r>     2.0697    44.1428   372.2684 </r>
       <r>     2.2544    45.3537   380.4745 </r>
       <r>     2.4391    62.3368   390.7184 </r>
       <r>     2.6238    57.4878   401.1133 </r>
       <r>     2.8085    60.7513   411.8623 </r>
       <r>     2.9932    55.6984   421.8026 </r>
       <r>     3.1779    43.7316   431.8974 </r>
       <r>     3.3626    27.0034   438.5061 </r>
       <r>     3.5474    25.3288   443.2801 </r>
       <r>     3.7321    25.0067   448.0080 </r>
       <r>     3.9168     8.2456   451.1816 </r>
       <r>     4.1015     1.2741   451.9629 </r>
       <r>     4.2862     0.0000   452.0000 </r>
       <r>     4.4709     0.0000   452.0000 </r>
       <r>     4.6556     0.0000   452.0000 </r>
       <r>     4.8404     0.0000   452.0000 </r>
       <r>     5.0251     0.0000   452.0000 </r>
       <r>     5.2098     0.0000   452.0000 </r>
       <r>     5.3945     5.4430   452.4103 </r>
       <r>     5.5792     9.5744   453.7450 </r>
       <r>     5.7639    17.1126   456.2454 </r>
       <r>     5.9486    18.0612   459.5743 </r>
       <r>     6.1333    16.8886   462.6464 </r>
       <r>     6.3181    16.6802   465.7638 </r>
       <r>     6.5028    16.7431   468.8937 </r>
       <r>     6.6875    16.7775   471.9968 </r>
       <r>     6.8722    19.3686   475.2702 </r>
       <r>     7.0569    25.2515   479.3668 </r>
       <r>     7.2416    30.7862   484.4905 </r>
       <r>     7.4263    29.2397   490.0033 </r>
       <r>     7.6111    23.7649   495.0861 </r>
       <r>     7.7958    35.3494   500.1925 </r>
       <r>     7.9805    29.3643   506.6410 </r>
       <r>     8.1652    30.2210   511.8262 </r>
       <r>     8.3499    28.8135   517.7756 </r>
       <r>     8.5346    29.0050   523.2505 </r>
       <r>     8.7193    27.3819   528.6227 </r>
       <r>     8.9040    26.5436   533.5333 </r>
       <r>     9.0888    23.9469   538.0152 </r>
       <r>     9.2735    19.7597   542.2090 </r>
       <r>     9.4582    20.9741   546.0493 </r>
       <r>     9.6429     5.6886   548.4715 </r>
       <r>     9.8276    13.9686   550.0586 </r>
       <r>    10.0123    13.5633   552.5046 </r>
       <r>    10.1970    16.1413   555.1507 </r>
       <r>    10.3818    19.6612   559.3899 </r>
       <r>    10.5665     0.0000   560.0000 </r>
       <r>    10.7512     0.0000   560.0000 </r>
       <r>    10.9359     0.0000   560.0000 </r>
       <r>    11.1206     0.0000   560.0000 </r>
       <r>    11.3053     0.0000   560.0000 </r>
       <r>    11.4900     0.0000   560.0000 </r>
       <r>    11.6747     0.0000   560.0000 </r>
       <r>    11.8595     0.0000   560.0000 </r>
       <r>    12.0442     0.0000   560.0000 </r>
       <r>    12.2289     0.0000   560.0000 </r>
       <r>    12.4136     0.0000   560.0000 </r>
       <r>    12.5983     0.0000   560.0000 </r>
       <r>    12.7830     0.0000   560.0000 </r>
       <r>    12.9677     0.0000   560.0000 </r>
      </set>
     </set>
    </array>
   </total>
  </dos>
 </calculation>
 <structure name="finalpos" >
  <crystal>
   <varray name="basis" >
    <v>      11.31432922       0.47805322       0.15115232 </v>
    <v>       0.41168281       9.52407386       0.04249217 </v>
    <v>       0.13873230       0.04778598      11.14618575 </v>
   </varray>
   <i name="volume">   1198.68579830 </i>
   <varray name="rec_basis" >
    <v>       0.08855954      -0.00382319      -0.00108588 </v>
    <v>      -0.00443923       0.10519074      -0.00039572 </v>
    <v>      -0.00118402      -0.00034917       0.08973302 </v>
   </varray>
  </crystal>
  <varray name="positions" >
   <v>       0.93357602      -0.05275454       0.47398698 </v>
   <v>       0.83979208       0.01906931       0.67484819 </v>
   <v>       0.64655385       0.01912906       0.44729510 </v>
   <v>       0.63119092       0.02289139       0.17501358 </v>
   <v>       0.87915641      -0.01817949       0.20206277 </v>
   <v>       0.11488194      -0.00613207       0.70725302 </v>
   <v>       0.38115298       0.00608609       0.66029154 </v>
   <v>       0.57665284       0.07008545       0.87722118 </v>
   <v>       0.85589748      -0.02182163       0.93083358 </v>
   <v>       0.01628256       0.25280436       0.06945558 </v>
   <v>       0.23363884       0.83604608       0.10866887 </v>
   <v>       0.25577803       0.13980472       0.26895725 </v>
   <v>       0.47979569       0.75380140       0.30414283 </v>
   <v>       0.50003116       0.34433669       0.06970972 </v>
   <v>       0.74950544       0.67784333       0.07447830 </v>
   <v>       0.75632523       0.32265210       0.30791716 </v>
   <v>      -0.00264676       0.65411204       0.31210177 </v>
   <v>       0.00081262       0.28989589       0.56141668 </v>
   <v>       0.25421059       0.69061336       0.56639594 </v>
   <v>       0.24704284       0.31229126       0.80474742 </v>
   <v>       0.49673816       0.71645956       0.81874905 </v>
   <v>       0.49360352       0.31933297       0.55308478 </v>
   <v>       0.75507707       0.70016214       0.56280851 </v>
   <v>       0.75302226       0.32155816       0.81600835 </v>
   <v>       0.00701799       0.67864404       0.81998211 </v>
   <v>       0.27168346       0.31591496       0.08538914 </v>
   <v>      -0.00814662       0.65542690       0.06356244 </v>
   <v>       0.51536688       0.33845066       0.31195012 </v>
   <v>       0.23102171       0.65748684       0.29117647 </v>
   <v>       0.77176041       0.36848285       0.06568423 </v>
   <v>       0.48828289       0.68244817       0.06839446 </v>
   <v>       0.01304723       0.28583373       0.31580831 </v>
   <v>       0.73412037       0.63391614       0.31899000 </v>
   <v>       0.25923264       0.35245174       0.56592570 </v>
   <v>      -0.00677588       0.64291215       0.56701734 </v>
   <v>       0.51121992       0.33161765       0.81240711 </v>
   <v>       0.24264480       0.65581499       0.80913805 </v>
   <v>       0.76163415       0.33091785       0.56899040 </v>
   <v>       0.49491637       0.67381876       0.57090365 </v>
   <v>       0.00632247       0.33732018       0.81690463 </v>
   <v>       0.73937821       0.67879799       0.81671541 </v>
   <v>       0.54941669       0.12422916       0.04643787 </v>
   <v>       0.14101580       0.04476816       0.15195000 </v>
   <v>       0.35477452      -0.06537852       0.21934816 </v>
   <v>      -0.03597021       0.86995928       0.32133415 </v>
   <v>       0.92653044       0.07785658       0.05491675 </v>
   <v>       0.75886443       0.90690087       0.07978655 </v>
   <v>       0.74742118       0.09490487       0.29569963 </v>
   <v>       0.57411987       0.92691146       0.31633212 </v>
   <v>       0.50458661       0.09627959       0.55300310 </v>
   <v>       0.24567137       0.90768188       0.59520898 </v>
   <v>       0.24742359       0.09875253       0.76776344 </v>
   <v>      -0.01481833       0.90475671       0.81150552 </v>
   <v>       0.99165950       0.07428734       0.59494166 </v>
   <v>       0.76986678       0.91847359       0.54588947 </v>
   <v>       0.74699855       0.09387387       0.82466121 </v>
   <v>       0.48625038       0.93560940       0.79682365 </v>
  </varray>
 </structure>
</modeling>
