<?xml version="1.0" encoding="ISO-8859-1"?>
<modeling>
 <generator>
  <i name="program" type="string">vasp </i>
  <i name="version" type="string">5.4.4.18Apr17-6-g9f103f2a35  </i>
  <i name="subversion" type="string">(build Jul 31 2017 11:33:29) complex            parallel </i>
  <i name="platform" type="string">LinuxIFC </i>
  <i name="date" type="string">2021 09 29 </i>
  <i name="time" type="string">04:00:31 </i>
 </generator>
 <incar>
  <i type="string" name="SYSTEM"> La2O2S</i>
  <i type="string" name="PREC">normal</i>
  <i type="int" name="NELMIN">     4</i>
  <i type="int" name="IBRION">     2</i>
  <i type="int" name="NFREE">    10</i>
  <i name="EDIFF">      0.00000100</i>
  <i name="EDIFFG">     -0.01000000</i>
  <i type="int" name="NSW">     1</i>
  <i type="int" name="ISIF">     2</i>
  <i name="ENCUT">    600.00000000</i>
  <i name="ENAUG">    900.00000000</i>
  <i type="int" name="ISMEAR">    -5</i>
  <i type="logical" name="LWAVE"> F  </i>
  <i type="logical" name="LCHARG"> F  </i>
  <v type="int" name="KPOINT_BSE">    -1     0     0     0</v>
 </incar>
 <structure name="primitive_cell" >
  <crystal>
   <varray name="basis" >
    <v>      11.17850000       0.00000000       0.00000000 </v>
    <v>       0.00000000       9.57460000       0.00000000 </v>
    <v>       0.00000000       0.00000000      11.18240000 </v>
   </varray>
   <i name="volume">   1196.84853820 </i>
   <varray name="rec_basis" >
    <v>       0.08945744       0.00000000       0.00000000 </v>
    <v>       0.00000000       0.10444301       0.00000000 </v>
    <v>       0.00000000       0.00000000       0.08942624 </v>
   </varray>
  </crystal>
  <varray name="positions" >
   <v>       0.37539000       0.00017000       0.43687000 </v>
   <v>      -0.49987000      -0.07798000       0.31246000 </v>
   <v>       0.25013000       0.07798000       0.31246000 </v>
   <v>       0.49987000       0.07798000      -0.43754000 </v>
   <v>       0.24987000      -0.07798000      -0.43754000 </v>
   <v>      -0.37461000      -0.00016000       0.43687000 </v>
   <v>       0.37461000       0.00017000       0.18687000 </v>
   <v>       0.37461000       0.00017000      -0.31313000 </v>
   <v>       0.49987000      -0.29519000       0.31282000 </v>
   <v>       0.24987000       0.29519000       0.31282000 </v>
   <v>      -0.49987000       0.29519000      -0.43719000 </v>
   <v>       0.25013000      -0.29519000      -0.43719000 </v>
   <v>       0.49995000       0.32677000       0.31286000 </v>
   <v>       0.24995000      -0.32677000       0.31286000 </v>
   <v>      -0.49995000      -0.32677000      -0.43714000 </v>
   <v>       0.25005000       0.32677000      -0.43714000 </v>
   <v>      -0.37539000      -0.00016000      -0.31313000 </v>
   <v>      -0.37539000      -0.00016000       0.18687000 </v>
   <v>       0.12461000      -0.00016000      -0.31313000 </v>
   <v>       0.12461000      -0.00016000       0.18687000 </v>
   <v>       0.49987000       0.07798000       0.06246000 </v>
   <v>      -0.24987000       0.07798000       0.31246000 </v>
   <v>      -0.25013000      -0.07798000      -0.43754000 </v>
   <v>       0.24987000      -0.07798000       0.06246000 </v>
   <v>       0.00013000      -0.07798000       0.31246000 </v>
   <v>      -0.49987000      -0.07798000      -0.18754000 </v>
   <v>      -0.00013000       0.07798000      -0.43754000 </v>
   <v>       0.25013000       0.07798000      -0.18754000 </v>
   <v>      -0.49987000       0.29519000       0.06281000 </v>
   <v>      -0.25013000       0.29519000       0.31282000 </v>
   <v>       0.25013000      -0.29519000       0.06281000 </v>
   <v>      -0.24987000      -0.29519000      -0.43719000 </v>
   <v>      -0.00013000      -0.29519000       0.31282000 </v>
   <v>       0.00013000       0.29519000      -0.43719000 </v>
   <v>       0.49987000      -0.29519000      -0.18718000 </v>
   <v>       0.24987000       0.29519000      -0.18718000 </v>
   <v>      -0.49995000      -0.32677000       0.06286000 </v>
   <v>       0.25005000       0.32677000       0.06286000 </v>
   <v>      -0.25005000      -0.32677000       0.31286000 </v>
   <v>      -0.24995000       0.32677000      -0.43714000 </v>
   <v>      -0.00005000       0.32677000       0.31286000 </v>
   <v>       0.00005000      -0.32677000      -0.43714000 </v>
   <v>       0.49995000       0.32677000      -0.18714000 </v>
   <v>       0.24995000      -0.32677000      -0.18714000 </v>
   <v>      -0.12461000       0.00017000       0.43687000 </v>
   <v>       0.37539000       0.00017000      -0.06313000 </v>
   <v>      -0.25013000      -0.07798000       0.06246000 </v>
   <v>      -0.00013000       0.07798000       0.06246000 </v>
   <v>      -0.24987000       0.07798000      -0.18754000 </v>
   <v>       0.00013000      -0.07798000      -0.18754000 </v>
   <v>      -0.12539000       0.00017000      -0.31313000 </v>
   <v>       0.12539000      -0.00016000      -0.06313000 </v>
   <v>      -0.24987000      -0.29519000       0.06281000 </v>
   <v>       0.00013000       0.29519000       0.06281000 </v>
   <v>      -0.25013000       0.29519000      -0.18718000 </v>
   <v>      -0.00013000      -0.29519000      -0.18718000 </v>
   <v>      -0.24995000       0.32677000       0.06286000 </v>
   <v>       0.00005000      -0.32677000       0.06286000 </v>
   <v>      -0.25005000      -0.32677000      -0.18714000 </v>
   <v>      -0.00005000       0.32677000      -0.18714000 </v>
   <v>      -0.12461000       0.00017000      -0.06313000 </v>
  </varray>
 </structure>
 <varray name="primitive_index" >
  <v type="int" >        1 </v>
  <v type="int" >       53 </v>
  <v type="int" >       48 </v>
  <v type="int" >       54 </v>
  <v type="int" >       55 </v>
  <v type="int" >        3 </v>
  <v type="int" >        2 </v>
  <v type="int" >        8 </v>
  <v type="int" >       17 </v>
  <v type="int" >       16 </v>
  <v type="int" >       26 </v>
  <v type="int" >       23 </v>
  <v type="int" >       32 </v>
  <v type="int" >       33 </v>
  <v type="int" >       43 </v>
  <v type="int" >       38 </v>
  <v type="int" >        9 </v>
  <v type="int" >       12 </v>
  <v type="int" >        7 </v>
  <v type="int" >       11 </v>
  <v type="int" >       46 </v>
  <v type="int" >       52 </v>
  <v type="int" >       59 </v>
  <v type="int" >       47 </v>
  <v type="int" >       49 </v>
  <v type="int" >       61 </v>
  <v type="int" >       58 </v>
  <v type="int" >       56 </v>
  <v type="int" >       18 </v>
  <v type="int" >       20 </v>
  <v type="int" >       15 </v>
  <v type="int" >       27 </v>
  <v type="int" >       21 </v>
  <v type="int" >       22 </v>
  <v type="int" >       25 </v>
  <v type="int" >       24 </v>
  <v type="int" >       35 </v>
  <v type="int" >       30 </v>
  <v type="int" >       37 </v>
  <v type="int" >       42 </v>
  <v type="int" >       36 </v>
  <v type="int" >       39 </v>
  <v type="int" >       40 </v>
  <v type="int" >       41 </v>
  <v type="int" >        4 </v>
  <v type="int" >        6 </v>
  <v type="int" >       51 </v>
  <v type="int" >       50 </v>
  <v type="int" >       60 </v>
  <v type="int" >       57 </v>
  <v type="int" >       10 </v>
  <v type="int" >        5 </v>
  <v type="int" >       19 </v>
  <v type="int" >       14 </v>
  <v type="int" >       28 </v>
  <v type="int" >       29 </v>
  <v type="int" >       34 </v>
  <v type="int" >       31 </v>
  <v type="int" >       45 </v>
  <v type="int" >       44 </v>
  <v type="int" >       13 </v>
 </varray>
 <kpoints>
  <generation param="Gamma">
   <v type="int" name="divisions">       2        2        2 </v>
   <v name="usershift">      0.00000000       0.00000000       0.00000000 </v>
   <v name="genvec1">      0.50000000       0.00000000       0.00000000 </v>
   <v name="genvec2">      0.00000000       0.50000000       0.00000000 </v>
   <v name="genvec3">      0.00000000       0.00000000       0.50000000 </v>
   <v name="shift">      0.00000000       0.00000000       0.00000000 </v>
  </generation>
  <varray name="kpointlist" >
   <v>       0.00000000       0.00000000       0.00000000 </v>
   <v>       0.50000000       0.00000000       0.00000000 </v>
   <v>       0.00000000       0.50000000       0.00000000 </v>
   <v>       0.50000000       0.50000000       0.00000000 </v>
   <v>       0.00000000       0.00000000       0.50000000 </v>
   <v>       0.50000000       0.00000000       0.50000000 </v>
   <v>       0.00000000       0.50000000       0.50000000 </v>
   <v>       0.50000000       0.50000000       0.50000000 </v>
  </varray>
  <varray name="weights" >
   <v>       0.12500000 </v>
   <v>       0.12500000 </v>
   <v>       0.12500000 </v>
   <v>       0.12500000 </v>
   <v>       0.12500000 </v>
   <v>       0.12500000 </v>
   <v>       0.12500000 </v>
   <v>       0.12500000 </v>
  </varray>
  <varray name="tetrahedronlist"  type="int" >
   <v type="int" >        2        1        2        4        5 </v>
   <v type="int" >        2        1        3        4        5 </v>
   <v type="int" >        2        3        4        5        7 </v>
   <v type="int" >        2        2        4        5        6 </v>
   <v type="int" >        2        4        5        6        8 </v>
   <v type="int" >        2        4        5        7        8 </v>
   <v type="int" >        2        1        2        3        6 </v>
   <v type="int" >        2        2        3        4        6 </v>
   <v type="int" >        2        3        4        6        8 </v>
   <v type="int" >        2        1        3        5        6 </v>
   <v type="int" >        2        3        5        6        7 </v>
   <v type="int" >        2        3        6        7        8 </v>
   <v type="int" >        2        2        3        4        7 </v>
   <v type="int" >        2        1        2        3        7 </v>
   <v type="int" >        2        1        2        5        7 </v>
   <v type="int" >        2        2        4        7        8 </v>
   <v type="int" >        2        2        6        7        8 </v>
   <v type="int" >        2        2        5        6        7 </v>
   <v type="int" >        2        1        3        4        8 </v>
   <v type="int" >        2        1        2        4        8 </v>
   <v type="int" >        2        1        2        6        8 </v>
   <v type="int" >        2        1        3        7        8 </v>
   <v type="int" >        2        1        5        7        8 </v>
   <v type="int" >        2        1        5        6        8 </v>
  </varray>
  <i name="volumeweight">      0.02083333 </i>
 </kpoints>
 <parameters>
  <separator name="general" >
   <i type="string" name="SYSTEM">La2O2S</i>
   <i type="logical" name="LCOMPAT"> F  </i>
  </separator>
  <separator name="electronic" >
   <i type="string" name="PREC">normal</i>
   <i name="ENMAX">    600.00000000</i>
   <i name="ENAUG">    900.00000000</i>
   <i name="EDIFF">      0.00000100</i>
   <i type="int" name="IALGO">    38</i>
   <i type="int" name="IWAVPR">    11</i>
   <i type="int" name="NBANDS">   280</i>
   <i name="NELECT">    468.00000000</i>
   <i type="int" name="TURBO">     0</i>
   <i type="int" name="IRESTART">     0</i>
   <i type="int" name="NREBOOT">     0</i>
   <i type="int" name="NMIN">     0</i>
   <i name="EREF">      0.00000000</i>
   <separator name="electronic smearing" >
    <i type="int" name="ISMEAR">    -5</i>
    <i name="SIGMA">      0.20000000</i>
    <i name="KSPACING">      0.50000000</i>
    <i type="logical" name="KGAMMA"> T  </i>
   </separator>
   <separator name="electronic projectors" >
    <i type="logical" name="LREAL"> F  </i>
    <v name="ROPT">      0.00000000      0.00000000      0.00000000      0.00000000      0.00000000</v>
    <i type="int" name="LMAXPAW">  -100</i>
    <i type="int" name="LMAXMIX">     2</i>
    <i type="logical" name="NLSPLINE"> F  </i>
   </separator>
   <separator name="electronic startup" >
    <i type="int" name="ISTART">     0</i>
    <i type="int" name="ICHARG">     2</i>
    <i type="int" name="INIWAV">     1</i>
   </separator>
   <separator name="electronic spin" >
    <i type="int" name="ISPIN">     1</i>
    <i type="logical" name="LNONCOLLINEAR"> F  </i>
    <v name="MAGMOM">      1.00000000      1.00000000      1.00000000      1.00000000      1.00000000      1.00000000      1.00000000      1.00000000      1.00000000      1.00000000      1.00000000      1.00000000      1.00000000      1.00000000      1.00000000      1.00000000      1.00000000      1.00000000      1.00000000      1.00000000
      1.00000000      1.00000000      1.00000000      1.00000000      1.00000000      1.00000000      1.00000000      1.00000000      1.00000000      1.00000000      1.00000000      1.00000000      1.00000000      1.00000000      1.00000000      1.00000000      1.00000000      1.00000000      1.00000000      1.00000000
      1.00000000      1.00000000      1.00000000      1.00000000      1.00000000      1.00000000      1.00000000      1.00000000      1.00000000      1.00000000      1.00000000      1.00000000      1.00000000      1.00000000      1.00000000      1.00000000      1.00000000      1.00000000      1.00000000      1.00000000
      1.00000000</v>
    <i name="NUPDOWN">     -1.00000000</i>
    <i type="logical" name="LSORBIT"> F  </i>
    <v name="SAXIS">      0.00000000      0.00000000      1.00000000</v>
    <i type="logical" name="LSPIRAL"> F  </i>
    <v name="QSPIRAL">      0.00000000      0.00000000      0.00000000</v>
    <i type="logical" name="LZEROZ"> F  </i>
   </separator>
   <separator name="electronic exchange-correlation" >
    <i type="logical" name="LASPH"> F  </i>
    <i type="logical" name="LMETAGGA"> F  </i>
   </separator>
   <separator name="electronic convergence" >
    <i type="int" name="NELM">    60</i>
    <i type="int" name="NELMDL">    -5</i>
    <i type="int" name="NELMIN">     4</i>
    <i name="ENINI">    600.00000000</i>
    <separator name="electronic convergence detail" >
     <i type="logical" name="LDIAG"> T  </i>
     <i type="logical" name="LSUBROT"> F  </i>
     <i name="WEIMIN">      0.00100000</i>
     <i name="EBREAK">      0.00000000</i>
     <i name="DEPER">      0.30000000</i>
     <i type="int" name="NRMM">     4</i>
     <i name="TIME">      0.40000000</i>
    </separator>
   </separator>
   <separator name="electronic mixer" >
    <i name="AMIX">      0.40000000</i>
    <i name="BMIX">      1.00000000</i>
    <i name="AMIN">      0.10000000</i>
    <i name="AMIX_MAG">      1.60000000</i>
    <i name="BMIX_MAG">      1.00000000</i>
    <separator name="electronic mixer details" >
     <i type="int" name="IMIX">     4</i>
     <i type="logical" name="MIXFIRST"> F  </i>
     <i type="int" name="MAXMIX">   -45</i>
     <i name="WC">    100.00000000</i>
     <i type="int" name="INIMIX">     1</i>
     <i type="int" name="MIXPRE">     1</i>
     <i type="int" name="MREMOVE">     5</i>
    </separator>
   </separator>
   <separator name="electronic dipolcorrection" >
    <i type="logical" name="LDIPOL"> F  </i>
    <i type="logical" name="LMONO"> F  </i>
    <i type="int" name="IDIPOL">     0</i>
    <i name="EPSILON">      1.00000000</i>
    <v name="DIPOL">   -100.00000000   -100.00000000   -100.00000000</v>
    <i name="EFIELD">      0.00000000</i>
   </separator>
  </separator>
  <separator name="grids" >
   <i type="int" name="NGX">    70</i>
   <i type="int" name="NGY">    60</i>
   <i type="int" name="NGZ">    70</i>
   <i type="int" name="NGXF">   140</i>
   <i type="int" name="NGYF">   120</i>
   <i type="int" name="NGZF">   140</i>
   <i type="logical" name="ADDGRID"> F  </i>
  </separator>
  <separator name="ionic" >
   <i type="int" name="NSW">     1</i>
   <i type="int" name="IBRION">     2</i>
   <i type="int" name="MDALGO">     0</i>
   <i type="int" name="ISIF">     2</i>
   <i name="PSTRESS">      0.00000000</i>
   <i name="EDIFFG">     -0.01000000</i>
   <i type="int" name="NFREE">    10</i>
   <i name="POTIM">      0.50000000</i>
   <i name="SMASS">     -3.00000000</i>
   <i name="SCALEE">      1.00000000</i>
  </separator>
  <separator name="ionic md" >
   <i name="TEBEG">      0.00010000</i>
   <i name="TEEND">      0.00010000</i>
   <i type="int" name="NBLOCK">     1</i>
   <i type="int" name="KBLOCK">     1</i>
   <i type="int" name="NPACO">   256</i>
   <i name="APACO">     16.00000000</i>
  </separator>
  <separator name="symmetry" >
   <i type="int" name="ISYM">     2</i>
   <i name="SYMPREC">      0.00001000</i>
  </separator>
  <separator name="dos" >
   <i type="int" name="LORBIT">     0</i>
   <v name="RWIGS">     -1.00000000     -1.00000000     -1.00000000     -1.00000000     -1.00000000</v>
   <i type="int" name="NEDOS">   301</i>
   <i name="EMIN">     10.00000000</i>
   <i name="EMAX">    -10.00000000</i>
   <i name="EFERMI">      0.00000000</i>
  </separator>
  <separator name="writing" >
   <i type="int" name="NWRITE">     2</i>
   <i type="logical" name="LWAVE"> F  </i>
   <i type="logical" name="LDOWNSAMPLE"> F  </i>
   <i type="logical" name="LCHARG"> F  </i>
   <i type="logical" name="LPARD"> F  </i>
   <i type="logical" name="LVTOT"> F  </i>
   <i type="logical" name="LVHAR"> F  </i>
   <i type="logical" name="LELF"> F  </i>
   <i type="logical" name="LOPTICS"> F  </i>
   <v name="STM">      0.00000000      0.00000000      0.00000000      0.00000000      0.00000000      0.00000000      0.00000000</v>
  </separator>
  <separator name="performance" >
   <i type="int" name="NPAR">    28</i>
   <i type="int" name="NSIM">     4</i>
   <i type="int" name="NBLK">    -1</i>
   <i type="logical" name="LPLANE"> T  </i>
   <i type="logical" name="LSCALAPACK"> T  </i>
   <i type="logical" name="LSCAAWARE"> F  </i>
   <i type="logical" name="LSCALU"> F  </i>
   <i type="logical" name="LASYNC"> F  </i>
   <i type="logical" name="LORBITALREAL"> F  </i>
  </separator>
  <separator name="miscellaneous" >
   <i type="int" name="IDIOT">     3</i>
   <i type="int" name="ISPECIAL">     0</i>
   <i type="logical" name="LMUSIC"> F  </i>
   <v name="POMASS">      7.01000000     24.30500000    208.98000000     32.06600000     16.00000000</v>
   <v name="DARWINR">      0.00000000      0.00000000      0.00000000      0.00000000      0.00000000</v>
   <v name="DARWINV">      1.00000000      1.00000000      1.00000000      1.00000000      1.00000000</v>
   <i type="logical" name="LCORR"> T  </i>
  </separator>
  <i type="logical" name="GGA_COMPAT"> T  </i>
  <i type="logical" name="LBERRY"> F  </i>
  <i type="int" name="ICORELEVEL">     0</i>
  <i type="logical" name="LDAU"> F  </i>
  <i type="int" name="I_CONSTRAINED_M">     0</i>
  <separator name="electronic exchange-correlation" >
   <i type="string" name="GGA">--</i>
   <i type="int" name="VOSKOWN">     0</i>
   <i type="logical" name="LHFCALC"> F  </i>
   <i type="string" name="PRECFOCK"></i>
   <i type="logical" name="LSYMGRAD"> F  </i>
   <i type="logical" name="LHFONE"> F  </i>
   <i type="logical" name="LRHFCALC"> F  </i>
   <i type="logical" name="LTHOMAS"> F  </i>
   <i type="logical" name="LMODELHF"> F  </i>
   <i name="ENCUT4O">     -1.00000000</i>
   <i type="int" name="EXXOEP">     0</i>
   <i type="int" name="FOURORBIT">     0</i>
   <i name="AEXX">      0.00000000</i>
   <i name="HFALPHA">      0.00000000</i>
   <i name="MCALPHA">      0.00000000</i>
   <i name="ALDAX">      1.00000000</i>
   <i name="AGGAX">      1.00000000</i>
   <i name="ALDAC">      1.00000000</i>
   <i name="AGGAC">      1.00000000</i>
   <i type="int" name="NKREDX">     1</i>
   <i type="int" name="NKREDY">     1</i>
   <i type="int" name="NKREDZ">     1</i>
   <i type="logical" name="SHIFTRED"> F  </i>
   <i type="logical" name="ODDONLY"> F  </i>
   <i type="logical" name="EVENONLY"> F  </i>
   <i type="int" name="LMAXFOCK">     0</i>
   <i type="int" name="NMAXFOCKAE">     0</i>
   <i type="logical" name="LFOCKAEDFT"> F  </i>
   <i name="HFSCREEN">      0.00000000</i>
   <i name="HFSCREENC">      0.00000000</i>
   <i type="int" name="NBANDSGWLOW">     0</i>
  </separator>
  <separator name="vdW DFT" >
   <i type="logical" name="LUSE_VDW"> F  </i>
   <i name="Zab_VDW">     -0.84910000</i>
   <i name="PARAM1">      0.12340000</i>
   <i name="PARAM2">      1.00000000</i>
   <i name="PARAM3">      0.00000000</i>
  </separator>
  <separator name="model GW" >
   <i type="int" name="MODEL_GW">     0</i>
   <i name="MODEL_EPS0">     11.77228070</i>
   <i name="MODEL_ALPHA">      1.00000000</i>
  </separator>
  <separator name="linear response parameters" >
   <i type="logical" name="LEPSILON"> F  </i>
   <i type="logical" name="LRPA"> F  </i>
   <i type="logical" name="LNABLA"> F  </i>
   <i type="logical" name="LVEL"> F  </i>
   <i type="int" name="KINTER">     0</i>
   <i name="CSHIFT">      0.10000000</i>
   <i name="OMEGAMAX">     -1.00000000</i>
   <i name="DEG_THRESHOLD">      0.00200000</i>
   <i name="RTIME">     -0.10000000</i>
   <i name="WPLASMAI">      0.00000000</i>
   <v name="DFIELD">      0.00000000      0.00000000      0.00000000</v>
   <v name="WPLASMA">      0.00000000      0.00000000      0.00000000      0.00000000      0.00000000      0.00000000      0.00000000      0.00000000      0.00000000</v>
  </separator>
  <separator name="orbital magnetization" >
   <i type="logical" name="NUCIND"> F  </i>
   <v name="MAGPOS">      0.00000000      0.00000000      0.00000000</v>
   <i type="logical" name="LNICSALL"> T  </i>
   <i type="logical" name="ORBITALMAG"> F  </i>
   <i type="logical" name="LMAGBLOCH"> F  </i>
   <i type="logical" name="LCHIMAG"> F  </i>
   <i type="logical" name="LGAUGE"> T  </i>
   <i type="int" name="MAGATOM">     0</i>
   <v name="MAGDIPOL">      0.00000000      0.00000000      0.00000000</v>
   <v name="AVECCONST">      0.00000000      0.00000000      0.00000000</v>
  </separator>
  <separator name="response functions" >
   <i type="logical" name="LADDER"> F  </i>
   <i type="logical" name="LRPAFORCE"> F  </i>
   <i type="logical" name="LFXC"> F  </i>
   <i type="logical" name="LHARTREE"> T  </i>
   <i type="int" name="IBSE">     0</i>
   <v type="int" name="KPOINT">    -1     0     0     0</v>
   <i type="logical" name="LTCTE"> F  </i>
   <i type="logical" name="LTETE"> F  </i>
   <i type="logical" name="LTRIPLET"> F  </i>
   <i type="logical" name="LFXCEPS"> F  </i>
   <i type="logical" name="LFXHEG"> F  </i>
   <i type="int" name="NATURALO">     2</i>
   <i type="logical" name="L2ORDER"> F  </i>
   <i type="logical" name="LMP2LT"> F  </i>
   <i type="logical" name="LUSEW"> F  </i>
   <i name="ENCUTGW">     -2.00000000</i>
   <i name="ENCUTGWSOFT">     -2.00000000</i>
   <i name="ENCUTLF">     -1.00000000</i>
   <i type="int" name="LMAXMP2">    -1</i>
   <i name="SCISSOR">      0.00000000</i>
   <i type="int" name="NOMEGA">     0</i>
   <i type="int" name="NOMEGAR">     0</i>
   <i type="int" name="NBANDSGW">    -1</i>
   <i type="int" name="NBANDSO">    -1</i>
   <i type="int" name="NBANDSV">    -1</i>
   <i type="int" name="NELM">     1</i>
   <i type="int" name="NELMHF">     1</i>
   <i type="int" name="DIM">     3</i>
   <i type="int" name="ANTIRES">     0</i>
   <i name="OMEGAMAX">    -30.00000000</i>
   <i name="OMEGAMIN">    -30.00000000</i>
   <i name="OMEGATL">   -200.00000000</i>
   <i type="int" name="OMEGAGRID">   140</i>
   <i name="CSHIFT">     -0.10000000</i>
   <i type="logical" name="SELFENERGY"> F  </i>
   <i type="logical" name="LSPECTRAL"> F  </i>
   <i type="logical" name="LSPECTRALGW"> F  </i>
   <i type="logical" name="LSINGLES"> F  </i>
   <i type="logical" name="LFERMIGW"> F  </i>
   <i type="logical" name="ODDONLYGW"> F  </i>
   <i type="logical" name="EVENONLYGW"> F  </i>
   <i type="int" name="NKREDLFX">     1</i>
   <i type="int" name="NKREDLFY">     1</i>
   <i type="int" name="NKREDLFZ">     1</i>
   <i type="int" name="MAXMEM">  2800</i>
   <i type="int" name="TELESCOPE">     0</i>
   <i type="int" name="TAUPAR">     1</i>
   <i type="int" name="OMEGAPAR">    -1</i>
   <i name="LAMBDA">      1.00000000</i>
  </separator>
  <separator name="External order field" >
   <i name="OFIELD_KAPPA">      0.00000000</i>
   <v name="OFIELD_K">      0.00000000      0.00000000      0.00000000</v>
   <i name="OFIELD_Q6_NEAR">      0.00000000</i>
   <i name="OFIELD_Q6_FAR">      0.00000000</i>
   <i name="OFIELD_A">      0.00000000</i>
  </separator>
 </parameters>
 <atominfo>
  <atoms>      61 </atoms>
  <types>       5 </types>
  <array name="atoms" >
   <dimension dim="1">ion</dimension>
   <field type="string">element</field>
   <field type="int">atomtype</field>
   <set>
    <rc><c>Li</c><c>   1</c></rc>
    <rc><c>Li</c><c>   1</c></rc>
    <rc><c>Li</c><c>   1</c></rc>
    <rc><c>Li</c><c>   1</c></rc>
    <rc><c>Li</c><c>   1</c></rc>
    <rc><c>Li</c><c>   1</c></rc>
    <rc><c>Li</c><c>   1</c></rc>
    <rc><c>Li</c><c>   1</c></rc>
    <rc><c>Li</c><c>   1</c></rc>
    <rc><c>Li</c><c>   1</c></rc>
    <rc><c>Mg</c><c>   2</c></rc>
    <rc><c>Mg</c><c>   2</c></rc>
    <rc><c>Mg</c><c>   2</c></rc>
    <rc><c>Bi</c><c>   3</c></rc>
    <rc><c>Bi</c><c>   3</c></rc>
    <rc><c>Bi</c><c>   3</c></rc>
    <rc><c>Bi</c><c>   3</c></rc>
    <rc><c>Bi</c><c>   3</c></rc>
    <rc><c>Bi</c><c>   3</c></rc>
    <rc><c>Bi</c><c>   3</c></rc>
    <rc><c>Bi</c><c>   3</c></rc>
    <rc><c>Bi</c><c>   3</c></rc>
    <rc><c>Bi</c><c>   3</c></rc>
    <rc><c>Bi</c><c>   3</c></rc>
    <rc><c>Bi</c><c>   3</c></rc>
    <rc><c>Bi</c><c>   3</c></rc>
    <rc><c>Bi</c><c>   3</c></rc>
    <rc><c>Bi</c><c>   3</c></rc>
    <rc><c>Bi</c><c>   3</c></rc>
    <rc><c>S </c><c>   4</c></rc>
    <rc><c>S </c><c>   4</c></rc>
    <rc><c>S </c><c>   4</c></rc>
    <rc><c>S </c><c>   4</c></rc>
    <rc><c>S </c><c>   4</c></rc>
    <rc><c>S </c><c>   4</c></rc>
    <rc><c>S </c><c>   4</c></rc>
    <rc><c>S </c><c>   4</c></rc>
    <rc><c>S </c><c>   4</c></rc>
    <rc><c>S </c><c>   4</c></rc>
    <rc><c>S </c><c>   4</c></rc>
    <rc><c>S </c><c>   4</c></rc>
    <rc><c>S </c><c>   4</c></rc>
    <rc><c>S </c><c>   4</c></rc>
    <rc><c>S </c><c>   4</c></rc>
    <rc><c>S </c><c>   4</c></rc>
    <rc><c>O </c><c>   5</c></rc>
    <rc><c>O </c><c>   5</c></rc>
    <rc><c>O </c><c>   5</c></rc>
    <rc><c>O </c><c>   5</c></rc>
    <rc><c>O </c><c>   5</c></rc>
    <rc><c>O </c><c>   5</c></rc>
    <rc><c>O </c><c>   5</c></rc>
    <rc><c>O </c><c>   5</c></rc>
    <rc><c>O </c><c>   5</c></rc>
    <rc><c>O </c><c>   5</c></rc>
    <rc><c>O </c><c>   5</c></rc>
    <rc><c>O </c><c>   5</c></rc>
    <rc><c>O </c><c>   5</c></rc>
    <rc><c>O </c><c>   5</c></rc>
    <rc><c>O </c><c>   5</c></rc>
    <rc><c>O </c><c>   5</c></rc>
   </set>
  </array>
  <array name="atomtypes" >
   <dimension dim="1">type</dimension>
   <field type="int">atomspertype</field>
   <field type="string">element</field>
   <field>mass</field>
   <field>valence</field>
   <field type="string">pseudopotential</field>
   <set>
    <rc><c>  10</c><c>Li</c><c>      7.01000000</c><c>      3.00000000</c><c>  PAW_PBE Li_sv 10Sep2004               </c></rc>
    <rc><c>   3</c><c>Mg</c><c>     24.30500000</c><c>      2.00000000</c><c>  PAW_PBE Mg 13Apr2007                  </c></rc>
    <rc><c>  16</c><c>Bi</c><c>    208.98000000</c><c>     15.00000000</c><c>  PAW_PBE Bi_d 06Sep2000                </c></rc>
    <rc><c>  16</c><c>S </c><c>     32.06600000</c><c>      6.00000000</c><c>  PAW_PBE S 06Sep2000                   </c></rc>
    <rc><c>  16</c><c>O </c><c>     16.00000000</c><c>      6.00000000</c><c>  PAW_PBE O 08Apr2002                   </c></rc>
   </set>
  </array>
 </atominfo>
 <structure name="initialpos" >
  <crystal>
   <varray name="basis" >
    <v>      11.17850000       0.00000000       0.00000000 </v>
    <v>       0.00000000       9.57460000       0.00000000 </v>
    <v>       0.00000000       0.00000000      11.18240000 </v>
   </varray>
   <i name="volume">   1196.84853820 </i>
   <varray name="rec_basis" >
    <v>       0.08945744       0.00000000       0.00000000 </v>
    <v>       0.00000000       0.10444301       0.00000000 </v>
    <v>       0.00000000       0.00000000       0.08942624 </v>
   </varray>
  </crystal>
  <varray name="positions" >
   <v>       0.37539000       0.00017000       0.43687000 </v>
   <v>       0.37461000       0.00017000       0.18687000 </v>
   <v>       0.62539000       0.99984000       0.43687000 </v>
   <v>       0.87539000       0.00017000       0.43687000 </v>
   <v>       0.12539000       0.99984000       0.93687000 </v>
   <v>       0.37539000       0.00017000       0.93687000 </v>
   <v>       0.12461000       0.99984000       0.68687000 </v>
   <v>       0.37461000       0.00017000       0.68687000 </v>
   <v>       0.62461000       0.99984000       0.68687000 </v>
   <v>       0.87461000       0.00017000       0.68687000 </v>
   <v>       0.12461000       0.99984000       0.18687000 </v>
   <v>       0.62461000       0.99984000       0.18687000 </v>
   <v>       0.87539000       0.00017000       0.93687000 </v>
   <v>       0.00013000       0.29519000       0.06281000 </v>
   <v>       0.25013000       0.70481000       0.06281000 </v>
   <v>       0.24987000       0.29519000       0.31282000 </v>
   <v>       0.49987000       0.70481000       0.31282000 </v>
   <v>       0.50013000       0.29519000       0.06281000 </v>
   <v>       0.75013000       0.70481000       0.06281000 </v>
   <v>       0.74987000       0.29519000       0.31282000 </v>
   <v>       0.99987000       0.70481000       0.31282000 </v>
   <v>       0.00013000       0.29519000       0.56281000 </v>
   <v>       0.25013000       0.70481000       0.56281000 </v>
   <v>       0.24987000       0.29519000       0.81282000 </v>
   <v>       0.49987000       0.70481000       0.81282000 </v>
   <v>       0.50013000       0.29519000       0.56281000 </v>
   <v>       0.75013000       0.70481000       0.56281000 </v>
   <v>       0.74987000       0.29519000       0.81282000 </v>
   <v>       0.99987000       0.70481000       0.81282000 </v>
   <v>       0.25005000       0.32677000       0.06286000 </v>
   <v>       0.00005000       0.67323000       0.06286000 </v>
   <v>       0.49995000       0.32677000       0.31286000 </v>
   <v>       0.24995000       0.67323000       0.31286000 </v>
   <v>       0.75005000       0.32677000       0.06286000 </v>
   <v>       0.50005000       0.67323000       0.06286000 </v>
   <v>       0.99995000       0.32677000       0.31286000 </v>
   <v>       0.74995000       0.67323000       0.31286000 </v>
   <v>       0.25005000       0.32677000       0.56286000 </v>
   <v>       0.00005000       0.67323000       0.56286000 </v>
   <v>       0.49995000       0.32677000       0.81286000 </v>
   <v>       0.24995000       0.67323000       0.81286000 </v>
   <v>       0.75005000       0.32677000       0.56286000 </v>
   <v>       0.50005000       0.67323000       0.56286000 </v>
   <v>       0.99995000       0.32677000       0.81286000 </v>
   <v>       0.74995000       0.67323000       0.81286000 </v>
   <v>       0.49987000       0.07798000       0.06246000 </v>
   <v>       0.24987000       0.92202000       0.06246000 </v>
   <v>       0.25013000       0.07798000       0.31246000 </v>
   <v>       0.00013000       0.92202000       0.31246000 </v>
   <v>       0.99987000       0.07798000       0.06246000 </v>
   <v>       0.74987000       0.92202000       0.06246000 </v>
   <v>       0.75013000       0.07798000       0.31246000 </v>
   <v>       0.50013000       0.92202000       0.31246000 </v>
   <v>       0.49987000       0.07798000       0.56246000 </v>
   <v>       0.24987000       0.92202000       0.56246000 </v>
   <v>       0.25013000       0.07798000       0.81246000 </v>
   <v>       0.00013000       0.92202000       0.81246000 </v>
   <v>       0.99987000       0.07798000       0.56246000 </v>
   <v>       0.74987000       0.92202000       0.56246000 </v>
   <v>       0.75013000       0.07798000       0.81246000 </v>
   <v>       0.50013000       0.92202000       0.81246000 </v>
  </varray>
 </structure>
 <calculation>
  <scstep>
   <time name="dav">   59.45   60.47</time>
   <time name="total">   59.54   60.56</time>
   <energy>
    <i name="alphaZ">   1073.51873187 </i>
    <i name="ewald"> -30870.53409937 </i>
    <i name="hartreedc"> -12718.33414081 </i>
    <i name="XCdc">   1394.97328206 </i>
    <i name="pawpsdc">  36823.70205594 </i>
    <i name="pawaedc"> -36326.52930246 </i>
    <i name="eentropy">      0.00000000 </i>
    <i name="bandstr">   1804.68297682 </i>
    <i name="atom">  44791.06186932 </i>
    <i name="e_fr_energy">   5972.54137337 </i>
    <i name="e_wo_entrp">   5972.54137337 </i>
    <i name="e_0_energy">   5972.54137337 </i>
   </energy>
  </scstep>
  <scstep>
   <time name="dav">   59.87   60.21</time>
   <time name="total">   59.88   60.22</time>
   <energy>
    <i name="e_fr_energy">    817.27808901 </i>
    <i name="e_wo_entrp">    817.27808901 </i>
    <i name="e_0_energy">    817.27808901 </i>
   </energy>
  </scstep>
  <scstep>
   <time name="dav">   68.96   69.57</time>
   <time name="total">   68.96   69.58</time>
   <energy>
    <i name="e_fr_energy">   -240.16254854 </i>
    <i name="e_wo_entrp">   -240.16254854 </i>
    <i name="e_0_energy">   -240.16254854 </i>
   </energy>
  </scstep>
  <scstep>
   <time name="dav">   72.57   72.79</time>
   <time name="total">   72.57   72.79</time>
   <energy>
    <i name="e_fr_energy">   -345.83813131 </i>
    <i name="e_wo_entrp">   -345.83813131 </i>
    <i name="e_0_energy">   -345.83813131 </i>
   </energy>
  </scstep>
  <scstep>
   <time name="dav">   96.00   97.48</time>
   <time name="total">   96.73   98.21</time>
   <energy>
    <i name="e_fr_energy">   -355.22390475 </i>
    <i name="e_wo_entrp">   -355.22390475 </i>
    <i name="e_0_energy">   -355.22390475 </i>
   </energy>
  </scstep>
  <scstep>
   <time name="dav">   84.98   86.13</time>
   <time name="total">   85.78   86.93</time>
   <energy>
    <i name="e_fr_energy">   -296.51401793 </i>
    <i name="e_wo_entrp">   -296.51401793 </i>
    <i name="e_0_energy">   -296.51401793 </i>
   </energy>
  </scstep>
  <scstep>
   <time name="dav">   65.36   65.51</time>
   <time name="total">   66.16   66.31</time>
   <energy>
    <i name="e_fr_energy">   -299.23717446 </i>
    <i name="e_wo_entrp">   -299.23717446 </i>
    <i name="e_0_energy">   -299.23717446 </i>
   </energy>
  </scstep>
  <scstep>
   <time name="dav">   77.67   77.91</time>
   <time name="total">   78.46   78.71</time>
   <energy>
    <i name="e_fr_energy">   -297.96556804 </i>
    <i name="e_wo_entrp">   -297.96556804 </i>
    <i name="e_0_energy">   -297.96556804 </i>
   </energy>
  </scstep>
  <scstep>
   <time name="dav">   76.19   76.64</time>
   <time name="total">   76.99   77.44</time>
   <energy>
    <i name="e_fr_energy">   -297.30033658 </i>
    <i name="e_wo_entrp">   -297.30033658 </i>
    <i name="e_0_energy">   -297.30033658 </i>
   </energy>
  </scstep>
  <scstep>
   <time name="dav">   74.69   75.00</time>
   <time name="total">   75.48   75.81</time>
   <energy>
    <i name="e_fr_energy">   -297.33291353 </i>
    <i name="e_wo_entrp">   -297.33291353 </i>
    <i name="e_0_energy">   -297.33291353 </i>
   </energy>
  </scstep>
  <scstep>
   <time name="dav">   80.99   81.37</time>
   <time name="total">   81.79   82.17</time>
   <energy>
    <i name="e_fr_energy">   -297.34007506 </i>
    <i name="e_wo_entrp">   -297.34007506 </i>
    <i name="e_0_energy">   -297.34007506 </i>
   </energy>
  </scstep>
  <scstep>
   <time name="dav">   82.85   83.16</time>
   <time name="total">   83.65   83.96</time>
   <energy>
    <i name="e_fr_energy">   -297.34354334 </i>
    <i name="e_wo_entrp">   -297.34354334 </i>
    <i name="e_0_energy">   -297.34354334 </i>
   </energy>
  </scstep>
  <scstep>
   <time name="dav">   71.53   71.73</time>
   <time name="total">   72.33   72.53</time>
   <energy>
    <i name="e_fr_energy">   -297.34483800 </i>
    <i name="e_wo_entrp">   -297.34483800 </i>
    <i name="e_0_energy">   -297.34483800 </i>
   </energy>
  </scstep>
  <scstep>
   <time name="dav">   78.70   78.85</time>
   <time name="total">   79.50   79.65</time>
   <energy>
    <i name="e_fr_energy">   -297.34504083 </i>
    <i name="e_wo_entrp">   -297.34504083 </i>
    <i name="e_0_energy">   -297.34504083 </i>
   </energy>
  </scstep>
  <scstep>
   <time name="dav">   75.76   75.96</time>
   <time name="total">   76.56   76.76</time>
   <energy>
    <i name="e_fr_energy">   -297.34509035 </i>
    <i name="e_wo_entrp">   -297.34509035 </i>
    <i name="e_0_energy">   -297.34509035 </i>
   </energy>
  </scstep>
  <scstep>
   <time name="dav">   67.79   68.05</time>
   <time name="total">   68.72   68.98</time>
   <energy>
    <i name="e_fr_energy">   -297.34511270 </i>
    <i name="e_wo_entrp">   -297.34511270 </i>
    <i name="e_0_energy">   -297.34511270 </i>
   </energy>
  </scstep>
  <scstep>
   <time name="dav">   67.69   67.92</time>
   <time name="total">   68.51   68.74</time>
   <energy>
    <i name="e_fr_energy">   -297.34511527 </i>
    <i name="e_wo_entrp">   -297.34511527 </i>
    <i name="e_0_energy">   -297.34511527 </i>
   </energy>
  </scstep>
  <scstep>
   <time name="dav">   63.12   63.26</time>
   <time name="total">   63.20   63.34</time>
   <energy>
    <i name="alphaZ">   1073.51873187 </i>
    <i name="ewald"> -30870.53409937 </i>
    <i name="hartreedc"> -12956.60625708 </i>
    <i name="XCdc">   1418.54973211 </i>
    <i name="pawpsdc">  43855.52989337 </i>
    <i name="pawaedc"> -43333.17980478 </i>
    <i name="eentropy">      0.00000000 </i>
    <i name="bandstr">  -4275.68518152 </i>
    <i name="atom">  44791.06186932 </i>
    <i name="e_fr_energy">   -297.34511608 </i>
    <i name="e_wo_entrp">   -297.34511608 </i>
    <i name="e_0_energy">   -297.34511608 </i>
   </energy>
  </scstep>
  <structure>
   <crystal>
    <varray name="basis" >
     <v>      11.17850000       0.00000000       0.00000000 </v>
     <v>       0.00000000       9.57460000       0.00000000 </v>
     <v>       0.00000000       0.00000000      11.18240000 </v>
    </varray>
    <i name="volume">   1196.84853820 </i>
    <varray name="rec_basis" >
     <v>       0.08945744       0.00000000       0.00000000 </v>
     <v>       0.00000000       0.10444301       0.00000000 </v>
     <v>       0.00000000       0.00000000       0.08942624 </v>
    </varray>
   </crystal>
   <varray name="positions" >
    <v>       0.37539000       0.00017000       0.43687000 </v>
    <v>       0.37461000       0.00017000       0.18687000 </v>
    <v>       0.62539000       0.99984000       0.43687000 </v>
    <v>       0.87539000       0.00017000       0.43687000 </v>
    <v>       0.12539000       0.99984000       0.93687000 </v>
    <v>       0.37539000       0.00017000       0.93687000 </v>
    <v>       0.12461000       0.99984000       0.68687000 </v>
    <v>       0.37461000       0.00017000       0.68687000 </v>
    <v>       0.62461000       0.99984000       0.68687000 </v>
    <v>       0.87461000       0.00017000       0.68687000 </v>
    <v>       0.12461000       0.99984000       0.18687000 </v>
    <v>       0.62461000       0.99984000       0.18687000 </v>
    <v>       0.87539000       0.00017000       0.93687000 </v>
    <v>       0.00013000       0.29519000       0.06281000 </v>
    <v>       0.25013000       0.70481000       0.06281000 </v>
    <v>       0.24987000       0.29519000       0.31282000 </v>
    <v>       0.49987000       0.70481000       0.31282000 </v>
    <v>       0.50013000       0.29519000       0.06281000 </v>
    <v>       0.75013000       0.70481000       0.06281000 </v>
    <v>       0.74987000       0.29519000       0.31282000 </v>
    <v>       0.99987000       0.70481000       0.31282000 </v>
    <v>       0.00013000       0.29519000       0.56281000 </v>
    <v>       0.25013000       0.70481000       0.56281000 </v>
    <v>       0.24987000       0.29519000       0.81282000 </v>
    <v>       0.49987000       0.70481000       0.81282000 </v>
    <v>       0.50013000       0.29519000       0.56281000 </v>
    <v>       0.75013000       0.70481000       0.56281000 </v>
    <v>       0.74987000       0.29519000       0.81282000 </v>
    <v>       0.99987000       0.70481000       0.81282000 </v>
    <v>       0.25005000       0.32677000       0.06286000 </v>
    <v>       0.00005000       0.67323000       0.06286000 </v>
    <v>       0.49995000       0.32677000       0.31286000 </v>
    <v>       0.24995000       0.67323000       0.31286000 </v>
    <v>       0.75005000       0.32677000       0.06286000 </v>
    <v>       0.50005000       0.67323000       0.06286000 </v>
    <v>       0.99995000       0.32677000       0.31286000 </v>
    <v>       0.74995000       0.67323000       0.31286000 </v>
    <v>       0.25005000       0.32677000       0.56286000 </v>
    <v>       0.00005000       0.67323000       0.56286000 </v>
    <v>       0.49995000       0.32677000       0.81286000 </v>
    <v>       0.24995000       0.67323000       0.81286000 </v>
    <v>       0.75005000       0.32677000       0.56286000 </v>
    <v>       0.50005000       0.67323000       0.56286000 </v>
    <v>       0.99995000       0.32677000       0.81286000 </v>
    <v>       0.74995000       0.67323000       0.81286000 </v>
    <v>       0.49987000       0.07798000       0.06246000 </v>
    <v>       0.24987000       0.92202000       0.06246000 </v>
    <v>       0.25013000       0.07798000       0.31246000 </v>
    <v>       0.00013000       0.92202000       0.31246000 </v>
    <v>       0.99987000       0.07798000       0.06246000 </v>
    <v>       0.74987000       0.92202000       0.06246000 </v>
    <v>       0.75013000       0.07798000       0.31246000 </v>
    <v>       0.50013000       0.92202000       0.31246000 </v>
    <v>       0.49987000       0.07798000       0.56246000 </v>
    <v>       0.24987000       0.92202000       0.56246000 </v>
    <v>       0.25013000       0.07798000       0.81246000 </v>
    <v>       0.00013000       0.92202000       0.81246000 </v>
    <v>       0.99987000       0.07798000       0.56246000 </v>
    <v>       0.74987000       0.92202000       0.56246000 </v>
    <v>       0.75013000       0.07798000       0.81246000 </v>
    <v>       0.50013000       0.92202000       0.81246000 </v>
   </varray>
  </structure>
  <varray name="forces" >
   <v>      -0.51561772      -0.00047276       0.21731139 </v>
   <v>       0.00660625       0.12529186       0.05111595 </v>
   <v>       0.15671674       0.06299328       0.36583978 </v>
   <v>       0.49080456      -0.00335802      -0.29233245 </v>
   <v>       0.31733607       0.06439198      -0.35667710 </v>
   <v>       0.50666578      -0.00231627      -0.20749949 </v>
   <v>       0.10541344       0.06600841      -0.61974971 </v>
   <v>       0.00806040      -0.12857052      -0.03731647 </v>
   <v>      -0.08158517      -0.06944289       0.39033187 </v>
   <v>      -0.00695828       0.12259342      -0.50504940 </v>
   <v>      -0.77985171      -0.11259626       1.28267546 </v>
   <v>       0.84389519       0.11659172      -0.72568197 </v>
   <v>      -1.04348418      -0.00933086       0.59797341 </v>
   <v>      -0.16073172       1.00819835       0.21716614 </v>
   <v>       0.14169961      -1.07930490      -0.10344042 </v>
   <v>      -0.13059890      -0.00382286       0.44523010 </v>
   <v>      -0.08140263      -1.05298324       0.25770937 </v>
   <v>       0.06172935       0.03845622      -0.30466668 </v>
   <v>      -0.06417080       0.09333832      -0.00699612 </v>
   <v>       0.27527304       0.00182038       0.13239730 </v>
   <v>      -0.04087373       1.02617050       0.31628981 </v>
   <v>       0.15177257      -0.99880124      -0.18703104 </v>
   <v>      -0.14961542       1.02798535      -0.08944452 </v>
   <v>       0.11762593       0.03364921      -0.26991024 </v>
   <v>       0.08967827       1.01580633      -0.06740028 </v>
   <v>      -0.05581212       0.00571844       0.10648415 </v>
   <v>       0.02667629      -0.02021904       0.00615382 </v>
   <v>      -0.29249371      -0.00443185      -0.14880953 </v>
   <v>       0.11141489      -1.07626163      -0.37673904 </v>
   <v>      -0.12233880       0.10937199       0.03189598 </v>
   <v>       0.11415197      -0.04854214      -0.20145600 </v>
   <v>       0.04365602       0.15369212      -0.11270414 </v>
   <v>       0.15781589      -0.12295464      -0.31587560 </v>
   <v>       0.07034301       0.04740034      -0.00611110 </v>
   <v>      -0.06638020      -0.08521188       0.23468698 </v>
   <v>       0.05673192       0.10845020      -0.29504241 </v>
   <v>      -0.25231288      -0.12488645      -0.08586202 </v>
   <v>       0.11368952       0.19292277       0.02150828 </v>
   <v>      -0.11632091      -0.19100161       0.21295539 </v>
   <v>      -0.02283918       0.16624911       0.05745348 </v>
   <v>      -0.18985843      -0.19388101       0.26542434 </v>
   <v>      -0.10519507       0.22928406      -0.00213186 </v>
   <v>       0.10746709      -0.22958479      -0.19487734 </v>
   <v>      -0.03645577       0.14143009       0.29609958 </v>
   <v>       0.24797398      -0.12008073       0.09007985 </v>
   <v>      -0.20928202      -0.05469891       1.22227472 </v>
   <v>      -0.54979996       0.86156557       0.45321481 </v>
   <v>       0.23584227      -0.00998264      -1.31863960 </v>
   <v>       0.51551599      -0.91217279      -0.68642970 </v>
   <v>       0.69951614      -0.72712881      -0.78301253 </v>
   <v>       0.08847972      -0.22442718      -0.02772215 </v>
   <v>      -1.26897953       0.00784194       0.04305939 </v>
   <v>       0.46661141       0.79147234      -0.56299088 </v>
   <v>       0.07876390       0.03209445      -0.15094462 </v>
   <v>       0.65555645      -0.83277700       0.60135054 </v>
   <v>      -0.16046653      -0.03036246       0.23582192 </v>
   <v>      -0.47393503       0.81942261       0.71109522 </v>
   <v>      -0.64597096       0.81209953       0.74536016 </v>
   <v>      -0.06643355      -0.02252821      -0.00017948 </v>
   <v>       1.24755461       0.01094402      -0.04071862 </v>
   <v>      -0.62127333      -0.80112131      -0.52551666 </v>
  </varray>
  <varray name="stress" >
   <v>      -8.22654773      -0.35183575       1.33464302 </v>
   <v>      -0.35183554     -14.03821801       0.18675613 </v>
   <v>       1.33464318       0.18675588      -9.00946702 </v>
  </varray>
  <energy>
   <i name="e_fr_energy">   -312.00722172 </i>
   <i name="e_wo_entrp">   -312.00722172 </i>
   <i name="e_0_energy">      0.00000000 </i>
  </energy>
  <time name="totalsc"> 1441.88 1450.61</time>
  <eigenvalues>
   <array>
    <dimension dim="1">band</dimension>
    <dimension dim="2">kpoint</dimension>
    <dimension dim="3">spin</dimension>
    <field>eigene</field>
    <field>occ</field>
    <set>
     <set comment="spin 1">
      <set comment="kpoint 1">
       <r>  -40.4364    1.0000 </r>
       <r>  -40.2673    1.0000 </r>
       <r>  -39.9625    1.0000 </r>
       <r>  -39.8106    1.0000 </r>
       <r>  -39.8077    1.0000 </r>
       <r>  -39.7260    1.0000 </r>
       <r>  -39.5669    1.0000 </r>
       <r>  -39.5551    1.0000 </r>
       <r>  -39.4357    1.0000 </r>
       <r>  -39.3714    1.0000 </r>
       <r>  -18.9262    1.0000 </r>
       <r>  -18.9173    1.0000 </r>
       <r>  -18.8551    1.0000 </r>
       <r>  -18.8478    1.0000 </r>
       <r>  -18.8470    1.0000 </r>
       <r>  -18.8454    1.0000 </r>
       <r>  -18.8406    1.0000 </r>
       <r>  -18.8333    1.0000 </r>
       <r>  -18.7756    1.0000 </r>
       <r>  -18.7727    1.0000 </r>
       <r>  -18.7680    1.0000 </r>
       <r>  -18.7649    1.0000 </r>
       <r>  -18.7559    1.0000 </r>
       <r>  -18.7422    1.0000 </r>
       <r>  -18.7340    1.0000 </r>
       <r>  -18.7297    1.0000 </r>
       <r>  -18.7197    1.0000 </r>
       <r>  -18.7096    1.0000 </r>
       <r>  -18.7040    1.0000 </r>
       <r>  -18.6854    1.0000 </r>
       <r>  -18.6746    1.0000 </r>
       <r>  -18.6677    1.0000 </r>
       <r>  -18.6658    1.0000 </r>
       <r>  -18.6634    1.0000 </r>
       <r>  -18.6612    1.0000 </r>
       <r>  -18.6571    1.0000 </r>
       <r>  -18.6470    1.0000 </r>
       <r>  -18.6441    1.0000 </r>
       <r>  -18.6426    1.0000 </r>
       <r>  -18.6370    1.0000 </r>
       <r>  -18.6367    1.0000 </r>
       <r>  -18.6355    1.0000 </r>
       <r>  -18.6350    1.0000 </r>
       <r>  -18.6302    1.0000 </r>
       <r>  -18.6281    1.0000 </r>
       <r>  -18.6278    1.0000 </r>
       <r>  -18.6259    1.0000 </r>
       <r>  -18.6186    1.0000 </r>
       <r>  -18.5646    1.0000 </r>
       <r>  -18.5617    1.0000 </r>
       <r>  -18.5551    1.0000 </r>
       <r>  -18.5484    1.0000 </r>
       <r>  -18.5469    1.0000 </r>
       <r>  -18.5442    1.0000 </r>
       <r>  -18.5371    1.0000 </r>
       <r>  -18.5351    1.0000 </r>
       <r>  -18.5290    1.0000 </r>
       <r>  -18.5068    1.0000 </r>
       <r>  -18.4891    1.0000 </r>
       <r>  -18.4889    1.0000 </r>
       <r>  -18.4885    1.0000 </r>
       <r>  -18.4753    1.0000 </r>
       <r>  -18.4739    1.0000 </r>
       <r>  -18.4735    1.0000 </r>
       <r>  -18.4731    1.0000 </r>
       <r>  -18.4728    1.0000 </r>
       <r>  -18.4539    1.0000 </r>
       <r>  -18.4480    1.0000 </r>
       <r>  -18.4417    1.0000 </r>
       <r>  -18.4355    1.0000 </r>
       <r>  -18.3995    1.0000 </r>
       <r>  -18.3970    1.0000 </r>
       <r>  -18.3915    1.0000 </r>
       <r>  -18.3882    1.0000 </r>
       <r>  -18.3841    1.0000 </r>
       <r>  -18.3799    1.0000 </r>
       <r>  -18.3783    1.0000 </r>
       <r>  -18.3741    1.0000 </r>
       <r>  -18.3651    1.0000 </r>
       <r>  -18.3564    1.0000 </r>
       <r>  -18.3064    1.0000 </r>
       <r>  -18.2873    1.0000 </r>
       <r>  -18.2580    1.0000 </r>
       <r>  -18.2416    1.0000 </r>
       <r>  -18.2327    1.0000 </r>
       <r>  -18.2314    1.0000 </r>
       <r>  -18.1911    1.0000 </r>
       <r>  -18.1771    1.0000 </r>
       <r>  -18.1729    1.0000 </r>
       <r>  -18.1584    1.0000 </r>
       <r>  -13.5815    1.0000 </r>
       <r>  -13.4715    1.0000 </r>
       <r>  -13.4074    1.0000 </r>
       <r>  -13.3981    1.0000 </r>
       <r>  -12.8651    1.0000 </r>
       <r>  -12.7620    1.0000 </r>
       <r>  -12.7244    1.0000 </r>
       <r>  -12.7125    1.0000 </r>
       <r>  -12.6894    1.0000 </r>
       <r>  -12.6632    1.0000 </r>
       <r>  -12.5793    1.0000 </r>
       <r>  -12.5255    1.0000 </r>
       <r>  -12.0642    1.0000 </r>
       <r>  -12.0043    1.0000 </r>
       <r>  -11.9555    1.0000 </r>
       <r>  -11.9055    1.0000 </r>
       <r>   -9.3172    1.0000 </r>
       <r>   -9.0229    1.0000 </r>
       <r>   -8.5512    1.0000 </r>
       <r>   -8.5087    1.0000 </r>
       <r>   -8.4495    1.0000 </r>
       <r>   -8.4100    1.0000 </r>
       <r>   -8.3286    1.0000 </r>
       <r>   -8.2855    1.0000 </r>
       <r>   -8.2238    1.0000 </r>
       <r>   -8.1885    1.0000 </r>
       <r>   -8.0250    1.0000 </r>
       <r>   -8.0092    1.0000 </r>
       <r>   -7.9859    1.0000 </r>
       <r>   -7.9723    1.0000 </r>
       <r>   -7.3469    1.0000 </r>
       <r>   -7.3380    1.0000 </r>
       <r>   -6.3749    1.0000 </r>
       <r>   -6.3668    1.0000 </r>
       <r>   -6.3368    1.0000 </r>
       <r>   -6.3296    1.0000 </r>
       <r>   -5.5150    1.0000 </r>
       <r>   -5.4596    1.0000 </r>
       <r>   -5.4532    1.0000 </r>
       <r>   -5.3355    1.0000 </r>
       <r>   -5.2950    1.0000 </r>
       <r>   -5.2476    1.0000 </r>
       <r>   -5.2127    1.0000 </r>
       <r>   -5.1367    1.0000 </r>
       <r>   -5.0558    1.0000 </r>
       <r>   -5.0025    1.0000 </r>
       <r>   -3.7934    1.0000 </r>
       <r>   -3.6394    1.0000 </r>
       <r>   -1.4513    1.0000 </r>
       <r>   -1.3023    1.0000 </r>
       <r>   -1.0961    1.0000 </r>
       <r>   -0.9931    1.0000 </r>
       <r>   -0.5584    1.0000 </r>
       <r>   -0.5182    1.0000 </r>
       <r>   -0.5019    1.0000 </r>
       <r>   -0.4546    1.0000 </r>
       <r>   -0.1785    1.0000 </r>
       <r>   -0.1743    1.0000 </r>
       <r>   -0.1561    1.0000 </r>
       <r>   -0.1287    1.0000 </r>
       <r>    0.0288    1.0000 </r>
       <r>    0.0868    1.0000 </r>
       <r>    0.1968    1.0000 </r>
       <r>    0.3139    1.0000 </r>
       <r>    0.4249    1.0000 </r>
       <r>    0.4929    1.0000 </r>
       <r>    0.5565    1.0000 </r>
       <r>    0.5708    1.0000 </r>
       <r>    0.6329    1.0000 </r>
       <r>    0.7047    1.0000 </r>
       <r>    0.7185    1.0000 </r>
       <r>    0.7709    1.0000 </r>
       <r>    0.7962    1.0000 </r>
       <r>    0.8399    1.0000 </r>
       <r>    0.8895    1.0000 </r>
       <r>    0.9528    1.0000 </r>
       <r>    0.9758    1.0000 </r>
       <r>    0.9987    1.0000 </r>
       <r>    1.0542    1.0000 </r>
       <r>    1.0820    1.0000 </r>
       <r>    1.1511    1.0000 </r>
       <r>    1.2046    1.0000 </r>
       <r>    1.2087    1.0000 </r>
       <r>    1.2728    1.0000 </r>
       <r>    1.3033    1.0000 </r>
       <r>    1.3582    1.0000 </r>
       <r>    1.4072    1.0000 </r>
       <r>    1.4459    1.0000 </r>
       <r>    1.4781    1.0000 </r>
       <r>    1.5341    1.0000 </r>
       <r>    1.5616    1.0000 </r>
       <r>    1.6124    1.0000 </r>
       <r>    1.6973    1.0000 </r>
       <r>    1.7633    1.0000 </r>
       <r>    1.7994    1.0000 </r>
       <r>    1.8191    1.0000 </r>
       <r>    1.8748    1.0000 </r>
       <r>    1.9478    1.0000 </r>
       <r>    1.9962    1.0000 </r>
       <r>    2.0504    1.0000 </r>
       <r>    2.1041    1.0000 </r>
       <r>    2.1598    1.0000 </r>
       <r>    2.2131    1.0000 </r>
       <r>    2.2826    1.0000 </r>
       <r>    2.3653    1.0000 </r>
       <r>    2.3869    1.0000 </r>
       <r>    2.5092    1.0000 </r>
       <r>    2.5620    1.0000 </r>
       <r>    2.5720    1.0000 </r>
       <r>    2.5775    1.0000 </r>
       <r>    2.5940    1.0000 </r>
       <r>    2.6060    1.0000 </r>
       <r>    2.6256    1.0000 </r>
       <r>    2.6613    1.0000 </r>
       <r>    2.6795    1.0000 </r>
       <r>    2.7096    1.0000 </r>
       <r>    2.7584    1.0000 </r>
       <r>    2.8085    1.0000 </r>
       <r>    2.8506    1.0000 </r>
       <r>    2.8863    1.0000 </r>
       <r>    2.9256    1.0000 </r>
       <r>    2.9569    1.0000 </r>
       <r>    2.9926    1.0000 </r>
       <r>    2.9958    1.0000 </r>
       <r>    3.0681    1.0000 </r>
       <r>    3.0860    1.0000 </r>
       <r>    3.1054    1.0000 </r>
       <r>    3.1163    1.0000 </r>
       <r>    3.1589    1.0000 </r>
       <r>    3.1908    1.0000 </r>
       <r>    3.2232    1.0000 </r>
       <r>    3.2305    1.0000 </r>
       <r>    3.2635    1.0000 </r>
       <r>    3.3016    1.0000 </r>
       <r>    3.3608    1.0000 </r>
       <r>    3.3867    1.0000 </r>
       <r>    3.4220    1.0000 </r>
       <r>    3.4466    1.0000 </r>
       <r>    3.5757    1.0000 </r>
       <r>    3.6764    1.0000 </r>
       <r>    4.1956    1.0000 </r>
       <r>    4.2186    1.0000 </r>
       <r>    4.2322    1.0000 </r>
       <r>    4.2491    1.0000 </r>
       <r>    5.0556    0.0000 </r>
       <r>    5.0745    0.0000 </r>
       <r>    5.1732    0.0000 </r>
       <r>    5.1935    0.0000 </r>
       <r>    5.7456    0.0000 </r>
       <r>    5.7643    0.0000 </r>
       <r>    5.8246    0.0000 </r>
       <r>    5.8502    0.0000 </r>
       <r>    6.1013    0.0000 </r>
       <r>    6.1212    0.0000 </r>
       <r>    6.1537    0.0000 </r>
       <r>    6.1584    0.0000 </r>
       <r>    6.2425    0.0000 </r>
       <r>    6.2511    0.0000 </r>
       <r>    6.2784    0.0000 </r>
       <r>    6.2922    0.0000 </r>
       <r>    7.0915    0.0000 </r>
       <r>    7.1240    0.0000 </r>
       <r>    7.2930    0.0000 </r>
       <r>    7.3286    0.0000 </r>
       <r>    7.7021    0.0000 </r>
       <r>    7.8266    0.0000 </r>
       <r>    7.8349    0.0000 </r>
       <r>    7.9757    0.0000 </r>
       <r>    8.0089    0.0000 </r>
       <r>    8.0979    0.0000 </r>
       <r>    8.1489    0.0000 </r>
       <r>    8.3035    0.0000 </r>
       <r>    8.4304    0.0000 </r>
       <r>    8.6554    0.0000 </r>
       <r>    8.7115    0.0000 </r>
       <r>    8.7860    0.0000 </r>
       <r>    8.8097    0.0000 </r>
       <r>    8.8554    0.0000 </r>
       <r>    8.9415    0.0000 </r>
       <r>    8.9644    0.0000 </r>
       <r>    9.0500    0.0000 </r>
       <r>    9.0879    0.0000 </r>
       <r>    9.1140    0.0000 </r>
       <r>    9.1389    0.0000 </r>
       <r>    9.1492    0.0000 </r>
       <r>    9.1940    0.0000 </r>
       <r>    9.1992    0.0000 </r>
       <r>    9.2565    0.0000 </r>
       <r>    9.4291    0.0000 </r>
       <r>    9.5300    0.0000 </r>
      </set>
      <set comment="kpoint 2">
       <r>  -40.4364    1.0000 </r>
       <r>  -40.2673    1.0000 </r>
       <r>  -39.9625    1.0000 </r>
       <r>  -39.8106    1.0000 </r>
       <r>  -39.8077    1.0000 </r>
       <r>  -39.7260    1.0000 </r>
       <r>  -39.5669    1.0000 </r>
       <r>  -39.5551    1.0000 </r>
       <r>  -39.4357    1.0000 </r>
       <r>  -39.3714    1.0000 </r>
       <r>  -18.9262    1.0000 </r>
       <r>  -18.9173    1.0000 </r>
       <r>  -18.8550    1.0000 </r>
       <r>  -18.8478    1.0000 </r>
       <r>  -18.8467    1.0000 </r>
       <r>  -18.8453    1.0000 </r>
       <r>  -18.8412    1.0000 </r>
       <r>  -18.8329    1.0000 </r>
       <r>  -18.7762    1.0000 </r>
       <r>  -18.7721    1.0000 </r>
       <r>  -18.7691    1.0000 </r>
       <r>  -18.7638    1.0000 </r>
       <r>  -18.7559    1.0000 </r>
       <r>  -18.7422    1.0000 </r>
       <r>  -18.7340    1.0000 </r>
       <r>  -18.7297    1.0000 </r>
       <r>  -18.7198    1.0000 </r>
       <r>  -18.7096    1.0000 </r>
       <r>  -18.7039    1.0000 </r>
       <r>  -18.6854    1.0000 </r>
       <r>  -18.6746    1.0000 </r>
       <r>  -18.6677    1.0000 </r>
       <r>  -18.6658    1.0000 </r>
       <r>  -18.6634    1.0000 </r>
       <r>  -18.6612    1.0000 </r>
       <r>  -18.6571    1.0000 </r>
       <r>  -18.6463    1.0000 </r>
       <r>  -18.6440    1.0000 </r>
       <r>  -18.6424    1.0000 </r>
       <r>  -18.6381    1.0000 </r>
       <r>  -18.6371    1.0000 </r>
       <r>  -18.6357    1.0000 </r>
       <r>  -18.6345    1.0000 </r>
       <r>  -18.6309    1.0000 </r>
       <r>  -18.6288    1.0000 </r>
       <r>  -18.6273    1.0000 </r>
       <r>  -18.6251    1.0000 </r>
       <r>  -18.6185    1.0000 </r>
       <r>  -18.5646    1.0000 </r>
       <r>  -18.5616    1.0000 </r>
       <r>  -18.5551    1.0000 </r>
       <r>  -18.5484    1.0000 </r>
       <r>  -18.5469    1.0000 </r>
       <r>  -18.5442    1.0000 </r>
       <r>  -18.5371    1.0000 </r>
       <r>  -18.5351    1.0000 </r>
       <r>  -18.5289    1.0000 </r>
       <r>  -18.5068    1.0000 </r>
       <r>  -18.4891    1.0000 </r>
       <r>  -18.4889    1.0000 </r>
       <r>  -18.4885    1.0000 </r>
       <r>  -18.4753    1.0000 </r>
       <r>  -18.4739    1.0000 </r>
       <r>  -18.4735    1.0000 </r>
       <r>  -18.4731    1.0000 </r>
       <r>  -18.4728    1.0000 </r>
       <r>  -18.4542    1.0000 </r>
       <r>  -18.4477    1.0000 </r>
       <r>  -18.4422    1.0000 </r>
       <r>  -18.4349    1.0000 </r>
       <r>  -18.3995    1.0000 </r>
       <r>  -18.3971    1.0000 </r>
       <r>  -18.3915    1.0000 </r>
       <r>  -18.3882    1.0000 </r>
       <r>  -18.3841    1.0000 </r>
       <r>  -18.3799    1.0000 </r>
       <r>  -18.3782    1.0000 </r>
       <r>  -18.3744    1.0000 </r>
       <r>  -18.3647    1.0000 </r>
       <r>  -18.3566    1.0000 </r>
       <r>  -18.3064    1.0000 </r>
       <r>  -18.2873    1.0000 </r>
       <r>  -18.2580    1.0000 </r>
       <r>  -18.2416    1.0000 </r>
       <r>  -18.2327    1.0000 </r>
       <r>  -18.2314    1.0000 </r>
       <r>  -18.1911    1.0000 </r>
       <r>  -18.1771    1.0000 </r>
       <r>  -18.1729    1.0000 </r>
       <r>  -18.1584    1.0000 </r>
       <r>  -13.5801    1.0000 </r>
       <r>  -13.4739    1.0000 </r>
       <r>  -13.4064    1.0000 </r>
       <r>  -13.3981    1.0000 </r>
       <r>  -12.8656    1.0000 </r>
       <r>  -12.7621    1.0000 </r>
       <r>  -12.7236    1.0000 </r>
       <r>  -12.7108    1.0000 </r>
       <r>  -12.6899    1.0000 </r>
       <r>  -12.6650    1.0000 </r>
       <r>  -12.5786    1.0000 </r>
       <r>  -12.5259    1.0000 </r>
       <r>  -12.0643    1.0000 </r>
       <r>  -12.0043    1.0000 </r>
       <r>  -11.9554    1.0000 </r>
       <r>  -11.9055    1.0000 </r>
       <r>   -9.1138    1.0000 </r>
       <r>   -9.0972    1.0000 </r>
       <r>   -8.8403    1.0000 </r>
       <r>   -8.8216    1.0000 </r>
       <r>   -8.3178    1.0000 </r>
       <r>   -8.3098    1.0000 </r>
       <r>   -8.3027    1.0000 </r>
       <r>   -8.2928    1.0000 </r>
       <r>   -8.1303    1.0000 </r>
       <r>   -8.1237    1.0000 </r>
       <r>   -8.1146    1.0000 </r>
       <r>   -8.1061    1.0000 </r>
       <r>   -7.6776    1.0000 </r>
       <r>   -7.6731    1.0000 </r>
       <r>   -7.5664    1.0000 </r>
       <r>   -7.5638    1.0000 </r>
       <r>   -5.9872    1.0000 </r>
       <r>   -5.9543    1.0000 </r>
       <r>   -5.9215    1.0000 </r>
       <r>   -5.8856    1.0000 </r>
       <r>   -5.8267    1.0000 </r>
       <r>   -5.7764    1.0000 </r>
       <r>   -5.7580    1.0000 </r>
       <r>   -5.7401    1.0000 </r>
       <r>   -5.6119    1.0000 </r>
       <r>   -5.5228    1.0000 </r>
       <r>   -5.4781    1.0000 </r>
       <r>   -5.4228    1.0000 </r>
       <r>   -4.4125    1.0000 </r>
       <r>   -4.4001    1.0000 </r>
       <r>   -4.2440    1.0000 </r>
       <r>   -4.2297    1.0000 </r>
       <r>   -1.1653    1.0000 </r>
       <r>   -1.1190    1.0000 </r>
       <r>   -0.8079    1.0000 </r>
       <r>   -0.7942    1.0000 </r>
       <r>   -0.4777    1.0000 </r>
       <r>   -0.3676    1.0000 </r>
       <r>   -0.0797    1.0000 </r>
       <r>    0.0116    1.0000 </r>
       <r>    0.0435    1.0000 </r>
       <r>    0.0851    1.0000 </r>
       <r>    0.1297    1.0000 </r>
       <r>    0.1477    1.0000 </r>
       <r>    0.2074    1.0000 </r>
       <r>    0.2359    1.0000 </r>
       <r>    0.2892    1.0000 </r>
       <r>    0.3210    1.0000 </r>
       <r>    0.4281    1.0000 </r>
       <r>    0.5145    1.0000 </r>
       <r>    0.5472    1.0000 </r>
       <r>    0.5672    1.0000 </r>
       <r>    0.6102    1.0000 </r>
       <r>    0.6206    1.0000 </r>
       <r>    0.6732    1.0000 </r>
       <r>    0.6885    1.0000 </r>
       <r>    0.7142    1.0000 </r>
       <r>    0.7960    1.0000 </r>
       <r>    0.8683    1.0000 </r>
       <r>    0.8746    1.0000 </r>
       <r>    0.9070    1.0000 </r>
       <r>    1.0095    1.0000 </r>
       <r>    1.0703    1.0000 </r>
       <r>    1.0908    1.0000 </r>
       <r>    1.1702    1.0000 </r>
       <r>    1.2131    1.0000 </r>
       <r>    1.2528    1.0000 </r>
       <r>    1.2918    1.0000 </r>
       <r>    1.3207    1.0000 </r>
       <r>    1.3355    1.0000 </r>
       <r>    1.3702    1.0000 </r>
       <r>    1.4498    1.0000 </r>
       <r>    1.4676    1.0000 </r>
       <r>    1.4913    1.0000 </r>
       <r>    1.5288    1.0000 </r>
       <r>    1.5438    1.0000 </r>
       <r>    1.6028    1.0000 </r>
       <r>    1.6444    1.0000 </r>
       <r>    1.6747    1.0000 </r>
       <r>    1.6844    1.0000 </r>
       <r>    1.7328    1.0000 </r>
       <r>    1.9338    1.0000 </r>
       <r>    1.9611    1.0000 </r>
       <r>    1.9815    1.0000 </r>
       <r>    2.0375    1.0000 </r>
       <r>    2.0631    1.0000 </r>
       <r>    2.0665    1.0000 </r>
       <r>    2.1107    1.0000 </r>
       <r>    2.1382    1.0000 </r>
       <r>    2.1779    1.0000 </r>
       <r>    2.2120    1.0000 </r>
       <r>    2.2673    1.0000 </r>
       <r>    2.3380    1.0000 </r>
       <r>    2.4110    1.0000 </r>
       <r>    2.4312    1.0000 </r>
       <r>    2.4955    1.0000 </r>
       <r>    2.5107    1.0000 </r>
       <r>    2.5737    1.0000 </r>
       <r>    2.5820    1.0000 </r>
       <r>    2.6096    1.0000 </r>
       <r>    2.6431    1.0000 </r>
       <r>    2.6780    1.0000 </r>
       <r>    2.7195    1.0000 </r>
       <r>    2.7388    1.0000 </r>
       <r>    2.8044    1.0000 </r>
       <r>    2.8644    1.0000 </r>
       <r>    2.8760    1.0000 </r>
       <r>    2.9119    1.0000 </r>
       <r>    2.9559    1.0000 </r>
       <r>    2.9622    1.0000 </r>
       <r>    2.9881    1.0000 </r>
       <r>    3.0353    1.0000 </r>
       <r>    3.0833    1.0000 </r>
       <r>    3.1048    1.0000 </r>
       <r>    3.1575    1.0000 </r>
       <r>    3.1868    1.0000 </r>
       <r>    3.2718    1.0000 </r>
       <r>    3.2871    1.0000 </r>
       <r>    3.3391    1.0000 </r>
       <r>    3.4206    1.0000 </r>
       <r>    3.5215    1.0000 </r>
       <r>    3.5378    1.0000 </r>
       <r>    3.5683    1.0000 </r>
       <r>    3.5812    1.0000 </r>
       <r>    3.6134    1.0000 </r>
       <r>    3.6428    1.0000 </r>
       <r>    3.7462    1.0000 </r>
       <r>    3.7886    1.0000 </r>
       <r>    5.6845    0.0000 </r>
       <r>    5.6919    0.0000 </r>
       <r>    5.6949    0.0000 </r>
       <r>    5.7060    0.0000 </r>
       <r>    5.7810    0.0000 </r>
       <r>    5.7934    0.0000 </r>
       <r>    5.7995    0.0000 </r>
       <r>    5.8058    0.0000 </r>
       <r>    7.2183    0.0000 </r>
       <r>    7.2488    0.0000 </r>
       <r>    7.2980    0.0000 </r>
       <r>    7.3051    0.0000 </r>
       <r>    7.3244    0.0000 </r>
       <r>    7.3887    0.0000 </r>
       <r>    7.4148    0.0000 </r>
       <r>    7.4492    0.0000 </r>
       <r>    7.4897    0.0000 </r>
       <r>    7.5199    0.0000 </r>
       <r>    7.5411    0.0000 </r>
       <r>    7.5472    0.0000 </r>
       <r>    7.8471    0.0000 </r>
       <r>    7.8518    0.0000 </r>
       <r>    7.8597    0.0000 </r>
       <r>    7.8721    0.0000 </r>
       <r>    7.8784    0.0000 </r>
       <r>    7.8986    0.0000 </r>
       <r>    7.9125    0.0000 </r>
       <r>    7.9545    0.0000 </r>
       <r>    8.0256    0.0000 </r>
       <r>    8.0588    0.0000 </r>
       <r>    8.1277    0.0000 </r>
       <r>    8.2112    0.0000 </r>
       <r>    8.3465    0.0000 </r>
       <r>    8.3967    0.0000 </r>
       <r>    8.4473    0.0000 </r>
       <r>    8.5619    0.0000 </r>
       <r>    8.6998    0.0000 </r>
       <r>    8.7158    0.0000 </r>
       <r>    8.7800    0.0000 </r>
       <r>    8.7822    0.0000 </r>
       <r>    8.8272    0.0000 </r>
       <r>    8.8455    0.0000 </r>
       <r>    8.9417    0.0000 </r>
       <r>    8.9495    0.0000 </r>
       <r>    9.2039    0.0000 </r>
       <r>    9.2139    0.0000 </r>
      </set>
      <set comment="kpoint 3">
       <r>  -40.4364    1.0000 </r>
       <r>  -40.2673    1.0000 </r>
       <r>  -39.9625    1.0000 </r>
       <r>  -39.8106    1.0000 </r>
       <r>  -39.8076    1.0000 </r>
       <r>  -39.7260    1.0000 </r>
       <r>  -39.5669    1.0000 </r>
       <r>  -39.5551    1.0000 </r>
       <r>  -39.4357    1.0000 </r>
       <r>  -39.3714    1.0000 </r>
       <r>  -18.9263    1.0000 </r>
       <r>  -18.9173    1.0000 </r>
       <r>  -18.8550    1.0000 </r>
       <r>  -18.8478    1.0000 </r>
       <r>  -18.8470    1.0000 </r>
       <r>  -18.8454    1.0000 </r>
       <r>  -18.8406    1.0000 </r>
       <r>  -18.8333    1.0000 </r>
       <r>  -18.7756    1.0000 </r>
       <r>  -18.7727    1.0000 </r>
       <r>  -18.7680    1.0000 </r>
       <r>  -18.7649    1.0000 </r>
       <r>  -18.7559    1.0000 </r>
       <r>  -18.7422    1.0000 </r>
       <r>  -18.7340    1.0000 </r>
       <r>  -18.7297    1.0000 </r>
       <r>  -18.7197    1.0000 </r>
       <r>  -18.7096    1.0000 </r>
       <r>  -18.7040    1.0000 </r>
       <r>  -18.6854    1.0000 </r>
       <r>  -18.6746    1.0000 </r>
       <r>  -18.6677    1.0000 </r>
       <r>  -18.6658    1.0000 </r>
       <r>  -18.6634    1.0000 </r>
       <r>  -18.6612    1.0000 </r>
       <r>  -18.6571    1.0000 </r>
       <r>  -18.6470    1.0000 </r>
       <r>  -18.6441    1.0000 </r>
       <r>  -18.6426    1.0000 </r>
       <r>  -18.6370    1.0000 </r>
       <r>  -18.6367    1.0000 </r>
       <r>  -18.6355    1.0000 </r>
       <r>  -18.6350    1.0000 </r>
       <r>  -18.6302    1.0000 </r>
       <r>  -18.6281    1.0000 </r>
       <r>  -18.6278    1.0000 </r>
       <r>  -18.6259    1.0000 </r>
       <r>  -18.6186    1.0000 </r>
       <r>  -18.5646    1.0000 </r>
       <r>  -18.5617    1.0000 </r>
       <r>  -18.5551    1.0000 </r>
       <r>  -18.5484    1.0000 </r>
       <r>  -18.5469    1.0000 </r>
       <r>  -18.5442    1.0000 </r>
       <r>  -18.5371    1.0000 </r>
       <r>  -18.5352    1.0000 </r>
       <r>  -18.5289    1.0000 </r>
       <r>  -18.5068    1.0000 </r>
       <r>  -18.4891    1.0000 </r>
       <r>  -18.4889    1.0000 </r>
       <r>  -18.4885    1.0000 </r>
       <r>  -18.4753    1.0000 </r>
       <r>  -18.4739    1.0000 </r>
       <r>  -18.4735    1.0000 </r>
       <r>  -18.4731    1.0000 </r>
       <r>  -18.4728    1.0000 </r>
       <r>  -18.4539    1.0000 </r>
       <r>  -18.4480    1.0000 </r>
       <r>  -18.4417    1.0000 </r>
       <r>  -18.4355    1.0000 </r>
       <r>  -18.3995    1.0000 </r>
       <r>  -18.3970    1.0000 </r>
       <r>  -18.3915    1.0000 </r>
       <r>  -18.3882    1.0000 </r>
       <r>  -18.3841    1.0000 </r>
       <r>  -18.3799    1.0000 </r>
       <r>  -18.3783    1.0000 </r>
       <r>  -18.3741    1.0000 </r>
       <r>  -18.3651    1.0000 </r>
       <r>  -18.3564    1.0000 </r>
       <r>  -18.3064    1.0000 </r>
       <r>  -18.2873    1.0000 </r>
       <r>  -18.2580    1.0000 </r>
       <r>  -18.2416    1.0000 </r>
       <r>  -18.2327    1.0000 </r>
       <r>  -18.2314    1.0000 </r>
       <r>  -18.1911    1.0000 </r>
       <r>  -18.1771    1.0000 </r>
       <r>  -18.1729    1.0000 </r>
       <r>  -18.1584    1.0000 </r>
       <r>  -13.5812    1.0000 </r>
       <r>  -13.4716    1.0000 </r>
       <r>  -13.4073    1.0000 </r>
       <r>  -13.3982    1.0000 </r>
       <r>  -12.8646    1.0000 </r>
       <r>  -12.7620    1.0000 </r>
       <r>  -12.7244    1.0000 </r>
       <r>  -12.7125    1.0000 </r>
       <r>  -12.6899    1.0000 </r>
       <r>  -12.6632    1.0000 </r>
       <r>  -12.5791    1.0000 </r>
       <r>  -12.5262    1.0000 </r>
       <r>  -12.0639    1.0000 </r>
       <r>  -12.0048    1.0000 </r>
       <r>  -11.9555    1.0000 </r>
       <r>  -11.9067    1.0000 </r>
       <r>   -9.3075    1.0000 </r>
       <r>   -9.0296    1.0000 </r>
       <r>   -8.5704    1.0000 </r>
       <r>   -8.5268    1.0000 </r>
       <r>   -8.4666    1.0000 </r>
       <r>   -8.4274    1.0000 </r>
       <r>   -8.3071    1.0000 </r>
       <r>   -8.2654    1.0000 </r>
       <r>   -8.2048    1.0000 </r>
       <r>   -8.1695    1.0000 </r>
       <r>   -8.0291    1.0000 </r>
       <r>   -8.0133    1.0000 </r>
       <r>   -7.9887    1.0000 </r>
       <r>   -7.9750    1.0000 </r>
       <r>   -7.3496    1.0000 </r>
       <r>   -7.3408    1.0000 </r>
       <r>   -6.3650    1.0000 </r>
       <r>   -6.3565    1.0000 </r>
       <r>   -6.3273    1.0000 </r>
       <r>   -6.3200    1.0000 </r>
       <r>   -5.5306    1.0000 </r>
       <r>   -5.4904    1.0000 </r>
       <r>   -5.4491    1.0000 </r>
       <r>   -5.3720    1.0000 </r>
       <r>   -5.3170    1.0000 </r>
       <r>   -5.2515    1.0000 </r>
       <r>   -5.1751    1.0000 </r>
       <r>   -5.1020    1.0000 </r>
       <r>   -5.0110    1.0000 </r>
       <r>   -4.9595    1.0000 </r>
       <r>   -3.8657    1.0000 </r>
       <r>   -3.5556    1.0000 </r>
       <r>   -1.3516    1.0000 </r>
       <r>   -1.2607    1.0000 </r>
       <r>   -1.2331    1.0000 </r>
       <r>   -1.0490    1.0000 </r>
       <r>   -0.4413    1.0000 </r>
       <r>   -0.4163    1.0000 </r>
       <r>   -0.4055    1.0000 </r>
       <r>   -0.3916    1.0000 </r>
       <r>   -0.3735    1.0000 </r>
       <r>   -0.3376    1.0000 </r>
       <r>   -0.2998    1.0000 </r>
       <r>   -0.2550    1.0000 </r>
       <r>   -0.1116    1.0000 </r>
       <r>   -0.0402    1.0000 </r>
       <r>    0.0226    1.0000 </r>
       <r>    0.0416    1.0000 </r>
       <r>    0.2574    1.0000 </r>
       <r>    0.3363    1.0000 </r>
       <r>    0.3612    1.0000 </r>
       <r>    0.4591    1.0000 </r>
       <r>    0.5193    1.0000 </r>
       <r>    0.6139    1.0000 </r>
       <r>    0.6432    1.0000 </r>
       <r>    0.6883    1.0000 </r>
       <r>    0.7760    1.0000 </r>
       <r>    0.8139    1.0000 </r>
       <r>    0.8322    1.0000 </r>
       <r>    0.8958    1.0000 </r>
       <r>    0.9592    1.0000 </r>
       <r>    1.0747    1.0000 </r>
       <r>    1.1489    1.0000 </r>
       <r>    1.2112    1.0000 </r>
       <r>    1.2344    1.0000 </r>
       <r>    1.2766    1.0000 </r>
       <r>    1.3212    1.0000 </r>
       <r>    1.3792    1.0000 </r>
       <r>    1.3927    1.0000 </r>
       <r>    1.4560    1.0000 </r>
       <r>    1.4948    1.0000 </r>
       <r>    1.5476    1.0000 </r>
       <r>    1.5936    1.0000 </r>
       <r>    1.6559    1.0000 </r>
       <r>    1.6963    1.0000 </r>
       <r>    1.7518    1.0000 </r>
       <r>    1.7975    1.0000 </r>
       <r>    1.8667    1.0000 </r>
       <r>    1.9275    1.0000 </r>
       <r>    1.9875    1.0000 </r>
       <r>    2.0155    1.0000 </r>
       <r>    2.0447    1.0000 </r>
       <r>    2.0904    1.0000 </r>
       <r>    2.1269    1.0000 </r>
       <r>    2.1943    1.0000 </r>
       <r>    2.1979    1.0000 </r>
       <r>    2.3136    1.0000 </r>
       <r>    2.3606    1.0000 </r>
       <r>    2.4529    1.0000 </r>
       <r>    2.4584    1.0000 </r>
       <r>    2.5008    1.0000 </r>
       <r>    2.5332    1.0000 </r>
       <r>    2.5671    1.0000 </r>
       <r>    2.5873    1.0000 </r>
       <r>    2.5897    1.0000 </r>
       <r>    2.6024    1.0000 </r>
       <r>    2.6109    1.0000 </r>
       <r>    2.6202    1.0000 </r>
       <r>    2.6678    1.0000 </r>
       <r>    2.7639    1.0000 </r>
       <r>    2.7773    1.0000 </r>
       <r>    2.7938    1.0000 </r>
       <r>    2.8429    1.0000 </r>
       <r>    2.8519    1.0000 </r>
       <r>    2.9072    1.0000 </r>
       <r>    2.9514    1.0000 </r>
       <r>    2.9548    1.0000 </r>
       <r>    2.9832    1.0000 </r>
       <r>    2.9896    1.0000 </r>
       <r>    3.0416    1.0000 </r>
       <r>    3.0497    1.0000 </r>
       <r>    3.0809    1.0000 </r>
       <r>    3.1453    1.0000 </r>
       <r>    3.2076    1.0000 </r>
       <r>    3.3117    1.0000 </r>
       <r>    3.3510    1.0000 </r>
       <r>    3.3622    1.0000 </r>
       <r>    3.3670    1.0000 </r>
       <r>    3.4084    1.0000 </r>
       <r>    3.4707    1.0000 </r>
       <r>    3.4716    1.0000 </r>
       <r>    3.5007    1.0000 </r>
       <r>    3.6117    1.0000 </r>
       <r>    3.6774    1.0000 </r>
       <r>    4.2437    1.0000 </r>
       <r>    4.2698    1.0000 </r>
       <r>    4.2836    1.0000 </r>
       <r>    4.3011    1.0000 </r>
       <r>    5.1288    0.0000 </r>
       <r>    5.1483    0.0000 </r>
       <r>    5.2358    0.0000 </r>
       <r>    5.2579    0.0000 </r>
       <r>    5.7537    0.0000 </r>
       <r>    5.7726    0.0000 </r>
       <r>    5.8318    0.0000 </r>
       <r>    5.8575    0.0000 </r>
       <r>    6.1663    0.0000 </r>
       <r>    6.1747    0.0000 </r>
       <r>    6.2023    0.0000 </r>
       <r>    6.2082    0.0000 </r>
       <r>    6.2474    0.0000 </r>
       <r>    6.2647    0.0000 </r>
       <r>    6.2899    0.0000 </r>
       <r>    6.3084    0.0000 </r>
       <r>    6.7530    0.0000 </r>
       <r>    6.8117    0.0000 </r>
       <r>    6.9878    0.0000 </r>
       <r>    7.0720    0.0000 </r>
       <r>    7.2002    0.0000 </r>
       <r>    7.2455    0.0000 </r>
       <r>    7.4655    0.0000 </r>
       <r>    7.6178    0.0000 </r>
       <r>    7.7928    0.0000 </r>
       <r>    7.8466    0.0000 </r>
       <r>    7.9328    0.0000 </r>
       <r>    8.0148    0.0000 </r>
       <r>    8.1058    0.0000 </r>
       <r>    8.3114    0.0000 </r>
       <r>    8.3647    0.0000 </r>
       <r>    8.4657    0.0000 </r>
       <r>    8.6988    0.0000 </r>
       <r>    8.7672    0.0000 </r>
       <r>    8.9578    0.0000 </r>
       <r>    8.9886    0.0000 </r>
       <r>    9.0007    0.0000 </r>
       <r>    9.0684    0.0000 </r>
       <r>    9.0815    0.0000 </r>
       <r>    9.1173    0.0000 </r>
       <r>    9.1326    0.0000 </r>
       <r>    9.1442    0.0000 </r>
       <r>    9.1674    0.0000 </r>
       <r>    9.2180    0.0000 </r>
       <r>    9.5553    0.0000 </r>
       <r>    9.6811    0.0000 </r>
      </set>
      <set comment="kpoint 4">
       <r>  -40.4364    1.0000 </r>
       <r>  -40.2673    1.0000 </r>
       <r>  -39.9625    1.0000 </r>
       <r>  -39.8106    1.0000 </r>
       <r>  -39.8076    1.0000 </r>
       <r>  -39.7259    1.0000 </r>
       <r>  -39.5669    1.0000 </r>
       <r>  -39.5551    1.0000 </r>
       <r>  -39.4357    1.0000 </r>
       <r>  -39.3714    1.0000 </r>
       <r>  -18.9262    1.0000 </r>
       <r>  -18.9173    1.0000 </r>
       <r>  -18.8550    1.0000 </r>
       <r>  -18.8478    1.0000 </r>
       <r>  -18.8468    1.0000 </r>
       <r>  -18.8453    1.0000 </r>
       <r>  -18.8412    1.0000 </r>
       <r>  -18.8329    1.0000 </r>
       <r>  -18.7762    1.0000 </r>
       <r>  -18.7721    1.0000 </r>
       <r>  -18.7691    1.0000 </r>
       <r>  -18.7638    1.0000 </r>
       <r>  -18.7559    1.0000 </r>
       <r>  -18.7422    1.0000 </r>
       <r>  -18.7340    1.0000 </r>
       <r>  -18.7297    1.0000 </r>
       <r>  -18.7198    1.0000 </r>
       <r>  -18.7096    1.0000 </r>
       <r>  -18.7039    1.0000 </r>
       <r>  -18.6854    1.0000 </r>
       <r>  -18.6746    1.0000 </r>
       <r>  -18.6677    1.0000 </r>
       <r>  -18.6658    1.0000 </r>
       <r>  -18.6634    1.0000 </r>
       <r>  -18.6612    1.0000 </r>
       <r>  -18.6571    1.0000 </r>
       <r>  -18.6463    1.0000 </r>
       <r>  -18.6440    1.0000 </r>
       <r>  -18.6424    1.0000 </r>
       <r>  -18.6380    1.0000 </r>
       <r>  -18.6371    1.0000 </r>
       <r>  -18.6357    1.0000 </r>
       <r>  -18.6345    1.0000 </r>
       <r>  -18.6309    1.0000 </r>
       <r>  -18.6288    1.0000 </r>
       <r>  -18.6272    1.0000 </r>
       <r>  -18.6250    1.0000 </r>
       <r>  -18.6185    1.0000 </r>
       <r>  -18.5646    1.0000 </r>
       <r>  -18.5616    1.0000 </r>
       <r>  -18.5551    1.0000 </r>
       <r>  -18.5484    1.0000 </r>
       <r>  -18.5469    1.0000 </r>
       <r>  -18.5442    1.0000 </r>
       <r>  -18.5371    1.0000 </r>
       <r>  -18.5352    1.0000 </r>
       <r>  -18.5289    1.0000 </r>
       <r>  -18.5068    1.0000 </r>
       <r>  -18.4891    1.0000 </r>
       <r>  -18.4889    1.0000 </r>
       <r>  -18.4885    1.0000 </r>
       <r>  -18.4753    1.0000 </r>
       <r>  -18.4739    1.0000 </r>
       <r>  -18.4735    1.0000 </r>
       <r>  -18.4731    1.0000 </r>
       <r>  -18.4728    1.0000 </r>
       <r>  -18.4542    1.0000 </r>
       <r>  -18.4477    1.0000 </r>
       <r>  -18.4422    1.0000 </r>
       <r>  -18.4349    1.0000 </r>
[...]
       <r>    8.8659    0.0000 </r>
       <r>    8.8856    0.0000 </r>
       <r>    8.9094    0.0000 </r>
       <r>    8.9169    0.0000 </r>
       <r>    8.9644    0.0000 </r>
      </set>
     </set>
    </set>
   </array>
  </eigenvalues>
  <separator name="orbital magnetization" >
   <v name="MAGDIPOLOUT">      0.00000000      0.00000000      0.00000000</v>
  </separator>
  <dos>
   <i name="efermi">      4.33104304 </i>
   <total>
    <array>
     <dimension dim="1">gridpoints</dimension>
     <dimension dim="2">spin</dimension>
     <field>energy</field>
     <field>total</field>
     <field>integrated</field>
     <set>
      <set comment="spin 1">
       <r>   -42.9423     0.0000     0.0000 </r>
       <r>   -42.7586     0.0000     0.0000 </r>
       <r>   -42.5748     0.0000     0.0000 </r>
       <r>   -42.3910     0.0000     0.0000 </r>
       <r>   -42.2073     0.0000     0.0000 </r>
       <r>   -42.0235     0.0000     0.0000 </r>
       <r>   -41.8397     0.0000     0.0000 </r>
       <r>   -41.6560     0.0000     0.0000 </r>
       <r>   -41.4722     0.0000     0.0000 </r>
       <r>   -41.2884     0.0000     0.0000 </r>
       <r>   -41.1047     0.0000     0.0000 </r>
       <r>   -40.9209     0.0000     0.0000 </r>
       <r>   -40.7371     0.0000     0.0000 </r>
       <r>   -40.5534     0.0000     0.0000 </r>
       <r>   -40.3696     0.0000     2.0000 </r>
       <r>   -40.1859     0.0000     4.0000 </r>
       <r>   -40.0021     0.0000     4.0000 </r>
       <r>   -39.8183     0.0000     6.0000 </r>
       <r>   -39.6346     0.0000    12.0000 </r>
       <r>   -39.4508     0.0000    16.0000 </r>
       <r>   -39.2670     0.0000    20.0000 </r>
       <r>   -39.0833     0.0000    20.0000 </r>
       <r>   -38.8995     0.0000    20.0000 </r>
       <r>   -38.7157     0.0000    20.0000 </r>
       <r>   -38.5320     0.0000    20.0000 </r>
       <r>   -38.3482     0.0000    20.0000 </r>
       <r>   -38.1644     0.0000    20.0000 </r>
       <r>   -37.9807     0.0000    20.0000 </r>
       <r>   -37.7969     0.0000    20.0000 </r>
       <r>   -37.6132     0.0000    20.0000 </r>
       <r>   -37.4294     0.0000    20.0000 </r>
       <r>   -37.2456     0.0000    20.0000 </r>
       <r>   -37.0619     0.0000    20.0000 </r>
       <r>   -36.8781     0.0000    20.0000 </r>
       <r>   -36.6943     0.0000    20.0000 </r>
       <r>   -36.5106     0.0000    20.0000 </r>
       <r>   -36.3268     0.0000    20.0000 </r>
       <r>   -36.1430     0.0000    20.0000 </r>
       <r>   -35.9593     0.0000    20.0000 </r>
       <r>   -35.7755     0.0000    20.0000 </r>
       <r>   -35.5917     0.0000    20.0000 </r>
       <r>   -35.4080     0.0000    20.0000 </r>
       <r>   -35.2242     0.0000    20.0000 </r>
       <r>   -35.0405     0.0000    20.0000 </r>
       <r>   -34.8567     0.0000    20.0000 </r>
       <r>   -34.6729     0.0000    20.0000 </r>
       <r>   -34.4892     0.0000    20.0000 </r>
       <r>   -34.3054     0.0000    20.0000 </r>
       <r>   -34.1216     0.0000    20.0000 </r>
       <r>   -33.9379     0.0000    20.0000 </r>
       <r>   -33.7541     0.0000    20.0000 </r>
       <r>   -33.5703     0.0000    20.0000 </r>
       <r>   -33.3866     0.0000    20.0000 </r>
       <r>   -33.2028     0.0000    20.0000 </r>
       <r>   -33.0190     0.0000    20.0000 </r>
       <r>   -32.8353     0.0000    20.0000 </r>
       <r>   -32.6515     0.0000    20.0000 </r>
       <r>   -32.4678     0.0000    20.0000 </r>
       <r>   -32.2840     0.0000    20.0000 </r>
       <r>   -32.1002     0.0000    20.0000 </r>
       <r>   -31.9165     0.0000    20.0000 </r>
       <r>   -31.7327     0.0000    20.0000 </r>
       <r>   -31.5489     0.0000    20.0000 </r>
       <r>   -31.3652     0.0000    20.0000 </r>
       <r>   -31.1814     0.0000    20.0000 </r>
       <r>   -30.9976     0.0000    20.0000 </r>
       <r>   -30.8139     0.0000    20.0000 </r>
       <r>   -30.6301     0.0000    20.0000 </r>
       <r>   -30.4463     0.0000    20.0000 </r>
       <r>   -30.2626     0.0000    20.0000 </r>
       <r>   -30.0788     0.0000    20.0000 </r>
       <r>   -29.8951     0.0000    20.0000 </r>
       <r>   -29.7113     0.0000    20.0000 </r>
       <r>   -29.5275     0.0000    20.0000 </r>
       <r>   -29.3438     0.0000    20.0000 </r>
       <r>   -29.1600     0.0000    20.0000 </r>
       <r>   -28.9762     0.0000    20.0000 </r>
       <r>   -28.7925     0.0000    20.0000 </r>
       <r>   -28.6087     0.0000    20.0000 </r>
       <r>   -28.4249     0.0000    20.0000 </r>
       <r>   -28.2412     0.0000    20.0000 </r>
       <r>   -28.0574     0.0000    20.0000 </r>
       <r>   -27.8736     0.0000    20.0000 </r>
       <r>   -27.6899     0.0000    20.0000 </r>
       <r>   -27.5061     0.0000    20.0000 </r>
       <r>   -27.3224     0.0000    20.0000 </r>
       <r>   -27.1386     0.0000    20.0000 </r>
       <r>   -26.9548     0.0000    20.0000 </r>
       <r>   -26.7711     0.0000    20.0000 </r>
       <r>   -26.5873     0.0000    20.0000 </r>
       <r>   -26.4035     0.0000    20.0000 </r>
       <r>   -26.2198     0.0000    20.0000 </r>
       <r>   -26.0360     0.0000    20.0000 </r>
       <r>   -25.8522     0.0000    20.0000 </r>
       <r>   -25.6685     0.0000    20.0000 </r>
       <r>   -25.4847     0.0000    20.0000 </r>
       <r>   -25.3009     0.0000    20.0000 </r>
       <r>   -25.1172     0.0000    20.0000 </r>
       <r>   -24.9334     0.0000    20.0000 </r>
       <r>   -24.7497     0.0000    20.0000 </r>
       <r>   -24.5659     0.0000    20.0000 </r>
       <r>   -24.3821     0.0000    20.0000 </r>
       <r>   -24.1984     0.0000    20.0000 </r>
       <r>   -24.0146     0.0000    20.0000 </r>
       <r>   -23.8308     0.0000    20.0000 </r>
       <r>   -23.6471     0.0000    20.0000 </r>
       <r>   -23.4633     0.0000    20.0000 </r>
       <r>   -23.2795     0.0000    20.0000 </r>
       <r>   -23.0958     0.0000    20.0000 </r>
       <r>   -22.9120     0.0000    20.0000 </r>
       <r>   -22.7282     0.0000    20.0000 </r>
       <r>   -22.5445     0.0000    20.0000 </r>
       <r>   -22.3607     0.0000    20.0000 </r>
       <r>   -22.1770     0.0000    20.0000 </r>
       <r>   -21.9932     0.0000    20.0000 </r>
       <r>   -21.8094     0.0000    20.0000 </r>
       <r>   -21.6257     0.0000    20.0000 </r>
       <r>   -21.4419     0.0000    20.0000 </r>
       <r>   -21.2581     0.0000    20.0000 </r>
       <r>   -21.0744     0.0000    20.0000 </r>
       <r>   -20.8906     0.0000    20.0000 </r>
       <r>   -20.7068     0.0000    20.0000 </r>
       <r>   -20.5231     0.0000    20.0000 </r>
       <r>   -20.3393     0.0000    20.0000 </r>
       <r>   -20.1555     0.0000    20.0000 </r>
       <r>   -19.9718     0.0000    20.0000 </r>
       <r>   -19.7880     0.0000    20.0000 </r>
       <r>   -19.6043     0.0000    20.0000 </r>
       <r>   -19.4205     0.0000    20.0000 </r>
       <r>   -19.2367     0.0000    20.0000 </r>
       <r>   -19.0530     0.0000    20.0000 </r>
       <r>   -18.8692     0.0000    24.0000 </r>
       <r>   -18.6854 13522.3223    58.0650 </r>
       <r>   -18.5017     0.0000   116.0000 </r>
       <r>   -18.3179     0.0000   160.0000 </r>
       <r>   -18.1341     0.0000   180.0000 </r>
       <r>   -17.9504     0.0000   180.0000 </r>
       <r>   -17.7666     0.0000   180.0000 </r>
       <r>   -17.5828     0.0000   180.0000 </r>
       <r>   -17.3991     0.0000   180.0000 </r>
       <r>   -17.2153     0.0000   180.0000 </r>
       <r>   -17.0316     0.0000   180.0000 </r>
       <r>   -16.8478     0.0000   180.0000 </r>
       <r>   -16.6640     0.0000   180.0000 </r>
       <r>   -16.4803     0.0000   180.0000 </r>
       <r>   -16.2965     0.0000   180.0000 </r>
       <r>   -16.1127     0.0000   180.0000 </r>
       <r>   -15.9290     0.0000   180.0000 </r>
       <r>   -15.7452     0.0000   180.0000 </r>
       <r>   -15.5614     0.0000   180.0000 </r>
       <r>   -15.3777     0.0000   180.0000 </r>
       <r>   -15.1939     0.0000   180.0000 </r>
       <r>   -15.0101     0.0000   180.0000 </r>
       <r>   -14.8264     0.0000   180.0000 </r>
       <r>   -14.6426     0.0000   180.0000 </r>
       <r>   -14.4589     0.0000   180.0000 </r>
       <r>   -14.2751     0.0000   180.0000 </r>
       <r>   -14.0913     0.0000   180.0000 </r>
       <r>   -13.9076     0.0000   180.0000 </r>
       <r>   -13.7238     0.0000   180.0000 </r>
       <r>   -13.5400     0.0000   182.0000 </r>
       <r>   -13.3563     0.0000   188.0000 </r>
       <r>   -13.1725     0.0000   188.0000 </r>
       <r>   -12.9887     0.0000   188.0000 </r>
       <r>   -12.8050     0.0000   190.0000 </r>
       <r>   -12.6212     0.0000   200.0000 </r>
       <r>   -12.4374     0.0000   204.0000 </r>
       <r>   -12.2537     0.0000   204.0000 </r>
       <r>   -12.0699     0.0000   204.0000 </r>
       <r>   -11.8862     0.0000   212.0000 </r>
       <r>   -11.7024     0.0000   212.0000 </r>
       <r>   -11.5186     0.0000   212.0000 </r>
       <r>   -11.3349     0.0000   212.0000 </r>
       <r>   -11.1511     0.0000   212.0000 </r>
       <r>   -10.9673     0.0000   212.0000 </r>
       <r>   -10.7836     0.0000   212.0000 </r>
       <r>   -10.5998     0.0000   212.0000 </r>
       <r>   -10.4160     0.0000   212.0000 </r>
       <r>   -10.2323     0.0000   212.0000 </r>
       <r>   -10.0485     0.0000   212.0000 </r>
       <r>    -9.8647     0.0000   212.0000 </r>
       <r>    -9.6810     0.0000   212.0000 </r>
       <r>    -9.4972     0.0000   212.0000 </r>
       <r>    -9.3135     0.0557   212.0001 </r>
       <r>    -9.1297    10.8856   213.2159 </r>
       <r>    -8.9459     0.0000   216.0000 </r>
       <r>    -8.7622    20.5392   217.9142 </r>
       <r>    -8.5784    11.0236   220.4265 </r>
       <r>    -8.3946    38.2230   224.0625 </r>
       <r>    -8.2109     1.6119   228.0070 </r>
       <r>    -8.0271    36.4061   232.1477 </r>
       <r>    -7.8433    17.5336   236.3177 </r>
       <r>    -7.6596    24.5471   239.6425 </r>
       <r>    -7.4758    15.0244   243.0021 </r>
       <r>    -7.2920     0.0000   244.0000 </r>
       <r>    -7.1083     0.0000   244.0000 </r>
       <r>    -6.9245     0.0000   244.0000 </r>
       <r>    -6.7408     0.0000   244.0000 </r>
       <r>    -6.5570     0.0000   244.0000 </r>
       <r>    -6.3732     0.0050   244.0000 </r>
       <r>    -6.1895    17.9232   245.4741 </r>
       <r>    -6.0057    22.2742   250.0675 </r>
       <r>    -5.8219    19.9208   252.9350 </r>
       <r>    -5.6382    20.9669   257.8789 </r>
       <r>    -5.4544    19.2204   261.3393 </r>
       <r>    -5.2706    20.1943   265.1891 </r>
       <r>    -5.0869     6.4654   267.6413 </r>
       <r>    -4.9031     6.0864   268.3374 </r>
       <r>    -4.7193     8.1457   269.7662 </r>
       <r>    -4.5356    10.6614   271.4868 </r>
       <r>    -4.3518     5.9658   273.0206 </r>
       <r>    -4.1681     7.3106   274.2886 </r>
       <r>    -3.9843     4.2742   275.3696 </r>
       <r>    -3.8005     1.3425   275.8622 </r>
       <r>    -3.6168     0.1471   275.9970 </r>
       <r>    -3.4330     0.0000   276.0000 </r>
       <r>    -3.2492     0.0000   276.0000 </r>
       <r>    -3.0655     0.0000   276.0000 </r>
       <r>    -2.8817     0.0000   276.0000 </r>
       <r>    -2.6979     0.0000   276.0000 </r>
       <r>    -2.5142     0.0000   276.0000 </r>
       <r>    -2.3304     0.0000   276.0000 </r>
       <r>    -2.1466     0.0000   276.0000 </r>
       <r>    -1.9629     0.0000   276.0000 </r>
       <r>    -1.7791     0.0000   276.0000 </r>
       <r>    -1.5954     0.0000   276.0000 </r>
       <r>    -1.4116     0.2251   276.0030 </r>
       <r>    -1.2278     6.4495   276.4860 </r>
       <r>    -1.0441    10.7302   278.2568 </r>
       <r>    -0.8603    13.2926   280.5406 </r>
       <r>    -0.6765     7.8647   282.5127 </r>
       <r>    -0.4928     8.9876   283.6666 </r>
       <r>    -0.3090    23.1831   287.0450 </r>
       <r>    -0.1252    37.2287   292.2543 </r>
       <r>     0.0585    35.0692   299.2839 </r>
       <r>     0.2423    32.8447   305.4628 </r>
       <r>     0.4261    38.4635   312.3476 </r>
       <r>     0.6098    39.3338   319.3860 </r>
       <r>     0.7936    31.5650   325.7133 </r>
       <r>     0.9773    39.6485   332.7870 </r>
       <r>     1.1611    49.5822   340.2395 </r>
       <r>     1.3449    51.3758   349.3395 </r>
       <r>     1.5286    40.6515   359.4073 </r>
       <r>     1.7124    42.9312   367.8133 </r>
       <r>     1.8962    33.6469   374.5389 </r>
       <r>     2.0799    43.6401   382.5601 </r>
       <r>     2.2637    41.9244   390.7010 </r>
       <r>     2.4475    54.6704   399.5919 </r>
       <r>     2.6312    57.8533   410.5976 </r>
       <r>     2.8150    58.3202   420.9750 </r>
       <r>     2.9988    65.0417   432.9212 </r>
       <r>     3.1825    43.9080   443.0532 </r>
       <r>     3.3663    41.5366   451.1117 </r>
       <r>     3.5500    28.9305   458.3440 </r>
       <r>     3.7338    20.5070   462.9789 </r>
       <r>     3.9176    11.8799   465.9987 </r>
       <r>     4.1013     5.3653   467.5832 </r>
       <r>     4.2851     0.0272   467.9999 </r>
       <r>     4.4689     0.0000   468.0000 </r>
       <r>     4.6526     0.0000   468.0000 </r>
       <r>     4.8364     0.0000   468.0000 </r>
       <r>     5.0202     0.0000   468.0000 </r>
       <r>     5.2039     1.1376   468.0590 </r>
       <r>     5.3877     5.0314   468.6123 </r>
       <r>     5.5715     9.1054   469.9115 </r>
       <r>     5.7552    12.6575   471.6420 </r>
       <r>     5.9390    15.3586   475.8466 </r>
       <r>     6.1227    12.1450   478.3065 </r>
       <r>     6.3065    12.0218   480.4712 </r>
       <r>     6.4903    13.8852   482.8518 </r>
       <r>     6.6740    15.7312   485.5733 </r>
       <r>     6.8578    17.6710   488.6332 </r>
       <r>     7.0416    21.2633   492.1708 </r>
       <r>     7.2253    30.4997   496.7683 </r>
       <r>     7.4091    40.7605   503.3539 </r>
       <r>     7.5929    20.9171   509.6135 </r>
       <r>     7.7766    44.4014   515.4459 </r>
       <r>     7.9604    44.1141   523.7820 </r>
       <r>     8.1442    25.6018   530.2573 </r>
       <r>     8.3279    18.9452   534.1391 </r>
       <r>     8.5117    21.1131   537.7041 </r>
       <r>     8.6954    27.4487   542.2515 </r>
       <r>     8.8792    44.7495   548.7510 </r>
       <r>     9.0630    25.9014   555.7832 </r>
       <r>     9.2467     8.8555   558.6354 </r>
       <r>     9.4305     3.2595   559.7474 </r>
       <r>     9.6143     0.1933   559.9957 </r>
       <r>     9.7980     0.0000   560.0000 </r>
       <r>     9.9818     0.0000   560.0000 </r>
       <r>    10.1656     0.0000   560.0000 </r>
       <r>    10.3493     0.0000   560.0000 </r>
       <r>    10.5331     0.0000   560.0000 </r>
       <r>    10.7169     0.0000   560.0000 </r>
       <r>    10.9006     0.0000   560.0000 </r>
       <r>    11.0844     0.0000   560.0000 </r>
       <r>    11.2681     0.0000   560.0000 </r>
       <r>    11.4519     0.0000   560.0000 </r>
       <r>    11.6357     0.0000   560.0000 </r>
       <r>    11.8194     0.0000   560.0000 </r>
       <r>    12.0032     0.0000   560.0000 </r>
       <r>    12.1870     0.0000   560.0000 </r>
      </set>
     </set>
    </array>
   </total>
  </dos>
 </calculation>
 <structure name="finalpos" >
  <crystal>
   <varray name="basis" >
    <v>      11.17850000       0.00000000       0.00000000 </v>
    <v>       0.00000000       9.57460000       0.00000000 </v>
    <v>       0.00000000       0.00000000      11.18240000 </v>
   </varray>
   <i name="volume">   1196.84853820 </i>
   <varray name="rec_basis" >
    <v>       0.08945744       0.00000000       0.00000000 </v>
    <v>       0.00000000       0.10444301       0.00000000 </v>
    <v>       0.00000000       0.00000000       0.08942624 </v>
   </varray>
  </crystal>
  <varray name="positions" >
   <v>       0.37539000       0.00017000       0.43687000 </v>
   <v>       0.37461000       0.00017000       0.18687000 </v>
   <v>       0.62539000       0.99984000       0.43687000 </v>
   <v>       0.87539000       0.00017000       0.43687000 </v>
   <v>       0.12539000       0.99984000       0.93687000 </v>
   <v>       0.37539000       0.00017000       0.93687000 </v>
   <v>       0.12461000       0.99984000       0.68687000 </v>
   <v>       0.37461000       0.00017000       0.68687000 </v>
   <v>       0.62461000       0.99984000       0.68687000 </v>
   <v>       0.87461000       0.00017000       0.68687000 </v>
   <v>       0.12461000       0.99984000       0.18687000 </v>
   <v>       0.62461000       0.99984000       0.18687000 </v>
   <v>       0.87539000       0.00017000       0.93687000 </v>
   <v>       0.00013000       0.29519000       0.06281000 </v>
   <v>       0.25013000       0.70481000       0.06281000 </v>
   <v>       0.24987000       0.29519000       0.31282000 </v>
   <v>       0.49987000       0.70481000       0.31282000 </v>
   <v>       0.50013000       0.29519000       0.06281000 </v>
   <v>       0.75013000       0.70481000       0.06281000 </v>
   <v>       0.74987000       0.29519000       0.31282000 </v>
   <v>       0.99987000       0.70481000       0.31282000 </v>
   <v>       0.00013000       0.29519000       0.56281000 </v>
   <v>       0.25013000       0.70481000       0.56281000 </v>
   <v>       0.24987000       0.29519000       0.81282000 </v>
   <v>       0.49987000       0.70481000       0.81282000 </v>
   <v>       0.50013000       0.29519000       0.56281000 </v>
   <v>       0.75013000       0.70481000       0.56281000 </v>
   <v>       0.74987000       0.29519000       0.81282000 </v>
   <v>       0.99987000       0.70481000       0.81282000 </v>
   <v>       0.25005000       0.32677000       0.06286000 </v>
   <v>       0.00005000       0.67323000       0.06286000 </v>
   <v>       0.49995000       0.32677000       0.31286000 </v>
   <v>       0.24995000       0.67323000       0.31286000 </v>
   <v>       0.75005000       0.32677000       0.06286000 </v>
   <v>       0.50005000       0.67323000       0.06286000 </v>
   <v>       0.99995000       0.32677000       0.31286000 </v>
   <v>       0.74995000       0.67323000       0.31286000 </v>
   <v>       0.25005000       0.32677000       0.56286000 </v>
   <v>       0.00005000       0.67323000       0.56286000 </v>
   <v>       0.49995000       0.32677000       0.81286000 </v>
   <v>       0.24995000       0.67323000       0.81286000 </v>
   <v>       0.75005000       0.32677000       0.56286000 </v>
   <v>       0.50005000       0.67323000       0.56286000 </v>
   <v>       0.99995000       0.32677000       0.81286000 </v>
   <v>       0.74995000       0.67323000       0.81286000 </v>
   <v>       0.49987000       0.07798000       0.06246000 </v>
   <v>       0.24987000       0.92202000       0.06246000 </v>
   <v>       0.25013000       0.07798000       0.31246000 </v>
   <v>       0.00013000       0.92202000       0.31246000 </v>
   <v>       0.99987000       0.07798000       0.06246000 </v>
   <v>       0.74987000       0.92202000       0.06246000 </v>
   <v>       0.75013000       0.07798000       0.31246000 </v>
   <v>       0.50013000       0.92202000       0.31246000 </v>
   <v>       0.49987000       0.07798000       0.56246000 </v>
   <v>       0.24987000       0.92202000       0.56246000 </v>
   <v>       0.25013000       0.07798000       0.81246000 </v>
   <v>       0.00013000       0.92202000       0.81246000 </v>
   <v>       0.99987000       0.07798000       0.56246000 </v>
   <v>       0.74987000       0.92202000       0.56246000 </v>
   <v>       0.75013000       0.07798000       0.81246000 </v>
   <v>       0.50013000       0.92202000       0.81246000 </v>
  </varray>
 </structure>
</modeling>
