<?xml version="1.0" encoding="ISO-8859-1"?>
<modeling>
 <generator>
  <i name="program" type="string">vasp </i>
  <i name="version" type="string">5.4.4.18Apr17-6-g9f103f2a35  </i>
  <i name="subversion" type="string">(build Jul 31 2017 11:33:29) complex            parallel </i>
  <i name="platform" type="string">LinuxIFC </i>
  <i name="date" type="string">2021 09 29 </i>
  <i name="time" type="string">02:44:00 </i>
 </generator>
 <incar>
  <i type="string" name="SYSTEM"> La2O2S</i>
  <i type="string" name="PREC">normal</i>
  <i type="int" name="NELMIN">     4</i>
  <i type="int" name="IBRION">     2</i>
  <i type="int" name="NFREE">    10</i>
  <i name="EDIFF">      0.00000100</i>
  <i name="EDIFFG">     -0.01000000</i>
  <i type="int" name="NSW">     1</i>
  <i type="int" name="ISIF">     2</i>
  <i name="ENCUT">    600.00000000</i>
  <i name="ENAUG">    900.00000000</i>
  <i type="int" name="ISMEAR">    -5</i>
  <i type="logical" name="LWAVE"> F  </i>
  <i type="logical" name="LCHARG"> F  </i>
  <v type="int" name="KPOINT_BSE">    -1     0     0     0</v>
 </incar>
 <structure name="primitive_cell" >
  <crystal>
   <varray name="basis" >
    <v>      11.17850000       0.00000000       0.00000000 </v>
    <v>       0.00000000       9.57460000       0.00000000 </v>
    <v>       0.00000000       0.00000000      11.18240000 </v>
   </varray>
   <i name="volume">   1196.84853820 </i>
   <varray name="rec_basis" >
    <v>       0.08945744       0.00000000       0.00000000 </v>
    <v>       0.00000000       0.10444301       0.00000000 </v>
    <v>       0.00000000       0.00000000       0.08942624 </v>
   </varray>
  </crystal>
  <varray name="positions" >
   <v>       0.37539000       0.00017000       0.43687000 </v>
   <v>      -0.49987000      -0.07798000       0.31246000 </v>
   <v>       0.25013000       0.07798000       0.31246000 </v>
   <v>       0.49987000       0.07798000      -0.43754000 </v>
   <v>       0.24987000      -0.07798000      -0.43754000 </v>
   <v>      -0.37461000      -0.00016000       0.43687000 </v>
   <v>       0.37461000       0.00017000       0.18687000 </v>
   <v>       0.37461000       0.00017000      -0.31313000 </v>
   <v>       0.49987000      -0.29519000       0.31282000 </v>
   <v>       0.24987000       0.29519000       0.31282000 </v>
   <v>      -0.49987000       0.29519000      -0.43719000 </v>
   <v>       0.25013000      -0.29519000      -0.43719000 </v>
   <v>       0.49995000       0.32677000       0.31286000 </v>
   <v>       0.24995000      -0.32677000       0.31286000 </v>
   <v>      -0.49995000      -0.32677000      -0.43714000 </v>
   <v>       0.25005000       0.32677000      -0.43714000 </v>
   <v>      -0.37539000      -0.00016000      -0.31313000 </v>
   <v>       0.12461000      -0.00016000       0.18687000 </v>
   <v>       0.12461000      -0.00016000      -0.31313000 </v>
   <v>       0.49987000       0.07798000       0.06246000 </v>
   <v>      -0.24987000       0.07798000       0.31246000 </v>
   <v>      -0.25013000      -0.07798000      -0.43754000 </v>
   <v>       0.24987000      -0.07798000       0.06246000 </v>
   <v>       0.00013000      -0.07798000       0.31246000 </v>
   <v>      -0.49987000      -0.07798000      -0.18754000 </v>
   <v>      -0.00013000       0.07798000      -0.43754000 </v>
   <v>       0.25013000       0.07798000      -0.18754000 </v>
   <v>      -0.49987000       0.29519000       0.06281000 </v>
   <v>      -0.25013000       0.29519000       0.31282000 </v>
   <v>       0.25013000      -0.29519000       0.06281000 </v>
   <v>      -0.24987000      -0.29519000      -0.43719000 </v>
   <v>      -0.00013000      -0.29519000       0.31282000 </v>
   <v>       0.00013000       0.29519000      -0.43719000 </v>
   <v>       0.49987000      -0.29519000      -0.18718000 </v>
   <v>       0.24987000       0.29519000      -0.18718000 </v>
   <v>      -0.49995000      -0.32677000       0.06286000 </v>
   <v>       0.25005000       0.32677000       0.06286000 </v>
   <v>      -0.25005000      -0.32677000       0.31286000 </v>
   <v>      -0.24995000       0.32677000      -0.43714000 </v>
   <v>      -0.00005000       0.32677000       0.31286000 </v>
   <v>       0.00005000      -0.32677000      -0.43714000 </v>
   <v>       0.49995000       0.32677000      -0.18714000 </v>
   <v>       0.24995000      -0.32677000      -0.18714000 </v>
   <v>      -0.12461000       0.00017000       0.43687000 </v>
   <v>      -0.25013000      -0.07798000       0.06246000 </v>
   <v>      -0.00013000       0.07798000       0.06246000 </v>
   <v>      -0.24987000       0.07798000      -0.18754000 </v>
   <v>       0.00013000      -0.07798000      -0.18754000 </v>
   <v>      -0.12539000       0.00017000      -0.31313000 </v>
   <v>      -0.12539000       0.00017000       0.18687000 </v>
   <v>       0.12539000      -0.00016000      -0.06313000 </v>
   <v>      -0.37461000      -0.00016000      -0.06313000 </v>
   <v>      -0.24987000      -0.29519000       0.06281000 </v>
   <v>       0.00013000       0.29519000       0.06281000 </v>
   <v>      -0.25013000       0.29519000      -0.18718000 </v>
   <v>      -0.00013000      -0.29519000      -0.18718000 </v>
   <v>      -0.24995000       0.32677000       0.06286000 </v>
   <v>       0.00005000      -0.32677000       0.06286000 </v>
   <v>      -0.25005000      -0.32677000      -0.18714000 </v>
   <v>      -0.00005000       0.32677000      -0.18714000 </v>
   <v>      -0.12461000       0.00017000      -0.06313000 </v>
  </varray>
 </structure>
 <varray name="primitive_index" >
  <v type="int" >        1 </v>
  <v type="int" >       53 </v>
  <v type="int" >       48 </v>
  <v type="int" >       54 </v>
  <v type="int" >       55 </v>
  <v type="int" >        3 </v>
  <v type="int" >       11 </v>
  <v type="int" >       13 </v>
  <v type="int" >       17 </v>
  <v type="int" >       16 </v>
  <v type="int" >       26 </v>
  <v type="int" >       23 </v>
  <v type="int" >       32 </v>
  <v type="int" >       33 </v>
  <v type="int" >       43 </v>
  <v type="int" >       38 </v>
  <v type="int" >        9 </v>
  <v type="int" >        2 </v>
  <v type="int" >        6 </v>
  <v type="int" >       46 </v>
  <v type="int" >       52 </v>
  <v type="int" >       59 </v>
  <v type="int" >       47 </v>
  <v type="int" >       49 </v>
  <v type="int" >       61 </v>
  <v type="int" >       58 </v>
  <v type="int" >       56 </v>
  <v type="int" >       18 </v>
  <v type="int" >       20 </v>
  <v type="int" >       15 </v>
  <v type="int" >       27 </v>
  <v type="int" >       21 </v>
  <v type="int" >       22 </v>
  <v type="int" >       25 </v>
  <v type="int" >       24 </v>
  <v type="int" >       35 </v>
  <v type="int" >       30 </v>
  <v type="int" >       37 </v>
  <v type="int" >       42 </v>
  <v type="int" >       36 </v>
  <v type="int" >       39 </v>
  <v type="int" >       40 </v>
  <v type="int" >       41 </v>
  <v type="int" >        4 </v>
  <v type="int" >       51 </v>
  <v type="int" >       50 </v>
  <v type="int" >       60 </v>
  <v type="int" >       57 </v>
  <v type="int" >       10 </v>
  <v type="int" >       12 </v>
  <v type="int" >        5 </v>
  <v type="int" >        7 </v>
  <v type="int" >       19 </v>
  <v type="int" >       14 </v>
  <v type="int" >       28 </v>
  <v type="int" >       29 </v>
  <v type="int" >       34 </v>
  <v type="int" >       31 </v>
  <v type="int" >       45 </v>
  <v type="int" >       44 </v>
  <v type="int" >        8 </v>
 </varray>
 <kpoints>
  <generation param="Gamma">
   <v type="int" name="divisions">       2        2        2 </v>
   <v name="usershift">      0.00000000       0.00000000       0.00000000 </v>
   <v name="genvec1">      0.50000000       0.00000000       0.00000000 </v>
   <v name="genvec2">      0.00000000       0.50000000       0.00000000 </v>
   <v name="genvec3">      0.00000000       0.00000000       0.50000000 </v>
   <v name="shift">      0.00000000       0.00000000       0.00000000 </v>
  </generation>
  <varray name="kpointlist" >
   <v>       0.00000000       0.00000000       0.00000000 </v>
   <v>       0.50000000       0.00000000       0.00000000 </v>
   <v>       0.00000000       0.50000000       0.00000000 </v>
   <v>       0.50000000       0.50000000       0.00000000 </v>
   <v>       0.00000000       0.00000000       0.50000000 </v>
   <v>       0.50000000       0.00000000       0.50000000 </v>
   <v>       0.00000000       0.50000000       0.50000000 </v>
   <v>       0.50000000       0.50000000       0.50000000 </v>
  </varray>
  <varray name="weights" >
   <v>       0.12500000 </v>
   <v>       0.12500000 </v>
   <v>       0.12500000 </v>
   <v>       0.12500000 </v>
   <v>       0.12500000 </v>
   <v>       0.12500000 </v>
   <v>       0.12500000 </v>
   <v>       0.12500000 </v>
  </varray>
  <varray name="tetrahedronlist"  type="int" >
   <v type="int" >        2        1        2        4        5 </v>
   <v type="int" >        2        1        3        4        5 </v>
   <v type="int" >        2        3        4        5        7 </v>
   <v type="int" >        2        2        4        5        6 </v>
   <v type="int" >        2        4        5        6        8 </v>
   <v type="int" >        2        4        5        7        8 </v>
   <v type="int" >        2        1        2        3        6 </v>
   <v type="int" >        2        2        3        4        6 </v>
   <v type="int" >        2        3        4        6        8 </v>
   <v type="int" >        2        1        3        5        6 </v>
   <v type="int" >        2        3        5        6        7 </v>
   <v type="int" >        2        3        6        7        8 </v>
   <v type="int" >        2        2        3        4        7 </v>
   <v type="int" >        2        1        2        3        7 </v>
   <v type="int" >        2        1        2        5        7 </v>
   <v type="int" >        2        2        4        7        8 </v>
   <v type="int" >        2        2        6        7        8 </v>
   <v type="int" >        2        2        5        6        7 </v>
   <v type="int" >        2        1        3        4        8 </v>
   <v type="int" >        2        1        2        4        8 </v>
   <v type="int" >        2        1        2        6        8 </v>
   <v type="int" >        2        1        3        7        8 </v>
   <v type="int" >        2        1        5        7        8 </v>
   <v type="int" >        2        1        5        6        8 </v>
  </varray>
  <i name="volumeweight">      0.02083333 </i>
 </kpoints>
 <parameters>
  <separator name="general" >
   <i type="string" name="SYSTEM">La2O2S</i>
   <i type="logical" name="LCOMPAT"> F  </i>
  </separator>
  <separator name="electronic" >
   <i type="string" name="PREC">normal</i>
   <i name="ENMAX">    600.00000000</i>
   <i name="ENAUG">    900.00000000</i>
   <i name="EDIFF">      0.00000100</i>
   <i type="int" name="IALGO">    38</i>
   <i type="int" name="IWAVPR">    11</i>
   <i type="int" name="NBANDS">   280</i>
   <i name="NELECT">    468.00000000</i>
   <i type="int" name="TURBO">     0</i>
   <i type="int" name="IRESTART">     0</i>
   <i type="int" name="NREBOOT">     0</i>
   <i type="int" name="NMIN">     0</i>
   <i name="EREF">      0.00000000</i>
   <separator name="electronic smearing" >
    <i type="int" name="ISMEAR">    -5</i>
    <i name="SIGMA">      0.20000000</i>
    <i name="KSPACING">      0.50000000</i>
    <i type="logical" name="KGAMMA"> T  </i>
   </separator>
   <separator name="electronic projectors" >
    <i type="logical" name="LREAL"> F  </i>
    <v name="ROPT">      0.00000000      0.00000000      0.00000000      0.00000000      0.00000000</v>
    <i type="int" name="LMAXPAW">  -100</i>
    <i type="int" name="LMAXMIX">     2</i>
    <i type="logical" name="NLSPLINE"> F  </i>
   </separator>
   <separator name="electronic startup" >
    <i type="int" name="ISTART">     0</i>
    <i type="int" name="ICHARG">     2</i>
    <i type="int" name="INIWAV">     1</i>
   </separator>
   <separator name="electronic spin" >
    <i type="int" name="ISPIN">     1</i>
    <i type="logical" name="LNONCOLLINEAR"> F  </i>
    <v name="MAGMOM">      1.00000000      1.00000000      1.00000000      1.00000000      1.00000000      1.00000000      1.00000000      1.00000000      1.00000000      1.00000000      1.00000000      1.00000000      1.00000000      1.00000000      1.00000000      1.00000000      1.00000000      1.00000000      1.00000000      1.00000000
      1.00000000      1.00000000      1.00000000      1.00000000      1.00000000      1.00000000      1.00000000      1.00000000      1.00000000      1.00000000      1.00000000      1.00000000      1.00000000      1.00000000      1.00000000      1.00000000      1.00000000      1.00000000      1.00000000      1.00000000
      1.00000000      1.00000000      1.00000000      1.00000000      1.00000000      1.00000000      1.00000000      1.00000000      1.00000000      1.00000000      1.00000000      1.00000000      1.00000000      1.00000000      1.00000000      1.00000000      1.00000000      1.00000000      1.00000000      1.00000000
      1.00000000</v>
    <i name="NUPDOWN">     -1.00000000</i>
    <i type="logical" name="LSORBIT"> F  </i>
    <v name="SAXIS">      0.00000000      0.00000000      1.00000000</v>
    <i type="logical" name="LSPIRAL"> F  </i>
    <v name="QSPIRAL">      0.00000000      0.00000000      0.00000000</v>
    <i type="logical" name="LZEROZ"> F  </i>
   </separator>
   <separator name="electronic exchange-correlation" >
    <i type="logical" name="LASPH"> F  </i>
    <i type="logical" name="LMETAGGA"> F  </i>
   </separator>
   <separator name="electronic convergence" >
    <i type="int" name="NELM">    60</i>
    <i type="int" name="NELMDL">    -5</i>
    <i type="int" name="NELMIN">     4</i>
    <i name="ENINI">    600.00000000</i>
    <separator name="electronic convergence detail" >
     <i type="logical" name="LDIAG"> T  </i>
     <i type="logical" name="LSUBROT"> F  </i>
     <i name="WEIMIN">      0.00100000</i>
     <i name="EBREAK">      0.00000000</i>
     <i name="DEPER">      0.30000000</i>
     <i type="int" name="NRMM">     4</i>
     <i name="TIME">      0.40000000</i>
    </separator>
   </separator>
   <separator name="electronic mixer" >
    <i name="AMIX">      0.40000000</i>
    <i name="BMIX">      1.00000000</i>
    <i name="AMIN">      0.10000000</i>
    <i name="AMIX_MAG">      1.60000000</i>
    <i name="BMIX_MAG">      1.00000000</i>
    <separator name="electronic mixer details" >
     <i type="int" name="IMIX">     4</i>
     <i type="logical" name="MIXFIRST"> F  </i>
     <i type="int" name="MAXMIX">   -45</i>
     <i name="WC">    100.00000000</i>
     <i type="int" name="INIMIX">     1</i>
     <i type="int" name="MIXPRE">     1</i>
     <i type="int" name="MREMOVE">     5</i>
    </separator>
   </separator>
   <separator name="electronic dipolcorrection" >
    <i type="logical" name="LDIPOL"> F  </i>
    <i type="logical" name="LMONO"> F  </i>
    <i type="int" name="IDIPOL">     0</i>
    <i name="EPSILON">      1.00000000</i>
    <v name="DIPOL">   -100.00000000   -100.00000000   -100.00000000</v>
    <i name="EFIELD">      0.00000000</i>
   </separator>
  </separator>
  <separator name="grids" >
   <i type="int" name="NGX">    70</i>
   <i type="int" name="NGY">    60</i>
   <i type="int" name="NGZ">    70</i>
   <i type="int" name="NGXF">   140</i>
   <i type="int" name="NGYF">   120</i>
   <i type="int" name="NGZF">   140</i>
   <i type="logical" name="ADDGRID"> F  </i>
  </separator>
  <separator name="ionic" >
   <i type="int" name="NSW">     1</i>
   <i type="int" name="IBRION">     2</i>
   <i type="int" name="MDALGO">     0</i>
   <i type="int" name="ISIF">     2</i>
   <i name="PSTRESS">      0.00000000</i>
   <i name="EDIFFG">     -0.01000000</i>
   <i type="int" name="NFREE">    10</i>
   <i name="POTIM">      0.50000000</i>
   <i name="SMASS">     -3.00000000</i>
   <i name="SCALEE">      1.00000000</i>
  </separator>
  <separator name="ionic md" >
   <i name="TEBEG">      0.00010000</i>
   <i name="TEEND">      0.00010000</i>
   <i type="int" name="NBLOCK">     1</i>
   <i type="int" name="KBLOCK">     1</i>
   <i type="int" name="NPACO">   256</i>
   <i name="APACO">     16.00000000</i>
  </separator>
  <separator name="symmetry" >
   <i type="int" name="ISYM">     2</i>
   <i name="SYMPREC">      0.00001000</i>
  </separator>
  <separator name="dos" >
   <i type="int" name="LORBIT">     0</i>
   <v name="RWIGS">     -1.00000000     -1.00000000     -1.00000000     -1.00000000     -1.00000000</v>
   <i type="int" name="NEDOS">   301</i>
   <i name="EMIN">     10.00000000</i>
   <i name="EMAX">    -10.00000000</i>
   <i name="EFERMI">      0.00000000</i>
  </separator>
  <separator name="writing" >
   <i type="int" name="NWRITE">     2</i>
   <i type="logical" name="LWAVE"> F  </i>
   <i type="logical" name="LDOWNSAMPLE"> F  </i>
   <i type="logical" name="LCHARG"> F  </i>
   <i type="logical" name="LPARD"> F  </i>
   <i type="logical" name="LVTOT"> F  </i>
   <i type="logical" name="LVHAR"> F  </i>
   <i type="logical" name="LELF"> F  </i>
   <i type="logical" name="LOPTICS"> F  </i>
   <v name="STM">      0.00000000      0.00000000      0.00000000      0.00000000      0.00000000      0.00000000      0.00000000</v>
  </separator>
  <separator name="performance" >
   <i type="int" name="NPAR">    28</i>
   <i type="int" name="NSIM">     4</i>
   <i type="int" name="NBLK">    -1</i>
   <i type="logical" name="LPLANE"> T  </i>
   <i type="logical" name="LSCALAPACK"> T  </i>
   <i type="logical" name="LSCAAWARE"> F  </i>
   <i type="logical" name="LSCALU"> F  </i>
   <i type="logical" name="LASYNC"> F  </i>
   <i type="logical" name="LORBITALREAL"> F  </i>
  </separator>
  <separator name="miscellaneous" >
   <i type="int" name="IDIOT">     3</i>
   <i type="int" name="ISPECIAL">     0</i>
   <i type="logical" name="LMUSIC"> F  </i>
   <v name="POMASS">      7.01000000     24.30500000    208.98000000     32.06600000     16.00000000</v>
   <v name="DARWINR">      0.00000000      0.00000000      0.00000000      0.00000000      0.00000000</v>
   <v name="DARWINV">      1.00000000      1.00000000      1.00000000      1.00000000      1.00000000</v>
   <i type="logical" name="LCORR"> T  </i>
  </separator>
  <i type="logical" name="GGA_COMPAT"> T  </i>
  <i type="logical" name="LBERRY"> F  </i>
  <i type="int" name="ICORELEVEL">     0</i>
  <i type="logical" name="LDAU"> F  </i>
  <i type="int" name="I_CONSTRAINED_M">     0</i>
  <separator name="electronic exchange-correlation" >
   <i type="string" name="GGA">--</i>
   <i type="int" name="VOSKOWN">     0</i>
   <i type="logical" name="LHFCALC"> F  </i>
   <i type="string" name="PRECFOCK"></i>
   <i type="logical" name="LSYMGRAD"> F  </i>
   <i type="logical" name="LHFONE"> F  </i>
   <i type="logical" name="LRHFCALC"> F  </i>
   <i type="logical" name="LTHOMAS"> F  </i>
   <i type="logical" name="LMODELHF"> F  </i>
   <i name="ENCUT4O">     -1.00000000</i>
   <i type="int" name="EXXOEP">     0</i>
   <i type="int" name="FOURORBIT">     0</i>
   <i name="AEXX">      0.00000000</i>
   <i name="HFALPHA">      0.00000000</i>
   <i name="MCALPHA">      0.00000000</i>
   <i name="ALDAX">      1.00000000</i>
   <i name="AGGAX">      1.00000000</i>
   <i name="ALDAC">      1.00000000</i>
   <i name="AGGAC">      1.00000000</i>
   <i type="int" name="NKREDX">     1</i>
   <i type="int" name="NKREDY">     1</i>
   <i type="int" name="NKREDZ">     1</i>
   <i type="logical" name="SHIFTRED"> F  </i>
   <i type="logical" name="ODDONLY"> F  </i>
   <i type="logical" name="EVENONLY"> F  </i>
   <i type="int" name="LMAXFOCK">     0</i>
   <i type="int" name="NMAXFOCKAE">     0</i>
   <i type="logical" name="LFOCKAEDFT"> F  </i>
   <i name="HFSCREEN">      0.00000000</i>
   <i name="HFSCREENC">      0.00000000</i>
   <i type="int" name="NBANDSGWLOW">     0</i>
  </separator>
  <separator name="vdW DFT" >
   <i type="logical" name="LUSE_VDW"> F  </i>
   <i name="Zab_VDW">     -0.84910000</i>
   <i name="PARAM1">      0.12340000</i>
   <i name="PARAM2">      1.00000000</i>
   <i name="PARAM3">      0.00000000</i>
  </separator>
  <separator name="model GW" >
   <i type="int" name="MODEL_GW">     0</i>
   <i name="MODEL_EPS0">     11.77228070</i>
   <i name="MODEL_ALPHA">      1.00000000</i>
  </separator>
  <separator name="linear response parameters" >
   <i type="logical" name="LEPSILON"> F  </i>
   <i type="logical" name="LRPA"> F  </i>
   <i type="logical" name="LNABLA"> F  </i>
   <i type="logical" name="LVEL"> F  </i>
   <i type="int" name="KINTER">     0</i>
   <i name="CSHIFT">      0.10000000</i>
   <i name="OMEGAMAX">     -1.00000000</i>
   <i name="DEG_THRESHOLD">      0.00200000</i>
   <i name="RTIME">     -0.10000000</i>
   <i name="WPLASMAI">      0.00000000</i>
   <v name="DFIELD">      0.00000000      0.00000000      0.00000000</v>
   <v name="WPLASMA">      0.00000000      0.00000000      0.00000000      0.00000000      0.00000000      0.00000000      0.00000000      0.00000000      0.00000000</v>
  </separator>
  <separator name="orbital magnetization" >
   <i type="logical" name="NUCIND"> F  </i>
   <v name="MAGPOS">      0.00000000      0.00000000      0.00000000</v>
   <i type="logical" name="LNICSALL"> T  </i>
   <i type="logical" name="ORBITALMAG"> F  </i>
   <i type="logical" name="LMAGBLOCH"> F  </i>
   <i type="logical" name="LCHIMAG"> F  </i>
   <i type="logical" name="LGAUGE"> T  </i>
   <i type="int" name="MAGATOM">     0</i>
   <v name="MAGDIPOL">      0.00000000      0.00000000      0.00000000</v>
   <v name="AVECCONST">      0.00000000      0.00000000      0.00000000</v>
  </separator>
  <separator name="response functions" >
   <i type="logical" name="LADDER"> F  </i>
   <i type="logical" name="LRPAFORCE"> F  </i>
   <i type="logical" name="LFXC"> F  </i>
   <i type="logical" name="LHARTREE"> T  </i>
   <i type="int" name="IBSE">     0</i>
   <v type="int" name="KPOINT">    -1     0     0     0</v>
   <i type="logical" name="LTCTE"> F  </i>
   <i type="logical" name="LTETE"> F  </i>
   <i type="logical" name="LTRIPLET"> F  </i>
   <i type="logical" name="LFXCEPS"> F  </i>
   <i type="logical" name="LFXHEG"> F  </i>
   <i type="int" name="NATURALO">     2</i>
   <i type="logical" name="L2ORDER"> F  </i>
   <i type="logical" name="LMP2LT"> F  </i>
   <i type="logical" name="LUSEW"> F  </i>
   <i name="ENCUTGW">     -2.00000000</i>
   <i name="ENCUTGWSOFT">     -2.00000000</i>
   <i name="ENCUTLF">     -1.00000000</i>
   <i type="int" name="LMAXMP2">    -1</i>
   <i name="SCISSOR">      0.00000000</i>
   <i type="int" name="NOMEGA">     0</i>
   <i type="int" name="NOMEGAR">     0</i>
   <i type="int" name="NBANDSGW">    -1</i>
   <i type="int" name="NBANDSO">    -1</i>
   <i type="int" name="NBANDSV">    -1</i>
   <i type="int" name="NELM">     1</i>
   <i type="int" name="NELMHF">     1</i>
   <i type="int" name="DIM">     3</i>
   <i type="int" name="ANTIRES">     0</i>
   <i name="OMEGAMAX">    -30.00000000</i>
   <i name="OMEGAMIN">    -30.00000000</i>
   <i name="OMEGATL">   -200.00000000</i>
   <i type="int" name="OMEGAGRID">   140</i>
   <i name="CSHIFT">     -0.10000000</i>
   <i type="logical" name="SELFENERGY"> F  </i>
   <i type="logical" name="LSPECTRAL"> F  </i>
   <i type="logical" name="LSPECTRALGW"> F  </i>
   <i type="logical" name="LSINGLES"> F  </i>
   <i type="logical" name="LFERMIGW"> F  </i>
   <i type="logical" name="ODDONLYGW"> F  </i>
   <i type="logical" name="EVENONLYGW"> F  </i>
   <i type="int" name="NKREDLFX">     1</i>
   <i type="int" name="NKREDLFY">     1</i>
   <i type="int" name="NKREDLFZ">     1</i>
   <i type="int" name="MAXMEM">  2800</i>
   <i type="int" name="TELESCOPE">     0</i>
   <i type="int" name="TAUPAR">     1</i>
   <i type="int" name="OMEGAPAR">    -1</i>
   <i name="LAMBDA">      1.00000000</i>
  </separator>
  <separator name="External order field" >
   <i name="OFIELD_KAPPA">      0.00000000</i>
   <v name="OFIELD_K">      0.00000000      0.00000000      0.00000000</v>
   <i name="OFIELD_Q6_NEAR">      0.00000000</i>
   <i name="OFIELD_Q6_FAR">      0.00000000</i>
   <i name="OFIELD_A">      0.00000000</i>
  </separator>
 </parameters>
 <atominfo>
  <atoms>      61 </atoms>
  <types>       5 </types>
  <array name="atoms" >
   <dimension dim="1">ion</dimension>
   <field type="string">element</field>
   <field type="int">atomtype</field>
   <set>
    <rc><c>Li</c><c>   1</c></rc>
    <rc><c>Li</c><c>   1</c></rc>
    <rc><c>Li</c><c>   1</c></rc>
    <rc><c>Li</c><c>   1</c></rc>
    <rc><c>Li</c><c>   1</c></rc>
    <rc><c>Li</c><c>   1</c></rc>
    <rc><c>Li</c><c>   1</c></rc>
    <rc><c>Li</c><c>   1</c></rc>
    <rc><c>Li</c><c>   1</c></rc>
    <rc><c>Li</c><c>   1</c></rc>
    <rc><c>Mg</c><c>   2</c></rc>
    <rc><c>Mg</c><c>   2</c></rc>
    <rc><c>Mg</c><c>   2</c></rc>
    <rc><c>Bi</c><c>   3</c></rc>
    <rc><c>Bi</c><c>   3</c></rc>
    <rc><c>Bi</c><c>   3</c></rc>
    <rc><c>Bi</c><c>   3</c></rc>
    <rc><c>Bi</c><c>   3</c></rc>
    <rc><c>Bi</c><c>   3</c></rc>
    <rc><c>Bi</c><c>   3</c></rc>
    <rc><c>Bi</c><c>   3</c></rc>
    <rc><c>Bi</c><c>   3</c></rc>
    <rc><c>Bi</c><c>   3</c></rc>
    <rc><c>Bi</c><c>   3</c></rc>
    <rc><c>Bi</c><c>   3</c></rc>
    <rc><c>Bi</c><c>   3</c></rc>
    <rc><c>Bi</c><c>   3</c></rc>
    <rc><c>Bi</c><c>   3</c></rc>
    <rc><c>Bi</c><c>   3</c></rc>
    <rc><c>S </c><c>   4</c></rc>
    <rc><c>S </c><c>   4</c></rc>
    <rc><c>S </c><c>   4</c></rc>
    <rc><c>S </c><c>   4</c></rc>
    <rc><c>S </c><c>   4</c></rc>
    <rc><c>S </c><c>   4</c></rc>
    <rc><c>S </c><c>   4</c></rc>
    <rc><c>S </c><c>   4</c></rc>
    <rc><c>S </c><c>   4</c></rc>
    <rc><c>S </c><c>   4</c></rc>
    <rc><c>S </c><c>   4</c></rc>
    <rc><c>S </c><c>   4</c></rc>
    <rc><c>S </c><c>   4</c></rc>
    <rc><c>S </c><c>   4</c></rc>
    <rc><c>S </c><c>   4</c></rc>
    <rc><c>S </c><c>   4</c></rc>
    <rc><c>O </c><c>   5</c></rc>
    <rc><c>O </c><c>   5</c></rc>
    <rc><c>O </c><c>   5</c></rc>
    <rc><c>O </c><c>   5</c></rc>
    <rc><c>O </c><c>   5</c></rc>
    <rc><c>O </c><c>   5</c></rc>
    <rc><c>O </c><c>   5</c></rc>
    <rc><c>O </c><c>   5</c></rc>
    <rc><c>O </c><c>   5</c></rc>
    <rc><c>O </c><c>   5</c></rc>
    <rc><c>O </c><c>   5</c></rc>
    <rc><c>O </c><c>   5</c></rc>
    <rc><c>O </c><c>   5</c></rc>
    <rc><c>O </c><c>   5</c></rc>
    <rc><c>O </c><c>   5</c></rc>
    <rc><c>O </c><c>   5</c></rc>
   </set>
  </array>
  <array name="atomtypes" >
   <dimension dim="1">type</dimension>
   <field type="int">atomspertype</field>
   <field type="string">element</field>
   <field>mass</field>
   <field>valence</field>
   <field type="string">pseudopotential</field>
   <set>
    <rc><c>  10</c><c>Li</c><c>      7.01000000</c><c>      3.00000000</c><c>  PAW_PBE Li_sv 10Sep2004               </c></rc>
    <rc><c>   3</c><c>Mg</c><c>     24.30500000</c><c>      2.00000000</c><c>  PAW_PBE Mg 13Apr2007                  </c></rc>
    <rc><c>  16</c><c>Bi</c><c>    208.98000000</c><c>     15.00000000</c><c>  PAW_PBE Bi_d 06Sep2000                </c></rc>
    <rc><c>  16</c><c>S </c><c>     32.06600000</c><c>      6.00000000</c><c>  PAW_PBE S 06Sep2000                   </c></rc>
    <rc><c>  16</c><c>O </c><c>     16.00000000</c><c>      6.00000000</c><c>  PAW_PBE O 08Apr2002                   </c></rc>
   </set>
  </array>
 </atominfo>
 <structure name="initialpos" >
  <crystal>
   <varray name="basis" >
    <v>      11.17850000       0.00000000       0.00000000 </v>
    <v>       0.00000000       9.57460000       0.00000000 </v>
    <v>       0.00000000       0.00000000      11.18240000 </v>
   </varray>
   <i name="volume">   1196.84853820 </i>
   <varray name="rec_basis" >
    <v>       0.08945744       0.00000000       0.00000000 </v>
    <v>       0.00000000       0.10444301       0.00000000 </v>
    <v>       0.00000000       0.00000000       0.08942624 </v>
   </varray>
  </crystal>
  <varray name="positions" >
   <v>       0.37539000       0.00017000       0.43687000 </v>
   <v>       0.12461000       0.99984000       0.18687000 </v>
   <v>       0.62539000       0.99984000       0.43687000 </v>
   <v>       0.87539000       0.00017000       0.43687000 </v>
   <v>       0.12539000       0.99984000       0.93687000 </v>
   <v>       0.12461000       0.99984000       0.68687000 </v>
   <v>       0.62539000       0.99984000       0.93687000 </v>
   <v>       0.87539000       0.00017000       0.93687000 </v>
   <v>       0.62461000       0.99984000       0.68687000 </v>
   <v>       0.87461000       0.00017000       0.68687000 </v>
   <v>       0.37461000       0.00017000       0.18687000 </v>
   <v>       0.87461000       0.00017000       0.18687000 </v>
   <v>       0.37461000       0.00017000       0.68687000 </v>
   <v>       0.00013000       0.29519000       0.06281000 </v>
   <v>       0.25013000       0.70481000       0.06281000 </v>
   <v>       0.24987000       0.29519000       0.31282000 </v>
   <v>       0.49987000       0.70481000       0.31282000 </v>
   <v>       0.50013000       0.29519000       0.06281000 </v>
   <v>       0.75013000       0.70481000       0.06281000 </v>
   <v>       0.74987000       0.29519000       0.31282000 </v>
   <v>       0.99987000       0.70481000       0.31282000 </v>
   <v>       0.00013000       0.29519000       0.56281000 </v>
   <v>       0.25013000       0.70481000       0.56281000 </v>
   <v>       0.24987000       0.29519000       0.81282000 </v>
   <v>       0.49987000       0.70481000       0.81282000 </v>
   <v>       0.50013000       0.29519000       0.56281000 </v>
   <v>       0.75013000       0.70481000       0.56281000 </v>
   <v>       0.74987000       0.29519000       0.81282000 </v>
   <v>       0.99987000       0.70481000       0.81282000 </v>
   <v>       0.25005000       0.32677000       0.06286000 </v>
   <v>       0.00005000       0.67323000       0.06286000 </v>
   <v>       0.49995000       0.32677000       0.31286000 </v>
   <v>       0.24995000       0.67323000       0.31286000 </v>
   <v>       0.75005000       0.32677000       0.06286000 </v>
   <v>       0.50005000       0.67323000       0.06286000 </v>
   <v>       0.99995000       0.32677000       0.31286000 </v>
   <v>       0.74995000       0.67323000       0.31286000 </v>
   <v>       0.25005000       0.32677000       0.56286000 </v>
   <v>       0.00005000       0.67323000       0.56286000 </v>
   <v>       0.49995000       0.32677000       0.81286000 </v>
   <v>       0.24995000       0.67323000       0.81286000 </v>
   <v>       0.75005000       0.32677000       0.56286000 </v>
   <v>       0.50005000       0.67323000       0.56286000 </v>
   <v>       0.99995000       0.32677000       0.81286000 </v>
   <v>       0.74995000       0.67323000       0.81286000 </v>
   <v>       0.49987000       0.07798000       0.06246000 </v>
   <v>       0.24987000       0.92202000       0.06246000 </v>
   <v>       0.25013000       0.07798000       0.31246000 </v>
   <v>       0.00013000       0.92202000       0.31246000 </v>
   <v>       0.99987000       0.07798000       0.06246000 </v>
   <v>       0.74987000       0.92202000       0.06246000 </v>
   <v>       0.75013000       0.07798000       0.31246000 </v>
   <v>       0.50013000       0.92202000       0.31246000 </v>
   <v>       0.49987000       0.07798000       0.56246000 </v>
   <v>       0.24987000       0.92202000       0.56246000 </v>
   <v>       0.25013000       0.07798000       0.81246000 </v>
   <v>       0.00013000       0.92202000       0.81246000 </v>
   <v>       0.99987000       0.07798000       0.56246000 </v>
   <v>       0.74987000       0.92202000       0.56246000 </v>
   <v>       0.75013000       0.07798000       0.81246000 </v>
   <v>       0.50013000       0.92202000       0.81246000 </v>
  </varray>
 </structure>
 <calculation>
  <scstep>
   <time name="dav">   60.13   60.23</time>
   <time name="total">   60.21   60.32</time>
   <energy>
    <i name="alphaZ">   1073.51873187 </i>
    <i name="ewald"> -30882.23743197 </i>
    <i name="hartreedc"> -12707.14571656 </i>
    <i name="XCdc">   1394.97496170 </i>
    <i name="pawpsdc">  36823.70205594 </i>
    <i name="pawaedc"> -36326.52930246 </i>
    <i name="eentropy">      0.00000000 </i>
    <i name="bandstr">   1808.39344001 </i>
    <i name="atom">  44791.06186932 </i>
    <i name="e_fr_energy">   5975.73860785 </i>
    <i name="e_wo_entrp">   5975.73860785 </i>
    <i name="e_0_energy">   5975.73860785 </i>
   </energy>
  </scstep>
  <scstep>
   <time name="dav">   61.59   61.62</time>
   <time name="total">   61.60   61.63</time>
   <energy>
    <i name="e_fr_energy">    794.48415463 </i>
    <i name="e_wo_entrp">    794.48415463 </i>
    <i name="e_0_energy">    794.48415463 </i>
   </energy>
  </scstep>
  <scstep>
   <time name="dav">   69.00   69.06</time>
   <time name="total">   69.01   69.07</time>
   <energy>
    <i name="e_fr_energy">   -241.61942184 </i>
    <i name="e_wo_entrp">   -241.61942184 </i>
    <i name="e_0_energy">   -241.61942184 </i>
   </energy>
  </scstep>
  <scstep>
   <time name="dav">   74.09   74.23</time>
   <time name="total">   74.09   74.24</time>
   <energy>
    <i name="e_fr_energy">   -346.68216316 </i>
    <i name="e_wo_entrp">   -346.68216316 </i>
    <i name="e_0_energy">   -346.68216316 </i>
   </energy>
  </scstep>
  <scstep>
   <time name="dav">   96.38   96.52</time>
   <time name="total">   97.11   97.26</time>
   <energy>
    <i name="e_fr_energy">   -354.98135761 </i>
    <i name="e_wo_entrp">   -354.98135761 </i>
    <i name="e_0_energy">   -354.98135761 </i>
   </energy>
  </scstep>
  <scstep>
   <time name="dav">   85.26   85.75</time>
   <time name="total">   86.15   86.64</time>
   <energy>
    <i name="e_fr_energy">   -296.47142049 </i>
    <i name="e_wo_entrp">   -296.47142049 </i>
    <i name="e_0_energy">   -296.47142049 </i>
   </energy>
  </scstep>
  <scstep>
   <time name="dav">   66.14   66.64</time>
   <time name="total">   66.83   67.47</time>
   <energy>
    <i name="e_fr_energy">   -299.31069326 </i>
    <i name="e_wo_entrp">   -299.31069326 </i>
    <i name="e_0_energy">   -299.31069326 </i>
   </energy>
  </scstep>
  <scstep>
   <time name="dav">   77.76   78.69</time>
   <time name="total">   78.57   79.51</time>
   <energy>
    <i name="e_fr_energy">   -298.08542610 </i>
    <i name="e_wo_entrp">   -298.08542610 </i>
    <i name="e_0_energy">   -298.08542610 </i>
   </energy>
  </scstep>
  <scstep>
   <time name="dav">   76.53   76.90</time>
   <time name="total">   77.33   77.71</time>
   <energy>
    <i name="e_fr_energy">   -297.45006110 </i>
    <i name="e_wo_entrp">   -297.45006110 </i>
    <i name="e_0_energy">   -297.45006110 </i>
   </energy>
  </scstep>
  <scstep>
   <time name="dav">   75.04   75.20</time>
   <time name="total">   75.85   76.01</time>
   <energy>
    <i name="e_fr_energy">   -297.47080162 </i>
    <i name="e_wo_entrp">   -297.47080162 </i>
    <i name="e_0_energy">   -297.47080162 </i>
   </energy>
  </scstep>
  <scstep>
   <time name="dav">   83.95   84.51</time>
   <time name="total">   84.76   85.32</time>
   <energy>
    <i name="e_fr_energy">   -297.48042920 </i>
    <i name="e_wo_entrp">   -297.48042920 </i>
    <i name="e_0_energy">   -297.48042920 </i>
   </energy>
  </scstep>
  <scstep>
   <time name="dav">   82.47   84.01</time>
   <time name="total">   83.28   84.82</time>
   <energy>
    <i name="e_fr_energy">   -297.48369189 </i>
    <i name="e_wo_entrp">   -297.48369189 </i>
    <i name="e_0_energy">   -297.48369189 </i>
   </energy>
  </scstep>
  <scstep>
   <time name="dav">   72.09   72.24</time>
   <time name="total">   72.89   73.05</time>
   <energy>
    <i name="e_fr_energy">   -297.48500505 </i>
    <i name="e_wo_entrp">   -297.48500505 </i>
    <i name="e_0_energy">   -297.48500505 </i>
   </energy>
  </scstep>
  <scstep>
   <time name="dav">   76.38   76.51</time>
   <time name="total">   77.19   77.32</time>
   <energy>
    <i name="e_fr_energy">   -297.48519112 </i>
    <i name="e_wo_entrp">   -297.48519112 </i>
    <i name="e_0_energy">   -297.48519112 </i>
   </energy>
  </scstep>
  <scstep>
   <time name="dav">   74.43   74.54</time>
   <time name="total">   75.27   75.37</time>
   <energy>
    <i name="e_fr_energy">   -297.48523043 </i>
    <i name="e_wo_entrp">   -297.48523043 </i>
    <i name="e_0_energy">   -297.48523043 </i>
   </energy>
  </scstep>
  <scstep>
   <time name="dav">   67.70   67.88</time>
   <time name="total">   68.52   68.70</time>
   <energy>
    <i name="e_fr_energy">   -297.48524477 </i>
    <i name="e_wo_entrp">   -297.48524477 </i>
    <i name="e_0_energy">   -297.48524477 </i>
   </energy>
  </scstep>
  <scstep>
   <time name="dav">   63.25   63.42</time>
   <time name="total">   64.09   64.26</time>
   <energy>
    <i name="e_fr_energy">   -297.48524787 </i>
    <i name="e_wo_entrp">   -297.48524787 </i>
    <i name="e_0_energy">   -297.48524787 </i>
   </energy>
  </scstep>
  <scstep>
   <time name="dav">   54.73   55.13</time>
   <time name="total">   54.81   55.20</time>
   <energy>
    <i name="alphaZ">   1073.51873187 </i>
    <i name="ewald"> -30882.23743197 </i>
    <i name="hartreedc"> -12942.58589626 </i>
    <i name="XCdc">   1418.53625384 </i>
    <i name="pawpsdc">  43845.79704468 </i>
    <i name="pawaedc"> -43323.20278808 </i>
    <i name="eentropy">      0.00000000 </i>
    <i name="bandstr">  -4278.37303180 </i>
    <i name="atom">  44791.06186932 </i>
    <i name="e_fr_energy">   -297.48524840 </i>
    <i name="e_wo_entrp">   -297.48524840 </i>
    <i name="e_0_energy">   -297.48524840 </i>
   </energy>
  </scstep>
  <structure>
   <crystal>
    <varray name="basis" >
     <v>      11.17850000       0.00000000       0.00000000 </v>
     <v>       0.00000000       9.57460000       0.00000000 </v>
     <v>       0.00000000       0.00000000      11.18240000 </v>
    </varray>
    <i name="volume">   1196.84853820 </i>
    <varray name="rec_basis" >
     <v>       0.08945744       0.00000000       0.00000000 </v>
     <v>       0.00000000       0.10444301       0.00000000 </v>
     <v>       0.00000000       0.00000000       0.08942624 </v>
    </varray>
   </crystal>
   <varray name="positions" >
    <v>       0.37539000       0.00017000       0.43687000 </v>
    <v>       0.12461000       0.99984000       0.18687000 </v>
    <v>       0.62539000       0.99984000       0.43687000 </v>
    <v>       0.87539000       0.00017000       0.43687000 </v>
    <v>       0.12539000       0.99984000       0.93687000 </v>
    <v>       0.12461000       0.99984000       0.68687000 </v>
    <v>       0.62539000       0.99984000       0.93687000 </v>
    <v>       0.87539000       0.00017000       0.93687000 </v>
    <v>       0.62461000       0.99984000       0.68687000 </v>
    <v>       0.87461000       0.00017000       0.68687000 </v>
    <v>       0.37461000       0.00017000       0.18687000 </v>
    <v>       0.87461000       0.00017000       0.18687000 </v>
    <v>       0.37461000       0.00017000       0.68687000 </v>
    <v>       0.00013000       0.29519000       0.06281000 </v>
    <v>       0.25013000       0.70481000       0.06281000 </v>
    <v>       0.24987000       0.29519000       0.31282000 </v>
    <v>       0.49987000       0.70481000       0.31282000 </v>
    <v>       0.50013000       0.29519000       0.06281000 </v>
    <v>       0.75013000       0.70481000       0.06281000 </v>
    <v>       0.74987000       0.29519000       0.31282000 </v>
    <v>       0.99987000       0.70481000       0.31282000 </v>
    <v>       0.00013000       0.29519000       0.56281000 </v>
    <v>       0.25013000       0.70481000       0.56281000 </v>
    <v>       0.24987000       0.29519000       0.81282000 </v>
    <v>       0.49987000       0.70481000       0.81282000 </v>
    <v>       0.50013000       0.29519000       0.56281000 </v>
    <v>       0.75013000       0.70481000       0.56281000 </v>
    <v>       0.74987000       0.29519000       0.81282000 </v>
    <v>       0.99987000       0.70481000       0.81282000 </v>
    <v>       0.25005000       0.32677000       0.06286000 </v>
    <v>       0.00005000       0.67323000       0.06286000 </v>
    <v>       0.49995000       0.32677000       0.31286000 </v>
    <v>       0.24995000       0.67323000       0.31286000 </v>
    <v>       0.75005000       0.32677000       0.06286000 </v>
    <v>       0.50005000       0.67323000       0.06286000 </v>
    <v>       0.99995000       0.32677000       0.31286000 </v>
    <v>       0.74995000       0.67323000       0.31286000 </v>
    <v>       0.25005000       0.32677000       0.56286000 </v>
    <v>       0.00005000       0.67323000       0.56286000 </v>
    <v>       0.49995000       0.32677000       0.81286000 </v>
    <v>       0.24995000       0.67323000       0.81286000 </v>
    <v>       0.75005000       0.32677000       0.56286000 </v>
    <v>       0.50005000       0.67323000       0.56286000 </v>
    <v>       0.99995000       0.32677000       0.81286000 </v>
    <v>       0.74995000       0.67323000       0.81286000 </v>
    <v>       0.49987000       0.07798000       0.06246000 </v>
    <v>       0.24987000       0.92202000       0.06246000 </v>
    <v>       0.25013000       0.07798000       0.31246000 </v>
    <v>       0.00013000       0.92202000       0.31246000 </v>
    <v>       0.99987000       0.07798000       0.06246000 </v>
    <v>       0.74987000       0.92202000       0.06246000 </v>
    <v>       0.75013000       0.07798000       0.31246000 </v>
    <v>       0.50013000       0.92202000       0.31246000 </v>
    <v>       0.49987000       0.07798000       0.56246000 </v>
    <v>       0.24987000       0.92202000       0.56246000 </v>
    <v>       0.25013000       0.07798000       0.81246000 </v>
    <v>       0.00013000       0.92202000       0.81246000 </v>
    <v>       0.99987000       0.07798000       0.56246000 </v>
    <v>       0.74987000       0.92202000       0.56246000 </v>
    <v>       0.75013000       0.07798000       0.81246000 </v>
    <v>       0.50013000       0.92202000       0.81246000 </v>
   </varray>
  </structure>
  <varray name="forces" >
   <v>      -0.34910871      -0.06304588      -0.16435950 </v>
   <v>       0.17412803      -0.06245713       0.35420349 </v>
   <v>       0.08299525      -0.06531935      -0.42501156 </v>
   <v>       0.33088020       0.06477448       0.31853726 </v>
   <v>       0.42370025      -0.06387423      -0.08800082 </v>
   <v>      -0.30366386       0.06730123      -0.33037468 </v>
   <v>      -0.42780420       0.06769709       0.42323359 </v>
   <v>      -0.17929419      -0.06313196      -0.31453516 </v>
   <v>       0.32453433      -0.06348193       0.18242948 </v>
   <v>       0.17565620       0.06417341      -0.16089158 </v>
   <v>       0.78479572       0.11354172      -0.72424118 </v>
   <v>      -0.76141071      -0.11860783       0.26309987 </v>
   <v>      -0.20698019      -0.11607151       0.81308441 </v>
   <v>       0.06774595       1.04804841      -0.09775652 </v>
   <v>       0.13181742      -0.00344806      -0.19329592 </v>
   <v>      -0.18218748       0.00278410       0.18406948 </v>
   <v>       0.19193265       0.01638687      -0.14395746 </v>
   <v>       0.04983691      -1.06003974      -0.05988478 </v>
   <v>      -0.27456746       0.01329606       0.03421348 </v>
   <v>      -0.17853414      -0.01728476      -0.03803206 </v>
   <v>       0.19072141      -0.00265546       0.28790673 </v>
   <v>       0.07622910      -1.00919678      -0.08985369 </v>
   <v>      -0.29863310      -0.01986897      -0.19073587 </v>
   <v>       0.04462781      -0.02846958       0.18118391 </v>
   <v>      -0.03542398       0.03012676       0.25949270 </v>
   <v>       0.09169094       1.04708247      -0.07379933 </v>
   <v>       0.10637030      -0.02019793       0.02461618 </v>
   <v>       0.03844937       0.01826442      -0.03963390 </v>
   <v>      -0.02259502      -0.02223013      -0.11803570 </v>
   <v>      -0.16971137       0.14707489       0.05807323 </v>
   <v>      -0.04119913      -0.15674489       0.03529842 </v>
   <v>      -0.05547333       0.14871176       0.16929903 </v>
   <v>       0.05290323      -0.14915220      -0.05422034 </v>
   <v>       0.25505727       0.12078239       0.02288348 </v>
   <v>      -0.04727191      -0.11934909       0.04408486 </v>
   <v>      -0.05777371       0.12759202      -0.23984931 </v>
   <v>       0.06500251      -0.14035643      -0.02156801 </v>
   <v>       0.23891127       0.12521077       0.05758102 </v>
   <v>      -0.02109086      -0.16728029       0.02180995 </v>
   <v>      -0.01968843       0.12412774      -0.25546363 </v>
   <v>       0.01925307      -0.14037388      -0.06457434 </v>
   <v>      -0.18541242       0.19238105       0.00411329 </v>
   <v>      -0.03835561      -0.15731459       0.04077054 </v>
   <v>      -0.00509331       0.19269052       0.18511716 </v>
   <v>       0.00782953      -0.18980896      -0.00501693 </v>
   <v>      -0.46745511       0.95971101       0.47225395 </v>
   <v>      -0.29271611      -0.04965919       1.07026179 </v>
   <v>       1.03888882      -0.03406721      -1.05055383 </v>
   <v>      -1.07404982       0.07328143      -1.21672636 </v>
   <v>      -0.46503299      -0.77856968       0.45806329 </v>
   <v>       1.24161856      -0.01869079      -0.14031863 </v>
   <v>       1.08689090       0.04852461       0.12715137 </v>
   <v>      -1.08898265      -0.05021968       0.27982460 </v>
   <v>      -0.45891324      -0.77756040       0.46489049 </v>
   <v>       1.19965055       0.07026941       1.04860825 </v>
   <v>      -0.13940643       0.05199395      -1.09554232 </v>
   <v>      -0.01247231       0.01942654       0.14604693 </v>
   <v>      -0.60910214       0.79542295       0.61658382 </v>
   <v>      -0.14120450       0.01938772       0.00508361 </v>
   <v>       0.00137484      -0.02190841      -0.00579889 </v>
   <v>       0.11711602      -0.01962886      -1.25183738 </v>
  </varray>
  <varray name="stress" >
   <v>      -7.98957039       0.11635838       0.29630535 </v>
   <v>       0.11635832     -14.30844271       0.09904880 </v>
   <v>       0.29630536       0.09904873      -8.61295372 </v>
  </varray>
  <energy>
   <i name="e_fr_energy">   -312.16507115 </i>
   <i name="e_wo_entrp">   -312.16507115 </i>
   <i name="e_0_energy">      0.00000000 </i>
  </energy>
  <time name="totalsc"> 1434.59 1441.52</time>
  <eigenvalues>
   <array>
    <dimension dim="1">band</dimension>
    <dimension dim="2">kpoint</dimension>
    <dimension dim="3">spin</dimension>
    <field>eigene</field>
    <field>occ</field>
    <set>
     <set comment="spin 1">
      <set comment="kpoint 1">
       <r>  -40.0151    1.0000 </r>
       <r>  -40.0117    1.0000 </r>
       <r>  -40.0107    1.0000 </r>
       <r>  -40.0083    1.0000 </r>
       <r>  -39.9274    1.0000 </r>
       <r>  -39.9258    1.0000 </r>
       <r>  -39.6517    1.0000 </r>
       <r>  -39.6479    1.0000 </r>
       <r>  -39.6368    1.0000 </r>
       <r>  -39.5660    1.0000 </r>
       <r>  -18.8417    1.0000 </r>
       <r>  -18.8399    1.0000 </r>
       <r>  -18.7781    1.0000 </r>
       <r>  -18.7751    1.0000 </r>
       <r>  -18.7720    1.0000 </r>
       <r>  -18.7671    1.0000 </r>
       <r>  -18.6790    1.0000 </r>
       <r>  -18.6687    1.0000 </r>
       <r>  -18.6661    1.0000 </r>
       <r>  -18.6650    1.0000 </r>
       <r>  -18.6600    1.0000 </r>
       <r>  -18.6589    1.0000 </r>
       <r>  -18.6554    1.0000 </r>
       <r>  -18.6526    1.0000 </r>
       <r>  -18.6517    1.0000 </r>
       <r>  -18.6481    1.0000 </r>
       <r>  -18.6479    1.0000 </r>
       <r>  -18.6453    1.0000 </r>
       <r>  -18.6425    1.0000 </r>
       <r>  -18.6424    1.0000 </r>
       <r>  -18.6408    1.0000 </r>
       <r>  -18.6396    1.0000 </r>
       <r>  -18.6389    1.0000 </r>
       <r>  -18.6370    1.0000 </r>
       <r>  -18.6364    1.0000 </r>
       <r>  -18.6357    1.0000 </r>
       <r>  -18.6347    1.0000 </r>
       <r>  -18.6347    1.0000 </r>
       <r>  -18.6319    1.0000 </r>
       <r>  -18.6318    1.0000 </r>
       <r>  -18.6303    1.0000 </r>
       <r>  -18.6284    1.0000 </r>
       <r>  -18.6266    1.0000 </r>
       <r>  -18.6263    1.0000 </r>
       <r>  -18.6256    1.0000 </r>
       <r>  -18.6240    1.0000 </r>
       <r>  -18.6228    1.0000 </r>
       <r>  -18.6224    1.0000 </r>
       <r>  -18.6208    1.0000 </r>
       <r>  -18.6196    1.0000 </r>
       <r>  -18.6178    1.0000 </r>
       <r>  -18.6167    1.0000 </r>
       <r>  -18.6137    1.0000 </r>
       <r>  -18.6107    1.0000 </r>
       <r>  -18.6101    1.0000 </r>
       <r>  -18.6021    1.0000 </r>
       <r>  -18.4964    1.0000 </r>
       <r>  -18.4949    1.0000 </r>
       <r>  -18.4919    1.0000 </r>
       <r>  -18.4913    1.0000 </r>
       <r>  -18.4912    1.0000 </r>
       <r>  -18.4874    1.0000 </r>
       <r>  -18.4832    1.0000 </r>
       <r>  -18.4827    1.0000 </r>
       <r>  -18.4804    1.0000 </r>
       <r>  -18.4800    1.0000 </r>
       <r>  -18.4798    1.0000 </r>
       <r>  -18.4782    1.0000 </r>
       <r>  -18.4775    1.0000 </r>
       <r>  -18.4772    1.0000 </r>
       <r>  -18.4758    1.0000 </r>
       <r>  -18.4752    1.0000 </r>
       <r>  -18.4747    1.0000 </r>
       <r>  -18.4738    1.0000 </r>
       <r>  -18.4693    1.0000 </r>
       <r>  -18.4689    1.0000 </r>
       <r>  -18.4684    1.0000 </r>
       <r>  -18.4672    1.0000 </r>
       <r>  -18.4651    1.0000 </r>
       <r>  -18.4623    1.0000 </r>
       <r>  -18.4564    1.0000 </r>
       <r>  -18.4464    1.0000 </r>
       <r>  -18.4436    1.0000 </r>
       <r>  -18.4336    1.0000 </r>
       <r>  -18.3693    1.0000 </r>
       <r>  -18.3603    1.0000 </r>
       <r>  -18.2501    1.0000 </r>
       <r>  -18.2491    1.0000 </r>
       <r>  -18.2420    1.0000 </r>
       <r>  -18.2244    1.0000 </r>
       <r>  -13.4106    1.0000 </r>
       <r>  -13.4048    1.0000 </r>
       <r>  -12.8695    1.0000 </r>
       <r>  -12.8032    1.0000 </r>
       <r>  -12.7769    1.0000 </r>
       <r>  -12.7442    1.0000 </r>
       <r>  -12.7059    1.0000 </r>
       <r>  -12.6858    1.0000 </r>
       <r>  -12.6796    1.0000 </r>
       <r>  -12.6751    1.0000 </r>
       <r>  -12.6524    1.0000 </r>
       <r>  -12.6453    1.0000 </r>
       <r>  -12.6202    1.0000 </r>
       <r>  -12.6056    1.0000 </r>
       <r>  -12.0230    1.0000 </r>
       <r>  -12.0155    1.0000 </r>
       <r>   -9.3076    1.0000 </r>
       <r>   -9.0111    1.0000 </r>
       <r>   -8.5407    1.0000 </r>
       <r>   -8.4775    1.0000 </r>
       <r>   -8.4769    1.0000 </r>
       <r>   -8.4144    1.0000 </r>
       <r>   -8.3149    1.0000 </r>
       <r>   -8.2507    1.0000 </r>
       <r>   -8.2499    1.0000 </r>
       <r>   -8.1868    1.0000 </r>
       <r>   -8.0275    1.0000 </r>
       <r>   -8.0222    1.0000 </r>
       <r>   -8.0153    1.0000 </r>
       <r>   -8.0101    1.0000 </r>
       <r>   -7.3549    1.0000 </r>
       <r>   -7.3478    1.0000 </r>
       <r>   -6.3588    1.0000 </r>
       <r>   -6.3477    1.0000 </r>
       <r>   -6.3351    1.0000 </r>
       <r>   -6.3294    1.0000 </r>
       <r>   -5.4572    1.0000 </r>
       <r>   -5.4517    1.0000 </r>
       <r>   -5.4054    1.0000 </r>
       <r>   -5.3357    1.0000 </r>
       <r>   -5.3303    1.0000 </r>
       <r>   -5.2709    1.0000 </r>
       <r>   -5.2329    1.0000 </r>
       <r>   -5.1658    1.0000 </r>
       <r>   -5.1601    1.0000 </r>
       <r>   -5.0127    1.0000 </r>
       <r>   -3.8085    1.0000 </r>
       <r>   -3.6562    1.0000 </r>
       <r>   -1.3997    1.0000 </r>
       <r>   -1.3090    1.0000 </r>
       <r>   -1.0655    1.0000 </r>
       <r>   -1.0039    1.0000 </r>
       <r>   -0.5582    1.0000 </r>
       <r>   -0.4844    1.0000 </r>
       <r>   -0.4663    1.0000 </r>
       <r>   -0.4289    1.0000 </r>
       <r>   -0.1828    1.0000 </r>
       <r>   -0.1557    1.0000 </r>
       <r>   -0.1517    1.0000 </r>
       <r>   -0.1121    1.0000 </r>
       <r>    0.1550    1.0000 </r>
       <r>    0.2682    1.0000 </r>
       <r>    0.3498    1.0000 </r>
       <r>    0.5413    1.0000 </r>
       <r>    0.5583    1.0000 </r>
       <r>    0.6089    1.0000 </r>
       <r>    0.6119    1.0000 </r>
       <r>    0.6702    1.0000 </r>
       <r>    0.7362    1.0000 </r>
       <r>    0.7470    1.0000 </r>
       <r>    0.7610    1.0000 </r>
       <r>    0.7630    1.0000 </r>
       <r>    0.7829    1.0000 </r>
       <r>    0.8341    1.0000 </r>
       <r>    0.9426    1.0000 </r>
       <r>    0.9620    1.0000 </r>
       <r>    0.9829    1.0000 </r>
       <r>    1.0346    1.0000 </r>
       <r>    1.1468    1.0000 </r>
       <r>    1.1683    1.0000 </r>
       <r>    1.1943    1.0000 </r>
       <r>    1.2024    1.0000 </r>
       <r>    1.2356    1.0000 </r>
       <r>    1.2770    1.0000 </r>
       <r>    1.3161    1.0000 </r>
       <r>    1.3224    1.0000 </r>
       <r>    1.3850    1.0000 </r>
       <r>    1.5108    1.0000 </r>
       <r>    1.5527    1.0000 </r>
       <r>    1.5650    1.0000 </r>
       <r>    1.6040    1.0000 </r>
       <r>    1.6575    1.0000 </r>
       <r>    1.6704    1.0000 </r>
       <r>    1.6777    1.0000 </r>
       <r>    1.7183    1.0000 </r>
       <r>    1.8232    1.0000 </r>
       <r>    1.8439    1.0000 </r>
       <r>    1.9281    1.0000 </r>
       <r>    1.9524    1.0000 </r>
       <r>    2.0331    1.0000 </r>
       <r>    2.0469    1.0000 </r>
       <r>    2.1276    1.0000 </r>
       <r>    2.1872    1.0000 </r>
       <r>    2.2575    1.0000 </r>
       <r>    2.3041    1.0000 </r>
       <r>    2.4247    1.0000 </r>
       <r>    2.5222    1.0000 </r>
       <r>    2.5546    1.0000 </r>
       <r>    2.5865    1.0000 </r>
       <r>    2.5890    1.0000 </r>
       <r>    2.5982    1.0000 </r>
       <r>    2.6070    1.0000 </r>
       <r>    2.6413    1.0000 </r>
       <r>    2.6894    1.0000 </r>
       <r>    2.6905    1.0000 </r>
       <r>    2.7278    1.0000 </r>
       <r>    2.7320    1.0000 </r>
       <r>    2.7750    1.0000 </r>
       <r>    2.8050    1.0000 </r>
       <r>    2.8242    1.0000 </r>
       <r>    2.8930    1.0000 </r>
       <r>    2.8969    1.0000 </r>
       <r>    2.9167    1.0000 </r>
       <r>    2.9628    1.0000 </r>
       <r>    2.9709    1.0000 </r>
       <r>    2.9833    1.0000 </r>
       <r>    2.9875    1.0000 </r>
       <r>    3.0537    1.0000 </r>
       <r>    3.0756    1.0000 </r>
       <r>    3.0865    1.0000 </r>
       <r>    3.1306    1.0000 </r>
       <r>    3.1716    1.0000 </r>
       <r>    3.1901    1.0000 </r>
       <r>    3.2268    1.0000 </r>
       <r>    3.2609    1.0000 </r>
       <r>    3.3065    1.0000 </r>
       <r>    3.3581    1.0000 </r>
       <r>    3.4570    1.0000 </r>
       <r>    3.5027    1.0000 </r>
       <r>    3.6328    1.0000 </r>
       <r>    4.1838    1.0000 </r>
       <r>    4.2037    1.0000 </r>
       <r>    4.2106    1.0000 </r>
       <r>    4.2306    1.0000 </r>
       <r>    5.0746    0.0000 </r>
       <r>    5.0924    0.0000 </r>
       <r>    5.1547    0.0000 </r>
       <r>    5.1726    0.0000 </r>
       <r>    5.7750    0.0000 </r>
       <r>    5.7927    0.0000 </r>
       <r>    5.8094    0.0000 </r>
       <r>    5.8333    0.0000 </r>
       <r>    6.0926    0.0000 </r>
       <r>    6.1220    0.0000 </r>
       <r>    6.1251    0.0000 </r>
       <r>    6.1440    0.0000 </r>
       <r>    6.2274    0.0000 </r>
       <r>    6.2491    0.0000 </r>
       <r>    6.2515    0.0000 </r>
       <r>    6.2668    0.0000 </r>
       <r>    7.1366    0.0000 </r>
       <r>    7.2571    0.0000 </r>
       <r>    7.3233    0.0000 </r>
       <r>    7.3371    0.0000 </r>
       <r>    7.6967    0.0000 </r>
       <r>    7.9161    0.0000 </r>
       <r>    7.9342    0.0000 </r>
       <r>    7.9377    0.0000 </r>
       <r>    7.9928    0.0000 </r>
       <r>    8.0850    0.0000 </r>
       <r>    8.1068    0.0000 </r>
       <r>    8.2763    0.0000 </r>
       <r>    8.3915    0.0000 </r>
       <r>    8.6276    0.0000 </r>
       <r>    8.6739    0.0000 </r>
       <r>    8.7307    0.0000 </r>
       <r>    8.7735    0.0000 </r>
       <r>    8.9642    0.0000 </r>
       <r>    9.0027    0.0000 </r>
       <r>    9.0161    0.0000 </r>
       <r>    9.0350    0.0000 </r>
       <r>    9.0433    0.0000 </r>
       <r>    9.0759    0.0000 </r>
       <r>    9.1186    0.0000 </r>
       <r>    9.1390    0.0000 </r>
       <r>    9.1695    0.0000 </r>
       <r>    9.2126    0.0000 </r>
       <r>    9.2558    0.0000 </r>
       <r>    9.5096    0.0000 </r>
       <r>    9.5572    0.0000 </r>
      </set>
      <set comment="kpoint 2">
       <r>  -40.0151    1.0000 </r>
       <r>  -40.0117    1.0000 </r>
       <r>  -40.0107    1.0000 </r>
       <r>  -40.0083    1.0000 </r>
       <r>  -39.9274    1.0000 </r>
       <r>  -39.9257    1.0000 </r>
       <r>  -39.6517    1.0000 </r>
       <r>  -39.6479    1.0000 </r>
       <r>  -39.6368    1.0000 </r>
       <r>  -39.5660    1.0000 </r>
       <r>  -18.8414    1.0000 </r>
       <r>  -18.8403    1.0000 </r>
       <r>  -18.7770    1.0000 </r>
       <r>  -18.7761    1.0000 </r>
       <r>  -18.7701    1.0000 </r>
       <r>  -18.7691    1.0000 </r>
       <r>  -18.6706    1.0000 </r>
       <r>  -18.6668    1.0000 </r>
       <r>  -18.6660    1.0000 </r>
       <r>  -18.6650    1.0000 </r>
       <r>  -18.6614    1.0000 </r>
       <r>  -18.6600    1.0000 </r>
       <r>  -18.6589    1.0000 </r>
       <r>  -18.6578    1.0000 </r>
       <r>  -18.6522    1.0000 </r>
       <r>  -18.6499    1.0000 </r>
       <r>  -18.6478    1.0000 </r>
       <r>  -18.6474    1.0000 </r>
       <r>  -18.6453    1.0000 </r>
       <r>  -18.6449    1.0000 </r>
       <r>  -18.6431    1.0000 </r>
       <r>  -18.6418    1.0000 </r>
       <r>  -18.6395    1.0000 </r>
       <r>  -18.6388    1.0000 </r>
       <r>  -18.6386    1.0000 </r>
       <r>  -18.6366    1.0000 </r>
       <r>  -18.6326    1.0000 </r>
       <r>  -18.6323    1.0000 </r>
       <r>  -18.6285    1.0000 </r>
       <r>  -18.6282    1.0000 </r>
       <r>  -18.6262    1.0000 </r>
       <r>  -18.6259    1.0000 </r>
       <r>  -18.6256    1.0000 </r>
       <r>  -18.6255    1.0000 </r>
       <r>  -18.6237    1.0000 </r>
       <r>  -18.6231    1.0000 </r>
       <r>  -18.6213    1.0000 </r>
       <r>  -18.6200    1.0000 </r>
       <r>  -18.6190    1.0000 </r>
       <r>  -18.6170    1.0000 </r>
       <r>  -18.6164    1.0000 </r>
       <r>  -18.6147    1.0000 </r>
       <r>  -18.6141    1.0000 </r>
       <r>  -18.6138    1.0000 </r>
       <r>  -18.6127    1.0000 </r>
       <r>  -18.6099    1.0000 </r>
       <r>  -18.4951    1.0000 </r>
       <r>  -18.4948    1.0000 </r>
       <r>  -18.4941    1.0000 </r>
       <r>  -18.4911    1.0000 </r>
       <r>  -18.4911    1.0000 </r>
       <r>  -18.4855    1.0000 </r>
       <r>  -18.4842    1.0000 </r>
       <r>  -18.4837    1.0000 </r>
       <r>  -18.4806    1.0000 </r>
       <r>  -18.4800    1.0000 </r>
       <r>  -18.4790    1.0000 </r>
       <r>  -18.4785    1.0000 </r>
       <r>  -18.4774    1.0000 </r>
       <r>  -18.4772    1.0000 </r>
       <r>  -18.4755    1.0000 </r>
       <r>  -18.4749    1.0000 </r>
       <r>  -18.4742    1.0000 </r>
       <r>  -18.4740    1.0000 </r>
       <r>  -18.4695    1.0000 </r>
       <r>  -18.4689    1.0000 </r>
       <r>  -18.4685    1.0000 </r>
       <r>  -18.4674    1.0000 </r>
       <r>  -18.4651    1.0000 </r>
       <r>  -18.4624    1.0000 </r>
       <r>  -18.4562    1.0000 </r>
       <r>  -18.4466    1.0000 </r>
       <r>  -18.4432    1.0000 </r>
       <r>  -18.4339    1.0000 </r>
       <r>  -18.3693    1.0000 </r>
       <r>  -18.3604    1.0000 </r>
       <r>  -18.2501    1.0000 </r>
       <r>  -18.2491    1.0000 </r>
       <r>  -18.2420    1.0000 </r>
       <r>  -18.2244    1.0000 </r>
       <r>  -13.4084    1.0000 </r>
       <r>  -13.4067    1.0000 </r>
       <r>  -12.8537    1.0000 </r>
       <r>  -12.8261    1.0000 </r>
       <r>  -12.7774    1.0000 </r>
       <r>  -12.7351    1.0000 </r>
       <r>  -12.7208    1.0000 </r>
       <r>  -12.6888    1.0000 </r>
       <r>  -12.6762    1.0000 </r>
       <r>  -12.6599    1.0000 </r>
       <r>  -12.6518    1.0000 </r>
       <r>  -12.6386    1.0000 </r>
       <r>  -12.6270    1.0000 </r>
       <r>  -12.6084    1.0000 </r>
       <r>  -12.0230    1.0000 </r>
       <r>  -12.0155    1.0000 </r>
       <r>   -9.0970    1.0000 </r>
       <r>   -9.0939    1.0000 </r>
       <r>   -8.8197    1.0000 </r>
       <r>   -8.8172    1.0000 </r>
       <r>   -8.3187    1.0000 </r>
       <r>   -8.3130    1.0000 </r>
       <r>   -8.3109    1.0000 </r>
       <r>   -8.3069    1.0000 </r>
       <r>   -8.1292    1.0000 </r>
       <r>   -8.1246    1.0000 </r>
       <r>   -8.1234    1.0000 </r>
       <r>   -8.1195    1.0000 </r>
       <r>   -7.6869    1.0000 </r>
       <r>   -7.6863    1.0000 </r>
       <r>   -7.5739    1.0000 </r>
       <r>   -7.5734    1.0000 </r>
       <r>   -5.9267    1.0000 </r>
       <r>   -5.9248    1.0000 </r>
       <r>   -5.8824    1.0000 </r>
       <r>   -5.8794    1.0000 </r>
       <r>   -5.7827    1.0000 </r>
       <r>   -5.7766    1.0000 </r>
       <r>   -5.7324    1.0000 </r>
       <r>   -5.7291    1.0000 </r>
       <r>   -5.6398    1.0000 </r>
       <r>   -5.6345    1.0000 </r>
       <r>   -5.5091    1.0000 </r>
       <r>   -5.5037    1.0000 </r>
       <r>   -4.4252    1.0000 </r>
       <r>   -4.4212    1.0000 </r>
       <r>   -4.2587    1.0000 </r>
       <r>   -4.2515    1.0000 </r>
       <r>   -1.1260    1.0000 </r>
       <r>   -1.1134    1.0000 </r>
       <r>   -0.7952    1.0000 </r>
       <r>   -0.7944    1.0000 </r>
       <r>   -0.3131    1.0000 </r>
       <r>   -0.3074    1.0000 </r>
       <r>    0.0184    1.0000 </r>
       <r>    0.0873    1.0000 </r>
       <r>    0.1149    1.0000 </r>
       <r>    0.1231    1.0000 </r>
       <r>    0.2357    1.0000 </r>
       <r>    0.2441    1.0000 </r>
       <r>    0.2762    1.0000 </r>
       <r>    0.2935    1.0000 </r>
       <r>    0.3262    1.0000 </r>
       <r>    0.3309    1.0000 </r>
       <r>    0.4917    1.0000 </r>
       <r>    0.5014    1.0000 </r>
       <r>    0.5786    1.0000 </r>
       <r>    0.5847    1.0000 </r>
       <r>    0.6051    1.0000 </r>
       <r>    0.6099    1.0000 </r>
       <r>    0.6408    1.0000 </r>
       <r>    0.6480    1.0000 </r>
       <r>    0.7929    1.0000 </r>
       <r>    0.8649    1.0000 </r>
       <r>    0.9739    1.0000 </r>
       <r>    1.0135    1.0000 </r>
       <r>    1.0460    1.0000 </r>
       <r>    1.0908    1.0000 </r>
       <r>    1.1064    1.0000 </r>
       <r>    1.1437    1.0000 </r>
       <r>    1.2098    1.0000 </r>
       <r>    1.2292    1.0000 </r>
       <r>    1.2442    1.0000 </r>
       <r>    1.2664    1.0000 </r>
       <r>    1.3627    1.0000 </r>
       <r>    1.3769    1.0000 </r>
       <r>    1.3919    1.0000 </r>
       <r>    1.4339    1.0000 </r>
       <r>    1.4696    1.0000 </r>
       <r>    1.5358    1.0000 </r>
       <r>    1.5747    1.0000 </r>
       <r>    1.5898    1.0000 </r>
       <r>    1.6185    1.0000 </r>
       <r>    1.6618    1.0000 </r>
       <r>    1.6904    1.0000 </r>
       <r>    1.7388    1.0000 </r>
       <r>    1.8185    1.0000 </r>
       <r>    1.8651    1.0000 </r>
       <r>    1.9064    1.0000 </r>
       <r>    1.9257    1.0000 </r>
       <r>    1.9868    1.0000 </r>
       <r>    2.0037    1.0000 </r>
       <r>    2.0589    1.0000 </r>
       <r>    2.0886    1.0000 </r>
       <r>    2.1456    1.0000 </r>
       <r>    2.1711    1.0000 </r>
       <r>    2.2067    1.0000 </r>
       <r>    2.2250    1.0000 </r>
       <r>    2.3159    1.0000 </r>
       <r>    2.3508    1.0000 </r>
       <r>    2.4237    1.0000 </r>
       <r>    2.4328    1.0000 </r>
       <r>    2.4681    1.0000 </r>
       <r>    2.5016    1.0000 </r>
       <r>    2.5926    1.0000 </r>
       <r>    2.6011    1.0000 </r>
       <r>    2.6529    1.0000 </r>
       <r>    2.6679    1.0000 </r>
       <r>    2.6778    1.0000 </r>
       <r>    2.6956    1.0000 </r>
       <r>    2.8086    1.0000 </r>
       <r>    2.8339    1.0000 </r>
       <r>    2.8555    1.0000 </r>
       <r>    2.8702    1.0000 </r>
       <r>    2.9019    1.0000 </r>
       <r>    2.9140    1.0000 </r>
       <r>    2.9542    1.0000 </r>
       <r>    2.9729    1.0000 </r>
       <r>    2.9871    1.0000 </r>
       <r>    3.0246    1.0000 </r>
       <r>    3.0613    1.0000 </r>
       <r>    3.1104    1.0000 </r>
       <r>    3.1374    1.0000 </r>
       <r>    3.1800    1.0000 </r>
       <r>    3.2871    1.0000 </r>
       <r>    3.3964    1.0000 </r>
       <r>    3.4860    1.0000 </r>
       <r>    3.5144    1.0000 </r>
       <r>    3.5228    1.0000 </r>
       <r>    3.5465    1.0000 </r>
       <r>    3.5591    1.0000 </r>
       <r>    3.5860    1.0000 </r>
       <r>    3.6081    1.0000 </r>
       <r>    3.7454    1.0000 </r>
       <r>    5.6850    0.0000 </r>
       <r>    5.6909    0.0000 </r>
       <r>    5.6939    0.0000 </r>
       <r>    5.7004    0.0000 </r>
       <r>    5.7734    0.0000 </r>
       <r>    5.7845    0.0000 </r>
       <r>    5.7947    0.0000 </r>
       <r>    5.7998    0.0000 </r>
       <r>    7.3047    0.0000 </r>
       <r>    7.3089    0.0000 </r>
       <r>    7.3338    0.0000 </r>
       <r>    7.3560    0.0000 </r>
       <r>    7.4117    0.0000 </r>
       <r>    7.4349    0.0000 </r>
       <r>    7.4610    0.0000 </r>
       <r>    7.4715    0.0000 </r>
       <r>    7.4940    0.0000 </r>
       <r>    7.5016    0.0000 </r>
       <r>    7.5218    0.0000 </r>
       <r>    7.5400    0.0000 </r>
       <r>    7.8470    0.0000 </r>
       <r>    7.8542    0.0000 </r>
       <r>    7.8697    0.0000 </r>
       <r>    7.8758    0.0000 </r>
       <r>    7.8895    0.0000 </r>
       <r>    7.8949    0.0000 </r>
       <r>    7.9561    0.0000 </r>
       <r>    7.9606    0.0000 </r>
       <r>    7.9759    0.0000 </r>
       <r>    8.0117    0.0000 </r>
       <r>    8.0773    0.0000 </r>
       <r>    8.1314    0.0000 </r>
       <r>    8.3235    0.0000 </r>
       <r>    8.3371    0.0000 </r>
       <r>    8.4069    0.0000 </r>
       <r>    8.5409    0.0000 </r>
       <r>    8.6705    0.0000 </r>
       <r>    8.6948    0.0000 </r>
       <r>    8.7707    0.0000 </r>
       <r>    8.7779    0.0000 </r>
       <r>    8.8214    0.0000 </r>
       <r>    8.8300    0.0000 </r>
       <r>    8.9238    0.0000 </r>
       <r>    8.9275    0.0000 </r>
       <r>    9.1982    0.0000 </r>
       <r>    9.2214    0.0000 </r>
      </set>
      <set comment="kpoint 3">
       <r>  -40.0151    1.0000 </r>
       <r>  -40.0117    1.0000 </r>
       <r>  -40.0107    1.0000 </r>
       <r>  -40.0083    1.0000 </r>
       <r>  -39.9273    1.0000 </r>
       <r>  -39.9257    1.0000 </r>
       <r>  -39.6517    1.0000 </r>
       <r>  -39.6478    1.0000 </r>
       <r>  -39.6368    1.0000 </r>
       <r>  -39.5660    1.0000 </r>
       <r>  -18.8417    1.0000 </r>
       <r>  -18.8399    1.0000 </r>
       <r>  -18.7781    1.0000 </r>
       <r>  -18.7750    1.0000 </r>
       <r>  -18.7720    1.0000 </r>
       <r>  -18.7671    1.0000 </r>
       <r>  -18.6790    1.0000 </r>
       <r>  -18.6687    1.0000 </r>
       <r>  -18.6661    1.0000 </r>
       <r>  -18.6650    1.0000 </r>
       <r>  -18.6600    1.0000 </r>
       <r>  -18.6590    1.0000 </r>
       <r>  -18.6554    1.0000 </r>
       <r>  -18.6526    1.0000 </r>
       <r>  -18.6517    1.0000 </r>
       <r>  -18.6481    1.0000 </r>
       <r>  -18.6480    1.0000 </r>
       <r>  -18.6453    1.0000 </r>
       <r>  -18.6425    1.0000 </r>
       <r>  -18.6424    1.0000 </r>
       <r>  -18.6408    1.0000 </r>
       <r>  -18.6396    1.0000 </r>
       <r>  -18.6389    1.0000 </r>
       <r>  -18.6370    1.0000 </r>
       <r>  -18.6364    1.0000 </r>
       <r>  -18.6356    1.0000 </r>
       <r>  -18.6347    1.0000 </r>
       <r>  -18.6347    1.0000 </r>
       <r>  -18.6319    1.0000 </r>
       <r>  -18.6318    1.0000 </r>
       <r>  -18.6303    1.0000 </r>
       <r>  -18.6284    1.0000 </r>
       <r>  -18.6265    1.0000 </r>
       <r>  -18.6263    1.0000 </r>
       <r>  -18.6256    1.0000 </r>
       <r>  -18.6240    1.0000 </r>
       <r>  -18.6228    1.0000 </r>
       <r>  -18.6223    1.0000 </r>
       <r>  -18.6208    1.0000 </r>
       <r>  -18.6196    1.0000 </r>
       <r>  -18.6178    1.0000 </r>
       <r>  -18.6166    1.0000 </r>
       <r>  -18.6136    1.0000 </r>
       <r>  -18.6107    1.0000 </r>
       <r>  -18.6101    1.0000 </r>
       <r>  -18.6021    1.0000 </r>
       <r>  -18.4964    1.0000 </r>
       <r>  -18.4949    1.0000 </r>
       <r>  -18.4919    1.0000 </r>
       <r>  -18.4913    1.0000 </r>
       <r>  -18.4912    1.0000 </r>
       <r>  -18.4874    1.0000 </r>
       <r>  -18.4832    1.0000 </r>
       <r>  -18.4827    1.0000 </r>
       <r>  -18.4804    1.0000 </r>
       <r>  -18.4800    1.0000 </r>
       <r>  -18.4798    1.0000 </r>
       <r>  -18.4782    1.0000 </r>
       <r>  -18.4775    1.0000 </r>
       <r>  -18.4772    1.0000 </r>
       <r>  -18.4758    1.0000 </r>
       <r>  -18.4752    1.0000 </r>
       <r>  -18.4747    1.0000 </r>
       <r>  -18.4738    1.0000 </r>
       <r>  -18.4693    1.0000 </r>
       <r>  -18.4689    1.0000 </r>
       <r>  -18.4685    1.0000 </r>
       <r>  -18.4672    1.0000 </r>
       <r>  -18.4651    1.0000 </r>
       <r>  -18.4624    1.0000 </r>
       <r>  -18.4564    1.0000 </r>
       <r>  -18.4464    1.0000 </r>
       <r>  -18.4436    1.0000 </r>
       <r>  -18.4336    1.0000 </r>
       <r>  -18.3693    1.0000 </r>
       <r>  -18.3603    1.0000 </r>
       <r>  -18.2501    1.0000 </r>
       <r>  -18.2491    1.0000 </r>
       <r>  -18.2420    1.0000 </r>
       <r>  -18.2244    1.0000 </r>
       <r>  -13.4104    1.0000 </r>
       <r>  -13.4047    1.0000 </r>
       <r>  -12.8680    1.0000 </r>
       <r>  -12.8027    1.0000 </r>
       <r>  -12.7764    1.0000 </r>
       <r>  -12.7439    1.0000 </r>
       <r>  -12.7059    1.0000 </r>
       <r>  -12.6857    1.0000 </r>
       <r>  -12.6796    1.0000 </r>
       <r>  -12.6752    1.0000 </r>
       <r>  -12.6537    1.0000 </r>
       <r>  -12.6461    1.0000 </r>
       <r>  -12.6207    1.0000 </r>
       <r>  -12.6068    1.0000 </r>
       <r>  -12.0234    1.0000 </r>
       <r>  -12.0159    1.0000 </r>
       <r>   -9.2972    1.0000 </r>
       <r>   -9.0186    1.0000 </r>
       <r>   -8.5593    1.0000 </r>
       <r>   -8.4956    1.0000 </r>
       <r>   -8.4948    1.0000 </r>
       <r>   -8.4316    1.0000 </r>
       <r>   -8.2934    1.0000 </r>
       <r>   -8.2299    1.0000 </r>
       <r>   -8.2293    1.0000 </r>
       <r>   -8.1672    1.0000 </r>
       <r>   -8.0316    1.0000 </r>
       <r>   -8.0260    1.0000 </r>
       <r>   -8.0193    1.0000 </r>
       <r>   -8.0140    1.0000 </r>
       <r>   -7.3577    1.0000 </r>
       <r>   -7.3507    1.0000 </r>
       <r>   -6.3509    1.0000 </r>
       <r>   -6.3360    1.0000 </r>
       <r>   -6.3256    1.0000 </r>
       <r>   -6.3191    1.0000 </r>
       <r>   -5.4990    1.0000 </r>
       <r>   -5.4432    1.0000 </r>
       <r>   -5.3972    1.0000 </r>
       <r>   -5.3829    1.0000 </r>
       <r>   -5.3772    1.0000 </r>
       <r>   -5.3027    1.0000 </r>
       <r>   -5.1809    1.0000 </r>
       <r>   -5.1089    1.0000 </r>
       <r>   -5.1037    1.0000 </r>
       <r>   -4.9722    1.0000 </r>
       <r>   -3.8824    1.0000 </r>
       <r>   -3.5705    1.0000 </r>
       <r>   -1.3256    1.0000 </r>
       <r>   -1.2712    1.0000 </r>
       <r>   -1.1648    1.0000 </r>
       <r>   -1.0538    1.0000 </r>
       <r>   -0.4324    1.0000 </r>
       <r>   -0.4034    1.0000 </r>
       <r>   -0.3987    1.0000 </r>
       <r>   -0.3656    1.0000 </r>
       <r>   -0.3634    1.0000 </r>
       <r>   -0.2752    1.0000 </r>
       <r>   -0.2460    1.0000 </r>
       <r>   -0.2032    1.0000 </r>
       <r>   -0.0203    1.0000 </r>
       <r>    0.0478    1.0000 </r>
       <r>    0.1313    1.0000 </r>
       <r>    0.3133    1.0000 </r>
       <r>    0.3184    1.0000 </r>
       <r>    0.3922    1.0000 </r>
       <r>    0.4039    1.0000 </r>
       <r>    0.4304    1.0000 </r>
       <r>    0.4773    1.0000 </r>
       <r>    0.5132    1.0000 </r>
       <r>    0.7512    1.0000 </r>
       <r>    0.7702    1.0000 </r>
       <r>    0.7791    1.0000 </r>
       <r>    0.8065    1.0000 </r>
       <r>    0.8216    1.0000 </r>
       <r>    0.8590    1.0000 </r>
       <r>    1.1051    1.0000 </r>
       <r>    1.1579    1.0000 </r>
       <r>    1.1935    1.0000 </r>
       <r>    1.2503    1.0000 </r>
       <r>    1.2699    1.0000 </r>
       <r>    1.3717    1.0000 </r>
       <r>    1.4133    1.0000 </r>
       <r>    1.4592    1.0000 </r>
       <r>    1.5110    1.0000 </r>
       <r>    1.5758    1.0000 </r>
       <r>    1.6438    1.0000 </r>
       <r>    1.6614    1.0000 </r>
       <r>    1.7013    1.0000 </r>
       <r>    1.7501    1.0000 </r>
       <r>    1.7600    1.0000 </r>
       <r>    1.7719    1.0000 </r>
       <r>    1.7907    1.0000 </r>
       <r>    1.8093    1.0000 </r>
       <r>    1.8658    1.0000 </r>
       <r>    1.8979    1.0000 </r>
       <r>    1.9491    1.0000 </r>
       <r>    1.9666    1.0000 </r>
       <r>    1.9743    1.0000 </r>
       <r>    2.0772    1.0000 </r>
       <r>    2.1067    1.0000 </r>
       <r>    2.1415    1.0000 </r>
       <r>    2.2456    1.0000 </r>
       <r>    2.2920    1.0000 </r>
       <r>    2.4408    1.0000 </r>
       <r>    2.4752    1.0000 </r>
       <r>    2.5515    1.0000 </r>
       <r>    2.5529    1.0000 </r>
       <r>    2.5762    1.0000 </r>
       <r>    2.5781    1.0000 </r>
       <r>    2.5869    1.0000 </r>
       <r>    2.5915    1.0000 </r>
       <r>    2.6021    1.0000 </r>
       <r>    2.6659    1.0000 </r>
       <r>    2.6747    1.0000 </r>
       <r>    2.6902    1.0000 </r>
       <r>    2.7394    1.0000 </r>
       <r>    2.7611    1.0000 </r>
       <r>    2.7905    1.0000 </r>
       <r>    2.8381    1.0000 </r>
       <r>    2.8439    1.0000 </r>
       <r>    2.8650    1.0000 </r>
       <r>    2.8670    1.0000 </r>
       <r>    2.8824    1.0000 </r>
       <r>    2.9480    1.0000 </r>
       <r>    2.9592    1.0000 </r>
       <r>    2.9707    1.0000 </r>
       <r>    2.9867    1.0000 </r>
       <r>    3.0219    1.0000 </r>
       <r>    3.0540    1.0000 </r>
       <r>    3.1657    1.0000 </r>
       <r>    3.2832    1.0000 </r>
       <r>    3.3195    1.0000 </r>
       <r>    3.3666    1.0000 </r>
       <r>    3.3849    1.0000 </r>
       <r>    3.4208    1.0000 </r>
       <r>    3.4232    1.0000 </r>
       <r>    3.4814    1.0000 </r>
       <r>    3.5927    1.0000 </r>
       <r>    3.6010    1.0000 </r>
       <r>    4.2322    1.0000 </r>
       <r>    4.2522    1.0000 </r>
       <r>    4.2589    1.0000 </r>
       <r>    4.2822    1.0000 </r>
       <r>    5.1467    0.0000 </r>
       <r>    5.1661    0.0000 </r>
       <r>    5.2168    0.0000 </r>
       <r>    5.2361    0.0000 </r>
       <r>    5.7820    0.0000 </r>
       <r>    5.7997    0.0000 </r>
       <r>    5.8160    0.0000 </r>
       <r>    5.8416    0.0000 </r>
       <r>    6.1515    0.0000 </r>
       <r>    6.1756    0.0000 </r>
       <r>    6.1787    0.0000 </r>
       <r>    6.1932    0.0000 </r>
       <r>    6.2366    0.0000 </r>
       <r>    6.2604    0.0000 </r>
       <r>    6.2627    0.0000 </r>
       <r>    6.2824    0.0000 </r>
       <r>    6.8303    0.0000 </r>
       <r>    7.0246    0.0000 </r>
       <r>    7.0751    0.0000 </r>
       <r>    7.0770    0.0000 </r>
       <r>    7.0943    0.0000 </r>
       <r>    7.3720    0.0000 </r>
       <r>    7.4245    0.0000 </r>
       <r>    7.5856    0.0000 </r>
       <r>    7.6749    0.0000 </r>
       <r>    7.8565    0.0000 </r>
       <r>    7.9377    0.0000 </r>
       <r>    7.9487    0.0000 </r>
       <r>    8.1055    0.0000 </r>
       <r>    8.2512    0.0000 </r>
       <r>    8.3040    0.0000 </r>
       <r>    8.4649    0.0000 </r>
       <r>    8.7063    0.0000 </r>
       <r>    8.8920    0.0000 </r>
       <r>    8.9676    0.0000 </r>
       <r>    8.9958    0.0000 </r>
       <r>    9.0035    0.0000 </r>
       <r>    9.0161    0.0000 </r>
       <r>    9.0665    0.0000 </r>
       <r>    9.1055    0.0000 </r>
       <r>    9.1175    0.0000 </r>
       <r>    9.1549    0.0000 </r>
       <r>    9.1615    0.0000 </r>
       <r>    9.2157    0.0000 </r>
       <r>    9.5429    0.0000 </r>
       <r>    9.6601    0.0000 </r>
      </set>
      <set comment="kpoint 4">
       <r>  -40.0151    1.0000 </r>
       <r>  -40.0117    1.0000 </r>
       <r>  -40.0107    1.0000 </r>
       <r>  -40.0083    1.0000 </r>
       <r>  -39.9273    1.0000 </r>
       <r>  -39.9257    1.0000 </r>
       <r>  -39.6517    1.0000 </r>
       <r>  -39.6478    1.0000 </r>
       <r>  -39.6368    1.0000 </r>
       <r>  -39.5660    1.0000 </r>
       <r>  -18.8414    1.0000 </r>
       <r>  -18.8403    1.0000 </r>
       <r>  -18.7770    1.0000 </r>
       <r>  -18.7760    1.0000 </r>
       <r>  -18.7701    1.0000 </r>
       <r>  -18.7691    1.0000 </r>
       <r>  -18.6706    1.0000 </r>
       <r>  -18.6668    1.0000 </r>
       <r>  -18.6661    1.0000 </r>
       <r>  -18.6650    1.0000 </r>
       <r>  -18.6614    1.0000 </r>
       <r>  -18.6600    1.0000 </r>
       <r>  -18.6590    1.0000 </r>
       <r>  -18.6578    1.0000 </r>
       <r>  -18.6522    1.0000 </r>
       <r>  -18.6498    1.0000 </r>
       <r>  -18.6478    1.0000 </r>
       <r>  -18.6474    1.0000 </r>
       <r>  -18.6453    1.0000 </r>
       <r>  -18.6449    1.0000 </r>
       <r>  -18.6431    1.0000 </r>
       <r>  -18.6418    1.0000 </r>
       <r>  -18.6395    1.0000 </r>
       <r>  -18.6388    1.0000 </r>
       <r>  -18.6386    1.0000 </r>
       <r>  -18.6366    1.0000 </r>
       <r>  -18.6326    1.0000 </r>
       <r>  -18.6323    1.0000 </r>
       <r>  -18.6285    1.0000 </r>
       <r>  -18.6282    1.0000 </r>
       <r>  -18.6263    1.0000 </r>
       <r>  -18.6259    1.0000 </r>
       <r>  -18.6256    1.0000 </r>
       <r>  -18.6255    1.0000 </r>
       <r>  -18.6237    1.0000 </r>
       <r>  -18.6231    1.0000 </r>
       <r>  -18.6213    1.0000 </r>
       <r>  -18.6200    1.0000 </r>
       <r>  -18.6190    1.0000 </r>
       <r>  -18.6170    1.0000 </r>
       <r>  -18.6164    1.0000 </r>
       <r>  -18.6146    1.0000 </r>
       <r>  -18.6141    1.0000 </r>
       <r>  -18.6138    1.0000 </r>
       <r>  -18.6127    1.0000 </r>
       <r>  -18.6099    1.0000 </r>
       <r>  -18.4951    1.0000 </r>
       <r>  -18.4948    1.0000 </r>
       <r>  -18.4941    1.0000 </r>
       <r>  -18.4911    1.0000 </r>
       <r>  -18.4911    1.0000 </r>
       <r>  -18.4855    1.0000 </r>
       <r>  -18.4842    1.0000 </r>
       <r>  -18.4837    1.0000 </r>
       <r>  -18.4806    1.0000 </r>
       <r>  -18.4800    1.0000 </r>
       <r>  -18.4790    1.0000 </r>
       <r>  -18.4785    1.0000 </r>
       <r>  -18.4774    1.0000 </r>
       <r>  -18.4772    1.0000 </r>
[...]
       <r>    8.8614    0.0000 </r>
       <r>    8.8800    0.0000 </r>
       <r>    8.8937    0.0000 </r>
       <r>    8.8985    0.0000 </r>
       <r>    8.9156    0.0000 </r>
      </set>
     </set>
    </set>
   </array>
  </eigenvalues>
  <separator name="orbital magnetization" >
   <v name="MAGDIPOLOUT">      0.00000000      0.00000000      0.00000000</v>
  </separator>
  <dos>
   <i name="efermi">      4.35723698 </i>
   <total>
    <array>
     <dimension dim="1">gridpoints</dimension>
     <dimension dim="2">spin</dimension>
     <field>energy</field>
     <field>total</field>
     <field>integrated</field>
     <set>
      <set comment="spin 1">
       <r>   -42.4989     0.0000     0.0000 </r>
       <r>   -42.3167     0.0000     0.0000 </r>
       <r>   -42.1346     0.0000     0.0000 </r>
       <r>   -41.9524     0.0000     0.0000 </r>
       <r>   -41.7703     0.0000     0.0000 </r>
       <r>   -41.5881     0.0000     0.0000 </r>
       <r>   -41.4060     0.0000     0.0000 </r>
       <r>   -41.2239     0.0000     0.0000 </r>
       <r>   -41.0417     0.0000     0.0000 </r>
       <r>   -40.8596     0.0000     0.0000 </r>
       <r>   -40.6774     0.0000     0.0000 </r>
       <r>   -40.4953     0.0000     0.0000 </r>
       <r>   -40.3131     0.0000     0.0000 </r>
       <r>   -40.1310     0.0000     0.0000 </r>
       <r>   -39.9489     0.0000     8.0000 </r>
       <r>   -39.7667     0.0000    12.0000 </r>
       <r>   -39.5846     0.0000    18.0000 </r>
       <r>   -39.4024     0.0000    20.0000 </r>
       <r>   -39.2203     0.0000    20.0000 </r>
       <r>   -39.0382     0.0000    20.0000 </r>
       <r>   -38.8560     0.0000    20.0000 </r>
       <r>   -38.6739     0.0000    20.0000 </r>
       <r>   -38.4917     0.0000    20.0000 </r>
       <r>   -38.3096     0.0000    20.0000 </r>
       <r>   -38.1274     0.0000    20.0000 </r>
       <r>   -37.9453     0.0000    20.0000 </r>
       <r>   -37.7632     0.0000    20.0000 </r>
       <r>   -37.5810     0.0000    20.0000 </r>
       <r>   -37.3989     0.0000    20.0000 </r>
       <r>   -37.2167     0.0000    20.0000 </r>
       <r>   -37.0346     0.0000    20.0000 </r>
       <r>   -36.8524     0.0000    20.0000 </r>
       <r>   -36.6703     0.0000    20.0000 </r>
       <r>   -36.4882     0.0000    20.0000 </r>
       <r>   -36.3060     0.0000    20.0000 </r>
       <r>   -36.1239     0.0000    20.0000 </r>
       <r>   -35.9417     0.0000    20.0000 </r>
       <r>   -35.7596     0.0000    20.0000 </r>
       <r>   -35.5774     0.0000    20.0000 </r>
       <r>   -35.3953     0.0000    20.0000 </r>
       <r>   -35.2132     0.0000    20.0000 </r>
       <r>   -35.0310     0.0000    20.0000 </r>
       <r>   -34.8489     0.0000    20.0000 </r>
       <r>   -34.6667     0.0000    20.0000 </r>
       <r>   -34.4846     0.0000    20.0000 </r>
       <r>   -34.3025     0.0000    20.0000 </r>
       <r>   -34.1203     0.0000    20.0000 </r>
       <r>   -33.9382     0.0000    20.0000 </r>
       <r>   -33.7560     0.0000    20.0000 </r>
       <r>   -33.5739     0.0000    20.0000 </r>
       <r>   -33.3917     0.0000    20.0000 </r>
       <r>   -33.2096     0.0000    20.0000 </r>
       <r>   -33.0275     0.0000    20.0000 </r>
       <r>   -32.8453     0.0000    20.0000 </r>
       <r>   -32.6632     0.0000    20.0000 </r>
       <r>   -32.4810     0.0000    20.0000 </r>
       <r>   -32.2989     0.0000    20.0000 </r>
       <r>   -32.1167     0.0000    20.0000 </r>
       <r>   -31.9346     0.0000    20.0000 </r>
       <r>   -31.7525     0.0000    20.0000 </r>
       <r>   -31.5703     0.0000    20.0000 </r>
       <r>   -31.3882     0.0000    20.0000 </r>
       <r>   -31.2060     0.0000    20.0000 </r>
       <r>   -31.0239     0.0000    20.0000 </r>
       <r>   -30.8417     0.0000    20.0000 </r>
       <r>   -30.6596     0.0000    20.0000 </r>
       <r>   -30.4775     0.0000    20.0000 </r>
       <r>   -30.2953     0.0000    20.0000 </r>
       <r>   -30.1132     0.0000    20.0000 </r>
       <r>   -29.9310     0.0000    20.0000 </r>
       <r>   -29.7489     0.0000    20.0000 </r>
       <r>   -29.5668     0.0000    20.0000 </r>
       <r>   -29.3846     0.0000    20.0000 </r>
       <r>   -29.2025     0.0000    20.0000 </r>
       <r>   -29.0203     0.0000    20.0000 </r>
       <r>   -28.8382     0.0000    20.0000 </r>
       <r>   -28.6560     0.0000    20.0000 </r>
       <r>   -28.4739     0.0000    20.0000 </r>
       <r>   -28.2918     0.0000    20.0000 </r>
       <r>   -28.1096     0.0000    20.0000 </r>
       <r>   -27.9275     0.0000    20.0000 </r>
       <r>   -27.7453     0.0000    20.0000 </r>
       <r>   -27.5632     0.0000    20.0000 </r>
       <r>   -27.3810     0.0000    20.0000 </r>
       <r>   -27.1989     0.0000    20.0000 </r>
       <r>   -27.0168     0.0000    20.0000 </r>
       <r>   -26.8346     0.0000    20.0000 </r>
       <r>   -26.6525     0.0000    20.0000 </r>
       <r>   -26.4703     0.0000    20.0000 </r>
       <r>   -26.2882     0.0000    20.0000 </r>
       <r>   -26.1061     0.0000    20.0000 </r>
       <r>   -25.9239     0.0000    20.0000 </r>
       <r>   -25.7418     0.0000    20.0000 </r>
       <r>   -25.5596     0.0000    20.0000 </r>
       <r>   -25.3775     0.0000    20.0000 </r>
       <r>   -25.1953     0.0000    20.0000 </r>
       <r>   -25.0132     0.0000    20.0000 </r>
       <r>   -24.8311     0.0000    20.0000 </r>
       <r>   -24.6489     0.0000    20.0000 </r>
       <r>   -24.4668     0.0000    20.0000 </r>
       <r>   -24.2846     0.0000    20.0000 </r>
       <r>   -24.1025     0.0000    20.0000 </r>
       <r>   -23.9203     0.0000    20.0000 </r>
       <r>   -23.7382     0.0000    20.0000 </r>
       <r>   -23.5561     0.0000    20.0000 </r>
       <r>   -23.3739     0.0000    20.0000 </r>
       <r>   -23.1918     0.0000    20.0000 </r>
       <r>   -23.0096     0.0000    20.0000 </r>
       <r>   -22.8275     0.0000    20.0000 </r>
       <r>   -22.6453     0.0000    20.0000 </r>
       <r>   -22.4632     0.0000    20.0000 </r>
       <r>   -22.2811     0.0000    20.0000 </r>
       <r>   -22.0989     0.0000    20.0000 </r>
       <r>   -21.9168     0.0000    20.0000 </r>
       <r>   -21.7346     0.0000    20.0000 </r>
       <r>   -21.5525     0.0000    20.0000 </r>
       <r>   -21.3704     0.0000    20.0000 </r>
       <r>   -21.1882     0.0000    20.0000 </r>
       <r>   -21.0061     0.0000    20.0000 </r>
       <r>   -20.8239     0.0000    20.0000 </r>
       <r>   -20.6418     0.0000    20.0000 </r>
       <r>   -20.4596     0.0000    20.0000 </r>
       <r>   -20.2775     0.0000    20.0000 </r>
       <r>   -20.0954     0.0000    20.0000 </r>
       <r>   -19.9132     0.0000    20.0000 </r>
       <r>   -19.7311     0.0000    20.0000 </r>
       <r>   -19.5489     0.0000    20.0000 </r>
       <r>   -19.3668     0.0000    20.0000 </r>
       <r>   -19.1846     0.0000    20.0000 </r>
       <r>   -19.0025     0.0000    20.0000 </r>
       <r>   -18.8204     0.0000    24.0000 </r>
       <r>   -18.6382  2068.8574    65.8807 </r>
       <r>   -18.4561     0.0000   162.0000 </r>
       <r>   -18.2739     0.0000   172.0000 </r>
       <r>   -18.0918     0.0000   180.0000 </r>
       <r>   -17.9097     0.0000   180.0000 </r>
       <r>   -17.7275     0.0000   180.0000 </r>
       <r>   -17.5454     0.0000   180.0000 </r>
       <r>   -17.3632     0.0000   180.0000 </r>
       <r>   -17.1811     0.0000   180.0000 </r>
       <r>   -16.9989     0.0000   180.0000 </r>
       <r>   -16.8168     0.0000   180.0000 </r>
       <r>   -16.6347     0.0000   180.0000 </r>
       <r>   -16.4525     0.0000   180.0000 </r>
       <r>   -16.2704     0.0000   180.0000 </r>
       <r>   -16.0882     0.0000   180.0000 </r>
       <r>   -15.9061     0.0000   180.0000 </r>
       <r>   -15.7239     0.0000   180.0000 </r>
       <r>   -15.5418     0.0000   180.0000 </r>
       <r>   -15.3597     0.0000   180.0000 </r>
       <r>   -15.1775     0.0000   180.0000 </r>
       <r>   -14.9954     0.0000   180.0000 </r>
       <r>   -14.8132     0.0000   180.0000 </r>
       <r>   -14.6311     0.0000   180.0000 </r>
       <r>   -14.4489     0.0000   180.0000 </r>
       <r>   -14.2668     0.0000   180.0000 </r>
       <r>   -14.0847     0.0000   180.0000 </r>
       <r>   -13.9025     0.0000   180.0000 </r>
       <r>   -13.7204     0.0000   180.0000 </r>
       <r>   -13.5382     0.0000   180.0000 </r>
       <r>   -13.3561     0.0000   184.0000 </r>
       <r>   -13.1740     0.0000   184.0000 </r>
       <r>   -12.9918     0.0000   184.0000 </r>
       <r>   -12.8097    37.5179   187.8742 </r>
       <r>   -12.6275   367.0925   204.6756 </r>
       <r>   -12.4454     0.0000   208.0000 </r>
       <r>   -12.2632     0.0000   208.0000 </r>
       <r>   -12.0811     0.0000   208.0000 </r>
       <r>   -11.8990     0.0000   212.0000 </r>
       <r>   -11.7168     0.0000   212.0000 </r>
       <r>   -11.5347     0.0000   212.0000 </r>
       <r>   -11.3525     0.0000   212.0000 </r>
       <r>   -11.1704     0.0000   212.0000 </r>
       <r>   -10.9882     0.0000   212.0000 </r>
       <r>   -10.8061     0.0000   212.0000 </r>
       <r>   -10.6240     0.0000   212.0000 </r>
       <r>   -10.4418     0.0000   212.0000 </r>
       <r>   -10.2597     0.0000   212.0000 </r>
       <r>   -10.0775     0.0000   212.0000 </r>
       <r>    -9.8954     0.0000   212.0000 </r>
       <r>    -9.7133     0.0000   212.0000 </r>
       <r>    -9.5311     0.0000   212.0000 </r>
       <r>    -9.3490     0.0000   212.0000 </r>
       <r>    -9.1668     6.7681   212.4588 </r>
       <r>    -8.9847    13.6313   215.6065 </r>
       <r>    -8.8025    17.7878   217.4986 </r>
       <r>    -8.6204     9.1697   219.7351 </r>
       <r>    -8.4383    26.9707   222.7108 </r>
       <r>    -8.2561     3.7256   227.9664 </r>
       <r>    -8.0740    35.6229   230.9015 </r>
       <r>    -7.8918    20.8112   235.3849 </r>
       <r>    -7.7097    18.2564   238.7846 </r>
       <r>    -7.5275    17.3199   242.4866 </r>
       <r>    -7.3454     0.0000   244.0000 </r>
       <r>    -7.1633     0.0000   244.0000 </r>
       <r>    -6.9811     0.0000   244.0000 </r>
       <r>    -6.7990     0.0000   244.0000 </r>
       <r>    -6.6168     0.0000   244.0000 </r>
       <r>    -6.4347     0.0000   244.0000 </r>
       <r>    -6.2525     7.4714   244.3294 </r>
       <r>    -6.0704    23.2056   247.1244 </r>
       <r>    -5.8883    10.4407   252.2312 </r>
       <r>    -5.7061    28.9746   256.1242 </r>
       <r>    -5.5240    19.1621   260.5501 </r>
       <r>    -5.3418    19.1182   264.4093 </r>
       <r>    -5.1597    10.8192   267.2973 </r>
       <r>    -4.9776     2.5260   268.1642 </r>
       <r>    -4.7954     7.8199   269.2686 </r>
       <r>    -4.6133    10.1493   270.8724 </r>
       <r>    -4.4311     5.6094   272.7665 </r>
       <r>    -4.2490     7.1431   273.8379 </r>
       <r>    -4.0668     5.4606   275.0955 </r>
       <r>    -3.8847     2.0400   275.7769 </r>
       <r>    -3.7026     0.5054   275.9757 </r>
       <r>    -3.5204     0.0000   276.0000 </r>
       <r>    -3.3383     0.0000   276.0000 </r>
       <r>    -3.1561     0.0000   276.0000 </r>
       <r>    -2.9740     0.0000   276.0000 </r>
       <r>    -2.7918     0.0000   276.0000 </r>
       <r>    -2.6097     0.0000   276.0000 </r>
       <r>    -2.4276     0.0000   276.0000 </r>
       <r>    -2.2454     0.0000   276.0000 </r>
       <r>    -2.0633     0.0000   276.0000 </r>
       <r>    -1.8811     0.0000   276.0000 </r>
       <r>    -1.6990     0.0000   276.0000 </r>
       <r>    -1.5169     0.0000   276.0000 </r>
       <r>    -1.3347     0.5955   276.0129 </r>
       <r>    -1.1526     9.0021   276.7852 </r>
       <r>    -0.9704    11.0740   278.4977 </r>
       <r>    -0.7883    10.9257   280.9458 </r>
       <r>    -0.6061     7.2913   282.6049 </r>
       <r>    -0.4240     8.0065   283.7562 </r>
       <r>    -0.2419    27.3700   287.0411 </r>
       <r>    -0.0597    39.7172   292.6397 </r>
       <r>     0.1224    41.0778   299.5835 </r>
       <r>     0.3046    29.5620   305.6711 </r>
       <r>     0.4867    44.0173   313.4507 </r>
       <r>     0.6689    38.9706   320.9516 </r>
       <r>     0.8510    36.9959   326.5209 </r>
       <r>     1.0331    42.2740   331.9632 </r>
       <r>     1.2153    50.6628   341.5992 </r>
       <r>     1.3974    59.2856   350.3589 </r>
       <r>     1.5796    52.0071   359.4393 </r>
       <r>     1.7617    45.8878   369.6772 </r>
       <r>     1.9439    35.8644   378.8679 </r>
       <r>     2.1260    40.9166   386.2564 </r>
       <r>     2.3081    35.0049   393.0753 </r>
       <r>     2.4903    70.3502   402.3423 </r>
       <r>     2.6724    65.5911   413.9862 </r>
       <r>     2.8546    52.6546   425.7861 </r>
       <r>     3.0367    76.3599   440.3516 </r>
       <r>     3.2188    27.3452   448.8476 </r>
       <r>     3.4010    37.1172   454.4985 </r>
       <r>     3.5831    34.4298   461.7896 </r>
       <r>     3.7653    13.4550   464.8285 </r>
       <r>     3.9474     8.2436   466.8046 </r>
       <r>     4.1296     3.0334   467.8316 </r>
       <r>     4.3117     0.0000   468.0000 </r>
       <r>     4.4938     0.0000   468.0000 </r>
       <r>     4.6760     0.0000   468.0000 </r>
       <r>     4.8581     0.0000   468.0000 </r>
       <r>     5.0403     0.0000   468.0000 </r>
       <r>     5.2224     1.2612   468.0574 </r>
       <r>     5.4046     4.9773   468.6247 </r>
       <r>     5.5867     8.7075   469.8710 </r>
       <r>     5.7688     7.1400   471.5679 </r>
       <r>     5.9510    13.9997   475.9852 </r>
       <r>     6.1331    11.7978   478.3308 </r>
       <r>     6.3153    11.9667   480.4463 </r>
       <r>     6.4974    13.4779   482.7638 </r>
       <r>     6.6796    14.9716   485.3550 </r>
       <r>     6.8617    16.5029   488.2172 </r>
       <r>     7.0438    19.2341   491.4545 </r>
       <r>     7.2260    29.0510   495.7081 </r>
       <r>     7.4081    50.2402   502.9996 </r>
       <r>     7.5903    19.2417   509.8469 </r>
       <r>     7.7724    43.3951   515.6872 </r>
       <r>     7.9545    50.5696   524.2281 </r>
       <r>     8.1367    23.9016   530.6323 </r>
       <r>     8.3188    17.9609   534.2903 </r>
       <r>     8.5010    22.2410   537.8549 </r>
       <r>     8.6831    26.3371   542.3851 </r>
       <r>     8.8653    49.5932   548.5913 </r>
       <r>     9.0474    25.4466   555.5563 </r>
       <r>     9.2295     9.0289   558.5170 </r>
       <r>     9.4117     3.9339   559.6781 </r>
       <r>     9.5938     0.2399   559.9947 </r>
       <r>     9.7760     0.0000   560.0000 </r>
       <r>     9.9581     0.0000   560.0000 </r>
       <r>    10.1403     0.0000   560.0000 </r>
       <r>    10.3224     0.0000   560.0000 </r>
       <r>    10.5045     0.0000   560.0000 </r>
       <r>    10.6867     0.0000   560.0000 </r>
       <r>    10.8688     0.0000   560.0000 </r>
       <r>    11.0510     0.0000   560.0000 </r>
       <r>    11.2331     0.0000   560.0000 </r>
       <r>    11.4152     0.0000   560.0000 </r>
       <r>    11.5974     0.0000   560.0000 </r>
       <r>    11.7795     0.0000   560.0000 </r>
       <r>    11.9617     0.0000   560.0000 </r>
       <r>    12.1438     0.0000   560.0000 </r>
      </set>
     </set>
    </array>
   </total>
  </dos>
 </calculation>
 <structure name="finalpos" >
  <crystal>
   <varray name="basis" >
    <v>      11.17850000       0.00000000       0.00000000 </v>
    <v>       0.00000000       9.57460000       0.00000000 </v>
    <v>       0.00000000       0.00000000      11.18240000 </v>
   </varray>
   <i name="volume">   1196.84853820 </i>
   <varray name="rec_basis" >
    <v>       0.08945744       0.00000000       0.00000000 </v>
    <v>       0.00000000       0.10444301       0.00000000 </v>
    <v>       0.00000000       0.00000000       0.08942624 </v>
   </varray>
  </crystal>
  <varray name="positions" >
   <v>       0.37539000       0.00017000       0.43687000 </v>
   <v>       0.12461000       0.99984000       0.18687000 </v>
   <v>       0.62539000       0.99984000       0.43687000 </v>
   <v>       0.87539000       0.00017000       0.43687000 </v>
   <v>       0.12539000       0.99984000       0.93687000 </v>
   <v>       0.12461000       0.99984000       0.68687000 </v>
   <v>       0.62539000       0.99984000       0.93687000 </v>
   <v>       0.87539000       0.00017000       0.93687000 </v>
   <v>       0.62461000       0.99984000       0.68687000 </v>
   <v>       0.87461000       0.00017000       0.68687000 </v>
   <v>       0.37461000       0.00017000       0.18687000 </v>
   <v>       0.87461000       0.00017000       0.18687000 </v>
   <v>       0.37461000       0.00017000       0.68687000 </v>
   <v>       0.00013000       0.29519000       0.06281000 </v>
   <v>       0.25013000       0.70481000       0.06281000 </v>
   <v>       0.24987000       0.29519000       0.31282000 </v>
   <v>       0.49987000       0.70481000       0.31282000 </v>
   <v>       0.50013000       0.29519000       0.06281000 </v>
   <v>       0.75013000       0.70481000       0.06281000 </v>
   <v>       0.74987000       0.29519000       0.31282000 </v>
   <v>       0.99987000       0.70481000       0.31282000 </v>
   <v>       0.00013000       0.29519000       0.56281000 </v>
   <v>       0.25013000       0.70481000       0.56281000 </v>
   <v>       0.24987000       0.29519000       0.81282000 </v>
   <v>       0.49987000       0.70481000       0.81282000 </v>
   <v>       0.50013000       0.29519000       0.56281000 </v>
   <v>       0.75013000       0.70481000       0.56281000 </v>
   <v>       0.74987000       0.29519000       0.81282000 </v>
   <v>       0.99987000       0.70481000       0.81282000 </v>
   <v>       0.25005000       0.32677000       0.06286000 </v>
   <v>       0.00005000       0.67323000       0.06286000 </v>
   <v>       0.49995000       0.32677000       0.31286000 </v>
   <v>       0.24995000       0.67323000       0.31286000 </v>
   <v>       0.75005000       0.32677000       0.06286000 </v>
   <v>       0.50005000       0.67323000       0.06286000 </v>
   <v>       0.99995000       0.32677000       0.31286000 </v>
   <v>       0.74995000       0.67323000       0.31286000 </v>
   <v>       0.25005000       0.32677000       0.56286000 </v>
   <v>       0.00005000       0.67323000       0.56286000 </v>
   <v>       0.49995000       0.32677000       0.81286000 </v>
   <v>       0.24995000       0.67323000       0.81286000 </v>
   <v>       0.75005000       0.32677000       0.56286000 </v>
   <v>       0.50005000       0.67323000       0.56286000 </v>
   <v>       0.99995000       0.32677000       0.81286000 </v>
   <v>       0.74995000       0.67323000       0.81286000 </v>
   <v>       0.49987000       0.07798000       0.06246000 </v>
   <v>       0.24987000       0.92202000       0.06246000 </v>
   <v>       0.25013000       0.07798000       0.31246000 </v>
   <v>       0.00013000       0.92202000       0.31246000 </v>
   <v>       0.99987000       0.07798000       0.06246000 </v>
   <v>       0.74987000       0.92202000       0.06246000 </v>
   <v>       0.75013000       0.07798000       0.31246000 </v>
   <v>       0.50013000       0.92202000       0.31246000 </v>
   <v>       0.49987000       0.07798000       0.56246000 </v>
   <v>       0.24987000       0.92202000       0.56246000 </v>
   <v>       0.25013000       0.07798000       0.81246000 </v>
   <v>       0.00013000       0.92202000       0.81246000 </v>
   <v>       0.99987000       0.07798000       0.56246000 </v>
   <v>       0.74987000       0.92202000       0.56246000 </v>
   <v>       0.75013000       0.07798000       0.81246000 </v>
   <v>       0.50013000       0.92202000       0.81246000 </v>
  </varray>
 </structure>
</modeling>
