<?xml version="1.0" encoding="ISO-8859-1"?>
<modeling>
 <generator>
  <i name="program" type="string">vasp </i>
  <i name="version" type="string">5.4.4.18Apr17-6-g9f103f2a35  </i>
  <i name="subversion" type="string">(build Jul 31 2017 11:33:29) complex            parallel </i>
  <i name="platform" type="string">LinuxIFC </i>
  <i name="date" type="string">2021 09 29 </i>
  <i name="time" type="string">15:13:22 </i>
 </generator>
 <incar>
  <i type="string" name="SYSTEM"> La2O2S</i>
  <i type="string" name="PREC">normal</i>
  <i type="int" name="NELMIN">     4</i>
  <i type="int" name="IBRION">     2</i>
  <i type="int" name="NFREE">    10</i>
  <i name="EDIFF">      0.00000100</i>
  <i name="EDIFFG">     -0.01000000</i>
  <i type="int" name="NSW">     1</i>
  <i type="int" name="ISIF">     2</i>
  <i name="ENCUT">    600.00000000</i>
  <i name="ENAUG">    900.00000000</i>
  <i type="int" name="ISMEAR">    -5</i>
  <i type="logical" name="LWAVE"> F  </i>
  <i type="logical" name="LCHARG"> F  </i>
  <v type="int" name="KPOINT_BSE">    -1     0     0     0</v>
 </incar>
 <structure name="primitive_cell" >
  <crystal>
   <varray name="basis" >
    <v>      11.17850000       0.00000000       0.00000000 </v>
    <v>       0.00000000       9.57460000       0.00000000 </v>
    <v>       0.00000000       0.00000000      11.18240000 </v>
   </varray>
   <i name="volume">   1196.84853820 </i>
   <varray name="rec_basis" >
    <v>       0.08945744       0.00000000       0.00000000 </v>
    <v>       0.00000000       0.10444301       0.00000000 </v>
    <v>       0.00000000       0.00000000       0.08942624 </v>
   </varray>
  </crystal>
  <varray name="positions" >
   <v>       0.37539000       0.00017000       0.43687000 </v>
   <v>      -0.49987000      -0.07798000       0.31246000 </v>
   <v>       0.25013000       0.07798000       0.31246000 </v>
   <v>       0.49987000       0.07798000      -0.43754000 </v>
   <v>       0.24987000      -0.07798000      -0.43754000 </v>
   <v>       0.37461000       0.00017000      -0.31313000 </v>
   <v>       0.49987000      -0.29519000       0.31282000 </v>
   <v>       0.24987000       0.29519000       0.31282000 </v>
   <v>      -0.49987000       0.29519000      -0.43719000 </v>
   <v>       0.25013000      -0.29519000      -0.43719000 </v>
   <v>       0.49995000       0.32677000       0.31286000 </v>
   <v>       0.24995000      -0.32677000       0.31286000 </v>
   <v>      -0.49995000      -0.32677000      -0.43714000 </v>
   <v>       0.25005000       0.32677000      -0.43714000 </v>
   <v>      -0.37539000      -0.00016000      -0.31313000 </v>
   <v>      -0.37539000      -0.00016000       0.18687000 </v>
   <v>       0.12461000      -0.00016000       0.18687000 </v>
   <v>       0.12461000      -0.00016000      -0.31313000 </v>
   <v>       0.49987000       0.07798000       0.06246000 </v>
   <v>      -0.24987000       0.07798000       0.31246000 </v>
   <v>      -0.25013000      -0.07798000      -0.43754000 </v>
   <v>       0.24987000      -0.07798000       0.06246000 </v>
   <v>       0.00013000      -0.07798000       0.31246000 </v>
   <v>      -0.49987000      -0.07798000      -0.18754000 </v>
   <v>      -0.00013000       0.07798000      -0.43754000 </v>
   <v>       0.25013000       0.07798000      -0.18754000 </v>
   <v>      -0.49987000       0.29519000       0.06281000 </v>
   <v>      -0.25013000       0.29519000       0.31282000 </v>
   <v>       0.25013000      -0.29519000       0.06281000 </v>
   <v>      -0.24987000      -0.29519000      -0.43719000 </v>
   <v>      -0.00013000      -0.29519000       0.31282000 </v>
   <v>       0.00013000       0.29519000      -0.43719000 </v>
   <v>       0.49987000      -0.29519000      -0.18718000 </v>
   <v>       0.24987000       0.29519000      -0.18718000 </v>
   <v>      -0.49995000      -0.32677000       0.06286000 </v>
   <v>       0.25005000       0.32677000       0.06286000 </v>
   <v>      -0.25005000      -0.32677000       0.31286000 </v>
   <v>      -0.24995000       0.32677000      -0.43714000 </v>
   <v>      -0.00005000       0.32677000       0.31286000 </v>
   <v>       0.00005000      -0.32677000      -0.43714000 </v>
   <v>       0.49995000       0.32677000      -0.18714000 </v>
   <v>       0.24995000      -0.32677000      -0.18714000 </v>
   <v>      -0.12461000       0.00017000       0.43687000 </v>
   <v>       0.37539000       0.00017000      -0.06313000 </v>
   <v>      -0.25013000      -0.07798000       0.06246000 </v>
   <v>      -0.00013000       0.07798000       0.06246000 </v>
   <v>      -0.24987000       0.07798000      -0.18754000 </v>
   <v>       0.00013000      -0.07798000      -0.18754000 </v>
   <v>      -0.12539000       0.00017000      -0.31313000 </v>
   <v>      -0.37461000      -0.00016000      -0.06313000 </v>
   <v>      -0.24987000      -0.29519000       0.06281000 </v>
   <v>       0.00013000       0.29519000       0.06281000 </v>
   <v>      -0.25013000       0.29519000      -0.18718000 </v>
   <v>      -0.00013000      -0.29519000      -0.18718000 </v>
   <v>      -0.24995000       0.32677000       0.06286000 </v>
   <v>       0.00005000      -0.32677000       0.06286000 </v>
   <v>      -0.25005000      -0.32677000      -0.18714000 </v>
   <v>      -0.00005000       0.32677000      -0.18714000 </v>
   <v>      -0.12461000       0.00017000      -0.06313000 </v>
  </varray>
 </structure>
 <varray name="primitive_index" >
  <v type="int" >        1 </v>
  <v type="int" >       51 </v>
  <v type="int" >       46 </v>
  <v type="int" >       52 </v>
  <v type="int" >       53 </v>
  <v type="int" >        2 </v>
  <v type="int" >       15 </v>
  <v type="int" >       14 </v>
  <v type="int" >       24 </v>
  <v type="int" >       21 </v>
  <v type="int" >       30 </v>
  <v type="int" >       31 </v>
  <v type="int" >       41 </v>
  <v type="int" >       36 </v>
  <v type="int" >        5 </v>
  <v type="int" >        9 </v>
  <v type="int" >        7 </v>
  <v type="int" >       11 </v>
  <v type="int" >       44 </v>
  <v type="int" >       50 </v>
  <v type="int" >       57 </v>
  <v type="int" >       45 </v>
  <v type="int" >       47 </v>
  <v type="int" >       59 </v>
  <v type="int" >       56 </v>
  <v type="int" >       54 </v>
  <v type="int" >       16 </v>
  <v type="int" >       18 </v>
  <v type="int" >       13 </v>
  <v type="int" >       25 </v>
  <v type="int" >       19 </v>
  <v type="int" >       20 </v>
  <v type="int" >       23 </v>
  <v type="int" >       22 </v>
  <v type="int" >       33 </v>
  <v type="int" >       28 </v>
  <v type="int" >       35 </v>
  <v type="int" >       40 </v>
  <v type="int" >       34 </v>
  <v type="int" >       37 </v>
  <v type="int" >       38 </v>
  <v type="int" >       39 </v>
  <v type="int" >        8 </v>
  <v type="int" >       10 </v>
  <v type="int" >       49 </v>
  <v type="int" >       48 </v>
  <v type="int" >       58 </v>
  <v type="int" >       55 </v>
  <v type="int" >        6 </v>
  <v type="int" >        3 </v>
  <v type="int" >       17 </v>
  <v type="int" >       12 </v>
  <v type="int" >       26 </v>
  <v type="int" >       27 </v>
  <v type="int" >       32 </v>
  <v type="int" >       29 </v>
  <v type="int" >       43 </v>
  <v type="int" >       42 </v>
  <v type="int" >        4 </v>
 </varray>
 <kpoints>
  <generation param="Gamma">
   <v type="int" name="divisions">       2        2        2 </v>
   <v name="usershift">      0.00000000       0.00000000       0.00000000 </v>
   <v name="genvec1">      0.50000000       0.00000000       0.00000000 </v>
   <v name="genvec2">      0.00000000       0.50000000       0.00000000 </v>
   <v name="genvec3">      0.00000000       0.00000000       0.50000000 </v>
   <v name="shift">      0.00000000       0.00000000       0.00000000 </v>
  </generation>
  <varray name="kpointlist" >
   <v>       0.00000000       0.00000000       0.00000000 </v>
   <v>       0.50000000       0.00000000       0.00000000 </v>
   <v>       0.00000000       0.50000000       0.00000000 </v>
   <v>       0.50000000       0.50000000       0.00000000 </v>
   <v>       0.00000000       0.00000000       0.50000000 </v>
   <v>       0.50000000       0.00000000       0.50000000 </v>
   <v>       0.00000000       0.50000000       0.50000000 </v>
   <v>       0.50000000       0.50000000       0.50000000 </v>
  </varray>
  <varray name="weights" >
   <v>       0.12500000 </v>
   <v>       0.12500000 </v>
   <v>       0.12500000 </v>
   <v>       0.12500000 </v>
   <v>       0.12500000 </v>
   <v>       0.12500000 </v>
   <v>       0.12500000 </v>
   <v>       0.12500000 </v>
  </varray>
  <varray name="tetrahedronlist"  type="int" >
   <v type="int" >        2        1        2        4        5 </v>
   <v type="int" >        2        1        3        4        5 </v>
   <v type="int" >        2        3        4        5        7 </v>
   <v type="int" >        2        2        4        5        6 </v>
   <v type="int" >        2        4        5        6        8 </v>
   <v type="int" >        2        4        5        7        8 </v>
   <v type="int" >        2        1        2        3        6 </v>
   <v type="int" >        2        2        3        4        6 </v>
   <v type="int" >        2        3        4        6        8 </v>
   <v type="int" >        2        1        3        5        6 </v>
   <v type="int" >        2        3        5        6        7 </v>
   <v type="int" >        2        3        6        7        8 </v>
   <v type="int" >        2        2        3        4        7 </v>
   <v type="int" >        2        1        2        3        7 </v>
   <v type="int" >        2        1        2        5        7 </v>
   <v type="int" >        2        2        4        7        8 </v>
   <v type="int" >        2        2        6        7        8 </v>
   <v type="int" >        2        2        5        6        7 </v>
   <v type="int" >        2        1        3        4        8 </v>
   <v type="int" >        2        1        2        4        8 </v>
   <v type="int" >        2        1        2        6        8 </v>
   <v type="int" >        2        1        3        7        8 </v>
   <v type="int" >        2        1        5        7        8 </v>
   <v type="int" >        2        1        5        6        8 </v>
  </varray>
  <i name="volumeweight">      0.02083333 </i>
 </kpoints>
 <parameters>
  <separator name="general" >
   <i type="string" name="SYSTEM">La2O2S</i>
   <i type="logical" name="LCOMPAT"> F  </i>
  </separator>
  <separator name="electronic" >
   <i type="string" name="PREC">normal</i>
   <i name="ENMAX">    600.00000000</i>
   <i name="ENAUG">    900.00000000</i>
   <i name="EDIFF">      0.00000100</i>
   <i type="int" name="IALGO">    38</i>
   <i type="int" name="IWAVPR">    11</i>
   <i type="int" name="NBANDS">   280</i>
   <i name="NELECT">    460.00000000</i>
   <i type="int" name="TURBO">     0</i>
   <i type="int" name="IRESTART">     0</i>
   <i type="int" name="NREBOOT">     0</i>
   <i type="int" name="NMIN">     0</i>
   <i name="EREF">      0.00000000</i>
   <separator name="electronic smearing" >
    <i type="int" name="ISMEAR">    -5</i>
    <i name="SIGMA">      0.20000000</i>
    <i name="KSPACING">      0.50000000</i>
    <i type="logical" name="KGAMMA"> T  </i>
   </separator>
   <separator name="electronic projectors" >
    <i type="logical" name="LREAL"> F  </i>
    <v name="ROPT">      0.00000000      0.00000000      0.00000000      0.00000000      0.00000000</v>
    <i type="int" name="LMAXPAW">  -100</i>
    <i type="int" name="LMAXMIX">     2</i>
    <i type="logical" name="NLSPLINE"> F  </i>
   </separator>
   <separator name="electronic startup" >
    <i type="int" name="ISTART">     0</i>
    <i type="int" name="ICHARG">     2</i>
    <i type="int" name="INIWAV">     1</i>
   </separator>
   <separator name="electronic spin" >
    <i type="int" name="ISPIN">     1</i>
    <i type="logical" name="LNONCOLLINEAR"> F  </i>
    <v name="MAGMOM">      1.00000000      1.00000000      1.00000000      1.00000000      1.00000000      1.00000000      1.00000000      1.00000000      1.00000000      1.00000000      1.00000000      1.00000000      1.00000000      1.00000000      1.00000000      1.00000000      1.00000000      1.00000000      1.00000000      1.00000000
      1.00000000      1.00000000      1.00000000      1.00000000      1.00000000      1.00000000      1.00000000      1.00000000      1.00000000      1.00000000      1.00000000      1.00000000      1.00000000      1.00000000      1.00000000      1.00000000      1.00000000      1.00000000      1.00000000      1.00000000
      1.00000000      1.00000000      1.00000000      1.00000000      1.00000000      1.00000000      1.00000000      1.00000000      1.00000000      1.00000000      1.00000000      1.00000000      1.00000000      1.00000000      1.00000000      1.00000000      1.00000000      1.00000000      1.00000000</v>
    <i name="NUPDOWN">     -1.00000000</i>
    <i type="logical" name="LSORBIT"> F  </i>
    <v name="SAXIS">      0.00000000      0.00000000      1.00000000</v>
    <i type="logical" name="LSPIRAL"> F  </i>
    <v name="QSPIRAL">      0.00000000      0.00000000      0.00000000</v>
    <i type="logical" name="LZEROZ"> F  </i>
   </separator>
   <separator name="electronic exchange-correlation" >
    <i type="logical" name="LASPH"> F  </i>
    <i type="logical" name="LMETAGGA"> F  </i>
   </separator>
   <separator name="electronic convergence" >
    <i type="int" name="NELM">    60</i>
    <i type="int" name="NELMDL">    -5</i>
    <i type="int" name="NELMIN">     4</i>
    <i name="ENINI">    600.00000000</i>
    <separator name="electronic convergence detail" >
     <i type="logical" name="LDIAG"> T  </i>
     <i type="logical" name="LSUBROT"> F  </i>
     <i name="WEIMIN">      0.00100000</i>
     <i name="EBREAK">      0.00000000</i>
     <i name="DEPER">      0.30000000</i>
     <i type="int" name="NRMM">     4</i>
     <i name="TIME">      0.40000000</i>
    </separator>
   </separator>
   <separator name="electronic mixer" >
    <i name="AMIX">      0.40000000</i>
    <i name="BMIX">      1.00000000</i>
    <i name="AMIN">      0.10000000</i>
    <i name="AMIX_MAG">      1.60000000</i>
    <i name="BMIX_MAG">      1.00000000</i>
    <separator name="electronic mixer details" >
     <i type="int" name="IMIX">     4</i>
     <i type="logical" name="MIXFIRST"> F  </i>
     <i type="int" name="MAXMIX">   -45</i>
     <i name="WC">    100.00000000</i>
     <i type="int" name="INIMIX">     1</i>
     <i type="int" name="MIXPRE">     1</i>
     <i type="int" name="MREMOVE">     5</i>
    </separator>
   </separator>
   <separator name="electronic dipolcorrection" >
    <i type="logical" name="LDIPOL"> F  </i>
    <i type="logical" name="LMONO"> F  </i>
    <i type="int" name="IDIPOL">     0</i>
    <i name="EPSILON">      1.00000000</i>
    <v name="DIPOL">   -100.00000000   -100.00000000   -100.00000000</v>
    <i name="EFIELD">      0.00000000</i>
   </separator>
  </separator>
  <separator name="grids" >
   <i type="int" name="NGX">    70</i>
   <i type="int" name="NGY">    60</i>
   <i type="int" name="NGZ">    70</i>
   <i type="int" name="NGXF">   140</i>
   <i type="int" name="NGYF">   120</i>
   <i type="int" name="NGZF">   140</i>
   <i type="logical" name="ADDGRID"> F  </i>
  </separator>
  <separator name="ionic" >
   <i type="int" name="NSW">     1</i>
   <i type="int" name="IBRION">     2</i>
   <i type="int" name="MDALGO">     0</i>
   <i type="int" name="ISIF">     2</i>
   <i name="PSTRESS">      0.00000000</i>
   <i name="EDIFFG">     -0.01000000</i>
   <i type="int" name="NFREE">    10</i>
   <i name="POTIM">      0.50000000</i>
   <i name="SMASS">     -3.00000000</i>
   <i name="SCALEE">      1.00000000</i>
  </separator>
  <separator name="ionic md" >
   <i name="TEBEG">      0.00010000</i>
   <i name="TEEND">      0.00010000</i>
   <i type="int" name="NBLOCK">     1</i>
   <i type="int" name="KBLOCK">     1</i>
   <i type="int" name="NPACO">   256</i>
   <i name="APACO">     16.00000000</i>
  </separator>
  <separator name="symmetry" >
   <i type="int" name="ISYM">     2</i>
   <i name="SYMPREC">      0.00001000</i>
  </separator>
  <separator name="dos" >
   <i type="int" name="LORBIT">     0</i>
   <v name="RWIGS">     -1.00000000     -1.00000000     -1.00000000     -1.00000000     -1.00000000</v>
   <i type="int" name="NEDOS">   301</i>
   <i name="EMIN">     10.00000000</i>
   <i name="EMAX">    -10.00000000</i>
   <i name="EFERMI">      0.00000000</i>
  </separator>
  <separator name="writing" >
   <i type="int" name="NWRITE">     2</i>
   <i type="logical" name="LWAVE"> F  </i>
   <i type="logical" name="LDOWNSAMPLE"> F  </i>
   <i type="logical" name="LCHARG"> F  </i>
   <i type="logical" name="LPARD"> F  </i>
   <i type="logical" name="LVTOT"> F  </i>
   <i type="logical" name="LVHAR"> F  </i>
   <i type="logical" name="LELF"> F  </i>
   <i type="logical" name="LOPTICS"> F  </i>
   <v name="STM">      0.00000000      0.00000000      0.00000000      0.00000000      0.00000000      0.00000000      0.00000000</v>
  </separator>
  <separator name="performance" >
   <i type="int" name="NPAR">    28</i>
   <i type="int" name="NSIM">     4</i>
   <i type="int" name="NBLK">    -1</i>
   <i type="logical" name="LPLANE"> T  </i>
   <i type="logical" name="LSCALAPACK"> T  </i>
   <i type="logical" name="LSCAAWARE"> F  </i>
   <i type="logical" name="LSCALU"> F  </i>
   <i type="logical" name="LASYNC"> F  </i>
   <i type="logical" name="LORBITALREAL"> F  </i>
  </separator>
  <separator name="miscellaneous" >
   <i type="int" name="IDIOT">     3</i>
   <i type="int" name="ISPECIAL">     0</i>
   <i type="logical" name="LMUSIC"> F  </i>
   <v name="POMASS">      7.01000000     24.30500000    208.98000000     32.06600000     16.00000000</v>
   <v name="DARWINR">      0.00000000      0.00000000      0.00000000      0.00000000      0.00000000</v>
   <v name="DARWINV">      1.00000000      1.00000000      1.00000000      1.00000000      1.00000000</v>
   <i type="logical" name="LCORR"> T  </i>
  </separator>
  <i type="logical" name="GGA_COMPAT"> T  </i>
  <i type="logical" name="LBERRY"> F  </i>
  <i type="int" name="ICORELEVEL">     0</i>
  <i type="logical" name="LDAU"> F  </i>
  <i type="int" name="I_CONSTRAINED_M">     0</i>
  <separator name="electronic exchange-correlation" >
   <i type="string" name="GGA">--</i>
   <i type="int" name="VOSKOWN">     0</i>
   <i type="logical" name="LHFCALC"> F  </i>
   <i type="string" name="PRECFOCK"></i>
   <i type="logical" name="LSYMGRAD"> F  </i>
   <i type="logical" name="LHFONE"> F  </i>
   <i type="logical" name="LRHFCALC"> F  </i>
   <i type="logical" name="LTHOMAS"> F  </i>
   <i type="logical" name="LMODELHF"> F  </i>
   <i name="ENCUT4O">     -1.00000000</i>
   <i type="int" name="EXXOEP">     0</i>
   <i type="int" name="FOURORBIT">     0</i>
   <i name="AEXX">      0.00000000</i>
   <i name="HFALPHA">      0.00000000</i>
   <i name="MCALPHA">      0.00000000</i>
   <i name="ALDAX">      1.00000000</i>
   <i name="AGGAX">      1.00000000</i>
   <i name="ALDAC">      1.00000000</i>
   <i name="AGGAC">      1.00000000</i>
   <i type="int" name="NKREDX">     1</i>
   <i type="int" name="NKREDY">     1</i>
   <i type="int" name="NKREDZ">     1</i>
   <i type="logical" name="SHIFTRED"> F  </i>
   <i type="logical" name="ODDONLY"> F  </i>
   <i type="logical" name="EVENONLY"> F  </i>
   <i type="int" name="LMAXFOCK">     0</i>
   <i type="int" name="NMAXFOCKAE">     0</i>
   <i type="logical" name="LFOCKAEDFT"> F  </i>
   <i name="HFSCREEN">      0.00000000</i>
   <i name="HFSCREENC">      0.00000000</i>
   <i type="int" name="NBANDSGWLOW">     0</i>
  </separator>
  <separator name="vdW DFT" >
   <i type="logical" name="LUSE_VDW"> F  </i>
   <i name="Zab_VDW">     -0.84910000</i>
   <i name="PARAM1">      0.12340000</i>
   <i name="PARAM2">      1.00000000</i>
   <i name="PARAM3">      0.00000000</i>
  </separator>
  <separator name="model GW" >
   <i type="int" name="MODEL_GW">     0</i>
   <i name="MODEL_EPS0">     12.17134107</i>
   <i name="MODEL_ALPHA">      1.00000000</i>
  </separator>
  <separator name="linear response parameters" >
   <i type="logical" name="LEPSILON"> F  </i>
   <i type="logical" name="LRPA"> F  </i>
   <i type="logical" name="LNABLA"> F  </i>
   <i type="logical" name="LVEL"> F  </i>
   <i type="int" name="KINTER">     0</i>
   <i name="CSHIFT">      0.10000000</i>
   <i name="OMEGAMAX">     -1.00000000</i>
   <i name="DEG_THRESHOLD">      0.00200000</i>
   <i name="RTIME">     -0.10000000</i>
   <i name="WPLASMAI">      0.00000000</i>
   <v name="DFIELD">      0.00000000      0.00000000      0.00000000</v>
   <v name="WPLASMA">      0.00000000      0.00000000      0.00000000      0.00000000      0.00000000      0.00000000      0.00000000      0.00000000      0.00000000</v>
  </separator>
  <separator name="orbital magnetization" >
   <i type="logical" name="NUCIND"> F  </i>
   <v name="MAGPOS">      0.00000000      0.00000000      0.00000000</v>
   <i type="logical" name="LNICSALL"> T  </i>
   <i type="logical" name="ORBITALMAG"> F  </i>
   <i type="logical" name="LMAGBLOCH"> F  </i>
   <i type="logical" name="LCHIMAG"> F  </i>
   <i type="logical" name="LGAUGE"> T  </i>
   <i type="int" name="MAGATOM">     0</i>
   <v name="MAGDIPOL">      0.00000000      0.00000000      0.00000000</v>
   <v name="AVECCONST">      0.00000000      0.00000000      0.00000000</v>
  </separator>
  <separator name="response functions" >
   <i type="logical" name="LADDER"> F  </i>
   <i type="logical" name="LRPAFORCE"> F  </i>
   <i type="logical" name="LFXC"> F  </i>
   <i type="logical" name="LHARTREE"> T  </i>
   <i type="int" name="IBSE">     0</i>
   <v type="int" name="KPOINT">    -1     0     0     0</v>
   <i type="logical" name="LTCTE"> F  </i>
   <i type="logical" name="LTETE"> F  </i>
   <i type="logical" name="LTRIPLET"> F  </i>
   <i type="logical" name="LFXCEPS"> F  </i>
   <i type="logical" name="LFXHEG"> F  </i>
   <i type="int" name="NATURALO">     2</i>
   <i type="logical" name="L2ORDER"> F  </i>
   <i type="logical" name="LMP2LT"> F  </i>
   <i type="logical" name="LUSEW"> F  </i>
   <i name="ENCUTGW">     -2.00000000</i>
   <i name="ENCUTGWSOFT">     -2.00000000</i>
   <i name="ENCUTLF">     -1.00000000</i>
   <i type="int" name="LMAXMP2">    -1</i>
   <i name="SCISSOR">      0.00000000</i>
   <i type="int" name="NOMEGA">     0</i>
   <i type="int" name="NOMEGAR">     0</i>
   <i type="int" name="NBANDSGW">    -1</i>
   <i type="int" name="NBANDSO">    -1</i>
   <i type="int" name="NBANDSV">    -1</i>
   <i type="int" name="NELM">     1</i>
   <i type="int" name="NELMHF">     1</i>
   <i type="int" name="DIM">     3</i>
   <i type="int" name="ANTIRES">     0</i>
   <i name="OMEGAMAX">    -30.00000000</i>
   <i name="OMEGAMIN">    -30.00000000</i>
   <i name="OMEGATL">   -200.00000000</i>
   <i type="int" name="OMEGAGRID">   140</i>
   <i name="CSHIFT">     -0.10000000</i>
   <i type="logical" name="SELFENERGY"> F  </i>
   <i type="logical" name="LSPECTRAL"> F  </i>
   <i type="logical" name="LSPECTRALGW"> F  </i>
   <i type="logical" name="LSINGLES"> F  </i>
   <i type="logical" name="LFERMIGW"> F  </i>
   <i type="logical" name="ODDONLYGW"> F  </i>
   <i type="logical" name="EVENONLYGW"> F  </i>
   <i type="int" name="NKREDLFX">     1</i>
   <i type="int" name="NKREDLFY">     1</i>
   <i type="int" name="NKREDLFZ">     1</i>
   <i type="int" name="MAXMEM">  2800</i>
   <i type="int" name="TELESCOPE">     0</i>
   <i type="int" name="TAUPAR">     1</i>
   <i type="int" name="OMEGAPAR">    -1</i>
   <i name="LAMBDA">      1.00000000</i>
  </separator>
  <separator name="External order field" >
   <i name="OFIELD_KAPPA">      0.00000000</i>
   <v name="OFIELD_K">      0.00000000      0.00000000      0.00000000</v>
   <i name="OFIELD_Q6_NEAR">      0.00000000</i>
   <i name="OFIELD_Q6_FAR">      0.00000000</i>
   <i name="OFIELD_A">      0.00000000</i>
  </separator>
 </parameters>
 <atominfo>
  <atoms>      59 </atoms>
  <types>       5 </types>
  <array name="atoms" >
   <dimension dim="1">ion</dimension>
   <field type="string">element</field>
   <field type="int">atomtype</field>
   <set>
    <rc><c>Li</c><c>   1</c></rc>
    <rc><c>Li</c><c>   1</c></rc>
    <rc><c>Li</c><c>   1</c></rc>
    <rc><c>Li</c><c>   1</c></rc>
    <rc><c>Li</c><c>   1</c></rc>
    <rc><c>Li</c><c>   1</c></rc>
    <rc><c>Mg</c><c>   2</c></rc>
    <rc><c>Mg</c><c>   2</c></rc>
    <rc><c>Mg</c><c>   2</c></rc>
    <rc><c>Mg</c><c>   2</c></rc>
    <rc><c>Mg</c><c>   2</c></rc>
    <rc><c>Bi</c><c>   3</c></rc>
    <rc><c>Bi</c><c>   3</c></rc>
    <rc><c>Bi</c><c>   3</c></rc>
    <rc><c>Bi</c><c>   3</c></rc>
    <rc><c>Bi</c><c>   3</c></rc>
    <rc><c>Bi</c><c>   3</c></rc>
    <rc><c>Bi</c><c>   3</c></rc>
    <rc><c>Bi</c><c>   3</c></rc>
    <rc><c>Bi</c><c>   3</c></rc>
    <rc><c>Bi</c><c>   3</c></rc>
    <rc><c>Bi</c><c>   3</c></rc>
    <rc><c>Bi</c><c>   3</c></rc>
    <rc><c>Bi</c><c>   3</c></rc>
    <rc><c>Bi</c><c>   3</c></rc>
    <rc><c>Bi</c><c>   3</c></rc>
    <rc><c>Bi</c><c>   3</c></rc>
    <rc><c>S </c><c>   4</c></rc>
    <rc><c>S </c><c>   4</c></rc>
    <rc><c>S </c><c>   4</c></rc>
    <rc><c>S </c><c>   4</c></rc>
    <rc><c>S </c><c>   4</c></rc>
    <rc><c>S </c><c>   4</c></rc>
    <rc><c>S </c><c>   4</c></rc>
    <rc><c>S </c><c>   4</c></rc>
    <rc><c>S </c><c>   4</c></rc>
    <rc><c>S </c><c>   4</c></rc>
    <rc><c>S </c><c>   4</c></rc>
    <rc><c>S </c><c>   4</c></rc>
    <rc><c>S </c><c>   4</c></rc>
    <rc><c>S </c><c>   4</c></rc>
    <rc><c>S </c><c>   4</c></rc>
    <rc><c>S </c><c>   4</c></rc>
    <rc><c>O </c><c>   5</c></rc>
    <rc><c>O </c><c>   5</c></rc>
    <rc><c>O </c><c>   5</c></rc>
    <rc><c>O </c><c>   5</c></rc>
    <rc><c>O </c><c>   5</c></rc>
    <rc><c>O </c><c>   5</c></rc>
    <rc><c>O </c><c>   5</c></rc>
    <rc><c>O </c><c>   5</c></rc>
    <rc><c>O </c><c>   5</c></rc>
    <rc><c>O </c><c>   5</c></rc>
    <rc><c>O </c><c>   5</c></rc>
    <rc><c>O </c><c>   5</c></rc>
    <rc><c>O </c><c>   5</c></rc>
    <rc><c>O </c><c>   5</c></rc>
    <rc><c>O </c><c>   5</c></rc>
    <rc><c>O </c><c>   5</c></rc>
   </set>
  </array>
  <array name="atomtypes" >
   <dimension dim="1">type</dimension>
   <field type="int">atomspertype</field>
   <field type="string">element</field>
   <field>mass</field>
   <field>valence</field>
   <field type="string">pseudopotential</field>
   <set>
    <rc><c>   6</c><c>Li</c><c>      7.01000000</c><c>      3.00000000</c><c>  PAW_PBE Li_sv 10Sep2004               </c></rc>
    <rc><c>   5</c><c>Mg</c><c>     24.30500000</c><c>      2.00000000</c><c>  PAW_PBE Mg 13Apr2007                  </c></rc>
    <rc><c>  16</c><c>Bi</c><c>    208.98000000</c><c>     15.00000000</c><c>  PAW_PBE Bi_d 06Sep2000                </c></rc>
    <rc><c>  16</c><c>S </c><c>     32.06600000</c><c>      6.00000000</c><c>  PAW_PBE S 06Sep2000                   </c></rc>
    <rc><c>  16</c><c>O </c><c>     16.00000000</c><c>      6.00000000</c><c>  PAW_PBE O 08Apr2002                   </c></rc>
   </set>
  </array>
 </atominfo>
 <structure name="initialpos" >
  <crystal>
   <varray name="basis" >
    <v>      11.17850000       0.00000000       0.00000000 </v>
    <v>       0.00000000       9.57460000       0.00000000 </v>
    <v>       0.00000000       0.00000000      11.18240000 </v>
   </varray>
   <i name="volume">   1196.84853820 </i>
   <varray name="rec_basis" >
    <v>       0.08945744       0.00000000       0.00000000 </v>
    <v>       0.00000000       0.10444301       0.00000000 </v>
    <v>       0.00000000       0.00000000       0.08942624 </v>
   </varray>
  </crystal>
  <varray name="positions" >
   <v>       0.37539000       0.00017000       0.43687000 </v>
   <v>       0.37461000       0.00017000       0.68687000 </v>
   <v>       0.62539000       0.99984000       0.93687000 </v>
   <v>       0.87539000       0.00017000       0.93687000 </v>
   <v>       0.62461000       0.99984000       0.68687000 </v>
   <v>       0.87461000       0.00017000       0.68687000 </v>
   <v>       0.12461000       0.99984000       0.18687000 </v>
   <v>       0.87539000       0.00017000       0.43687000 </v>
   <v>       0.62461000       0.99984000       0.18687000 </v>
   <v>       0.37539000       0.00017000       0.93687000 </v>
   <v>       0.12461000       0.99984000       0.68687000 </v>
   <v>       0.00013000       0.29519000       0.06281000 </v>
   <v>       0.25013000       0.70481000       0.06281000 </v>
   <v>       0.24987000       0.29519000       0.31282000 </v>
   <v>       0.49987000       0.70481000       0.31282000 </v>
   <v>       0.50013000       0.29519000       0.06281000 </v>
   <v>       0.75013000       0.70481000       0.06281000 </v>
   <v>       0.74987000       0.29519000       0.31282000 </v>
   <v>       0.99987000       0.70481000       0.31282000 </v>
   <v>       0.00013000       0.29519000       0.56281000 </v>
   <v>       0.25013000       0.70481000       0.56281000 </v>
   <v>       0.24987000       0.29519000       0.81282000 </v>
   <v>       0.49987000       0.70481000       0.81282000 </v>
   <v>       0.50013000       0.29519000       0.56281000 </v>
   <v>       0.75013000       0.70481000       0.56281000 </v>
   <v>       0.74987000       0.29519000       0.81282000 </v>
   <v>       0.99987000       0.70481000       0.81282000 </v>
   <v>       0.25005000       0.32677000       0.06286000 </v>
   <v>       0.00005000       0.67323000       0.06286000 </v>
   <v>       0.49995000       0.32677000       0.31286000 </v>
   <v>       0.24995000       0.67323000       0.31286000 </v>
   <v>       0.75005000       0.32677000       0.06286000 </v>
   <v>       0.50005000       0.67323000       0.06286000 </v>
   <v>       0.99995000       0.32677000       0.31286000 </v>
   <v>       0.74995000       0.67323000       0.31286000 </v>
   <v>       0.25005000       0.32677000       0.56286000 </v>
   <v>       0.00005000       0.67323000       0.56286000 </v>
   <v>       0.49995000       0.32677000       0.81286000 </v>
   <v>       0.24995000       0.67323000       0.81286000 </v>
   <v>       0.75005000       0.32677000       0.56286000 </v>
   <v>       0.50005000       0.67323000       0.56286000 </v>
   <v>       0.99995000       0.32677000       0.81286000 </v>
   <v>       0.74995000       0.67323000       0.81286000 </v>
   <v>       0.49987000       0.07798000       0.06246000 </v>
   <v>       0.24987000       0.92202000       0.06246000 </v>
   <v>       0.25013000       0.07798000       0.31246000 </v>
   <v>       0.00013000       0.92202000       0.31246000 </v>
   <v>       0.99987000       0.07798000       0.06246000 </v>
   <v>       0.74987000       0.92202000       0.06246000 </v>
   <v>       0.75013000       0.07798000       0.31246000 </v>
   <v>       0.50013000       0.92202000       0.31246000 </v>
   <v>       0.49987000       0.07798000       0.56246000 </v>
   <v>       0.24987000       0.92202000       0.56246000 </v>
   <v>       0.25013000       0.07798000       0.81246000 </v>
   <v>       0.00013000       0.92202000       0.81246000 </v>
   <v>       0.99987000       0.07798000       0.56246000 </v>
   <v>       0.74987000       0.92202000       0.56246000 </v>
   <v>       0.75013000       0.07798000       0.81246000 </v>
   <v>       0.50013000       0.92202000       0.81246000 </v>
  </varray>
 </structure>
 <calculation>
  <scstep>
   <time name="dav">   60.32   60.65</time>
   <time name="total">   60.41   60.74</time>
   <energy>
    <i name="alphaZ">   1060.66890660 </i>
    <i name="ewald"> -30401.01026451 </i>
    <i name="hartreedc"> -12717.92672524 </i>
    <i name="XCdc">   1247.15171687 </i>
    <i name="pawpsdc">  36635.26894311 </i>
    <i name="pawaedc"> -35972.74895369 </i>
    <i name="eentropy">      0.00000000 </i>
    <i name="bandstr">   1867.36242974 </i>
    <i name="atom">  44026.03258983 </i>
    <i name="e_fr_energy">   5744.79864271 </i>
    <i name="e_wo_entrp">   5744.79864271 </i>
    <i name="e_0_energy">   5744.79864271 </i>
   </energy>
  </scstep>
  <scstep>
   <time name="dav">   60.83   61.37</time>
   <time name="total">   60.84   61.38</time>
   <energy>
    <i name="e_fr_energy">    760.62269719 </i>
    <i name="e_wo_entrp">    760.62269719 </i>
    <i name="e_0_energy">    760.62269719 </i>
   </energy>
  </scstep>
  <scstep>
   <time name="dav">   69.99   70.65</time>
   <time name="total">   70.00   70.65</time>
   <energy>
    <i name="e_fr_energy">   -244.57764592 </i>
    <i name="e_wo_entrp">   -244.57764592 </i>
    <i name="e_0_energy">   -244.57764592 </i>
   </energy>
  </scstep>
  <scstep>
   <time name="dav">   72.27   72.74</time>
   <time name="total">   72.27   72.74</time>
   <energy>
    <i name="e_fr_energy">   -336.57334807 </i>
    <i name="e_wo_entrp">   -336.57334807 </i>
    <i name="e_0_energy">   -336.57334807 </i>
   </energy>
  </scstep>
  <scstep>
   <time name="dav">   94.43   95.79</time>
   <time name="total">   95.16   96.52</time>
   <energy>
    <i name="e_fr_energy">   -344.13426963 </i>
    <i name="e_wo_entrp">   -344.13426963 </i>
    <i name="e_0_energy">   -344.13426963 </i>
   </energy>
  </scstep>
  <scstep>
   <time name="dav">   86.03   86.83</time>
   <time name="total">   86.82   87.62</time>
   <energy>
    <i name="e_fr_energy">   -288.48496719 </i>
    <i name="e_wo_entrp">   -288.48496719 </i>
    <i name="e_0_energy">   -288.48496719 </i>
   </energy>
  </scstep>
  <scstep>
   <time name="dav">   65.61   66.10</time>
   <time name="total">   66.40   66.88</time>
   <energy>
    <i name="e_fr_energy">   -290.90146875 </i>
    <i name="e_wo_entrp">   -290.90146875 </i>
    <i name="e_0_energy">   -290.90146875 </i>
   </energy>
  </scstep>
  <scstep>
   <time name="dav">   77.51   78.18</time>
   <time name="total">   78.29   78.97</time>
   <energy>
    <i name="e_fr_energy">   -289.91151143 </i>
    <i name="e_wo_entrp">   -289.91151143 </i>
    <i name="e_0_energy">   -289.91151143 </i>
   </energy>
  </scstep>
  <scstep>
   <time name="dav">   75.65   76.01</time>
   <time name="total">   76.44   76.80</time>
   <energy>
    <i name="e_fr_energy">   -289.41213597 </i>
    <i name="e_wo_entrp">   -289.41213597 </i>
    <i name="e_0_energy">   -289.41213597 </i>
   </energy>
  </scstep>
  <scstep>
   <time name="dav">   75.67   76.05</time>
   <time name="total">   76.52   76.92</time>
   <energy>
    <i name="e_fr_energy">   -289.43736975 </i>
    <i name="e_wo_entrp">   -289.43736975 </i>
    <i name="e_0_energy">   -289.43736975 </i>
   </energy>
  </scstep>
  <scstep>
   <time name="dav">   77.89   78.52</time>
   <time name="total">   78.70   79.33</time>
   <energy>
    <i name="e_fr_energy">   -289.44169969 </i>
    <i name="e_wo_entrp">   -289.44169969 </i>
    <i name="e_0_energy">   -289.44169969 </i>
   </energy>
  </scstep>
  <scstep>
   <time name="dav">   78.49   79.05</time>
   <time name="total">   79.29   79.85</time>
   <energy>
    <i name="e_fr_energy">   -289.44491300 </i>
    <i name="e_wo_entrp">   -289.44491300 </i>
    <i name="e_0_energy">   -289.44491300 </i>
   </energy>
  </scstep>
  <scstep>
   <time name="dav">   75.71   76.24</time>
   <time name="total">   76.50   77.04</time>
   <energy>
    <i name="e_fr_energy">   -289.44591423 </i>
    <i name="e_wo_entrp">   -289.44591423 </i>
    <i name="e_0_energy">   -289.44591423 </i>
   </energy>
  </scstep>
  <scstep>
   <time name="dav">   73.56   74.23</time>
   <time name="total">   74.34   75.02</time>
   <energy>
    <i name="e_fr_energy">   -289.44615573 </i>
    <i name="e_wo_entrp">   -289.44615573 </i>
    <i name="e_0_energy">   -289.44615573 </i>
   </energy>
  </scstep>
  <scstep>
   <time name="dav">   83.06   84.00</time>
   <time name="total">   83.85   84.79</time>
   <energy>
    <i name="e_fr_energy">   -289.44618324 </i>
    <i name="e_wo_entrp">   -289.44618324 </i>
    <i name="e_0_energy">   -289.44618324 </i>
   </energy>
  </scstep>
  <scstep>
   <time name="dav">   63.22   63.55</time>
   <time name="total">   63.94   64.37</time>
   <energy>
    <i name="e_fr_energy">   -289.44620400 </i>
    <i name="e_wo_entrp">   -289.44620400 </i>
    <i name="e_0_energy">   -289.44620400 </i>
   </energy>
  </scstep>
  <scstep>
   <time name="dav">   67.95   68.70</time>
   <time name="total">   68.74   69.49</time>
   <energy>
    <i name="e_fr_energy">   -289.44620761 </i>
    <i name="e_wo_entrp">   -289.44620761 </i>
    <i name="e_0_energy">   -289.44620761 </i>
   </energy>
  </scstep>
  <scstep>
   <time name="dav">   58.66   59.56</time>
   <time name="total">   58.74   59.64</time>
   <energy>
    <i name="alphaZ">   1060.66890660 </i>
    <i name="ewald"> -30401.01026451 </i>
    <i name="hartreedc"> -12959.00396325 </i>
    <i name="XCdc">   1272.01110973 </i>
    <i name="pawpsdc">  43670.47990904 </i>
    <i name="pawaedc"> -42981.38099865 </i>
    <i name="eentropy">      0.00000000 </i>
    <i name="bandstr">  -3977.24349737 </i>
    <i name="atom">  44026.03258983 </i>
    <i name="e_fr_energy">   -289.44620858 </i>
    <i name="e_wo_entrp">   -289.44620858 </i>
    <i name="e_0_energy">   -289.44620858 </i>
   </energy>
  </scstep>
  <structure>
   <crystal>
    <varray name="basis" >
     <v>      11.17850000       0.00000000       0.00000000 </v>
     <v>       0.00000000       9.57460000       0.00000000 </v>
     <v>       0.00000000       0.00000000      11.18240000 </v>
    </varray>
    <i name="volume">   1196.84853820 </i>
    <varray name="rec_basis" >
     <v>       0.08945744       0.00000000       0.00000000 </v>
     <v>       0.00000000       0.10444301       0.00000000 </v>
     <v>       0.00000000       0.00000000       0.08942624 </v>
    </varray>
   </crystal>
   <varray name="positions" >
    <v>       0.37539000       0.00017000       0.43687000 </v>
    <v>       0.37461000       0.00017000       0.68687000 </v>
    <v>       0.62539000       0.99984000       0.93687000 </v>
    <v>       0.87539000       0.00017000       0.93687000 </v>
    <v>       0.62461000       0.99984000       0.68687000 </v>
    <v>       0.87461000       0.00017000       0.68687000 </v>
    <v>       0.12461000       0.99984000       0.18687000 </v>
    <v>       0.87539000       0.00017000       0.43687000 </v>
    <v>       0.62461000       0.99984000       0.18687000 </v>
    <v>       0.37539000       0.00017000       0.93687000 </v>
    <v>       0.12461000       0.99984000       0.68687000 </v>
    <v>       0.00013000       0.29519000       0.06281000 </v>
    <v>       0.25013000       0.70481000       0.06281000 </v>
    <v>       0.24987000       0.29519000       0.31282000 </v>
    <v>       0.49987000       0.70481000       0.31282000 </v>
    <v>       0.50013000       0.29519000       0.06281000 </v>
    <v>       0.75013000       0.70481000       0.06281000 </v>
    <v>       0.74987000       0.29519000       0.31282000 </v>
    <v>       0.99987000       0.70481000       0.31282000 </v>
    <v>       0.00013000       0.29519000       0.56281000 </v>
    <v>       0.25013000       0.70481000       0.56281000 </v>
    <v>       0.24987000       0.29519000       0.81282000 </v>
    <v>       0.49987000       0.70481000       0.81282000 </v>
    <v>       0.50013000       0.29519000       0.56281000 </v>
    <v>       0.75013000       0.70481000       0.56281000 </v>
    <v>       0.74987000       0.29519000       0.81282000 </v>
    <v>       0.99987000       0.70481000       0.81282000 </v>
    <v>       0.25005000       0.32677000       0.06286000 </v>
    <v>       0.00005000       0.67323000       0.06286000 </v>
    <v>       0.49995000       0.32677000       0.31286000 </v>
    <v>       0.24995000       0.67323000       0.31286000 </v>
    <v>       0.75005000       0.32677000       0.06286000 </v>
    <v>       0.50005000       0.67323000       0.06286000 </v>
    <v>       0.99995000       0.32677000       0.31286000 </v>
    <v>       0.74995000       0.67323000       0.31286000 </v>
    <v>       0.25005000       0.32677000       0.56286000 </v>
    <v>       0.00005000       0.67323000       0.56286000 </v>
    <v>       0.49995000       0.32677000       0.81286000 </v>
    <v>       0.24995000       0.67323000       0.81286000 </v>
    <v>       0.75005000       0.32677000       0.56286000 </v>
    <v>       0.50005000       0.67323000       0.56286000 </v>
    <v>       0.99995000       0.32677000       0.81286000 </v>
    <v>       0.74995000       0.67323000       0.81286000 </v>
    <v>       0.49987000       0.07798000       0.06246000 </v>
    <v>       0.24987000       0.92202000       0.06246000 </v>
    <v>       0.25013000       0.07798000       0.31246000 </v>
    <v>       0.00013000       0.92202000       0.31246000 </v>
    <v>       0.99987000       0.07798000       0.06246000 </v>
    <v>       0.74987000       0.92202000       0.06246000 </v>
    <v>       0.75013000       0.07798000       0.31246000 </v>
    <v>       0.50013000       0.92202000       0.31246000 </v>
    <v>       0.49987000       0.07798000       0.56246000 </v>
    <v>       0.24987000       0.92202000       0.56246000 </v>
    <v>       0.25013000       0.07798000       0.81246000 </v>
    <v>       0.00013000       0.92202000       0.81246000 </v>
    <v>       0.99987000       0.07798000       0.56246000 </v>
    <v>       0.74987000       0.92202000       0.56246000 </v>
    <v>       0.75013000       0.07798000       0.81246000 </v>
    <v>       0.50013000       0.92202000       0.81246000 </v>
   </varray>
  </structure>
  <varray name="forces" >
   <v>       0.07565526       0.06971365      -0.44414799 </v>
   <v>       0.30671938       0.06654624      -0.66550187 </v>
   <v>       0.48070905       0.00558747      -0.10405424 </v>
   <v>       0.41232849       0.06783787       0.45391871 </v>
   <v>       0.01760678       0.13745669      -0.53434075 </v>
   <v>      -0.31122513      -0.06076515       0.28019716 </v>
   <v>       0.02155893       0.24416118       0.09456055 </v>
   <v>      -0.20978283      -0.12046645      -0.86730590 </v>
   <v>       0.04446555      -0.22385349       1.09198334 </v>
   <v>      -0.85765520      -0.11526763       0.92502144 </v>
   <v>       0.02148378      -0.22735364      -0.03192993 </v>
   <v>      -0.08936304      -1.01235910       0.05403045 </v>
   <v>      -0.09233244       0.07969071       0.23989920 </v>
   <v>       0.12760364      -1.03533624       0.06628386 </v>
   <v>      -0.10756441       1.02279464       0.16489145 </v>
   <v>      -0.13025288       1.01321024       0.36745909 </v>
   <v>       0.28773237      -0.02347054       0.15815761 </v>
   <v>      -0.05779172      -0.10260642      -0.00558059 </v>
   <v>       0.06379223       0.07271794      -0.10667352 </v>
   <v>       0.11939376       1.01046272      -0.26009226 </v>
   <v>       0.06935200      -0.04773034      -0.43300102 </v>
   <v>      -0.16594120       0.99776800       0.10757825 </v>
   <v>       0.16272193      -1.09875127      -0.21527727 </v>
   <v>       0.10761121      -0.95362331      -0.32653118 </v>
   <v>      -0.32010952      -0.00858856      -0.15966324 </v>
   <v>       0.04725072       0.07281169      -0.01140493 </v>
   <v>      -0.02122669      -0.03913138       0.28617793 </v>
   <v>       0.19478796       0.09553382      -0.27537734 </v>
   <v>       0.02830551      -0.12605541      -0.05044263 </v>
   <v>       0.14659694       0.14803811      -0.22124726 </v>
   <v>      -0.13397743      -0.15805675      -0.02858107 </v>
   <v>      -0.24652610       0.13032452      -0.07407295 </v>
   <v>       0.02216300      -0.09509659      -0.28888581 </v>
   <v>      -0.10347463       0.13282711       0.19719358 </v>
   <v>       0.09379659      -0.12775117       0.00669142 </v>
   <v>      -0.20763750       0.12845823       0.32610578 </v>
   <v>      -0.00712989      -0.10413127       0.10398332 </v>
   <v>      -0.11282186       0.10082397       0.21170747 </v>
   <v>       0.10551112      -0.05750664      -0.02734807 </v>
   <v>       0.22587493       0.12652369       0.06787056 </v>
   <v>      -0.01518482      -0.16538724       0.29122194 </v>
   <v>       0.09829648       0.09157939      -0.24314011 </v>
   <v>      -0.08782655      -0.16006180      -0.00206358 </v>
   <v>       0.58646640      -0.67609100      -0.88112229 </v>
   <v>       0.21280835      -0.27513720      -0.26887625 </v>
   <v>      -0.54150742       0.98156593      -0.49239725 </v>
   <v>      -0.09987671      -0.32901795       0.15443943 </v>
   <v>       0.45584779       0.94551981       0.39251083 </v>
   <v>      -1.22889450      -0.00456629      -0.22670117 </v>
   <v>       0.05409696       0.32714530       0.00668416 </v>
   <v>       0.54927674      -0.96305495      -0.62157425 </v>
   <v>      -0.59014166       0.75295096       0.83636602 </v>
   <v>      -0.01795584       0.01308783       1.33972473 </v>
   <v>       0.69658965      -0.71476966      -0.61817725 </v>
   <v>      -0.06294110       0.05349015      -1.25020526 </v>
   <v>      -0.60669651      -0.65223118       0.69854723 </v>
   <v>       1.24316501       0.00271947       0.19317091 </v>
   <v>      -0.08817755      -0.09232092      -0.00407190 </v>
   <v>      -0.56555335       0.87919221       0.62341273 </v>
  </varray>
  <varray name="stress" >
   <v>      -9.23200145      -0.46931649       0.84363974 </v>
   <v>      -0.46931654     -13.25746672       0.19545435 </v>
   <v>       0.84363989       0.19545424      -9.64141492 </v>
  </varray>
  <energy>
   <i name="e_fr_energy">   -302.07388184 </i>
   <i name="e_wo_entrp">   -302.07388184 </i>
   <i name="e_0_energy">      0.00000000 </i>
  </energy>
  <time name="totalsc"> 1436.39 1448.60</time>
  <eigenvalues>
   <array>
    <dimension dim="1">band</dimension>
    <dimension dim="2">kpoint</dimension>
    <dimension dim="3">spin</dimension>
    <field>eigene</field>
    <field>occ</field>
    <set>
     <set comment="spin 1">
      <set comment="kpoint 1">
       <r>  -40.3100    1.0000 </r>
       <r>  -40.1481    1.0000 </r>
       <r>  -40.1398    1.0000 </r>
       <r>  -39.8628    1.0000 </r>
       <r>  -39.6550    1.0000 </r>
       <r>  -39.2178    1.0000 </r>
       <r>  -18.9735    1.0000 </r>
       <r>  -18.9487    1.0000 </r>
       <r>  -18.9004    1.0000 </r>
       <r>  -18.8934    1.0000 </r>
       <r>  -18.8825    1.0000 </r>
       <r>  -18.8782    1.0000 </r>
       <r>  -18.8780    1.0000 </r>
       <r>  -18.8670    1.0000 </r>
       <r>  -18.8123    1.0000 </r>
       <r>  -18.8103    1.0000 </r>
       <r>  -18.8046    1.0000 </r>
       <r>  -18.8023    1.0000 </r>
       <r>  -18.7988    1.0000 </r>
       <r>  -18.7849    1.0000 </r>
       <r>  -18.7791    1.0000 </r>
       <r>  -18.7571    1.0000 </r>
       <r>  -18.7551    1.0000 </r>
       <r>  -18.7475    1.0000 </r>
       <r>  -18.7403    1.0000 </r>
       <r>  -18.7399    1.0000 </r>
       <r>  -18.7283    1.0000 </r>
       <r>  -18.7223    1.0000 </r>
       <r>  -18.7100    1.0000 </r>
       <r>  -18.7082    1.0000 </r>
       <r>  -18.6901    1.0000 </r>
       <r>  -18.6889    1.0000 </r>
       <r>  -18.6882    1.0000 </r>
       <r>  -18.6860    1.0000 </r>
       <r>  -18.6822    1.0000 </r>
       <r>  -18.6793    1.0000 </r>
       <r>  -18.6790    1.0000 </r>
       <r>  -18.6744    1.0000 </r>
       <r>  -18.6736    1.0000 </r>
       <r>  -18.6694    1.0000 </r>
       <r>  -18.6681    1.0000 </r>
       <r>  -18.6635    1.0000 </r>
       <r>  -18.6581    1.0000 </r>
       <r>  -18.6417    1.0000 </r>
       <r>  -18.6020    1.0000 </r>
       <r>  -18.5928    1.0000 </r>
       <r>  -18.5836    1.0000 </r>
       <r>  -18.5830    1.0000 </r>
       <r>  -18.5827    1.0000 </r>
       <r>  -18.5812    1.0000 </r>
       <r>  -18.5731    1.0000 </r>
       <r>  -18.5722    1.0000 </r>
       <r>  -18.5657    1.0000 </r>
       <r>  -18.5554    1.0000 </r>
       <r>  -18.5339    1.0000 </r>
       <r>  -18.5321    1.0000 </r>
       <r>  -18.5280    1.0000 </r>
       <r>  -18.5194    1.0000 </r>
       <r>  -18.5162    1.0000 </r>
       <r>  -18.5136    1.0000 </r>
       <r>  -18.5133    1.0000 </r>
       <r>  -18.5024    1.0000 </r>
       <r>  -18.4900    1.0000 </r>
       <r>  -18.4869    1.0000 </r>
       <r>  -18.4839    1.0000 </r>
       <r>  -18.4753    1.0000 </r>
       <r>  -18.4410    1.0000 </r>
       <r>  -18.4310    1.0000 </r>
       <r>  -18.4283    1.0000 </r>
       <r>  -18.4188    1.0000 </r>
       <r>  -18.4184    1.0000 </r>
       <r>  -18.4117    1.0000 </r>
       <r>  -18.4096    1.0000 </r>
       <r>  -18.4044    1.0000 </r>
       <r>  -18.3961    1.0000 </r>
       <r>  -18.3949    1.0000 </r>
       <r>  -18.3423    1.0000 </r>
       <r>  -18.3221    1.0000 </r>
       <r>  -18.2984    1.0000 </r>
       <r>  -18.2901    1.0000 </r>
       <r>  -18.2884    1.0000 </r>
       <r>  -18.2648    1.0000 </r>
       <r>  -18.2332    1.0000 </r>
       <r>  -18.2129    1.0000 </r>
       <r>  -18.2053    1.0000 </r>
       <r>  -18.1863    1.0000 </r>
       <r>  -13.6289    1.0000 </r>
       <r>  -13.5141    1.0000 </r>
       <r>  -13.4543    1.0000 </r>
       <r>  -13.4421    1.0000 </r>
       <r>  -12.8851    1.0000 </r>
       <r>  -12.8167    1.0000 </r>
       <r>  -12.7799    1.0000 </r>
       <r>  -12.7566    1.0000 </r>
       <r>  -12.7522    1.0000 </r>
       <r>  -12.7183    1.0000 </r>
       <r>  -12.6313    1.0000 </r>
       <r>  -12.5723    1.0000 </r>
       <r>  -12.0951    1.0000 </r>
       <r>  -12.0788    1.0000 </r>
       <r>  -12.0093    1.0000 </r>
       <r>  -11.9545    1.0000 </r>
       <r>   -9.3601    1.0000 </r>
       <r>   -9.0649    1.0000 </r>
       <r>   -8.5934    1.0000 </r>
       <r>   -8.5501    1.0000 </r>
       <r>   -8.4907    1.0000 </r>
       <r>   -8.4510    1.0000 </r>
       <r>   -8.3703    1.0000 </r>
       <r>   -8.3261    1.0000 </r>
       <r>   -8.2653    1.0000 </r>
       <r>   -8.2293    1.0000 </r>
       <r>   -8.0665    1.0000 </r>
       <r>   -8.0527    1.0000 </r>
       <r>   -8.0275    1.0000 </r>
       <r>   -8.0144    1.0000 </r>
       <r>   -7.3879    1.0000 </r>
       <r>   -7.3805    1.0000 </r>
       <r>   -6.4110    1.0000 </r>
       <r>   -6.3977    1.0000 </r>
       <r>   -6.3860    1.0000 </r>
       <r>   -6.3741    1.0000 </r>
       <r>   -5.5577    1.0000 </r>
       <r>   -5.5021    1.0000 </r>
       <r>   -5.4929    1.0000 </r>
       <r>   -5.3735    1.0000 </r>
       <r>   -5.3330    1.0000 </r>
       <r>   -5.2881    1.0000 </r>
       <r>   -5.2506    1.0000 </r>
       <r>   -5.1792    1.0000 </r>
       <r>   -5.0952    1.0000 </r>
       <r>   -5.0440    1.0000 </r>
       <r>   -3.8362    1.0000 </r>
       <r>   -3.6864    1.0000 </r>
       <r>   -1.5411    1.0000 </r>
       <r>   -1.3209    1.0000 </r>
       <r>   -1.1659    1.0000 </r>
       <r>   -1.0070    1.0000 </r>
       <r>   -0.6672    1.0000 </r>
       <r>   -0.6170    1.0000 </r>
       <r>   -0.5145    1.0000 </r>
       <r>   -0.4718    1.0000 </r>
       <r>   -0.2504    1.0000 </r>
       <r>   -0.2277    1.0000 </r>
       <r>   -0.1820    1.0000 </r>
       <r>   -0.1522    1.0000 </r>
       <r>   -0.0796    1.0000 </r>
       <r>    0.0525    1.0000 </r>
       <r>    0.2094    1.0000 </r>
       <r>    0.2654    1.0000 </r>
       <r>    0.2884    1.0000 </r>
       <r>    0.3715    1.0000 </r>
       <r>    0.3947    1.0000 </r>
       <r>    0.4824    1.0000 </r>
       <r>    0.5708    1.0000 </r>
       <r>    0.6574    1.0000 </r>
       <r>    0.6954    1.0000 </r>
       <r>    0.7102    1.0000 </r>
       <r>    0.7588    1.0000 </r>
       <r>    0.7777    1.0000 </r>
       <r>    0.8274    1.0000 </r>
       <r>    0.8902    1.0000 </r>
       <r>    0.9226    1.0000 </r>
       <r>    0.9458    1.0000 </r>
       <r>    0.9998    1.0000 </r>
       <r>    1.0376    1.0000 </r>
       <r>    1.0881    1.0000 </r>
       <r>    1.1016    1.0000 </r>
       <r>    1.1257    1.0000 </r>
       <r>    1.2359    1.0000 </r>
       <r>    1.3153    1.0000 </r>
       <r>    1.3344    1.0000 </r>
       <r>    1.3594    1.0000 </r>
       <r>    1.4153    1.0000 </r>
       <r>    1.4289    1.0000 </r>
       <r>    1.4530    1.0000 </r>
       <r>    1.4891    1.0000 </r>
       <r>    1.5801    1.0000 </r>
       <r>    1.6100    1.0000 </r>
       <r>    1.6292    1.0000 </r>
       <r>    1.6440    1.0000 </r>
       <r>    1.7557    1.0000 </r>
       <r>    1.8195    1.0000 </r>
       <r>    1.9138    1.0000 </r>
       <r>    1.9421    1.0000 </r>
       <r>    1.9542    1.0000 </r>
       <r>    2.1155    1.0000 </r>
       <r>    2.1738    1.0000 </r>
       <r>    2.2600    1.0000 </r>
       <r>    2.2746    1.0000 </r>
       <r>    2.3232    1.0000 </r>
       <r>    2.3770    1.0000 </r>
       <r>    2.4257    1.0000 </r>
       <r>    2.5191    1.0000 </r>
       <r>    2.5317    1.0000 </r>
       <r>    2.5405    1.0000 </r>
       <r>    2.5640    1.0000 </r>
       <r>    2.5674    1.0000 </r>
       <r>    2.5897    1.0000 </r>
       <r>    2.6507    1.0000 </r>
       <r>    2.6611    1.0000 </r>
       <r>    2.6939    1.0000 </r>
       <r>    2.7049    1.0000 </r>
       <r>    2.7603    1.0000 </r>
       <r>    2.7930    1.0000 </r>
       <r>    2.8583    1.0000 </r>
       <r>    2.8862    1.0000 </r>
       <r>    2.9204    1.0000 </r>
       <r>    2.9393    1.0000 </r>
       <r>    2.9602    1.0000 </r>
       <r>    3.0399    1.0000 </r>
       <r>    3.0722    1.0000 </r>
       <r>    3.0810    1.0000 </r>
       <r>    3.1149    1.0000 </r>
       <r>    3.1223    1.0000 </r>
       <r>    3.1472    1.0000 </r>
       <r>    3.1794    1.0000 </r>
       <r>    3.1870    1.0000 </r>
       <r>    3.2304    1.0000 </r>
       <r>    3.2480    1.0000 </r>
       <r>    3.2865    1.0000 </r>
       <r>    3.3737    1.0000 </r>
       <r>    3.4654    1.0000 </r>
       <r>    3.5382    1.0000 </r>
       <r>    3.6168    1.0000 </r>
       <r>    3.7499    1.0000 </r>
       <r>    4.1398    1.0000 </r>
       <r>    4.1599    1.0000 </r>
       <r>    4.2042    1.0000 </r>
       <r>    4.2208    1.0000 </r>
       <r>    4.9717    0.0000 </r>
       <r>    4.9928    0.0000 </r>
       <r>    5.1617    0.0000 </r>
       <r>    5.1831    0.0000 </r>
       <r>    5.6951    0.0000 </r>
       <r>    5.7128    0.0000 </r>
       <r>    5.8032    0.0000 </r>
       <r>    5.8225    0.0000 </r>
       <r>    6.0666    0.0000 </r>
       <r>    6.0894    0.0000 </r>
       <r>    6.1210    0.0000 </r>
       <r>    6.1325    0.0000 </r>
       <r>    6.1997    0.0000 </r>
       <r>    6.2068    0.0000 </r>
       <r>    6.2388    0.0000 </r>
       <r>    6.2555    0.0000 </r>
       <r>    6.9815    0.0000 </r>
       <r>    7.0441    0.0000 </r>
       <r>    7.2837    0.0000 </r>
       <r>    7.2973    0.0000 </r>
       <r>    7.6455    0.0000 </r>
       <r>    7.7793    0.0000 </r>
       <r>    7.8176    0.0000 </r>
       <r>    7.9001    0.0000 </r>
       <r>    7.9331    0.0000 </r>
       <r>    8.0442    0.0000 </r>
       <r>    8.1261    0.0000 </r>
       <r>    8.1492    0.0000 </r>
       <r>    8.2992    0.0000 </r>
       <r>    8.6089    0.0000 </r>
       <r>    8.6419    0.0000 </r>
       <r>    8.7550    0.0000 </r>
       <r>    8.7883    0.0000 </r>
       <r>    8.7959    0.0000 </r>
       <r>    8.9077    0.0000 </r>
       <r>    8.9122    0.0000 </r>
       <r>    8.9840    0.0000 </r>
       <r>    9.0125    0.0000 </r>
       <r>    9.0386    0.0000 </r>
       <r>    9.0697    0.0000 </r>
       <r>    9.1154    0.0000 </r>
       <r>    9.1447    0.0000 </r>
       <r>    9.1862    0.0000 </r>
       <r>    9.2459    0.0000 </r>
       <r>    9.3710    0.0000 </r>
       <r>    9.3773    0.0000 </r>
       <r>    9.4666    0.0000 </r>
       <r>    9.5073    0.0000 </r>
       <r>    9.6562    0.0000 </r>
       <r>    9.7684    0.0000 </r>
      </set>
      <set comment="kpoint 2">
       <r>  -40.3100    1.0000 </r>
       <r>  -40.1481    1.0000 </r>
       <r>  -40.1398    1.0000 </r>
       <r>  -39.8628    1.0000 </r>
       <r>  -39.6550    1.0000 </r>
       <r>  -39.2178    1.0000 </r>
       <r>  -18.9735    1.0000 </r>
       <r>  -18.9486    1.0000 </r>
       <r>  -18.9003    1.0000 </r>
       <r>  -18.8934    1.0000 </r>
       <r>  -18.8821    1.0000 </r>
       <r>  -18.8788    1.0000 </r>
       <r>  -18.8779    1.0000 </r>
       <r>  -18.8668    1.0000 </r>
       <r>  -18.8132    1.0000 </r>
       <r>  -18.8095    1.0000 </r>
       <r>  -18.8061    1.0000 </r>
       <r>  -18.8009    1.0000 </r>
       <r>  -18.7988    1.0000 </r>
       <r>  -18.7849    1.0000 </r>
       <r>  -18.7791    1.0000 </r>
       <r>  -18.7572    1.0000 </r>
       <r>  -18.7551    1.0000 </r>
       <r>  -18.7475    1.0000 </r>
       <r>  -18.7403    1.0000 </r>
       <r>  -18.7399    1.0000 </r>
       <r>  -18.7283    1.0000 </r>
       <r>  -18.7224    1.0000 </r>
       <r>  -18.7100    1.0000 </r>
       <r>  -18.7081    1.0000 </r>
       <r>  -18.6901    1.0000 </r>
       <r>  -18.6882    1.0000 </r>
       <r>  -18.6877    1.0000 </r>
       <r>  -18.6869    1.0000 </r>
       <r>  -18.6821    1.0000 </r>
       <r>  -18.6797    1.0000 </r>
       <r>  -18.6793    1.0000 </r>
       <r>  -18.6748    1.0000 </r>
       <r>  -18.6730    1.0000 </r>
       <r>  -18.6695    1.0000 </r>
       <r>  -18.6677    1.0000 </r>
       <r>  -18.6641    1.0000 </r>
       <r>  -18.6579    1.0000 </r>
       <r>  -18.6417    1.0000 </r>
       <r>  -18.6020    1.0000 </r>
       <r>  -18.5928    1.0000 </r>
       <r>  -18.5836    1.0000 </r>
       <r>  -18.5830    1.0000 </r>
       <r>  -18.5827    1.0000 </r>
       <r>  -18.5812    1.0000 </r>
       <r>  -18.5731    1.0000 </r>
       <r>  -18.5722    1.0000 </r>
       <r>  -18.5657    1.0000 </r>
       <r>  -18.5554    1.0000 </r>
       <r>  -18.5339    1.0000 </r>
       <r>  -18.5321    1.0000 </r>
       <r>  -18.5280    1.0000 </r>
       <r>  -18.5194    1.0000 </r>
       <r>  -18.5162    1.0000 </r>
       <r>  -18.5135    1.0000 </r>
       <r>  -18.5134    1.0000 </r>
       <r>  -18.5025    1.0000 </r>
       <r>  -18.4903    1.0000 </r>
       <r>  -18.4869    1.0000 </r>
       <r>  -18.4839    1.0000 </r>
       <r>  -18.4749    1.0000 </r>
       <r>  -18.4410    1.0000 </r>
       <r>  -18.4310    1.0000 </r>
       <r>  -18.4283    1.0000 </r>
       <r>  -18.4190    1.0000 </r>
       <r>  -18.4184    1.0000 </r>
       <r>  -18.4117    1.0000 </r>
       <r>  -18.4096    1.0000 </r>
       <r>  -18.4042    1.0000 </r>
       <r>  -18.3962    1.0000 </r>
       <r>  -18.3949    1.0000 </r>
       <r>  -18.3423    1.0000 </r>
       <r>  -18.3221    1.0000 </r>
       <r>  -18.2984    1.0000 </r>
       <r>  -18.2901    1.0000 </r>
       <r>  -18.2884    1.0000 </r>
       <r>  -18.2648    1.0000 </r>
       <r>  -18.2332    1.0000 </r>
       <r>  -18.2129    1.0000 </r>
       <r>  -18.2053    1.0000 </r>
       <r>  -18.1863    1.0000 </r>
       <r>  -13.6275    1.0000 </r>
       <r>  -13.5166    1.0000 </r>
       <r>  -13.4537    1.0000 </r>
       <r>  -13.4415    1.0000 </r>
       <r>  -12.8848    1.0000 </r>
       <r>  -12.8195    1.0000 </r>
       <r>  -12.7747    1.0000 </r>
       <r>  -12.7560    1.0000 </r>
       <r>  -12.7544    1.0000 </r>
       <r>  -12.7204    1.0000 </r>
       <r>  -12.6299    1.0000 </r>
       <r>  -12.5730    1.0000 </r>
       <r>  -12.0965    1.0000 </r>
       <r>  -12.0774    1.0000 </r>
       <r>  -12.0084    1.0000 </r>
       <r>  -11.9552    1.0000 </r>
       <r>   -9.1555    1.0000 </r>
       <r>   -9.1403    1.0000 </r>
       <r>   -8.8813    1.0000 </r>
       <r>   -8.8638    1.0000 </r>
       <r>   -8.3582    1.0000 </r>
       <r>   -8.3523    1.0000 </r>
       <r>   -8.3447    1.0000 </r>
       <r>   -8.3341    1.0000 </r>
       <r>   -8.1718    1.0000 </r>
       <r>   -8.1651    1.0000 </r>
       <r>   -8.1568    1.0000 </r>
       <r>   -8.1469    1.0000 </r>
       <r>   -7.7194    1.0000 </r>
       <r>   -7.7152    1.0000 </r>
       <r>   -7.6080    1.0000 </r>
       <r>   -7.6057    1.0000 </r>
       <r>   -6.0205    1.0000 </r>
       <r>   -5.9947    1.0000 </r>
       <r>   -5.9642    1.0000 </r>
       <r>   -5.9269    1.0000 </r>
       <r>   -5.8741    1.0000 </r>
       <r>   -5.8189    1.0000 </r>
       <r>   -5.8000    1.0000 </r>
       <r>   -5.7802    1.0000 </r>
       <r>   -5.6461    1.0000 </r>
       <r>   -5.5621    1.0000 </r>
       <r>   -5.5179    1.0000 </r>
       <r>   -5.4587    1.0000 </r>
       <r>   -4.4548    1.0000 </r>
       <r>   -4.4416    1.0000 </r>
       <r>   -4.2883    1.0000 </r>
       <r>   -4.2754    1.0000 </r>
       <r>   -1.2343    1.0000 </r>
       <r>   -1.1866    1.0000 </r>
       <r>   -0.8567    1.0000 </r>
       <r>   -0.8421    1.0000 </r>
       <r>   -0.5390    1.0000 </r>
       <r>   -0.4180    1.0000 </r>
       <r>   -0.1086    1.0000 </r>
       <r>   -0.0576    1.0000 </r>
       <r>   -0.0024    1.0000 </r>
       <r>    0.0157    1.0000 </r>
       <r>    0.0317    1.0000 </r>
       <r>    0.0509    1.0000 </r>
       <r>    0.0986    1.0000 </r>
       <r>    0.1637    1.0000 </r>
       <r>    0.2524    1.0000 </r>
       <r>    0.2714    1.0000 </r>
       <r>    0.3715    1.0000 </r>
       <r>    0.4462    1.0000 </r>
       <r>    0.4904    1.0000 </r>
       <r>    0.5176    1.0000 </r>
       <r>    0.5440    1.0000 </r>
       <r>    0.5768    1.0000 </r>
       <r>    0.5952    1.0000 </r>
       <r>    0.6585    1.0000 </r>
       <r>    0.6993    1.0000 </r>
       <r>    0.7296    1.0000 </r>
       <r>    0.7823    1.0000 </r>
       <r>    0.8559    1.0000 </r>
       <r>    0.8971    1.0000 </r>
       <r>    0.9468    1.0000 </r>
       <r>    1.0046    1.0000 </r>
       <r>    1.0603    1.0000 </r>
       <r>    1.1117    1.0000 </r>
       <r>    1.1405    1.0000 </r>
       <r>    1.1791    1.0000 </r>
       <r>    1.2126    1.0000 </r>
       <r>    1.2731    1.0000 </r>
       <r>    1.2992    1.0000 </r>
       <r>    1.3405    1.0000 </r>
       <r>    1.3673    1.0000 </r>
       <r>    1.4064    1.0000 </r>
       <r>    1.4542    1.0000 </r>
       <r>    1.4745    1.0000 </r>
       <r>    1.5052    1.0000 </r>
       <r>    1.5367    1.0000 </r>
       <r>    1.5831    1.0000 </r>
       <r>    1.6075    1.0000 </r>
       <r>    1.6217    1.0000 </r>
       <r>    1.7084    1.0000 </r>
       <r>    1.7592    1.0000 </r>
       <r>    1.7984    1.0000 </r>
       <r>    1.8892    1.0000 </r>
       <r>    1.9351    1.0000 </r>
       <r>    1.9998    1.0000 </r>
       <r>    2.0858    1.0000 </r>
       <r>    2.1115    1.0000 </r>
       <r>    2.1257    1.0000 </r>
       <r>    2.1818    1.0000 </r>
       <r>    2.2327    1.0000 </r>
       <r>    2.2614    1.0000 </r>
       <r>    2.2922    1.0000 </r>
       <r>    2.3520    1.0000 </r>
       <r>    2.3903    1.0000 </r>
       <r>    2.4513    1.0000 </r>
       <r>    2.4836    1.0000 </r>
       <r>    2.5251    1.0000 </r>
       <r>    2.5723    1.0000 </r>
       <r>    2.6202    1.0000 </r>
       <r>    2.6340    1.0000 </r>
       <r>    2.6596    1.0000 </r>
       <r>    2.6662    1.0000 </r>
       <r>    2.7127    1.0000 </r>
       <r>    2.7728    1.0000 </r>
       <r>    2.8126    1.0000 </r>
       <r>    2.8378    1.0000 </r>
       <r>    2.8549    1.0000 </r>
       <r>    2.8967    1.0000 </r>
       <r>    2.9424    1.0000 </r>
       <r>    2.9514    1.0000 </r>
       <r>    2.9800    1.0000 </r>
       <r>    3.0318    1.0000 </r>
       <r>    3.0590    1.0000 </r>
       <r>    3.1424    1.0000 </r>
       <r>    3.1963    1.0000 </r>
       <r>    3.2564    1.0000 </r>
       <r>    3.3242    1.0000 </r>
       <r>    3.3757    1.0000 </r>
       <r>    3.4361    1.0000 </r>
       <r>    3.4612    1.0000 </r>
       <r>    3.4785    1.0000 </r>
       <r>    3.4931    1.0000 </r>
       <r>    3.5121    1.0000 </r>
       <r>    3.6059    1.0000 </r>
       <r>    3.7062    1.0000 </r>
       <r>    3.7321    1.0000 </r>
       <r>    3.8863    1.0000 </r>
       <r>    5.6360    0.0000 </r>
       <r>    5.6476    0.0000 </r>
       <r>    5.6558    0.0000 </r>
       <r>    5.6580    0.0000 </r>
       <r>    5.7456    0.0000 </r>
       <r>    5.7544    0.0000 </r>
       <r>    5.7597    0.0000 </r>
       <r>    5.7741    0.0000 </r>
       <r>    7.1465    0.0000 </r>
       <r>    7.1893    0.0000 </r>
       <r>    7.2352    0.0000 </r>
       <r>    7.2547    0.0000 </r>
       <r>    7.2831    0.0000 </r>
       <r>    7.3397    0.0000 </r>
       <r>    7.3815    0.0000 </r>
       <r>    7.4125    0.0000 </r>
       <r>    7.4394    0.0000 </r>
       <r>    7.4532    0.0000 </r>
       <r>    7.4940    0.0000 </r>
       <r>    7.5283    0.0000 </r>
       <r>    7.7934    0.0000 </r>
       <r>    7.8009    0.0000 </r>
       <r>    7.8245    0.0000 </r>
       <r>    7.8324    0.0000 </r>
       <r>    7.8427    0.0000 </r>
       <r>    7.8541    0.0000 </r>
       <r>    7.8698    0.0000 </r>
       <r>    7.9210    0.0000 </r>
       <r>    8.0016    0.0000 </r>
       <r>    8.0094    0.0000 </r>
       <r>    8.0543    0.0000 </r>
       <r>    8.1863    0.0000 </r>
       <r>    8.2182    0.0000 </r>
       <r>    8.3329    0.0000 </r>
       <r>    8.3380    0.0000 </r>
       <r>    8.4086    0.0000 </r>
       <r>    8.6822    0.0000 </r>
       <r>    8.6901    0.0000 </r>
       <r>    8.7428    0.0000 </r>
       <r>    8.7513    0.0000 </r>
       <r>    8.7710    0.0000 </r>
       <r>    8.7879    0.0000 </r>
       <r>    8.8978    0.0000 </r>
       <r>    8.9065    0.0000 </r>
       <r>    9.1649    0.0000 </r>
       <r>    9.1716    0.0000 </r>
       <r>    9.2986    0.0000 </r>
       <r>    9.4219    0.0000 </r>
       <r>    9.4305    0.0000 </r>
       <r>    9.4378    0.0000 </r>
      </set>
      <set comment="kpoint 3">
       <r>  -40.3100    1.0000 </r>
       <r>  -40.1481    1.0000 </r>
       <r>  -40.1398    1.0000 </r>
       <r>  -39.8628    1.0000 </r>
       <r>  -39.6550    1.0000 </r>
       <r>  -39.2178    1.0000 </r>
       <r>  -18.9735    1.0000 </r>
       <r>  -18.9486    1.0000 </r>
       <r>  -18.9004    1.0000 </r>
       <r>  -18.8934    1.0000 </r>
       <r>  -18.8825    1.0000 </r>
       <r>  -18.8782    1.0000 </r>
       <r>  -18.8780    1.0000 </r>
       <r>  -18.8670    1.0000 </r>
       <r>  -18.8123    1.0000 </r>
       <r>  -18.8103    1.0000 </r>
       <r>  -18.8046    1.0000 </r>
       <r>  -18.8023    1.0000 </r>
       <r>  -18.7988    1.0000 </r>
       <r>  -18.7849    1.0000 </r>
       <r>  -18.7791    1.0000 </r>
       <r>  -18.7571    1.0000 </r>
       <r>  -18.7551    1.0000 </r>
       <r>  -18.7475    1.0000 </r>
       <r>  -18.7405    1.0000 </r>
       <r>  -18.7398    1.0000 </r>
       <r>  -18.7283    1.0000 </r>
       <r>  -18.7224    1.0000 </r>
       <r>  -18.7100    1.0000 </r>
       <r>  -18.7082    1.0000 </r>
       <r>  -18.6901    1.0000 </r>
       <r>  -18.6889    1.0000 </r>
       <r>  -18.6882    1.0000 </r>
       <r>  -18.6860    1.0000 </r>
       <r>  -18.6822    1.0000 </r>
       <r>  -18.6793    1.0000 </r>
       <r>  -18.6790    1.0000 </r>
       <r>  -18.6743    1.0000 </r>
       <r>  -18.6736    1.0000 </r>
       <r>  -18.6694    1.0000 </r>
       <r>  -18.6681    1.0000 </r>
       <r>  -18.6635    1.0000 </r>
       <r>  -18.6581    1.0000 </r>
       <r>  -18.6417    1.0000 </r>
       <r>  -18.6019    1.0000 </r>
       <r>  -18.5928    1.0000 </r>
       <r>  -18.5836    1.0000 </r>
       <r>  -18.5830    1.0000 </r>
       <r>  -18.5826    1.0000 </r>
       <r>  -18.5812    1.0000 </r>
       <r>  -18.5731    1.0000 </r>
       <r>  -18.5722    1.0000 </r>
       <r>  -18.5658    1.0000 </r>
       <r>  -18.5554    1.0000 </r>
       <r>  -18.5339    1.0000 </r>
       <r>  -18.5321    1.0000 </r>
       <r>  -18.5280    1.0000 </r>
       <r>  -18.5194    1.0000 </r>
       <r>  -18.5162    1.0000 </r>
       <r>  -18.5136    1.0000 </r>
       <r>  -18.5133    1.0000 </r>
       <r>  -18.5024    1.0000 </r>
       <r>  -18.4900    1.0000 </r>
       <r>  -18.4869    1.0000 </r>
       <r>  -18.4839    1.0000 </r>
       <r>  -18.4753    1.0000 </r>
       <r>  -18.4410    1.0000 </r>
       <r>  -18.4310    1.0000 </r>
       <r>  -18.4283    1.0000 </r>
       <r>  -18.4188    1.0000 </r>
       <r>  -18.4184    1.0000 </r>
       <r>  -18.4117    1.0000 </r>
       <r>  -18.4096    1.0000 </r>
       <r>  -18.4044    1.0000 </r>
       <r>  -18.3961    1.0000 </r>
       <r>  -18.3949    1.0000 </r>
       <r>  -18.3423    1.0000 </r>
       <r>  -18.3220    1.0000 </r>
       <r>  -18.2984    1.0000 </r>
       <r>  -18.2901    1.0000 </r>
       <r>  -18.2884    1.0000 </r>
       <r>  -18.2648    1.0000 </r>
       <r>  -18.2332    1.0000 </r>
       <r>  -18.2129    1.0000 </r>
       <r>  -18.2053    1.0000 </r>
       <r>  -18.1863    1.0000 </r>
       <r>  -13.6285    1.0000 </r>
       <r>  -13.5143    1.0000 </r>
       <r>  -13.4543    1.0000 </r>
       <r>  -13.4422    1.0000 </r>
       <r>  -12.8845    1.0000 </r>
       <r>  -12.8165    1.0000 </r>
       <r>  -12.7800    1.0000 </r>
       <r>  -12.7568    1.0000 </r>
       <r>  -12.7525    1.0000 </r>
       <r>  -12.7183    1.0000 </r>
       <r>  -12.6313    1.0000 </r>
       <r>  -12.5730    1.0000 </r>
       <r>  -12.0947    1.0000 </r>
       <r>  -12.0793    1.0000 </r>
       <r>  -12.0095    1.0000 </r>
       <r>  -11.9556    1.0000 </r>
       <r>   -9.3495    1.0000 </r>
       <r>   -9.0725    1.0000 </r>
       <r>   -8.6121    1.0000 </r>
       <r>   -8.5677    1.0000 </r>
       <r>   -8.5074    1.0000 </r>
       <r>   -8.4681    1.0000 </r>
       <r>   -8.3492    1.0000 </r>
       <r>   -8.3064    1.0000 </r>
       <r>   -8.2465    1.0000 </r>
       <r>   -8.2105    1.0000 </r>
       <r>   -8.0705    1.0000 </r>
       <r>   -8.0568    1.0000 </r>
       <r>   -8.0304    1.0000 </r>
       <r>   -8.0172    1.0000 </r>
       <r>   -7.3906    1.0000 </r>
       <r>   -7.3833    1.0000 </r>
       <r>   -6.4011    1.0000 </r>
       <r>   -6.3874    1.0000 </r>
       <r>   -6.3765    1.0000 </r>
       <r>   -6.3644    1.0000 </r>
       <r>   -5.5761    1.0000 </r>
       <r>   -5.5309    1.0000 </r>
       <r>   -5.4902    1.0000 </r>
       <r>   -5.4128    1.0000 </r>
       <r>   -5.3560    1.0000 </r>
       <r>   -5.2867    1.0000 </r>
       <r>   -5.2130    1.0000 </r>
       <r>   -5.1428    1.0000 </r>
       <r>   -5.0515    1.0000 </r>
       <r>   -5.0007    1.0000 </r>
       <r>   -3.9119    1.0000 </r>
       <r>   -3.5986    1.0000 </r>
       <r>   -1.4192    1.0000 </r>
       <r>   -1.3338    1.0000 </r>
       <r>   -1.2781    1.0000 </r>
       <r>   -1.0639    1.0000 </r>
       <r>   -0.5471    1.0000 </r>
       <r>   -0.4943    1.0000 </r>
       <r>   -0.4689    1.0000 </r>
       <r>   -0.4282    1.0000 </r>
       <r>   -0.4151    1.0000 </r>
       <r>   -0.3986    1.0000 </r>
       <r>   -0.3022    1.0000 </r>
       <r>   -0.2554    1.0000 </r>
       <r>   -0.1954    1.0000 </r>
       <r>   -0.1399    1.0000 </r>
       <r>    0.0062    1.0000 </r>
       <r>    0.0493    1.0000 </r>
       <r>    0.0897    1.0000 </r>
       <r>    0.2496    1.0000 </r>
       <r>    0.3520    1.0000 </r>
       <r>    0.3684    1.0000 </r>
       <r>    0.4212    1.0000 </r>
       <r>    0.5537    1.0000 </r>
       <r>    0.5692    1.0000 </r>
       <r>    0.6766    1.0000 </r>
       <r>    0.6923    1.0000 </r>
       <r>    0.7840    1.0000 </r>
       <r>    0.7880    1.0000 </r>
       <r>    0.8210    1.0000 </r>
       <r>    0.8377    1.0000 </r>
       <r>    1.0313    1.0000 </r>
       <r>    1.0569    1.0000 </r>
       <r>    1.0960    1.0000 </r>
       <r>    1.1527    1.0000 </r>
       <r>    1.2088    1.0000 </r>
       <r>    1.2876    1.0000 </r>
       <r>    1.3262    1.0000 </r>
       <r>    1.3909    1.0000 </r>
       <r>    1.4589    1.0000 </r>
       <r>    1.4734    1.0000 </r>
       <r>    1.5020    1.0000 </r>
       <r>    1.5805    1.0000 </r>
       <r>    1.5915    1.0000 </r>
       <r>    1.6069    1.0000 </r>
       <r>    1.6391    1.0000 </r>
       <r>    1.6661    1.0000 </r>
       <r>    1.7145    1.0000 </r>
       <r>    1.7593    1.0000 </r>
       <r>    1.8993    1.0000 </r>
       <r>    1.9218    1.0000 </r>
       <r>    2.0387    1.0000 </r>
       <r>    2.0912    1.0000 </r>
       <r>    2.1412    1.0000 </r>
       <r>    2.2008    1.0000 </r>
       <r>    2.2326    1.0000 </r>
       <r>    2.3178    1.0000 </r>
       <r>    2.3620    1.0000 </r>
       <r>    2.4140    1.0000 </r>
       <r>    2.4448    1.0000 </r>
       <r>    2.4633    1.0000 </r>
       <r>    2.4979    1.0000 </r>
       <r>    2.5207    1.0000 </r>
       <r>    2.5390    1.0000 </r>
       <r>    2.5406    1.0000 </r>
       <r>    2.5671    1.0000 </r>
       <r>    2.5771    1.0000 </r>
       <r>    2.6137    1.0000 </r>
       <r>    2.6696    1.0000 </r>
       <r>    2.6770    1.0000 </r>
       <r>    2.6945    1.0000 </r>
       <r>    2.7587    1.0000 </r>
       <r>    2.7899    1.0000 </r>
       <r>    2.8205    1.0000 </r>
       <r>    2.8511    1.0000 </r>
       <r>    2.8988    1.0000 </r>
       <r>    2.9323    1.0000 </r>
       <r>    2.9401    1.0000 </r>
       <r>    2.9779    1.0000 </r>
       <r>    3.0045    1.0000 </r>
       <r>    3.0594    1.0000 </r>
       <r>    3.0794    1.0000 </r>
       <r>    3.1201    1.0000 </r>
       <r>    3.1879    1.0000 </r>
       <r>    3.2729    1.0000 </r>
       <r>    3.2918    1.0000 </r>
       <r>    3.3273    1.0000 </r>
       <r>    3.3626    1.0000 </r>
       <r>    3.4209    1.0000 </r>
       <r>    3.4891    1.0000 </r>
       <r>    3.5132    1.0000 </r>
       <r>    3.5393    1.0000 </r>
       <r>    3.5927    1.0000 </r>
       <r>    3.6949    1.0000 </r>
       <r>    4.1892    1.0000 </r>
       <r>    4.2121    1.0000 </r>
       <r>    4.2537    1.0000 </r>
       <r>    4.2719    1.0000 </r>
       <r>    5.0531    0.0000 </r>
       <r>    5.0716    0.0000 </r>
       <r>    5.2235    0.0000 </r>
       <r>    5.2446    0.0000 </r>
       <r>    5.7028    0.0000 </r>
       <r>    5.7207    0.0000 </r>
       <r>    5.8120    0.0000 </r>
       <r>    5.8320    0.0000 </r>
       <r>    6.1241    0.0000 </r>
       <r>    6.1362    0.0000 </r>
       <r>    6.1625    0.0000 </r>
       <r>    6.1725    0.0000 </r>
       <r>    6.2126    0.0000 </r>
       <r>    6.2250    0.0000 </r>
       <r>    6.2579    0.0000 </r>
       <r>    6.2765    0.0000 </r>
       <r>    6.6523    0.0000 </r>
       <r>    6.7707    0.0000 </r>
       <r>    6.9527    0.0000 </r>
       <r>    6.9836    0.0000 </r>
       <r>    7.1303    0.0000 </r>
       <r>    7.1819    0.0000 </r>
       <r>    7.4214    0.0000 </r>
       <r>    7.4906    0.0000 </r>
       <r>    7.6841    0.0000 </r>
       <r>    7.7785    0.0000 </r>
       <r>    7.8805    0.0000 </r>
       <r>    7.9623    0.0000 </r>
       <r>    8.0617    0.0000 </r>
       <r>    8.3018    0.0000 </r>
       <r>    8.3596    0.0000 </r>
       <r>    8.4173    0.0000 </r>
       <r>    8.6416    0.0000 </r>
       <r>    8.7373    0.0000 </r>
       <r>    8.9070    0.0000 </r>
       <r>    8.9165    0.0000 </r>
       <r>    8.9500    0.0000 </r>
       <r>    8.9845    0.0000 </r>
       <r>    9.0357    0.0000 </r>
       <r>    9.0694    0.0000 </r>
       <r>    9.0853    0.0000 </r>
       <r>    9.1166    0.0000 </r>
       <r>    9.1289    0.0000 </r>
       <r>    9.2058    0.0000 </r>
       <r>    9.4351    0.0000 </r>
       <r>    9.4620    0.0000 </r>
       <r>    9.5369    0.0000 </r>
       <r>    9.6920    0.0000 </r>
       <r>    9.7160    0.0000 </r>
       <r>    9.7427    0.0000 </r>
      </set>
      <set comment="kpoint 4">
       <r>  -40.3099    1.0000 </r>
       <r>  -40.1481    1.0000 </r>
       <r>  -40.1398    1.0000 </r>
       <r>  -39.8628    1.0000 </r>
       <r>  -39.6550    1.0000 </r>
       <r>  -39.2178    1.0000 </r>
       <r>  -18.9735    1.0000 </r>
       <r>  -18.9486    1.0000 </r>
       <r>  -18.9003    1.0000 </r>
       <r>  -18.8934    1.0000 </r>
       <r>  -18.8821    1.0000 </r>
       <r>  -18.8788    1.0000 </r>
       <r>  -18.8779    1.0000 </r>
       <r>  -18.8668    1.0000 </r>
       <r>  -18.8132    1.0000 </r>
       <r>  -18.8095    1.0000 </r>
       <r>  -18.8061    1.0000 </r>
       <r>  -18.8009    1.0000 </r>
       <r>  -18.7988    1.0000 </r>
       <r>  -18.7849    1.0000 </r>
       <r>  -18.7791    1.0000 </r>
       <r>  -18.7572    1.0000 </r>
       <r>  -18.7551    1.0000 </r>
       <r>  -18.7475    1.0000 </r>
       <r>  -18.7404    1.0000 </r>
       <r>  -18.7398    1.0000 </r>
       <r>  -18.7283    1.0000 </r>
       <r>  -18.7224    1.0000 </r>
       <r>  -18.7100    1.0000 </r>
       <r>  -18.7081    1.0000 </r>
       <r>  -18.6901    1.0000 </r>
       <r>  -18.6882    1.0000 </r>
       <r>  -18.6877    1.0000 </r>
       <r>  -18.6869    1.0000 </r>
       <r>  -18.6821    1.0000 </r>
       <r>  -18.6797    1.0000 </r>
       <r>  -18.6792    1.0000 </r>
       <r>  -18.6748    1.0000 </r>
       <r>  -18.6730    1.0000 </r>
       <r>  -18.6695    1.0000 </r>
       <r>  -18.6677    1.0000 </r>
       <r>  -18.6641    1.0000 </r>
       <r>  -18.6579    1.0000 </r>
       <r>  -18.6417    1.0000 </r>
       <r>  -18.6019    1.0000 </r>
       <r>  -18.5928    1.0000 </r>
       <r>  -18.5836    1.0000 </r>
       <r>  -18.5830    1.0000 </r>
       <r>  -18.5826    1.0000 </r>
       <r>  -18.5812    1.0000 </r>
       <r>  -18.5731    1.0000 </r>
       <r>  -18.5722    1.0000 </r>
       <r>  -18.5658    1.0000 </r>
       <r>  -18.5554    1.0000 </r>
       <r>  -18.5339    1.0000 </r>
       <r>  -18.5321    1.0000 </r>
       <r>  -18.5280    1.0000 </r>
       <r>  -18.5194    1.0000 </r>
       <r>  -18.5162    1.0000 </r>
       <r>  -18.5135    1.0000 </r>
       <r>  -18.5134    1.0000 </r>
       <r>  -18.5025    1.0000 </r>
       <r>  -18.4903    1.0000 </r>
       <r>  -18.4869    1.0000 </r>
       <r>  -18.4839    1.0000 </r>
       <r>  -18.4749    1.0000 </r>
       <r>  -18.4410    1.0000 </r>
       <r>  -18.4310    1.0000 </r>
       <r>  -18.4283    1.0000 </r>
       <r>  -18.4190    1.0000 </r>
       <r>  -18.4184    1.0000 </r>
       <r>  -18.4117    1.0000 </r>
       <r>  -18.4096    1.0000 </r>
       <r>  -18.4042    1.0000 </r>
       <r>  -18.3962    1.0000 </r>
       <r>  -18.3949    1.0000 </r>
       <r>  -18.3423    1.0000 </r>
       <r>  -18.3220    1.0000 </r>
       <r>  -18.2984    1.0000 </r>
       <r>  -18.2901    1.0000 </r>
       <r>  -18.2884    1.0000 </r>
       <r>  -18.2648    1.0000 </r>
       <r>  -18.2332    1.0000 </r>
       <r>  -18.2129    1.0000 </r>
       <r>  -18.2053    1.0000 </r>
       <r>  -18.1863    1.0000 </r>
       <r>  -13.6273    1.0000 </r>
       <r>  -13.5166    1.0000 </r>
       <r>  -13.4538    1.0000 </r>
[...]
       <r>    8.8092    0.0000 </r>
       <r>    8.8304    0.0000 </r>
       <r>    8.8410    0.0000 </r>
       <r>    8.8703    0.0000 </r>
       <r>    8.8893    0.0000 </r>
       <r>    8.9227    0.0000 </r>
       <r>    8.9801    0.0000 </r>
       <r>    9.5067    0.0000 </r>
       <r>    9.7190    0.0000 </r>
      </set>
     </set>
    </set>
   </array>
  </eigenvalues>
  <separator name="orbital magnetization" >
   <v name="MAGDIPOLOUT">      0.00000000      0.00000000      0.00000000</v>
  </separator>
  <dos>
   <i name="efermi">      4.40447190 </i>
   <total>
    <array>
     <dimension dim="1">gridpoints</dimension>
     <dimension dim="2">spin</dimension>
     <field>energy</field>
     <field>total</field>
     <field>integrated</field>
     <set>
      <set comment="spin 1">
       <r>   -42.8232     0.0000     0.0000 </r>
       <r>   -42.6389     0.0000     0.0000 </r>
       <r>   -42.4546     0.0000     0.0000 </r>
       <r>   -42.2703     0.0000     0.0000 </r>
       <r>   -42.0860     0.0000     0.0000 </r>
       <r>   -41.9017     0.0000     0.0000 </r>
       <r>   -41.7174     0.0000     0.0000 </r>
       <r>   -41.5331     0.0000     0.0000 </r>
       <r>   -41.3488     0.0000     0.0000 </r>
       <r>   -41.1645     0.0000     0.0000 </r>
       <r>   -40.9802     0.0000     0.0000 </r>
       <r>   -40.7958     0.0000     0.0000 </r>
       <r>   -40.6115     0.0000     0.0000 </r>
       <r>   -40.4272     0.0000     0.0000 </r>
       <r>   -40.2429     0.0000     2.0000 </r>
       <r>   -40.0586     0.0000     6.0000 </r>
       <r>   -39.8743     0.0000     6.0000 </r>
       <r>   -39.6900     0.0000     8.0000 </r>
       <r>   -39.5057     0.0000    10.0000 </r>
       <r>   -39.3214     0.0000    10.0000 </r>
       <r>   -39.1371     0.0000    12.0000 </r>
       <r>   -38.9528     0.0000    12.0000 </r>
       <r>   -38.7685     0.0000    12.0000 </r>
       <r>   -38.5842     0.0000    12.0000 </r>
       <r>   -38.3999     0.0000    12.0000 </r>
       <r>   -38.2156     0.0000    12.0000 </r>
       <r>   -38.0313     0.0000    12.0000 </r>
       <r>   -37.8470     0.0000    12.0000 </r>
       <r>   -37.6627     0.0000    12.0000 </r>
       <r>   -37.4784     0.0000    12.0000 </r>
       <r>   -37.2941     0.0000    12.0000 </r>
       <r>   -37.1098     0.0000    12.0000 </r>
       <r>   -36.9255     0.0000    12.0000 </r>
       <r>   -36.7412     0.0000    12.0000 </r>
       <r>   -36.5569     0.0000    12.0000 </r>
       <r>   -36.3726     0.0000    12.0000 </r>
       <r>   -36.1883     0.0000    12.0000 </r>
       <r>   -36.0040     0.0000    12.0000 </r>
       <r>   -35.8197     0.0000    12.0000 </r>
       <r>   -35.6354     0.0000    12.0000 </r>
       <r>   -35.4511     0.0000    12.0000 </r>
       <r>   -35.2668     0.0000    12.0000 </r>
       <r>   -35.0825     0.0000    12.0000 </r>
       <r>   -34.8982     0.0000    12.0000 </r>
       <r>   -34.7138     0.0000    12.0000 </r>
       <r>   -34.5295     0.0000    12.0000 </r>
       <r>   -34.3452     0.0000    12.0000 </r>
       <r>   -34.1609     0.0000    12.0000 </r>
       <r>   -33.9766     0.0000    12.0000 </r>
       <r>   -33.7923     0.0000    12.0000 </r>
       <r>   -33.6080     0.0000    12.0000 </r>
       <r>   -33.4237     0.0000    12.0000 </r>
       <r>   -33.2394     0.0000    12.0000 </r>
       <r>   -33.0551     0.0000    12.0000 </r>
       <r>   -32.8708     0.0000    12.0000 </r>
       <r>   -32.6865     0.0000    12.0000 </r>
       <r>   -32.5022     0.0000    12.0000 </r>
       <r>   -32.3179     0.0000    12.0000 </r>
       <r>   -32.1336     0.0000    12.0000 </r>
       <r>   -31.9493     0.0000    12.0000 </r>
       <r>   -31.7650     0.0000    12.0000 </r>
       <r>   -31.5807     0.0000    12.0000 </r>
       <r>   -31.3964     0.0000    12.0000 </r>
       <r>   -31.2121     0.0000    12.0000 </r>
       <r>   -31.0278     0.0000    12.0000 </r>
       <r>   -30.8435     0.0000    12.0000 </r>
       <r>   -30.6592     0.0000    12.0000 </r>
       <r>   -30.4749     0.0000    12.0000 </r>
       <r>   -30.2906     0.0000    12.0000 </r>
       <r>   -30.1063     0.0000    12.0000 </r>
       <r>   -29.9220     0.0000    12.0000 </r>
       <r>   -29.7377     0.0000    12.0000 </r>
       <r>   -29.5534     0.0000    12.0000 </r>
       <r>   -29.3691     0.0000    12.0000 </r>
       <r>   -29.1848     0.0000    12.0000 </r>
       <r>   -29.0005     0.0000    12.0000 </r>
       <r>   -28.8162     0.0000    12.0000 </r>
       <r>   -28.6318     0.0000    12.0000 </r>
       <r>   -28.4475     0.0000    12.0000 </r>
       <r>   -28.2632     0.0000    12.0000 </r>
       <r>   -28.0789     0.0000    12.0000 </r>
       <r>   -27.8946     0.0000    12.0000 </r>
       <r>   -27.7103     0.0000    12.0000 </r>
       <r>   -27.5260     0.0000    12.0000 </r>
       <r>   -27.3417     0.0000    12.0000 </r>
       <r>   -27.1574     0.0000    12.0000 </r>
       <r>   -26.9731     0.0000    12.0000 </r>
       <r>   -26.7888     0.0000    12.0000 </r>
       <r>   -26.6045     0.0000    12.0000 </r>
       <r>   -26.4202     0.0000    12.0000 </r>
       <r>   -26.2359     0.0000    12.0000 </r>
       <r>   -26.0516     0.0000    12.0000 </r>
       <r>   -25.8673     0.0000    12.0000 </r>
       <r>   -25.6830     0.0000    12.0000 </r>
       <r>   -25.4987     0.0000    12.0000 </r>
       <r>   -25.3144     0.0000    12.0000 </r>
       <r>   -25.1301     0.0000    12.0000 </r>
       <r>   -24.9458     0.0000    12.0000 </r>
       <r>   -24.7615     0.0000    12.0000 </r>
       <r>   -24.5772     0.0000    12.0000 </r>
       <r>   -24.3929     0.0000    12.0000 </r>
       <r>   -24.2086     0.0000    12.0000 </r>
       <r>   -24.0243     0.0000    12.0000 </r>
       <r>   -23.8400     0.0000    12.0000 </r>
       <r>   -23.6557     0.0000    12.0000 </r>
       <r>   -23.4714     0.0000    12.0000 </r>
       <r>   -23.2871     0.0000    12.0000 </r>
       <r>   -23.1028     0.0000    12.0000 </r>
       <r>   -22.9185     0.0000    12.0000 </r>
       <r>   -22.7342     0.0000    12.0000 </r>
       <r>   -22.5498     0.0000    12.0000 </r>
       <r>   -22.3655     0.0000    12.0000 </r>
       <r>   -22.1812     0.0000    12.0000 </r>
       <r>   -21.9969     0.0000    12.0000 </r>
       <r>   -21.8126     0.0000    12.0000 </r>
       <r>   -21.6283     0.0000    12.0000 </r>
       <r>   -21.4440     0.0000    12.0000 </r>
       <r>   -21.2597     0.0000    12.0000 </r>
       <r>   -21.0754     0.0000    12.0000 </r>
       <r>   -20.8911     0.0000    12.0000 </r>
       <r>   -20.7068     0.0000    12.0000 </r>
       <r>   -20.5225     0.0000    12.0000 </r>
       <r>   -20.3382     0.0000    12.0000 </r>
       <r>   -20.1539     0.0000    12.0000 </r>
       <r>   -19.9696     0.0000    12.0000 </r>
       <r>   -19.7853     0.0000    12.0000 </r>
       <r>   -19.6010     0.0000    12.0000 </r>
       <r>   -19.4167     0.0000    12.0000 </r>
       <r>   -19.2324     0.0000    12.0000 </r>
       <r>   -19.0481     0.0000    12.0000 </r>
       <r>   -18.8638     0.0000    28.0000 </r>
       <r>   -18.6795  2142.0856    71.7804 </r>
       <r>   -18.4952     0.0000   124.0000 </r>
       <r>   -18.3109     0.0000   156.0000 </r>
       <r>   -18.1266     0.0000   172.0000 </r>
       <r>   -17.9423     0.0000   172.0000 </r>
       <r>   -17.7580     0.0000   172.0000 </r>
       <r>   -17.5737     0.0000   172.0000 </r>
       <r>   -17.3894     0.0000   172.0000 </r>
       <r>   -17.2051     0.0000   172.0000 </r>
       <r>   -17.0208     0.0000   172.0000 </r>
       <r>   -16.8365     0.0000   172.0000 </r>
       <r>   -16.6522     0.0000   172.0000 </r>
       <r>   -16.4678     0.0000   172.0000 </r>
       <r>   -16.2835     0.0000   172.0000 </r>
       <r>   -16.0992     0.0000   172.0000 </r>
       <r>   -15.9149     0.0000   172.0000 </r>
       <r>   -15.7306     0.0000   172.0000 </r>
       <r>   -15.5463     0.0000   172.0000 </r>
       <r>   -15.3620     0.0000   172.0000 </r>
       <r>   -15.1777     0.0000   172.0000 </r>
       <r>   -14.9934     0.0000   172.0000 </r>
       <r>   -14.8091     0.0000   172.0000 </r>
       <r>   -14.6248     0.0000   172.0000 </r>
       <r>   -14.4405     0.0000   172.0000 </r>
       <r>   -14.2562     0.0000   172.0000 </r>
       <r>   -14.0719     0.0000   172.0000 </r>
       <r>   -13.8876     0.0000   172.0000 </r>
       <r>   -13.7033     0.0000   172.0000 </r>
       <r>   -13.5190     0.0000   174.0000 </r>
       <r>   -13.3347     0.0000   180.0000 </r>
       <r>   -13.1504     0.0000   180.0000 </r>
       <r>   -12.9661     0.0000   180.0000 </r>
       <r>   -12.7818    82.2217   185.6327 </r>
       <r>   -12.5975     0.0000   194.0000 </r>
       <r>   -12.4132     0.0000   196.0000 </r>
       <r>   -12.2289     0.0000   196.0000 </r>
       <r>   -12.0446     0.0000   200.0000 </r>
       <r>   -11.8603     0.0000   204.0000 </r>
       <r>   -11.6760     0.0000   204.0000 </r>
       <r>   -11.4917     0.0000   204.0000 </r>
       <r>   -11.3074     0.0000   204.0000 </r>
       <r>   -11.1231     0.0000   204.0000 </r>
       <r>   -10.9388     0.0000   204.0000 </r>
       <r>   -10.7545     0.0000   204.0000 </r>
       <r>   -10.5701     0.0000   204.0000 </r>
       <r>   -10.3858     0.0000   204.0000 </r>
       <r>   -10.2015     0.0000   204.0000 </r>
       <r>   -10.0172     0.0000   204.0000 </r>
       <r>    -9.8329     0.0000   204.0000 </r>
       <r>    -9.6486     0.0000   204.0000 </r>
       <r>    -9.4643     0.0000   204.0000 </r>
       <r>    -9.2800     5.6773   204.2126 </r>
       <r>    -9.0957    20.9336   206.2193 </r>
       <r>    -8.9114     9.3309   208.1286 </r>
       <r>    -8.7271    13.1325   211.1354 </r>
       <r>    -8.5428    15.5975   213.3596 </r>
       <r>    -8.3585    25.7156   218.3756 </r>
       <r>    -8.1742    19.7092   221.3709 </r>
       <r>    -7.9899    22.6893   226.2071 </r>
       <r>    -7.8056    15.2009   229.5876 </r>
       <r>    -7.6213    22.2903   232.9104 </r>
       <r>    -7.4370     5.9072   235.8457 </r>
       <r>    -7.2527     0.0000   236.0000 </r>
       <r>    -7.0684     0.0000   236.0000 </r>
       <r>    -6.8841     0.0000   236.0000 </r>
       <r>    -6.6998     0.0000   236.0000 </r>
       <r>    -6.5155     0.0000   236.0000 </r>
       <r>    -6.3312     6.5758   236.2054 </r>
       <r>    -6.1469    25.7643   239.2731 </r>
       <r>    -5.9626    12.5089   243.5866 </r>
       <r>    -5.7783    31.6737   247.0262 </r>
       <r>    -5.5940    17.4754   251.5174 </r>
       <r>    -5.4097    22.6491   255.0218 </r>
       <r>    -5.2254    13.8938   258.6705 </r>
       <r>    -5.0411     2.3189   259.9875 </r>
       <r>    -4.8568     8.0279   260.9923 </r>
       <r>    -4.6725     9.3390   262.5340 </r>
       <r>    -4.4881     8.4074   264.3672 </r>
       <r>    -4.3038     7.0159   265.6127 </r>
       <r>    -4.1195     5.9211   266.9071 </r>
       <r>    -3.9352     2.6105   267.6921 </r>
       <r>    -3.7509     0.7140   267.9592 </r>
       <r>    -3.5666     0.0000   268.0000 </r>
       <r>    -3.3823     0.0000   268.0000 </r>
       <r>    -3.1980     0.0000   268.0000 </r>
       <r>    -3.0137     0.0000   268.0000 </r>
       <r>    -2.8294     0.0000   268.0000 </r>
       <r>    -2.6451     0.0000   268.0000 </r>
       <r>    -2.4608     0.0000   268.0000 </r>
       <r>    -2.2765     0.0000   268.0000 </r>
       <r>    -2.0922     0.0000   268.0000 </r>
       <r>    -1.9079     0.0000   268.0000 </r>
       <r>    -1.7236     0.0000   268.0000 </r>
       <r>    -1.5393     0.0003   268.0000 </r>
       <r>    -1.3550     3.0152   268.2033 </r>
       <r>    -1.1707    11.7025   269.5544 </r>
       <r>    -0.9864    13.5051   271.7037 </r>
       <r>    -0.8021     9.3370   274.0373 </r>
       <r>    -0.6178     6.2856   275.3389 </r>
       <r>    -0.4335    16.5452   277.6700 </r>
       <r>    -0.2492    25.3794   281.5521 </r>
       <r>    -0.0649    49.7623   288.8629 </r>
       <r>     0.1194    36.3097   295.8576 </r>
       <r>     0.3037    30.0211   301.7562 </r>
       <r>     0.4880    31.5045   308.6923 </r>
       <r>     0.6723    52.7106   315.5479 </r>
       <r>     0.8566    33.9424   322.0790 </r>
       <r>     1.0409    55.7388   329.5635 </r>
       <r>     1.2252    44.5916   338.0458 </r>
       <r>     1.4095    46.1963   347.2184 </r>
       <r>     1.5939    65.5841   357.4665 </r>
       <r>     1.7782    42.4843   365.8176 </r>
       <r>     1.9625    33.2687   371.8018 </r>
       <r>     2.1468    43.0488   378.4419 </r>
       <r>     2.3311    51.6870   387.1541 </r>
       <r>     2.5154    65.3005   397.5482 </r>
       <r>     2.6997    52.9113   408.6199 </r>
       <r>     2.8840    62.8023   419.3368 </r>
       <r>     3.0683    55.8195   431.2340 </r>
       <r>     3.2526    38.4537   439.3280 </r>
       <r>     3.4369    40.4314   445.9210 </r>
       <r>     3.6212    11.9110   452.4496 </r>
       <r>     3.8055    20.7354   455.8171 </r>
       <r>     3.9898    10.6684   458.7773 </r>
       <r>     4.1741     1.9967   459.9346 </r>
       <r>     4.3584     0.0000   460.0000 </r>
       <r>     4.5427     0.0000   460.0000 </r>
       <r>     4.7270     0.0000   460.0000 </r>
       <r>     4.9113     0.0000   460.0000 </r>
       <r>     5.0956     0.7074   460.0290 </r>
       <r>     5.2799     3.4683   460.3636 </r>
       <r>     5.4642     7.6215   461.3854 </r>
       <r>     5.6485     9.7240   463.0735 </r>
       <r>     5.8328    27.1563   466.4538 </r>
       <r>     6.0171    13.1019   469.5236 </r>
       <r>     6.2014    11.7149   471.7564 </r>
       <r>     6.3857    13.3968   474.0485 </r>
       <r>     6.5700    15.3863   476.7014 </r>
       <r>     6.7543    17.4243   479.7210 </r>
       <r>     6.9386    20.5938   483.1892 </r>
       <r>     7.1229    26.4742   487.4826 </r>
       <r>     7.3072    37.2527   493.2811 </r>
       <r>     7.4915    30.6954   500.0089 </r>
       <r>     7.6759    39.8539   505.2747 </r>
       <r>     7.8602    45.7019   513.6121 </r>
       <r>     8.0445    30.0840   520.7317 </r>
       <r>     8.2288    19.8074   525.1402 </r>
       <r>     8.4131    21.1342   528.8242 </r>
       <r>     8.5974    25.2901   533.1022 </r>
       <r>     8.7817    48.2538   538.6800 </r>
       <r>     8.9660    30.3135   546.3846 </r>
       <r>     9.1503    17.9112   550.7060 </r>
       <r>     9.3346    14.5540   553.6432 </r>
       <r>     9.5189    15.2502   556.4745 </r>
       <r>     9.7032     7.3071   559.0576 </r>
       <r>     9.8875     0.8670   559.9806 </r>
       <r>    10.0718     0.0000   560.0000 </r>
       <r>    10.2561     0.0000   560.0000 </r>
       <r>    10.4404     0.0000   560.0000 </r>
       <r>    10.6247     0.0000   560.0000 </r>
       <r>    10.8090     0.0000   560.0000 </r>
       <r>    10.9933     0.0000   560.0000 </r>
       <r>    11.1776     0.0000   560.0000 </r>
       <r>    11.3619     0.0000   560.0000 </r>
       <r>    11.5462     0.0000   560.0000 </r>
       <r>    11.7305     0.0000   560.0000 </r>
       <r>    11.9148     0.0000   560.0000 </r>
       <r>    12.0991     0.0000   560.0000 </r>
       <r>    12.2834     0.0000   560.0000 </r>
       <r>    12.4677     0.0000   560.0000 </r>
      </set>
     </set>
    </array>
   </total>
  </dos>
 </calculation>
 <structure name="finalpos" >
  <crystal>
   <varray name="basis" >
    <v>      11.17850000       0.00000000       0.00000000 </v>
    <v>       0.00000000       9.57460000       0.00000000 </v>
    <v>       0.00000000       0.00000000      11.18240000 </v>
   </varray>
   <i name="volume">   1196.84853820 </i>
   <varray name="rec_basis" >
    <v>       0.08945744       0.00000000       0.00000000 </v>
    <v>       0.00000000       0.10444301       0.00000000 </v>
    <v>       0.00000000       0.00000000       0.08942624 </v>
   </varray>
  </crystal>
  <varray name="positions" >
   <v>       0.37539000       0.00017000       0.43687000 </v>
   <v>       0.37461000       0.00017000       0.68687000 </v>
   <v>       0.62539000       0.99984000       0.93687000 </v>
   <v>       0.87539000       0.00017000       0.93687000 </v>
   <v>       0.62461000       0.99984000       0.68687000 </v>
   <v>       0.87461000       0.00017000       0.68687000 </v>
   <v>       0.12461000       0.99984000       0.18687000 </v>
   <v>       0.87539000       0.00017000       0.43687000 </v>
   <v>       0.62461000       0.99984000       0.18687000 </v>
   <v>       0.37539000       0.00017000       0.93687000 </v>
   <v>       0.12461000       0.99984000       0.68687000 </v>
   <v>       0.00013000       0.29519000       0.06281000 </v>
   <v>       0.25013000       0.70481000       0.06281000 </v>
   <v>       0.24987000       0.29519000       0.31282000 </v>
   <v>       0.49987000       0.70481000       0.31282000 </v>
   <v>       0.50013000       0.29519000       0.06281000 </v>
   <v>       0.75013000       0.70481000       0.06281000 </v>
   <v>       0.74987000       0.29519000       0.31282000 </v>
   <v>       0.99987000       0.70481000       0.31282000 </v>
   <v>       0.00013000       0.29519000       0.56281000 </v>
   <v>       0.25013000       0.70481000       0.56281000 </v>
   <v>       0.24987000       0.29519000       0.81282000 </v>
   <v>       0.49987000       0.70481000       0.81282000 </v>
   <v>       0.50013000       0.29519000       0.56281000 </v>
   <v>       0.75013000       0.70481000       0.56281000 </v>
   <v>       0.74987000       0.29519000       0.81282000 </v>
   <v>       0.99987000       0.70481000       0.81282000 </v>
   <v>       0.25005000       0.32677000       0.06286000 </v>
   <v>       0.00005000       0.67323000       0.06286000 </v>
   <v>       0.49995000       0.32677000       0.31286000 </v>
   <v>       0.24995000       0.67323000       0.31286000 </v>
   <v>       0.75005000       0.32677000       0.06286000 </v>
   <v>       0.50005000       0.67323000       0.06286000 </v>
   <v>       0.99995000       0.32677000       0.31286000 </v>
   <v>       0.74995000       0.67323000       0.31286000 </v>
   <v>       0.25005000       0.32677000       0.56286000 </v>
   <v>       0.00005000       0.67323000       0.56286000 </v>
   <v>       0.49995000       0.32677000       0.81286000 </v>
   <v>       0.24995000       0.67323000       0.81286000 </v>
   <v>       0.75005000       0.32677000       0.56286000 </v>
   <v>       0.50005000       0.67323000       0.56286000 </v>
   <v>       0.99995000       0.32677000       0.81286000 </v>
   <v>       0.74995000       0.67323000       0.81286000 </v>
   <v>       0.49987000       0.07798000       0.06246000 </v>
   <v>       0.24987000       0.92202000       0.06246000 </v>
   <v>       0.25013000       0.07798000       0.31246000 </v>
   <v>       0.00013000       0.92202000       0.31246000 </v>
   <v>       0.99987000       0.07798000       0.06246000 </v>
   <v>       0.74987000       0.92202000       0.06246000 </v>
   <v>       0.75013000       0.07798000       0.31246000 </v>
   <v>       0.50013000       0.92202000       0.31246000 </v>
   <v>       0.49987000       0.07798000       0.56246000 </v>
   <v>       0.24987000       0.92202000       0.56246000 </v>
   <v>       0.25013000       0.07798000       0.81246000 </v>
   <v>       0.00013000       0.92202000       0.81246000 </v>
   <v>       0.99987000       0.07798000       0.56246000 </v>
   <v>       0.74987000       0.92202000       0.56246000 </v>
   <v>       0.75013000       0.07798000       0.81246000 </v>
   <v>       0.50013000       0.92202000       0.81246000 </v>
  </varray>
 </structure>
</modeling>
