<?xml version="1.0" encoding="ISO-8859-1"?>
<modeling>
 <generator>
  <i name="program" type="string">vasp </i>
  <i name="version" type="string">5.4.4.18Apr17-6-g9f103f2a35  </i>
  <i name="subversion" type="string">(build Jul 31 2017 11:33:29) complex            parallel </i>
  <i name="platform" type="string">LinuxIFC </i>
  <i name="date" type="string">2021 09 24 </i>
  <i name="time" type="string">10:42:08 </i>
 </generator>
 <incar>
  <i type="string" name="SYSTEM"> La2O2S</i>
  <i type="string" name="PREC">normal</i>
  <i type="int" name="NELMIN">     4</i>
  <i type="int" name="IBRION">     2</i>
  <i type="int" name="NFREE">    10</i>
  <i name="EDIFF">      0.00000100</i>
  <i name="EDIFFG">     -0.01000000</i>
  <i type="int" name="NSW">   200</i>
  <i type="int" name="ISIF">     3</i>
  <i name="ENCUT">    600.00000000</i>
  <i name="ENAUG">    900.00000000</i>
  <i type="int" name="ISMEAR">    -5</i>
  <i type="logical" name="LWAVE"> F  </i>
  <i type="logical" name="LCHARG"> F  </i>
  <v type="int" name="KPOINT_BSE">    -1     0     0     0</v>
 </incar>
 <structure name="primitive_cell" >
  <crystal>
   <varray name="basis" >
    <v>      11.17850000       0.00000000       0.00000000 </v>
    <v>       0.00000000       9.57460000       0.00000000 </v>
    <v>       0.00000000       0.00000000      11.18240000 </v>
   </varray>
   <i name="volume">   1196.84853820 </i>
   <varray name="rec_basis" >
    <v>       0.08945744       0.00000000       0.00000000 </v>
    <v>       0.00000000       0.10444301       0.00000000 </v>
    <v>       0.00000000       0.00000000       0.08942624 </v>
   </varray>
  </crystal>
  <varray name="positions" >
   <v>       0.37539000       0.00017000       0.43687000 </v>
   <v>      -0.49987000      -0.07798000       0.31246000 </v>
   <v>       0.25013000       0.07798000       0.31246000 </v>
   <v>       0.49987000       0.07798000      -0.43754000 </v>
   <v>       0.24987000      -0.07798000      -0.43754000 </v>
   <v>      -0.37461000      -0.00016000       0.43687000 </v>
   <v>       0.37461000       0.00017000       0.18687000 </v>
   <v>       0.37461000       0.00017000      -0.31313000 </v>
   <v>       0.49987000      -0.29519000       0.31282000 </v>
   <v>       0.24987000       0.29519000       0.31282000 </v>
   <v>      -0.49987000       0.29519000      -0.43719000 </v>
   <v>       0.25013000      -0.29519000      -0.43719000 </v>
   <v>       0.49995000       0.32677000       0.31286000 </v>
   <v>       0.24995000      -0.32677000       0.31286000 </v>
   <v>      -0.49995000      -0.32677000      -0.43714000 </v>
   <v>       0.25005000       0.32677000      -0.43714000 </v>
   <v>      -0.37539000      -0.00016000      -0.31313000 </v>
   <v>      -0.37539000      -0.00016000       0.18687000 </v>
   <v>       0.12461000      -0.00016000       0.18687000 </v>
   <v>       0.12461000      -0.00016000      -0.31313000 </v>
   <v>       0.49987000       0.07798000       0.06246000 </v>
   <v>      -0.24987000       0.07798000       0.31246000 </v>
   <v>      -0.25013000      -0.07798000      -0.43754000 </v>
   <v>       0.24987000      -0.07798000       0.06246000 </v>
   <v>       0.00013000      -0.07798000       0.31246000 </v>
   <v>      -0.49987000      -0.07798000      -0.18754000 </v>
   <v>      -0.00013000       0.07798000      -0.43754000 </v>
   <v>       0.25013000       0.07798000      -0.18754000 </v>
   <v>      -0.49987000       0.29519000       0.06281000 </v>
   <v>      -0.25013000       0.29519000       0.31282000 </v>
   <v>       0.25013000      -0.29519000       0.06281000 </v>
   <v>      -0.24987000      -0.29519000      -0.43719000 </v>
   <v>      -0.00013000      -0.29519000       0.31282000 </v>
   <v>       0.00013000       0.29519000      -0.43719000 </v>
   <v>       0.49987000      -0.29519000      -0.18718000 </v>
   <v>       0.24987000       0.29519000      -0.18718000 </v>
   <v>      -0.49995000      -0.32677000       0.06286000 </v>
   <v>       0.25005000       0.32677000       0.06286000 </v>
   <v>      -0.25005000      -0.32677000       0.31286000 </v>
   <v>      -0.24995000       0.32677000      -0.43714000 </v>
   <v>      -0.00005000       0.32677000       0.31286000 </v>
   <v>       0.00005000      -0.32677000      -0.43714000 </v>
   <v>       0.49995000       0.32677000      -0.18714000 </v>
   <v>       0.24995000      -0.32677000      -0.18714000 </v>
   <v>      -0.12461000       0.00017000       0.43687000 </v>
   <v>       0.37539000       0.00017000      -0.06313000 </v>
   <v>      -0.25013000      -0.07798000       0.06246000 </v>
   <v>      -0.00013000       0.07798000       0.06246000 </v>
   <v>      -0.24987000       0.07798000      -0.18754000 </v>
   <v>       0.00013000      -0.07798000      -0.18754000 </v>
   <v>      -0.12539000       0.00017000      -0.31313000 </v>
   <v>       0.12539000      -0.00016000      -0.06313000 </v>
   <v>      -0.24987000      -0.29519000       0.06281000 </v>
   <v>       0.00013000       0.29519000       0.06281000 </v>
   <v>      -0.25013000       0.29519000      -0.18718000 </v>
   <v>      -0.00013000      -0.29519000      -0.18718000 </v>
   <v>      -0.24995000       0.32677000       0.06286000 </v>
   <v>       0.00005000      -0.32677000       0.06286000 </v>
   <v>      -0.25005000      -0.32677000      -0.18714000 </v>
   <v>      -0.00005000       0.32677000      -0.18714000 </v>
   <v>      -0.12461000       0.00017000      -0.06313000 </v>
  </varray>
 </structure>
 <varray name="primitive_index" >
  <v type="int" >        1 </v>
  <v type="int" >       53 </v>
  <v type="int" >       48 </v>
  <v type="int" >       54 </v>
  <v type="int" >       55 </v>
  <v type="int" >        4 </v>
  <v type="int" >        3 </v>
  <v type="int" >        7 </v>
  <v type="int" >       17 </v>
  <v type="int" >       16 </v>
  <v type="int" >       26 </v>
  <v type="int" >       23 </v>
  <v type="int" >       32 </v>
  <v type="int" >       33 </v>
  <v type="int" >       43 </v>
  <v type="int" >       38 </v>
  <v type="int" >        9 </v>
  <v type="int" >       12 </v>
  <v type="int" >        2 </v>
  <v type="int" >        6 </v>
  <v type="int" >       46 </v>
  <v type="int" >       52 </v>
  <v type="int" >       59 </v>
  <v type="int" >       47 </v>
  <v type="int" >       49 </v>
  <v type="int" >       61 </v>
  <v type="int" >       58 </v>
  <v type="int" >       56 </v>
  <v type="int" >       18 </v>
  <v type="int" >       20 </v>
  <v type="int" >       15 </v>
  <v type="int" >       27 </v>
  <v type="int" >       21 </v>
  <v type="int" >       22 </v>
  <v type="int" >       25 </v>
  <v type="int" >       24 </v>
  <v type="int" >       35 </v>
  <v type="int" >       30 </v>
  <v type="int" >       37 </v>
  <v type="int" >       42 </v>
  <v type="int" >       36 </v>
  <v type="int" >       39 </v>
  <v type="int" >       40 </v>
  <v type="int" >       41 </v>
  <v type="int" >       11 </v>
  <v type="int" >        5 </v>
  <v type="int" >       51 </v>
  <v type="int" >       50 </v>
  <v type="int" >       60 </v>
  <v type="int" >       57 </v>
  <v type="int" >       10 </v>
  <v type="int" >       13 </v>
  <v type="int" >       19 </v>
  <v type="int" >       14 </v>
  <v type="int" >       28 </v>
  <v type="int" >       29 </v>
  <v type="int" >       34 </v>
  <v type="int" >       31 </v>
  <v type="int" >       45 </v>
  <v type="int" >       44 </v>
  <v type="int" >        8 </v>
 </varray>
 <kpoints>
  <generation param="Gamma">
   <v type="int" name="divisions">       2        2        2 </v>
   <v name="usershift">      0.00000000       0.00000000       0.00000000 </v>
   <v name="genvec1">      0.50000000       0.00000000       0.00000000 </v>
   <v name="genvec2">      0.00000000       0.50000000       0.00000000 </v>
   <v name="genvec3">      0.00000000       0.00000000       0.50000000 </v>
   <v name="shift">      0.00000000       0.00000000       0.00000000 </v>
  </generation>
  <varray name="kpointlist" >
   <v>       0.00000000       0.00000000       0.00000000 </v>
   <v>       0.50000000       0.00000000       0.00000000 </v>
   <v>       0.00000000       0.50000000       0.00000000 </v>
   <v>       0.50000000       0.50000000       0.00000000 </v>
   <v>       0.00000000       0.00000000       0.50000000 </v>
   <v>       0.50000000       0.00000000       0.50000000 </v>
   <v>       0.00000000       0.50000000       0.50000000 </v>
   <v>       0.50000000       0.50000000       0.50000000 </v>
  </varray>
  <varray name="weights" >
   <v>       0.12500000 </v>
   <v>       0.12500000 </v>
   <v>       0.12500000 </v>
   <v>       0.12500000 </v>
   <v>       0.12500000 </v>
   <v>       0.12500000 </v>
   <v>       0.12500000 </v>
   <v>       0.12500000 </v>
  </varray>
  <varray name="tetrahedronlist"  type="int" >
   <v type="int" >        2        1        2        4        5 </v>
   <v type="int" >        2        1        3        4        5 </v>
   <v type="int" >        2        3        4        5        7 </v>
   <v type="int" >        2        2        4        5        6 </v>
   <v type="int" >        2        4        5        6        8 </v>
   <v type="int" >        2        4        5        7        8 </v>
   <v type="int" >        2        1        2        3        6 </v>
   <v type="int" >        2        2        3        4        6 </v>
   <v type="int" >        2        3        4        6        8 </v>
   <v type="int" >        2        1        3        5        6 </v>
   <v type="int" >        2        3        5        6        7 </v>
   <v type="int" >        2        3        6        7        8 </v>
   <v type="int" >        2        2        3        4        7 </v>
   <v type="int" >        2        1        2        3        7 </v>
   <v type="int" >        2        1        2        5        7 </v>
   <v type="int" >        2        2        4        7        8 </v>
   <v type="int" >        2        2        6        7        8 </v>
   <v type="int" >        2        2        5        6        7 </v>
   <v type="int" >        2        1        3        4        8 </v>
   <v type="int" >        2        1        2        4        8 </v>
   <v type="int" >        2        1        2        6        8 </v>
   <v type="int" >        2        1        3        7        8 </v>
   <v type="int" >        2        1        5        7        8 </v>
   <v type="int" >        2        1        5        6        8 </v>
  </varray>
  <i name="volumeweight">      0.02083333 </i>
 </kpoints>
 <parameters>
  <separator name="general" >
   <i type="string" name="SYSTEM">La2O2S</i>
   <i type="logical" name="LCOMPAT"> F  </i>
  </separator>
  <separator name="electronic" >
   <i type="string" name="PREC">normal</i>
   <i name="ENMAX">    600.00000000</i>
   <i name="ENAUG">    900.00000000</i>
   <i name="EDIFF">      0.00000100</i>
   <i type="int" name="IALGO">    38</i>
   <i type="int" name="IWAVPR">    11</i>
   <i type="int" name="NBANDS">   280</i>
   <i name="NELECT">    468.00000000</i>
   <i type="int" name="TURBO">     0</i>
   <i type="int" name="IRESTART">     0</i>
   <i type="int" name="NREBOOT">     0</i>
   <i type="int" name="NMIN">     0</i>
   <i name="EREF">      0.00000000</i>
   <separator name="electronic smearing" >
    <i type="int" name="ISMEAR">    -5</i>
    <i name="SIGMA">      0.20000000</i>
    <i name="KSPACING">      0.50000000</i>
    <i type="logical" name="KGAMMA"> T  </i>
   </separator>
   <separator name="electronic projectors" >
    <i type="logical" name="LREAL"> F  </i>
    <v name="ROPT">      0.00000000      0.00000000      0.00000000      0.00000000      0.00000000</v>
    <i type="int" name="LMAXPAW">  -100</i>
    <i type="int" name="LMAXMIX">     2</i>
    <i type="logical" name="NLSPLINE"> F  </i>
   </separator>
   <separator name="electronic startup" >
    <i type="int" name="ISTART">     0</i>
    <i type="int" name="ICHARG">     2</i>
    <i type="int" name="INIWAV">     1</i>
   </separator>
   <separator name="electronic spin" >
    <i type="int" name="ISPIN">     1</i>
    <i type="logical" name="LNONCOLLINEAR"> F  </i>
    <v name="MAGMOM">      1.00000000      1.00000000      1.00000000      1.00000000      1.00000000      1.00000000      1.00000000      1.00000000      1.00000000      1.00000000      1.00000000      1.00000000      1.00000000      1.00000000      1.00000000      1.00000000      1.00000000      1.00000000      1.00000000      1.00000000
      1.00000000      1.00000000      1.00000000      1.00000000      1.00000000      1.00000000      1.00000000      1.00000000      1.00000000      1.00000000      1.00000000      1.00000000      1.00000000      1.00000000      1.00000000      1.00000000      1.00000000      1.00000000      1.00000000      1.00000000
      1.00000000      1.00000000      1.00000000      1.00000000      1.00000000      1.00000000      1.00000000      1.00000000      1.00000000      1.00000000      1.00000000      1.00000000      1.00000000      1.00000000      1.00000000      1.00000000      1.00000000      1.00000000      1.00000000      1.00000000
      1.00000000</v>
    <i name="NUPDOWN">     -1.00000000</i>
    <i type="logical" name="LSORBIT"> F  </i>
    <v name="SAXIS">      0.00000000      0.00000000      1.00000000</v>
    <i type="logical" name="LSPIRAL"> F  </i>
    <v name="QSPIRAL">      0.00000000      0.00000000      0.00000000</v>
    <i type="logical" name="LZEROZ"> F  </i>
   </separator>
   <separator name="electronic exchange-correlation" >
    <i type="logical" name="LASPH"> F  </i>
    <i type="logical" name="LMETAGGA"> F  </i>
   </separator>
   <separator name="electronic convergence" >
    <i type="int" name="NELM">    60</i>
    <i type="int" name="NELMDL">    -5</i>
    <i type="int" name="NELMIN">     4</i>
    <i name="ENINI">    600.00000000</i>
    <separator name="electronic convergence detail" >
     <i type="logical" name="LDIAG"> T  </i>
     <i type="logical" name="LSUBROT"> F  </i>
     <i name="WEIMIN">      0.00100000</i>
     <i name="EBREAK">      0.00000000</i>
     <i name="DEPER">      0.30000000</i>
     <i type="int" name="NRMM">     4</i>
     <i name="TIME">      0.40000000</i>
    </separator>
   </separator>
   <separator name="electronic mixer" >
    <i name="AMIX">      0.40000000</i>
    <i name="BMIX">      1.00000000</i>
    <i name="AMIN">      0.10000000</i>
    <i name="AMIX_MAG">      1.60000000</i>
    <i name="BMIX_MAG">      1.00000000</i>
    <separator name="electronic mixer details" >
     <i type="int" name="IMIX">     4</i>
     <i type="logical" name="MIXFIRST"> F  </i>
     <i type="int" name="MAXMIX">   -45</i>
     <i name="WC">    100.00000000</i>
     <i type="int" name="INIMIX">     1</i>
     <i type="int" name="MIXPRE">     1</i>
     <i type="int" name="MREMOVE">     5</i>
    </separator>
   </separator>
   <separator name="electronic dipolcorrection" >
    <i type="logical" name="LDIPOL"> F  </i>
    <i type="logical" name="LMONO"> F  </i>
    <i type="int" name="IDIPOL">     0</i>
    <i name="EPSILON">      1.00000000</i>
    <v name="DIPOL">   -100.00000000   -100.00000000   -100.00000000</v>
    <i name="EFIELD">      0.00000000</i>
   </separator>
  </separator>
  <separator name="grids" >
   <i type="int" name="NGX">    70</i>
   <i type="int" name="NGY">    60</i>
   <i type="int" name="NGZ">    70</i>
   <i type="int" name="NGXF">   140</i>
   <i type="int" name="NGYF">   120</i>
   <i type="int" name="NGZF">   140</i>
   <i type="logical" name="ADDGRID"> F  </i>
  </separator>
  <separator name="ionic" >
   <i type="int" name="NSW">   200</i>
   <i type="int" name="IBRION">     2</i>
   <i type="int" name="MDALGO">     0</i>
   <i type="int" name="ISIF">     3</i>
   <i name="PSTRESS">      0.00000000</i>
   <i name="EDIFFG">     -0.01000000</i>
   <i type="int" name="NFREE">    10</i>
   <i name="POTIM">      0.50000000</i>
   <i name="SMASS">     -3.00000000</i>
   <i name="SCALEE">      1.00000000</i>
  </separator>
  <separator name="ionic md" >
   <i name="TEBEG">      0.00010000</i>
   <i name="TEEND">      0.00010000</i>
   <i type="int" name="NBLOCK">     1</i>
   <i type="int" name="KBLOCK">   200</i>
   <i type="int" name="NPACO">   256</i>
   <i name="APACO">     16.00000000</i>
  </separator>
  <separator name="symmetry" >
   <i type="int" name="ISYM">     2</i>
   <i name="SYMPREC">      0.00001000</i>
  </separator>
  <separator name="dos" >
   <i type="int" name="LORBIT">     0</i>
   <v name="RWIGS">     -1.00000000     -1.00000000     -1.00000000     -1.00000000     -1.00000000</v>
   <i type="int" name="NEDOS">   301</i>
   <i name="EMIN">     10.00000000</i>
   <i name="EMAX">    -10.00000000</i>
   <i name="EFERMI">      0.00000000</i>
  </separator>
  <separator name="writing" >
   <i type="int" name="NWRITE">     2</i>
   <i type="logical" name="LWAVE"> F  </i>
   <i type="logical" name="LDOWNSAMPLE"> F  </i>
   <i type="logical" name="LCHARG"> F  </i>
   <i type="logical" name="LPARD"> F  </i>
   <i type="logical" name="LVTOT"> F  </i>
   <i type="logical" name="LVHAR"> F  </i>
   <i type="logical" name="LELF"> F  </i>
   <i type="logical" name="LOPTICS"> F  </i>
   <v name="STM">      0.00000000      0.00000000      0.00000000      0.00000000      0.00000000      0.00000000      0.00000000</v>
  </separator>
  <separator name="performance" >
   <i type="int" name="NPAR">    28</i>
   <i type="int" name="NSIM">     4</i>
   <i type="int" name="NBLK">    -1</i>
   <i type="logical" name="LPLANE"> T  </i>
   <i type="logical" name="LSCALAPACK"> T  </i>
   <i type="logical" name="LSCAAWARE"> F  </i>
   <i type="logical" name="LSCALU"> F  </i>
   <i type="logical" name="LASYNC"> F  </i>
   <i type="logical" name="LORBITALREAL"> F  </i>
  </separator>
  <separator name="miscellaneous" >
   <i type="int" name="IDIOT">     3</i>
   <i type="int" name="ISPECIAL">     0</i>
   <i type="logical" name="LMUSIC"> F  </i>
   <v name="POMASS">      7.01000000     24.30500000    208.98000000     32.06600000     16.00000000</v>
   <v name="DARWINR">      0.00000000      0.00000000      0.00000000      0.00000000      0.00000000</v>
   <v name="DARWINV">      1.00000000      1.00000000      1.00000000      1.00000000      1.00000000</v>
   <i type="logical" name="LCORR"> T  </i>
  </separator>
  <i type="logical" name="GGA_COMPAT"> T  </i>
  <i type="logical" name="LBERRY"> F  </i>
  <i type="int" name="ICORELEVEL">     0</i>
  <i type="logical" name="LDAU"> F  </i>
  <i type="int" name="I_CONSTRAINED_M">     0</i>
  <separator name="electronic exchange-correlation" >
   <i type="string" name="GGA">--</i>
   <i type="int" name="VOSKOWN">     0</i>
   <i type="logical" name="LHFCALC"> F  </i>
   <i type="string" name="PRECFOCK"></i>
   <i type="logical" name="LSYMGRAD"> F  </i>
   <i type="logical" name="LHFONE"> F  </i>
   <i type="logical" name="LRHFCALC"> F  </i>
   <i type="logical" name="LTHOMAS"> F  </i>
   <i type="logical" name="LMODELHF"> F  </i>
   <i name="ENCUT4O">     -1.00000000</i>
   <i type="int" name="EXXOEP">     0</i>
   <i type="int" name="FOURORBIT">     0</i>
   <i name="AEXX">      0.00000000</i>
   <i name="HFALPHA">      0.00000000</i>
   <i name="MCALPHA">      0.00000000</i>
   <i name="ALDAX">      1.00000000</i>
   <i name="AGGAX">      1.00000000</i>
   <i name="ALDAC">      1.00000000</i>
   <i name="AGGAC">      1.00000000</i>
   <i type="int" name="NKREDX">     1</i>
   <i type="int" name="NKREDY">     1</i>
   <i type="int" name="NKREDZ">     1</i>
   <i type="logical" name="SHIFTRED"> F  </i>
   <i type="logical" name="ODDONLY"> F  </i>
   <i type="logical" name="EVENONLY"> F  </i>
   <i type="int" name="LMAXFOCK">     0</i>
   <i type="int" name="NMAXFOCKAE">     0</i>
   <i type="logical" name="LFOCKAEDFT"> F  </i>
   <i name="HFSCREEN">      0.00000000</i>
   <i name="HFSCREENC">      0.00000000</i>
   <i type="int" name="NBANDSGWLOW">     0</i>
  </separator>
  <separator name="vdW DFT" >
   <i type="logical" name="LUSE_VDW"> F  </i>
   <i name="Zab_VDW">     -0.84910000</i>
   <i name="PARAM1">      0.12340000</i>
   <i name="PARAM2">      1.00000000</i>
   <i name="PARAM3">      0.00000000</i>
  </separator>
  <separator name="model GW" >
   <i type="int" name="MODEL_GW">     0</i>
   <i name="MODEL_EPS0">     11.77228070</i>
   <i name="MODEL_ALPHA">      1.00000000</i>
  </separator>
  <separator name="linear response parameters" >
   <i type="logical" name="LEPSILON"> F  </i>
   <i type="logical" name="LRPA"> F  </i>
   <i type="logical" name="LNABLA"> F  </i>
   <i type="logical" name="LVEL"> F  </i>
   <i type="int" name="KINTER">     0</i>
   <i name="CSHIFT">      0.10000000</i>
   <i name="OMEGAMAX">     -1.00000000</i>
   <i name="DEG_THRESHOLD">      0.00200000</i>
   <i name="RTIME">     -0.10000000</i>
   <i name="WPLASMAI">      0.00000000</i>
   <v name="DFIELD">      0.00000000      0.00000000      0.00000000</v>
   <v name="WPLASMA">      0.00000000      0.00000000      0.00000000      0.00000000      0.00000000      0.00000000      0.00000000      0.00000000      0.00000000</v>
  </separator>
  <separator name="orbital magnetization" >
   <i type="logical" name="NUCIND"> F  </i>
   <v name="MAGPOS">      0.00000000      0.00000000      0.00000000</v>
   <i type="logical" name="LNICSALL"> T  </i>
   <i type="logical" name="ORBITALMAG"> F  </i>
   <i type="logical" name="LMAGBLOCH"> F  </i>
   <i type="logical" name="LCHIMAG"> F  </i>
   <i type="logical" name="LGAUGE"> T  </i>
   <i type="int" name="MAGATOM">     0</i>
   <v name="MAGDIPOL">      0.00000000      0.00000000      0.00000000</v>
   <v name="AVECCONST">      0.00000000      0.00000000      0.00000000</v>
  </separator>
  <separator name="response functions" >
   <i type="logical" name="LADDER"> F  </i>
   <i type="logical" name="LRPAFORCE"> F  </i>
   <i type="logical" name="LFXC"> F  </i>
   <i type="logical" name="LHARTREE"> T  </i>
   <i type="int" name="IBSE">     0</i>
   <v type="int" name="KPOINT">    -1     0     0     0</v>
   <i type="logical" name="LTCTE"> F  </i>
   <i type="logical" name="LTETE"> F  </i>
   <i type="logical" name="LTRIPLET"> F  </i>
   <i type="logical" name="LFXCEPS"> F  </i>
   <i type="logical" name="LFXHEG"> F  </i>
   <i type="int" name="NATURALO">     2</i>
   <i type="logical" name="L2ORDER"> F  </i>
   <i type="logical" name="LMP2LT"> F  </i>
   <i type="logical" name="LUSEW"> F  </i>
   <i name="ENCUTGW">     -2.00000000</i>
   <i name="ENCUTGWSOFT">     -2.00000000</i>
   <i name="ENCUTLF">     -1.00000000</i>
   <i type="int" name="LMAXMP2">    -1</i>
   <i name="SCISSOR">      0.00000000</i>
   <i type="int" name="NOMEGA">     0</i>
   <i type="int" name="NOMEGAR">     0</i>
   <i type="int" name="NBANDSGW">    -1</i>
   <i type="int" name="NBANDSO">    -1</i>
   <i type="int" name="NBANDSV">    -1</i>
   <i type="int" name="NELM">     1</i>
   <i type="int" name="NELMHF">     1</i>
   <i type="int" name="DIM">     3</i>
   <i type="int" name="ANTIRES">     0</i>
   <i name="OMEGAMAX">    -30.00000000</i>
   <i name="OMEGAMIN">    -30.00000000</i>
   <i name="OMEGATL">   -200.00000000</i>
   <i type="int" name="OMEGAGRID">   140</i>
   <i name="CSHIFT">     -0.10000000</i>
   <i type="logical" name="SELFENERGY"> F  </i>
   <i type="logical" name="LSPECTRAL"> F  </i>
   <i type="logical" name="LSPECTRALGW"> F  </i>
   <i type="logical" name="LSINGLES"> F  </i>
   <i type="logical" name="LFERMIGW"> F  </i>
   <i type="logical" name="ODDONLYGW"> F  </i>
   <i type="logical" name="EVENONLYGW"> F  </i>
   <i type="int" name="NKREDLFX">     1</i>
   <i type="int" name="NKREDLFY">     1</i>
   <i type="int" name="NKREDLFZ">     1</i>
   <i type="int" name="MAXMEM">  2800</i>
   <i type="int" name="TELESCOPE">     0</i>
   <i type="int" name="TAUPAR">     1</i>
   <i type="int" name="OMEGAPAR">    -1</i>
   <i name="LAMBDA">      1.00000000</i>
  </separator>
  <separator name="External order field" >
   <i name="OFIELD_KAPPA">      0.00000000</i>
   <v name="OFIELD_K">      0.00000000      0.00000000      0.00000000</v>
   <i name="OFIELD_Q6_NEAR">      0.00000000</i>
   <i name="OFIELD_Q6_FAR">      0.00000000</i>
   <i name="OFIELD_A">      0.00000000</i>
  </separator>
 </parameters>
 <atominfo>
  <atoms>      61 </atoms>
  <types>       5 </types>
  <array name="atoms" >
   <dimension dim="1">ion</dimension>
   <field type="string">element</field>
   <field type="int">atomtype</field>
   <set>
    <rc><c>Li</c><c>   1</c></rc>
    <rc><c>Li</c><c>   1</c></rc>
    <rc><c>Li</c><c>   1</c></rc>
    <rc><c>Li</c><c>   1</c></rc>
    <rc><c>Li</c><c>   1</c></rc>
    <rc><c>Li</c><c>   1</c></rc>
    <rc><c>Li</c><c>   1</c></rc>
    <rc><c>Li</c><c>   1</c></rc>
    <rc><c>Li</c><c>   1</c></rc>
    <rc><c>Li</c><c>   1</c></rc>
    <rc><c>Mg</c><c>   2</c></rc>
    <rc><c>Mg</c><c>   2</c></rc>
    <rc><c>Mg</c><c>   2</c></rc>
    <rc><c>Bi</c><c>   3</c></rc>
    <rc><c>Bi</c><c>   3</c></rc>
    <rc><c>Bi</c><c>   3</c></rc>
    <rc><c>Bi</c><c>   3</c></rc>
    <rc><c>Bi</c><c>   3</c></rc>
    <rc><c>Bi</c><c>   3</c></rc>
    <rc><c>Bi</c><c>   3</c></rc>
    <rc><c>Bi</c><c>   3</c></rc>
    <rc><c>Bi</c><c>   3</c></rc>
    <rc><c>Bi</c><c>   3</c></rc>
    <rc><c>Bi</c><c>   3</c></rc>
    <rc><c>Bi</c><c>   3</c></rc>
    <rc><c>Bi</c><c>   3</c></rc>
    <rc><c>Bi</c><c>   3</c></rc>
    <rc><c>Bi</c><c>   3</c></rc>
    <rc><c>Bi</c><c>   3</c></rc>
    <rc><c>S </c><c>   4</c></rc>
    <rc><c>S </c><c>   4</c></rc>
    <rc><c>S </c><c>   4</c></rc>
    <rc><c>S </c><c>   4</c></rc>
    <rc><c>S </c><c>   4</c></rc>
    <rc><c>S </c><c>   4</c></rc>
    <rc><c>S </c><c>   4</c></rc>
    <rc><c>S </c><c>   4</c></rc>
    <rc><c>S </c><c>   4</c></rc>
    <rc><c>S </c><c>   4</c></rc>
    <rc><c>S </c><c>   4</c></rc>
    <rc><c>S </c><c>   4</c></rc>
    <rc><c>S </c><c>   4</c></rc>
    <rc><c>S </c><c>   4</c></rc>
    <rc><c>S </c><c>   4</c></rc>
    <rc><c>S </c><c>   4</c></rc>
    <rc><c>O </c><c>   5</c></rc>
    <rc><c>O </c><c>   5</c></rc>
    <rc><c>O </c><c>   5</c></rc>
    <rc><c>O </c><c>   5</c></rc>
    <rc><c>O </c><c>   5</c></rc>
    <rc><c>O </c><c>   5</c></rc>
    <rc><c>O </c><c>   5</c></rc>
    <rc><c>O </c><c>   5</c></rc>
    <rc><c>O </c><c>   5</c></rc>
    <rc><c>O </c><c>   5</c></rc>
    <rc><c>O </c><c>   5</c></rc>
    <rc><c>O </c><c>   5</c></rc>
    <rc><c>O </c><c>   5</c></rc>
    <rc><c>O </c><c>   5</c></rc>
    <rc><c>O </c><c>   5</c></rc>
    <rc><c>O </c><c>   5</c></rc>
   </set>
  </array>
  <array name="atomtypes" >
   <dimension dim="1">type</dimension>
   <field type="int">atomspertype</field>
   <field type="string">element</field>
   <field>mass</field>
   <field>valence</field>
   <field type="string">pseudopotential</field>
   <set>
    <rc><c>  10</c><c>Li</c><c>      7.01000000</c><c>      3.00000000</c><c>  PAW_PBE Li_sv 10Sep2004               </c></rc>
    <rc><c>   3</c><c>Mg</c><c>     24.30500000</c><c>      2.00000000</c><c>  PAW_PBE Mg 13Apr2007                  </c></rc>
    <rc><c>  16</c><c>Bi</c><c>    208.98000000</c><c>     15.00000000</c><c>  PAW_PBE Bi_d 06Sep2000                </c></rc>
    <rc><c>  16</c><c>S </c><c>     32.06600000</c><c>      6.00000000</c><c>  PAW_PBE S 06Sep2000                   </c></rc>
    <rc><c>  16</c><c>O </c><c>     16.00000000</c><c>      6.00000000</c><c>  PAW_PBE O 08Apr2002                   </c></rc>
   </set>
  </array>
 </atominfo>
 <structure name="initialpos" >
  <crystal>
   <varray name="basis" >
    <v>      11.17850000       0.00000000       0.00000000 </v>
    <v>       0.00000000       9.57460000       0.00000000 </v>
    <v>       0.00000000       0.00000000      11.18240000 </v>
   </varray>
   <i name="volume">   1196.84853820 </i>
   <varray name="rec_basis" >
    <v>       0.08945744       0.00000000       0.00000000 </v>
    <v>       0.00000000       0.10444301       0.00000000 </v>
    <v>       0.00000000       0.00000000       0.08942624 </v>
   </varray>
  </crystal>
  <varray name="positions" >
   <v>       0.37539000       0.00017000       0.43687000 </v>
   <v>       0.12461000       0.99984000       0.18687000 </v>
   <v>       0.37461000       0.00017000       0.18687000 </v>
   <v>       0.62539000       0.99984000       0.43687000 </v>
   <v>       0.37539000       0.00017000       0.93687000 </v>
   <v>       0.12461000       0.99984000       0.68687000 </v>
   <v>       0.37461000       0.00017000       0.68687000 </v>
   <v>       0.87539000       0.00017000       0.93687000 </v>
   <v>       0.62461000       0.99984000       0.68687000 </v>
   <v>       0.87461000       0.00017000       0.68687000 </v>
   <v>       0.87539000       0.00017000       0.43687000 </v>
   <v>       0.62461000       0.99984000       0.18687000 </v>
   <v>       0.12539000       0.99984000       0.93687000 </v>
   <v>       0.00013000       0.29519000       0.06281000 </v>
   <v>       0.25013000       0.70481000       0.06281000 </v>
   <v>       0.24987000       0.29519000       0.31282000 </v>
   <v>       0.49987000       0.70481000       0.31282000 </v>
   <v>       0.50013000       0.29519000       0.06281000 </v>
   <v>       0.75013000       0.70481000       0.06281000 </v>
   <v>       0.74987000       0.29519000       0.31282000 </v>
   <v>       0.99987000       0.70481000       0.31282000 </v>
   <v>       0.00013000       0.29519000       0.56281000 </v>
   <v>       0.25013000       0.70481000       0.56281000 </v>
   <v>       0.24987000       0.29519000       0.81282000 </v>
   <v>       0.49987000       0.70481000       0.81282000 </v>
   <v>       0.50013000       0.29519000       0.56281000 </v>
   <v>       0.75013000       0.70481000       0.56281000 </v>
   <v>       0.74987000       0.29519000       0.81282000 </v>
   <v>       0.99987000       0.70481000       0.81282000 </v>
   <v>       0.25005000       0.32677000       0.06286000 </v>
   <v>       0.00005000       0.67323000       0.06286000 </v>
   <v>       0.49995000       0.32677000       0.31286000 </v>
   <v>       0.24995000       0.67323000       0.31286000 </v>
   <v>       0.75005000       0.32677000       0.06286000 </v>
   <v>       0.50005000       0.67323000       0.06286000 </v>
   <v>       0.99995000       0.32677000       0.31286000 </v>
   <v>       0.74995000       0.67323000       0.31286000 </v>
   <v>       0.25005000       0.32677000       0.56286000 </v>
   <v>       0.00005000       0.67323000       0.56286000 </v>
   <v>       0.49995000       0.32677000       0.81286000 </v>
   <v>       0.24995000       0.67323000       0.81286000 </v>
   <v>       0.75005000       0.32677000       0.56286000 </v>
   <v>       0.50005000       0.67323000       0.56286000 </v>
   <v>       0.99995000       0.32677000       0.81286000 </v>
   <v>       0.74995000       0.67323000       0.81286000 </v>
   <v>       0.49987000       0.07798000       0.06246000 </v>
   <v>       0.24987000       0.92202000       0.06246000 </v>
   <v>       0.25013000       0.07798000       0.31246000 </v>
   <v>       0.00013000       0.92202000       0.31246000 </v>
   <v>       0.99987000       0.07798000       0.06246000 </v>
   <v>       0.74987000       0.92202000       0.06246000 </v>
   <v>       0.75013000       0.07798000       0.31246000 </v>
   <v>       0.50013000       0.92202000       0.31246000 </v>
   <v>       0.49987000       0.07798000       0.56246000 </v>
   <v>       0.24987000       0.92202000       0.56246000 </v>
   <v>       0.25013000       0.07798000       0.81246000 </v>
   <v>       0.00013000       0.92202000       0.81246000 </v>
   <v>       0.99987000       0.07798000       0.56246000 </v>
   <v>       0.74987000       0.92202000       0.56246000 </v>
   <v>       0.75013000       0.07798000       0.81246000 </v>
   <v>       0.50013000       0.92202000       0.81246000 </v>
  </varray>
 </structure>
 <calculation>
  <scstep>
   <time name="dav">   60.59   60.72</time>
   <time name="total">   60.68   60.82</time>
   <energy>
    <i name="alphaZ">   1073.51873187 </i>
    <i name="ewald"> -30880.27722261 </i>
    <i name="hartreedc"> -12708.98592255 </i>
    <i name="XCdc">   1394.98758952 </i>
    <i name="pawpsdc">  36823.70205594 </i>
    <i name="pawaedc"> -36326.52930246 </i>
    <i name="eentropy">      0.00000000 </i>
    <i name="bandstr">   1803.56817896 </i>
    <i name="atom">  44791.06186932 </i>
    <i name="e_fr_energy">   5971.04597799 </i>
    <i name="e_wo_entrp">   5971.04597799 </i>
    <i name="e_0_energy">   5971.04597799 </i>
   </energy>
  </scstep>
  <scstep>
   <time name="dav">   60.34   60.36</time>
   <time name="total">   60.34   60.37</time>
   <energy>
    <i name="e_fr_energy">    817.89257751 </i>
    <i name="e_wo_entrp">    817.89257751 </i>
    <i name="e_0_energy">    817.89257751 </i>
   </energy>
  </scstep>
  <scstep>
   <time name="dav">   69.01   69.14</time>
   <time name="total">   69.01   69.14</time>
   <energy>
    <i name="e_fr_energy">   -237.75771971 </i>
    <i name="e_wo_entrp">   -237.75771971 </i>
    <i name="e_0_energy">   -237.75771971 </i>
   </energy>
  </scstep>
  <scstep>
   <time name="dav">   73.15   73.36</time>
   <time name="total">   73.16   73.36</time>
   <energy>
    <i name="e_fr_energy">   -346.14867860 </i>
    <i name="e_wo_entrp">   -346.14867860 </i>
    <i name="e_0_energy">   -346.14867860 </i>
   </energy>
  </scstep>
  <scstep>
   <time name="dav">   96.68   96.89</time>
   <time name="total">   97.43   97.65</time>
   <energy>
    <i name="e_fr_energy">   -354.73198639 </i>
    <i name="e_wo_entrp">   -354.73198639 </i>
    <i name="e_0_energy">   -354.73198639 </i>
   </energy>
  </scstep>
  <scstep>
   <time name="dav">   85.71   85.83</time>
   <time name="total">   86.53   86.66</time>
   <energy>
    <i name="e_fr_energy">   -296.00330449 </i>
    <i name="e_wo_entrp">   -296.00330449 </i>
    <i name="e_0_energy">   -296.00330449 </i>
   </energy>
  </scstep>
  <scstep>
   <time name="dav">   66.36   66.47</time>
   <time name="total">   67.19   67.30</time>
   <energy>
    <i name="e_fr_energy">   -298.73638793 </i>
    <i name="e_wo_entrp">   -298.73638793 </i>
    <i name="e_0_energy">   -298.73638793 </i>
   </energy>
  </scstep>
  <scstep>
   <time name="dav">   78.59   78.81</time>
   <time name="total">   79.41   79.64</time>
   <energy>
    <i name="e_fr_energy">   -297.47966523 </i>
    <i name="e_wo_entrp">   -297.47966523 </i>
    <i name="e_0_energy">   -297.47966523 </i>
   </energy>
  </scstep>
  <scstep>
   <time name="dav">   74.34   74.41</time>
   <time name="total">   75.17   75.24</time>
   <energy>
    <i name="e_fr_energy">   -296.85265273 </i>
    <i name="e_wo_entrp">   -296.85265273 </i>
    <i name="e_0_energy">   -296.85265273 </i>
   </energy>
  </scstep>
  <scstep>
   <time name="dav">   73.41   73.49</time>
   <time name="total">   74.23   74.31</time>
   <energy>
    <i name="e_fr_energy">   -296.87756255 </i>
    <i name="e_wo_entrp">   -296.87756255 </i>
    <i name="e_0_energy">   -296.87756255 </i>
   </energy>
  </scstep>
  <scstep>
   <time name="dav">   80.76   80.86</time>
   <time name="total">   81.58   81.69</time>
   <energy>
    <i name="e_fr_energy">   -296.88388348 </i>
    <i name="e_wo_entrp">   -296.88388348 </i>
    <i name="e_0_energy">   -296.88388348 </i>
   </energy>
  </scstep>
  <scstep>
   <time name="dav">   82.15   82.23</time>
   <time name="total">   82.97   83.05</time>
   <energy>
    <i name="e_fr_energy">   -296.88797670 </i>
    <i name="e_wo_entrp">   -296.88797670 </i>
    <i name="e_0_energy">   -296.88797670 </i>
   </energy>
  </scstep>
  <scstep>
   <time name="dav">   72.28   72.29</time>
   <time name="total">   73.10   73.11</time>
   <energy>
    <i name="e_fr_energy">   -296.88896880 </i>
    <i name="e_wo_entrp">   -296.88896880 </i>
    <i name="e_0_energy">   -296.88896880 </i>
   </energy>
  </scstep>
  <scstep>
   <time name="dav">   78.76   78.76</time>
   <time name="total">   79.58   79.58</time>
   <energy>
    <i name="e_fr_energy">   -296.88922613 </i>
    <i name="e_wo_entrp">   -296.88922613 </i>
    <i name="e_0_energy">   -296.88922613 </i>
   </energy>
  </scstep>
  <scstep>
   <time name="dav">   79.61   79.62</time>
   <time name="total">   80.43   80.44</time>
   <energy>
    <i name="e_fr_energy">   -296.88927848 </i>
    <i name="e_wo_entrp">   -296.88927848 </i>
    <i name="e_0_energy">   -296.88927848 </i>
   </energy>
  </scstep>
  <scstep>
   <time name="dav">   68.44   68.46</time>
   <time name="total">   69.24   69.28</time>
   <energy>
    <i name="e_fr_energy">   -296.88930083 </i>
    <i name="e_wo_entrp">   -296.88930083 </i>
    <i name="e_0_energy">   -296.88930083 </i>
   </energy>
  </scstep>
  <scstep>
   <time name="dav">   69.54   69.69</time>
   <time name="total">   70.36   70.51</time>
   <energy>
    <i name="e_fr_energy">   -296.88930417 </i>
    <i name="e_wo_entrp">   -296.88930417 </i>
    <i name="e_0_energy">   -296.88930417 </i>
   </energy>
  </scstep>
  <scstep>
   <time name="dav">   59.07   59.18</time>
   <time name="total">   59.88   60.01</time>
   <energy>
    <i name="e_fr_energy">   -296.88930556 </i>
    <i name="e_wo_entrp">   -296.88930556 </i>
    <i name="e_0_energy">   -296.88930556 </i>
   </energy>
  </scstep>
  <scstep>
   <time name="dav">   47.83   47.93</time>
   <time name="total">   47.91   48.01</time>
   <energy>
    <i name="alphaZ">   1073.51873187 </i>
    <i name="ewald"> -30880.27722261 </i>
    <i name="hartreedc"> -12943.51014783 </i>
    <i name="XCdc">   1418.48399317 </i>
    <i name="pawpsdc">  43853.13014949 </i>
    <i name="pawaedc"> -43330.80313493 </i>
    <i name="eentropy">      0.00000000 </i>
    <i name="bandstr">  -4278.49354366 </i>
    <i name="atom">  44791.06186932 </i>
    <i name="e_fr_energy">   -296.88930518 </i>
    <i name="e_wo_entrp">   -296.88930518 </i>
    <i name="e_0_energy">   -296.88930518 </i>
   </energy>
  </scstep>
  <structure>
   <crystal>
    <varray name="basis" >
     <v>      11.17850000       0.00000000       0.00000000 </v>
     <v>       0.00000000       9.57460000       0.00000000 </v>
     <v>       0.00000000       0.00000000      11.18240000 </v>
    </varray>
    <i name="volume">   1196.84853820 </i>
    <varray name="rec_basis" >
     <v>       0.08945744       0.00000000       0.00000000 </v>
     <v>       0.00000000       0.10444301       0.00000000 </v>
     <v>       0.00000000       0.00000000       0.08942624 </v>
    </varray>
   </crystal>
   <varray name="positions" >
    <v>       0.37539000       0.00017000       0.43687000 </v>
    <v>       0.12461000       0.99984000       0.18687000 </v>
    <v>       0.37461000       0.00017000       0.18687000 </v>
    <v>       0.62539000       0.99984000       0.43687000 </v>
    <v>       0.37539000       0.00017000       0.93687000 </v>
    <v>       0.12461000       0.99984000       0.68687000 </v>
    <v>       0.37461000       0.00017000       0.68687000 </v>
    <v>       0.87539000       0.00017000       0.93687000 </v>
    <v>       0.62461000       0.99984000       0.68687000 </v>
    <v>       0.87461000       0.00017000       0.68687000 </v>
    <v>       0.87539000       0.00017000       0.43687000 </v>
    <v>       0.62461000       0.99984000       0.18687000 </v>
    <v>       0.12539000       0.99984000       0.93687000 </v>
    <v>       0.00013000       0.29519000       0.06281000 </v>
    <v>       0.25013000       0.70481000       0.06281000 </v>
    <v>       0.24987000       0.29519000       0.31282000 </v>
    <v>       0.49987000       0.70481000       0.31282000 </v>
    <v>       0.50013000       0.29519000       0.06281000 </v>
    <v>       0.75013000       0.70481000       0.06281000 </v>
    <v>       0.74987000       0.29519000       0.31282000 </v>
    <v>       0.99987000       0.70481000       0.31282000 </v>
    <v>       0.00013000       0.29519000       0.56281000 </v>
    <v>       0.25013000       0.70481000       0.56281000 </v>
    <v>       0.24987000       0.29519000       0.81282000 </v>
    <v>       0.49987000       0.70481000       0.81282000 </v>
    <v>       0.50013000       0.29519000       0.56281000 </v>
    <v>       0.75013000       0.70481000       0.56281000 </v>
    <v>       0.74987000       0.29519000       0.81282000 </v>
    <v>       0.99987000       0.70481000       0.81282000 </v>
    <v>       0.25005000       0.32677000       0.06286000 </v>
    <v>       0.00005000       0.67323000       0.06286000 </v>
    <v>       0.49995000       0.32677000       0.31286000 </v>
    <v>       0.24995000       0.67323000       0.31286000 </v>
    <v>       0.75005000       0.32677000       0.06286000 </v>
    <v>       0.50005000       0.67323000       0.06286000 </v>
    <v>       0.99995000       0.32677000       0.31286000 </v>
    <v>       0.74995000       0.67323000       0.31286000 </v>
    <v>       0.25005000       0.32677000       0.56286000 </v>
    <v>       0.00005000       0.67323000       0.56286000 </v>
    <v>       0.49995000       0.32677000       0.81286000 </v>
    <v>       0.24995000       0.67323000       0.81286000 </v>
    <v>       0.75005000       0.32677000       0.56286000 </v>
    <v>       0.50005000       0.67323000       0.56286000 </v>
    <v>       0.99995000       0.32677000       0.81286000 </v>
    <v>       0.74995000       0.67323000       0.81286000 </v>
    <v>       0.49987000       0.07798000       0.06246000 </v>
    <v>       0.24987000       0.92202000       0.06246000 </v>
    <v>       0.25013000       0.07798000       0.31246000 </v>
    <v>       0.00013000       0.92202000       0.31246000 </v>
    <v>       0.99987000       0.07798000       0.06246000 </v>
    <v>       0.74987000       0.92202000       0.06246000 </v>
    <v>       0.75013000       0.07798000       0.31246000 </v>
    <v>       0.50013000       0.92202000       0.31246000 </v>
    <v>       0.49987000       0.07798000       0.56246000 </v>
    <v>       0.24987000       0.92202000       0.56246000 </v>
    <v>       0.25013000       0.07798000       0.81246000 </v>
    <v>       0.00013000       0.92202000       0.81246000 </v>
    <v>       0.99987000       0.07798000       0.56246000 </v>
    <v>       0.74987000       0.92202000       0.56246000 </v>
    <v>       0.75013000       0.07798000       0.81246000 </v>
    <v>       0.50013000       0.92202000       0.81246000 </v>
   </varray>
  </structure>
  <varray name="forces" >
   <v>      -0.59006371       0.06484978       0.09904525 </v>
   <v>      -0.41193638       0.06632666       0.91129444 </v>
   <v>      -0.38816718       0.18887213       0.08694370 </v>
   <v>      -0.32547990       0.06268216       0.32469468 </v>
   <v>       0.91052756      -0.06951976      -0.08293355 </v>
   <v>       0.09644925      -0.06794448      -0.91179049 </v>
   <v>       0.08829585      -0.19569609      -0.08105561 </v>
   <v>      -0.91643193       0.06585199       0.42362053 </v>
   <v>      -0.08488777       0.06499083       0.58731225 </v>
   <v>      -0.07461781       0.18854172       0.40078116 </v>
   <v>       1.15316873      -0.12350555      -0.77273275 </v>
   <v>       0.82904123      -0.11383725      -1.14535542 </v>
   <v>      -0.23881288       0.11237209       0.25010668 </v>
   <v>      -0.27935688       0.04542544       0.26776367 </v>
   <v>       0.08250424      -1.06025717       0.18111784 </v>
   <v>      -0.17697030      -0.98269098       0.21317997 </v>
   <v>      -0.20464238      -1.05610461       0.10149194 </v>
   <v>       0.12545580       0.01636080      -0.30213131 </v>
   <v>       0.04730795       1.03329760      -0.18278754 </v>
   <v>       0.21384931       0.98523464      -0.21709016 </v>
   <v>       0.18861298       1.02242582      -0.05705350 </v>
   <v>       0.28782715       0.00833692      -0.13660990 </v>
   <v>      -0.09066631       0.99623671      -0.21271457 </v>
   <v>       0.20152007       1.05696788      -0.19855089 </v>
   <v>       0.21787892       1.00125889       0.07868431 </v>
   <v>      -0.11322184       0.02867863       0.10493721 </v>
   <v>      -0.10786917      -1.04943834       0.20723412 </v>
   <v>      -0.21234196      -0.98344893       0.17850199 </v>
   <v>      -0.18214252      -1.06406146      -0.09284319 </v>
   <v>      -0.04994400       0.14668793      -0.23040475 </v>
   <v>       0.25559070      -0.10854539      -0.25504635 </v>
   <v>       0.21913113       0.14610688      -0.03680757 </v>
   <v>       0.20488412      -0.15818585      -0.20043923 </v>
   <v>      -0.05208276       0.10929605       0.21499716 </v>
   <v>      -0.16131901      -0.12219824       0.23607824 </v>
   <v>      -0.21572655       0.10810528       0.04998946 </v>
   <v>      -0.20121471      -0.08664569       0.20299073 </v>
   <v>       0.01535957       0.15787835       0.20044662 </v>
   <v>      -0.23415615      -0.12363397       0.15936614 </v>
   <v>      -0.20071095       0.15849802      -0.01600700 </v>
   <v>      -0.23321924      -0.13241323       0.23284575 </v>
   <v>       0.03502336       0.14723722      -0.21954523 </v>
   <v>       0.18541687      -0.19603219      -0.18784902 </v>
   <v>       0.23128318       0.14536635       0.04993635 </v>
   <v>       0.20171201      -0.15866220      -0.20552023 </v>
   <v>      -0.25979515      -0.00375036       1.21378790 </v>
   <v>      -0.46974790       0.81000542      -0.64267413 </v>
   <v>       0.72525226       0.75430541      -0.73162630 </v>
   <v>      -0.61118563      -0.91555582       0.50470625 </v>
   <v>       1.23123773      -0.12473504      -1.22495799 </v>
   <v>      -0.50326885      -0.92042239       0.61067168 </v>
   <v>      -0.77669242      -0.67992889       0.74936692 </v>
   <v>       0.62060971       0.81243926      -0.47208677 </v>
   <v>       0.15663852      -0.02688131      -0.15344759 </v>
   <v>       0.58943065      -0.76675018       0.73746309 </v>
   <v>      -0.63063671      -0.82032056       0.62280389 </v>
   <v>       0.63283763       0.80919636       0.47081172 </v>
   <v>      -1.21327939      -0.00364792       0.25486453 </v>
   <v>       0.48274046       0.81406835      -0.64083399 </v>
   <v>       0.72529219       0.75523287      -0.73158973 </v>
   <v>      -0.74429077      -0.76832059      -0.58535138 </v>
  </varray>
  <varray name="stress" >
   <v>      -7.28580308       0.27434070       2.02935987 </v>
   <v>       0.27434065     -13.99346343      -0.38459570 </v>
   <v>       2.02935973      -0.38459574      -7.91241027 </v>
  </varray>
  <energy>
   <i name="e_fr_energy">   -311.59036820 </i>
   <i name="e_wo_entrp">   -311.59036820 </i>
   <i name="e_0_energy">      0.00000000 </i>
  </energy>
  <time name="totalsc"> 1507.16 1509.26</time>
 </calculation>
 <calculation>
  <scstep>
   <time name="dav">   62.62   62.65</time>
   <time name="total">   63.43   63.46</time>
   <energy>
    <i name="alphaZ">   1092.25454983 </i>
    <i name="ewald"> -31049.95129392 </i>
    <i name="hartreedc"> -13020.07408171 </i>
    <i name="XCdc">   1428.62768743 </i>
    <i name="pawpsdc">  43853.07007523 </i>
    <i name="pawaedc"> -43330.74496731 </i>
    <i name="eentropy">      0.00000000 </i>
    <i name="bandstr">  -4060.88295639 </i>
    <i name="atom">  44791.06186932 </i>
    <i name="e_fr_energy">   -296.63911753 </i>
    <i name="e_wo_entrp">   -296.63911753 </i>
    <i name="e_0_energy">   -296.63911753 </i>
   </energy>
  </scstep>
  <scstep>
   <time name="dav">   69.46   69.47</time>
   <time name="total">   70.27   70.28</time>
   <energy>
    <i name="e_fr_energy">   -298.15388192 </i>
    <i name="e_wo_entrp">   -298.15388192 </i>
    <i name="e_0_energy">   -298.15388192 </i>
   </energy>
  </scstep>
  <scstep>
   <time name="dav">   90.38   90.38</time>
   <time name="total">   91.19   91.20</time>
   <energy>
    <i name="e_fr_energy">   -297.96120167 </i>
    <i name="e_wo_entrp">   -297.96120167 </i>
    <i name="e_0_energy">   -297.96120167 </i>
   </energy>
  </scstep>
  <scstep>
   <time name="dav">   82.10   82.11</time>
   <time name="total">   82.91   82.92</time>
   <energy>
    <i name="e_fr_energy">   -297.87409345 </i>
    <i name="e_wo_entrp">   -297.87409345 </i>
    <i name="e_0_energy">   -297.87409345 </i>
   </energy>
  </scstep>
  <scstep>
   <time name="dav">   72.95   72.96</time>
   <time name="total">   73.76   73.77</time>
   <energy>
    <i name="e_fr_energy">   -297.87839328 </i>
    <i name="e_wo_entrp">   -297.87839328 </i>
    <i name="e_0_energy">   -297.87839328 </i>
   </energy>
  </scstep>
  <scstep>
   <time name="dav">   82.98   83.00</time>
   <time name="total">   83.80   83.82</time>
   <energy>
    <i name="e_fr_energy">   -297.87718091 </i>
    <i name="e_wo_entrp">   -297.87718091 </i>
    <i name="e_0_energy">   -297.87718091 </i>
   </energy>
  </scstep>
  <scstep>
   <time name="dav">   70.89   70.89</time>
   <time name="total">   71.71   71.71</time>
   <energy>
    <i name="e_fr_energy">   -297.87703446 </i>
    <i name="e_wo_entrp">   -297.87703446 </i>
    <i name="e_0_energy">   -297.87703446 </i>
   </energy>
  </scstep>
  <scstep>
   <time name="dav">   94.29   94.32</time>
   <time name="total">   95.11   95.13</time>
   <energy>
    <i name="e_fr_energy">   -297.87707759 </i>
    <i name="e_wo_entrp">   -297.87707759 </i>
    <i name="e_0_energy">   -297.87707759 </i>
   </energy>
  </scstep>
  <scstep>
   <time name="dav">   66.77   66.82</time>
   <time name="total">   67.58   67.63</time>
   <energy>
    <i name="e_fr_energy">   -297.87712120 </i>
    <i name="e_wo_entrp">   -297.87712120 </i>
    <i name="e_0_energy">   -297.87712120 </i>
   </energy>
  </scstep>
  <scstep>
   <time name="dav">   83.22   83.32</time>
   <time name="total">   84.03   84.13</time>
   <energy>
    <i name="e_fr_energy">   -297.87713064 </i>
    <i name="e_wo_entrp">   -297.87713064 </i>
    <i name="e_0_energy">   -297.87713064 </i>
   </energy>
  </scstep>
  <scstep>
   <time name="dav">   67.18   67.18</time>
   <time name="total">   67.99   68.00</time>
   <energy>
    <i name="e_fr_energy">   -297.87713112 </i>
    <i name="e_wo_entrp">   -297.87713112 </i>
    <i name="e_0_energy">   -297.87713112 </i>
   </energy>
  </scstep>
  <scstep>
   <time name="dav">   59.89   59.90</time>
   <time name="total">   59.97   59.98</time>
   <energy>
    <i name="alphaZ">   1092.25454983 </i>
    <i name="ewald"> -31049.95129392 </i>
    <i name="hartreedc"> -12861.97115406 </i>
    <i name="XCdc">   1421.37539736 </i>
    <i name="pawpsdc">  44231.73387582 </i>
    <i name="pawaedc"> -43712.46405316 </i>
    <i name="eentropy">      0.00000000 </i>
    <i name="bandstr">  -4209.91632190 </i>
    <i name="atom">  44791.06186932 </i>
    <i name="e_fr_energy">   -297.87713072 </i>
    <i name="e_wo_entrp">   -297.87713072 </i>
    <i name="e_0_energy">   -297.87713072 </i>
   </energy>
  </scstep>
  <structure>
   <crystal>
    <varray name="basis" >
     <v>      11.13038384       0.00181177       0.01340209 </v>
     <v>       0.00155182       9.49544546      -0.00217548 </v>
     <v>       0.01340677      -0.00254079      11.13012744 </v>
    </varray>
    <i name="volume">   1176.31858358 </i>
    <varray name="rec_basis" >
     <v>       0.08984429      -0.00001471      -0.00010823 </v>
     <v>      -0.00001717       0.10531366       0.00002406 </v>
     <v>      -0.00010819       0.00002060       0.08984637 </v>
    </varray>
   </crystal>
   <varray name="positions" >
    <v>       0.37284348       0.00049675       0.43729730 </v>
    <v>       0.12283222       0.00017419       0.19080147 </v>
    <v>       0.37293480       0.00112165       0.18724509 </v>
    <v>       0.62398534       0.00015583       0.43827078 </v>
    <v>       0.37931953      -0.00018028       0.93651221 </v>
    <v>       0.12502624       0.99949765       0.68293639 </v>
    <v>       0.37499106      -0.00081604       0.68652031 </v>
    <v>       0.87143499       0.00050180       0.93869757 </v>
    <v>       0.62424365       0.00016746       0.68940376 </v>
    <v>       0.87428797       0.00111999       0.68859903 </v>
    <v>       0.88036669      -0.00045230       0.43353631 </v>
    <v>       0.62818786       0.99926642       0.18192875 </v>
    <v>       0.12435936       0.00040620       0.93794900 </v>
    <v>      -0.00107561       0.29541888       0.06396518 </v>
    <v>       0.25048606       0.69946778       0.06359137 </v>
    <v>       0.24910626       0.29023861       0.31373969 </v>
    <v>       0.49898683       0.69948870       0.31325785 </v>
    <v>       0.50067143       0.29527244       0.06150656 </v>
    <v>       0.75033417       0.71001638       0.06202143 </v>
    <v>       0.75079290       0.30015421       0.31188344 </v>
    <v>       0.00068399       0.70996160       0.31257386 </v>
    <v>       0.00137217       0.29523201       0.56222064 </v>
    <v>       0.24973871       0.70982965       0.56189232 </v>
    <v>       0.25073969       0.30051565       0.81196342 </v>
    <v>       0.50081029       0.70985495       0.81315946 </v>
    <v>       0.49964137       0.29533450       0.56326272 </v>
    <v>       0.74966447       0.69952229       0.56370404 </v>
    <v>       0.74895360       0.29023479       0.81359009 </v>
    <v>       0.99908393       0.69944861       0.81241946 </v>
    <v>       0.24983446       0.32750910       0.06186600 </v>
    <v>       0.00115304       0.67268308       0.06175969 </v>
    <v>       0.50089570       0.32750618       0.31270121 </v>
    <v>       0.25083421       0.67243296       0.31199527 </v>
    <v>       0.74982523       0.32732070       0.06378753 </v>
    <v>       0.49935380       0.67261429       0.06387848 </v>
    <v>       0.99901900       0.32731470       0.31307566 </v>
    <v>       0.74908162       0.67279343       0.31373573 </v>
    <v>       0.25011629       0.32756549       0.56372476 </v>
    <v>      -0.00096054       0.67260706       0.56354753 </v>
    <v>       0.49908380       0.32756861       0.81279094 </v>
    <v>       0.24894350       0.67256282       0.81386453 </v>
    <v>       0.75020115       0.32751187       0.56191285 </v>
    <v>       0.50085020       0.67224227       0.56204959 </v>
    <v>       0.00094814       0.32750244       0.81307543 </v>
    <v>       0.75082052       0.67243056       0.81197335 </v>
    <v>       0.49874881       0.07796110       0.06769647 </v>
    <v>       0.24784273       0.92610130       0.05968740 </v>
    <v>       0.25325995       0.08178065       0.30930365 </v>
    <v>      -0.00250767       0.91740687       0.31463738 </v>
    <v>       0.00518361       0.07735151       0.05717534 </v>
    <v>       0.74769806       0.91738235       0.06509453 </v>
    <v>       0.74677806       0.07455411       0.31569289 </v>
    <v>       0.50280834       0.92611356       0.31042334 </v>
    <v>       0.50054600       0.07784456       0.56179800 </v>
    <v>       0.25241378       0.91815665       0.56564153 </v>
    <v>       0.24740838       0.07384673       0.81514688 </v>
    <v>       0.00286111       0.92609722       0.81449116 </v>
    <v>       0.99463389       0.07796162       0.56355953 </v>
    <v>       0.75195335       0.92612177       0.55969534 </v>
    <v>       0.75326012       0.08178532       0.80930381 </v>
    <v>       0.49691789       0.91814873       0.80993470 </v>
   </varray>
  </structure>
  <varray name="forces" >
   <v>      -0.29731258       0.03342204      -0.00310055 </v>
   <v>      -0.29468520       0.04075791       0.54873454 </v>
   <v>      -0.20952033       0.09016340       0.02164047 </v>
   <v>      -0.14928510       0.02793132       0.14790351 </v>
   <v>       0.51739652      -0.03040642       0.00718657 </v>
   <v>       0.00519326      -0.03053990      -0.51963837 </v>
   <v>      -0.00598407      -0.10374082       0.01956388 </v>
   <v>      -0.54983713       0.03704056       0.30599258 </v>
   <v>       0.01416581       0.03750387       0.29737586 </v>
   <v>      -0.01120471       0.08944218       0.22242287 </v>
   <v>       0.24649484       0.04579915      -0.32513626 </v>
   <v>       0.36105347       0.04821413      -0.24318207 </v>
   <v>       0.07535380      -0.03000158      -0.06498594 </v>
   <v>      -0.06525845       0.16013147       0.05570887 </v>
   <v>       0.02709378      -0.01248625      -0.01295518 </v>
   <v>      -0.02180996       0.96041260       0.07929209 </v>
   <v>      -0.00212623       0.04424034       0.04133236 </v>
   <v>      -0.02954800       0.27808908      -0.07738946 </v>
   <v>       0.06631303      -1.28314863      -0.06376906 </v>
   <v>      -0.01524367       0.03497640       0.01216732 </v>
   <v>       0.06970451      -1.27684739      -0.06825261 </v>
   <v>       0.06883180       0.27836769       0.02001082 </v>
   <v>      -0.07197495      -1.00333326      -0.06844823 </v>
   <v>       0.01362061      -0.00764480      -0.01155576 </v>
   <v>       0.07202482      -1.00220860       0.06754916 </v>
   <v>       0.03151987       0.26888600      -0.03948455 </v>
   <v>      -0.05059726       0.04365658       0.00267022 </v>
   <v>      -0.07865345       0.96261709       0.02303419 </v>
   <v>       0.01271419      -0.01414019      -0.03803813 </v>
   <v>      -0.04029445       0.24740829      -0.09906141 </v>
   <v>       0.12157588      -0.13144820      -0.12079401 </v>
   <v>       0.09183991       0.25708128      -0.02830538 </v>
   <v>       0.08289202      -0.09602249      -0.09418272 </v>
   <v>      -0.03963298       0.02689955       0.09999687 </v>
   <v>      -0.04590112      -0.13332801       0.11073338 </v>
   <v>      -0.10213268       0.02537584       0.03887960 </v>
   <v>      -0.06586662      -0.18754996       0.06695926 </v>
   <v>       0.01588264       0.09336926       0.09171421 </v>
   <v>      -0.11052481      -0.13383911       0.04473662 </v>
   <v>      -0.09258392       0.09363804      -0.01641043 </v>
   <v>      -0.10240977      -0.24513472       0.10212111 </v>
   <v>       0.02730018       0.25705382      -0.09190541 </v>
   <v>       0.06733480      -0.20017621      -0.06757322 </v>
   <v>       0.09939178       0.24667513       0.03901525 </v>
   <v>       0.09451105      -0.09586221      -0.08405752 </v>
   <v>      -0.16871981      -0.15354914       0.71141686 </v>
   <v>      -0.21053780      -0.30849297      -0.20732597 </v>
   <v>       0.47507971      -1.10277527      -0.50220468 </v>
   <v>      -0.20782374       1.15695292       0.19238294 </v>
   <v>       0.57365777       0.00155177      -0.56753414 </v>
   <v>      -0.19719755       1.16994956       0.20624583 </v>
   <v>      -0.39786274       0.29493699       0.38439266 </v>
   <v>       0.31223148      -0.29895580      -0.34169379 </v>
   <v>      -0.01036440      -0.23466888       0.01314796 </v>
   <v>       0.49261293       1.15275715       0.50220589 </v>
   <v>      -0.21147184       0.32521905       0.20613631 </v>
   <v>       0.19973323      -0.31118154       0.21209279 </v>
   <v>      -0.71438679      -0.15977025       0.16587488 </v>
   <v>       0.35078501      -0.29400476      -0.32407348 </v>
   <v>       0.49575567      -1.10518277      -0.48243850 </v>
   <v>      -0.51131229       1.15591967      -0.49714091 </v>
  </varray>
  <varray name="stress" >
   <v>       5.07745267      -1.18883964      -1.05800705 </v>
   <v>      -1.18884000       9.67965396       1.09892031 </v>
   <v>      -1.05800681       1.09892045       5.09152244 </v>
  </varray>
  <energy>
   <i name="e_fr_energy">   -312.78284557 </i>
   <i name="e_wo_entrp">   -312.78284557 </i>
   <i name="e_0_energy">      0.00000000 </i>
  </energy>
  <time name="totalsc"> 1018.68 1018.96</time>
 </calculation>
 <calculation>
  <scstep>
   <time name="dav">   70.56   70.58</time>
   <time name="total">   71.37   71.39</time>
   <energy>
    <i name="alphaZ">   1091.53501764 </i>
    <i name="ewald"> -31044.03790952 </i>
    <i name="hartreedc"> -12858.60412643 </i>
    <i name="XCdc">   1420.98197197 </i>
    <i name="pawpsdc">  44231.83973926 </i>
    <i name="pawaedc"> -43712.57252620 </i>
    <i name="eentropy">      0.00000000 </i>
    <i name="bandstr">  -4218.09116518 </i>
    <i name="atom">  44791.06186932 </i>
    <i name="e_fr_energy">   -297.88712914 </i>
    <i name="e_wo_entrp">   -297.88712914 </i>
    <i name="e_0_energy">   -297.88712914 </i>
   </energy>
  </scstep>
  <scstep>
   <time name="dav">   69.16   69.18</time>
   <time name="total">   69.97   70.00</time>
   <energy>
    <i name="e_fr_energy">   -297.88822278 </i>
    <i name="e_wo_entrp">   -297.88822278 </i>
    <i name="e_0_energy">   -297.88822278 </i>
   </energy>
  </scstep>
  <scstep>
   <time name="dav">   90.34   90.35</time>
   <time name="total">   91.15   91.16</time>
   <energy>
    <i name="e_fr_energy">   -297.88791289 </i>
    <i name="e_wo_entrp">   -297.88791289 </i>
    <i name="e_0_energy">   -297.88791289 </i>
   </energy>
  </scstep>
  <scstep>
   <time name="dav">   81.26   81.26</time>
   <time name="total">   82.07   82.07</time>
   <energy>
    <i name="e_fr_energy">   -297.88783178 </i>
    <i name="e_wo_entrp">   -297.88783178 </i>
    <i name="e_0_energy">   -297.88783178 </i>
   </energy>
  </scstep>
  <scstep>
   <time name="dav">   76.23   76.23</time>
   <time name="total">   77.04   77.04</time>
   <energy>
    <i name="e_fr_energy">   -297.88782278 </i>
    <i name="e_wo_entrp">   -297.88782278 </i>
    <i name="e_0_energy">   -297.88782278 </i>
   </energy>
  </scstep>
  <scstep>
   <time name="dav">   72.13   72.13</time>
   <time name="total">   72.93   72.94</time>
   <energy>
    <i name="e_fr_energy">   -297.88781787 </i>
    <i name="e_wo_entrp">   -297.88781787 </i>
    <i name="e_0_energy">   -297.88781787 </i>
   </energy>
  </scstep>
  <scstep>
   <time name="dav">   60.78   60.80</time>
   <time name="total">   61.60   61.62</time>
   <energy>
    <i name="e_fr_energy">   -297.88781188 </i>
    <i name="e_wo_entrp">   -297.88781188 </i>
    <i name="e_0_energy">   -297.88781188 </i>
   </energy>
  </scstep>
  <scstep>
   <time name="dav">   50.65   50.67</time>
   <time name="total">   50.73   50.75</time>
   <energy>
    <i name="alphaZ">   1091.53501764 </i>
    <i name="ewald"> -31044.03790952 </i>
    <i name="hartreedc"> -12864.63423895 </i>
    <i name="XCdc">   1421.25955599 </i>
    <i name="pawpsdc">  44215.28472500 </i>
    <i name="pawaedc"> -43695.86929181 </i>
    <i name="eentropy">      0.00000000 </i>
    <i name="bandstr">  -4212.48753910 </i>
    <i name="atom">  44791.06186932 </i>
    <i name="e_fr_energy">   -297.88781143 </i>
    <i name="e_wo_entrp">   -297.88781143 </i>
    <i name="e_0_energy">   -297.88781143 </i>
   </energy>
  </scstep>
  <structure>
   <crystal>
    <varray name="basis" >
     <v>      11.13221068       0.00174298       0.01289325 </v>
     <v>       0.00149290       9.49845074      -0.00209288 </v>
     <v>       0.01289775      -0.00244433      11.13211208 </v>
    </varray>
    <i name="volume">   1177.09400450 </i>
    <varray name="rec_basis" >
     <v>       0.08982954      -0.00001414      -0.00010408 </v>
     <v>      -0.00001651       0.10528033       0.00002314 </v>
     <v>      -0.00010404       0.00001981       0.08983034 </v>
    </varray>
   </crystal>
   <varray name="positions" >
    <v>       0.37294061       0.00048422       0.43728088 </v>
    <v>       0.12290019       0.00016135       0.19065142 </v>
    <v>       0.37299870       0.00108520       0.18723070 </v>
    <v>       0.62403897       0.00014372       0.43821728 </v>
    <v>       0.37916967      -0.00016684       0.93652604 </v>
    <v>       0.12501019       0.99951080       0.68308646 </v>
    <v>       0.37497650      -0.00077828       0.68653368 </v>
    <v>       0.87158588       0.00048905       0.93862767 </v>
    <v>       0.62425774       0.00015490       0.68930709 </v>
    <v>       0.87430034       0.00108360       0.68853306 </v>
    <v>       0.88017676      -0.00042840       0.43366371 </v>
    <v>       0.62805120       0.99928845       0.18211741 </v>
    <v>       0.12439872       0.00038450       0.93790779 </v>
    <v>      -0.00102958       0.29541010       0.06392105 </v>
    <v>       0.25047249       0.69967229       0.06356162 </v>
    <v>       0.24913539       0.29042815       0.31370461 </v>
    <v>       0.49902050       0.69969241       0.31324115 </v>
    <v>       0.50065072       0.29526930       0.06155630 </v>
    <v>       0.75032637       0.70981707       0.06205148 </v>
    <v>       0.75075769       0.29996418       0.31191917 </v>
    <v>       0.00065297       0.70976439       0.31258325 </v>
    <v>       0.00132477       0.29523041       0.56224318 </v>
    <v>       0.24975362       0.70963748       0.56192727 </v>
    <v>       0.25070652       0.30031178       0.81199609 </v>
    <v>       0.50077448       0.70966181       0.81314651 </v>
    <v>       0.49966003       0.29532896       0.56324542 </v>
    <v>       0.74968224       0.69972471       0.56366996 </v>
    <v>       0.74898856       0.29042448       0.81356071 </v>
    <v>       0.99911386       0.69965386       0.81243474 </v>
    <v>       0.24984264       0.32748082       0.06190390 </v>
    <v>       0.00111093       0.67270404       0.06180172 </v>
    <v>       0.50085963       0.32747800       0.31270730 </v>
    <v>       0.25080045       0.67246349       0.31202831 </v>
    <v>       0.74983384       0.32729961       0.06375214 </v>
    <v>       0.49938039       0.67263785       0.06383960 </v>
    <v>       0.99905451       0.32729384       0.31306739 </v>
    <v>       0.74911478       0.67281012       0.31370229 </v>
    <v>       0.25011380       0.32753502       0.56369177 </v>
    <v>      -0.00092198       0.67263089       0.56352126 </v>
    <v>       0.49911683       0.32753803       0.81279353 </v>
    <v>       0.24898193       0.67258835       0.81382617 </v>
    <v>       0.75019535       0.32748348       0.56194898 </v>
    <v>       0.50081964       0.67228010       0.56208055 </v>
    <v>       0.00091009       0.32747441       0.81306726 </v>
    <v>       0.75078728       0.67246118       0.81200722 </v>
    <v>       0.49879180       0.07796177       0.06749667 </v>
    <v>       0.24791992       0.92594507       0.05979304 </v>
    <v>       0.25314047       0.08163520       0.30942416 </v>
    <v>      -0.00240702       0.91758344       0.31455424 </v>
    <v>       0.00498075       0.07737566       0.05737717 </v>
    <v>       0.74778098       0.91755986       0.06499397 </v>
    <v>       0.74690600       0.07468520       0.31556944 </v>
    <v>       0.50270614       0.92595689       0.31050112 </v>
    <v>       0.50052019       0.07784975       0.56182329 </v>
    <v>       0.25231691       0.91830454       0.56552032 </v>
    <v>       0.24751226       0.07400492       0.81504429 </v>
    <v>       0.00275709       0.92594113       0.81441377 </v>
    <v>       0.99483360       0.07796227       0.56351734 </v>
    <v>       0.75187380       0.92596478       0.55980086 </v>
    <v>       0.75314064       0.08163970       0.80942432 </v>
    <v>       0.49704024       0.91829694       0.81003091 </v>
   </varray>
  </structure>
  <varray name="forces" >
   <v>      -0.30873597       0.03449977       0.00055058 </v>
   <v>      -0.29911643       0.04146034       0.56277716 </v>
   <v>      -0.21650407       0.09455134       0.02473255 </v>
   <v>      -0.15555013       0.02948993       0.15420104 </v>
   <v>       0.53234474      -0.03226354       0.00347320 </v>
   <v>       0.00900282      -0.03235302      -0.53460226 </v>
   <v>      -0.00251751      -0.10772561       0.01583927 </v>
   <v>      -0.56403380       0.03787218       0.31043101 </v>
   <v>       0.01063205       0.03843380       0.30866918 </v>
   <v>      -0.01420726       0.09386502       0.22942346 </v>
   <v>       0.28405250       0.03646363      -0.34478596 </v>
   <v>       0.38153287       0.03905539      -0.28061881 </v>
   <v>       0.06036715      -0.02262205      -0.04987880 </v>
   <v>      -0.07356003       0.15652219       0.06389944 </v>
   <v>       0.02941519      -0.04585021      -0.00520021 </v>
   <v>      -0.02615438       0.86821479       0.08288379 </v>
   <v>      -0.01019350       0.00911933       0.04399506 </v>
   <v>      -0.02348441       0.26819987      -0.08604789 </v>
   <v>       0.06415076      -1.17089480      -0.06664837 </v>
   <v>      -0.00598835       0.06614212       0.00288468 </v>
   <v>       0.07254356      -1.16552444      -0.06648731 </v>
   <v>       0.07720101       0.26813557       0.01386834 </v>
   <v>      -0.07146193      -0.90808772      -0.07235527 </v>
   <v>       0.02122579       0.02631068      -0.01913207 </v>
   <v>       0.07592857      -0.90676369       0.06671759 </v>
   <v>       0.02594136       0.25919888      -0.03393654 </v>
   <v>      -0.05313298       0.00869303       0.01092881 </v>
   <v>      -0.08214905       0.87031135       0.02743375 </v>
   <v>       0.00501386      -0.04753823      -0.04039009 </v>
   <v>      -0.04071101       0.24372485      -0.10432261 </v>
   <v>       0.12689745      -0.13087827      -0.12615136 </v>
   <v>       0.09685876       0.25310588      -0.02870166 </v>
   <v>       0.08781384      -0.09869987      -0.09855135 </v>
   <v>      -0.04008428       0.03019917       0.10477233 </v>
   <v>      -0.05052753      -0.13320210       0.11568247 </v>
   <v>      -0.10684695       0.02868171       0.03928404 </v>
   <v>      -0.07114700      -0.18409889       0.07227630 </v>
   <v>       0.01567568       0.09595989       0.09611925 </v>
   <v>      -0.11540332      -0.13374305       0.04934761 </v>
   <v>      -0.09696203       0.09623781      -0.01620196 </v>
   <v>      -0.10759553      -0.24121132       0.10731244 </v>
   <v>       0.02766181       0.25311757      -0.09695872 </v>
   <v>       0.07217909      -0.20024148      -0.07252944 </v>
   <v>       0.10464430       0.24297168       0.03946781 </v>
   <v>       0.09889187      -0.09856596      -0.08898980 </v>
   <v>      -0.17188147      -0.14778023       0.73117675 </v>
   <v>      -0.22200730      -0.27146083      -0.22547351 </v>
   <v>       0.48330320      -1.01477128      -0.50968514 </v>
   <v>      -0.22419426       1.05735281       0.20584193 </v>
   <v>       0.60351221      -0.00645672      -0.59749586 </v>
   <v>      -0.21039786       1.06938474       0.22272198 </v>
   <v>      -0.41318309       0.26243797       0.39911840 </v>
   <v>       0.32427403      -0.26277805      -0.34688340 </v>
   <v>      -0.00397315      -0.22595191       0.00677302 </v>
   <v>       0.49513152       1.06130627       0.50959371 </v>
   <v>      -0.22906886       0.28709443       0.22362116 </v>
   <v>       0.21789223      -0.27404285       0.22361891 </v>
   <v>      -0.73410959      -0.15384591       0.16892977 </v>
   <v>       0.35605744      -0.25791054      -0.33645536 </v>
   <v>       0.50323460      -1.01701272      -0.49064550 </v>
   <v>      -0.51849722       1.06416132      -0.49923755 </v>
  </varray>
  <varray name="stress" >
   <v>       4.55076075      -1.09426334      -0.93713357 </v>
   <v>      -1.09426326       8.38137656       1.00471845 </v>
   <v>      -0.93713393       1.00471858       4.53723912 </v>
  </varray>
  <energy>
   <i name="e_fr_energy">   -312.78553732 </i>
   <i name="e_wo_entrp">   -312.78553732 </i>
   <i name="e_0_energy">      0.00000000 </i>
  </energy>
  <time name="totalsc">  683.82  683.96</time>
 </calculation>
 <calculation>
  <scstep>
   <time name="dav">   60.32   60.35</time>
   <time name="total">   61.13   61.16</time>
   <energy>
    <i name="alphaZ">   1088.73960923 </i>
    <i name="ewald"> -31137.70723645 </i>
    <i name="hartreedc"> -12742.41414421 </i>
    <i name="XCdc">   1419.06014085 </i>
    <i name="pawpsdc">  44215.30702933 </i>
    <i name="pawaedc"> -43695.89254979 </i>
    <i name="eentropy">      0.00000000 </i>
    <i name="bandstr">  -4235.43294604 </i>
    <i name="atom">  44791.06186932 </i>
    <i name="e_fr_energy">   -297.27822778 </i>
    <i name="e_wo_entrp">   -297.27822778 </i>
    <i name="e_0_energy">   -297.27822778 </i>
   </energy>
  </scstep>
  <scstep>
   <time name="dav">   69.45   69.49</time>
   <time name="total">   70.26   70.30</time>
   <energy>
    <i name="e_fr_energy">   -298.42697263 </i>
    <i name="e_wo_entrp">   -298.42697263 </i>
    <i name="e_0_energy">   -298.42697263 </i>
   </energy>
  </scstep>
  <scstep>
   <time name="dav">   92.39   92.44</time>
   <time name="total">   93.20   93.26</time>
   <energy>
    <i name="e_fr_energy">   -298.44229839 </i>
    <i name="e_wo_entrp">   -298.44229839 </i>
    <i name="e_0_energy">   -298.44229839 </i>
   </energy>
  </scstep>
  <scstep>
   <time name="dav">   72.07   72.11</time>
   <time name="total">   72.88   72.93</time>
   <energy>
    <i name="e_fr_energy">   -298.41931529 </i>
    <i name="e_wo_entrp">   -298.41931529 </i>
    <i name="e_0_energy">   -298.41931529 </i>
   </energy>
  </scstep>
  <scstep>
   <time name="dav">   74.76   74.80</time>
   <time name="total">   75.57   75.62</time>
   <energy>
    <i name="e_fr_energy">   -298.40822717 </i>
    <i name="e_wo_entrp">   -298.40822717 </i>
    <i name="e_0_energy">   -298.40822717 </i>
   </energy>
  </scstep>
  <scstep>
   <time name="dav">   75.55   75.62</time>
   <time name="total">   76.36   76.43</time>
   <energy>
    <i name="e_fr_energy">   -298.40883452 </i>
    <i name="e_wo_entrp">   -298.40883452 </i>
    <i name="e_0_energy">   -298.40883452 </i>
   </energy>
  </scstep>
  <scstep>
   <time name="dav">   89.79   90.00</time>
   <time name="total">   90.60   90.82</time>
   <energy>
    <i name="e_fr_energy">   -298.40882688 </i>
    <i name="e_wo_entrp">   -298.40882688 </i>
    <i name="e_0_energy">   -298.40882688 </i>
   </energy>
  </scstep>
  <scstep>
   <time name="dav">   82.13   82.34</time>
   <time name="total">   82.94   83.16</time>
   <energy>
    <i name="e_fr_energy">   -298.40879022 </i>
    <i name="e_wo_entrp">   -298.40879022 </i>
    <i name="e_0_energy">   -298.40879022 </i>
   </energy>
  </scstep>
  <scstep>
   <time name="dav">   72.57   72.72</time>
   <time name="total">   73.38   73.53</time>
   <energy>
    <i name="e_fr_energy">   -298.40880228 </i>
    <i name="e_wo_entrp">   -298.40880228 </i>
    <i name="e_0_energy">   -298.40880228 </i>
   </energy>
  </scstep>
  <scstep>
   <time name="dav">   72.21   72.34</time>
   <time name="total">   73.01   73.15</time>
   <energy>
    <i name="e_fr_energy">   -298.40880461 </i>
    <i name="e_wo_entrp">   -298.40880461 </i>
    <i name="e_0_energy">   -298.40880461 </i>
   </energy>
  </scstep>
  <scstep>
   <time name="dav">   64.77   64.88</time>
   <time name="total">   65.58   65.69</time>
   <energy>
    <i name="e_fr_energy">   -298.40880610 </i>
    <i name="e_wo_entrp">   -298.40880610 </i>
    <i name="e_0_energy">   -298.40880610 </i>
   </energy>
  </scstep>
  <scstep>
   <time name="dav">   65.04   65.14</time>
   <time name="total">   65.11   65.22</time>
   <energy>
    <i name="alphaZ">   1088.73960923 </i>
    <i name="ewald"> -31137.70723645 </i>
    <i name="hartreedc"> -12761.05261171 </i>
    <i name="XCdc">   1419.90032791 </i>
    <i name="pawpsdc">  43978.90367958 </i>
    <i name="pawaedc"> -43456.10406584 </i>
    <i name="eentropy">      0.00000000 </i>
    <i name="bandstr">  -4222.15037892 </i>
    <i name="atom">  44791.06186932 </i>
    <i name="e_fr_energy">   -298.40880689 </i>
    <i name="e_wo_entrp">   -298.40880689 </i>
    <i name="e_0_energy">   -298.40880689 </i>
   </energy>
  </scstep>
  <structure>
   <crystal>
    <varray name="basis" >
     <v>      11.14056291      -0.00448744       0.01269583 </v>
     <v>      -0.00382911       9.51017188       0.00246928 </v>
     <v>       0.01270304       0.00289371      11.13858337 </v>
    </varray>
    <i name="volume">   1180.11626846 </i>
    <varray name="rec_basis" >
     <v>       0.08976220       0.00003617      -0.00010238 </v>
     <v>       0.00004239       0.10515059      -0.00002737 </v>
     <v>      -0.00010232      -0.00002335       0.08977815 </v>
    </varray>
   </crystal>
   <varray name="positions" >
    <v>       0.37049945       0.00080199       0.43747298 </v>
    <v>       0.12083185       0.00051841       0.19479334 </v>
    <v>       0.37133490       0.00197974       0.18750317 </v>
    <v>       0.62275448       0.00043151       0.43949452 </v>
    <v>       0.38317698      -0.00048394       0.93637983 </v>
    <v>       0.12523555       0.99919644       0.67906692 </v>
    <v>       0.37513247      -0.00175398       0.68644853 </v>
    <v>       0.86742884       0.00082685       0.94076676 </v>
    <v>       0.62414046       0.00049296       0.69174272 </v>
    <v>       0.87409634       0.00197405       0.69027620 </v>
    <v>       0.88357718      -0.00051905       0.43071920 </v>
    <v>       0.63125990       0.99923217       0.17874617 </v>
    <v>       0.12420752       0.00051902       0.93816533 </v>
    <v>      -0.00187395       0.29629982       0.06470213 </v>
    <v>       0.25075461       0.69709710       0.06388011 </v>
    <v>       0.24868790       0.29263198       0.31446416 </v>
    <v>       0.49859048       0.69740362       0.31362189 </v>
    <v>       0.50078729       0.29665705       0.06061638 </v>
    <v>       0.75069273       0.70619953       0.06141892 </v>
    <v>       0.75113547       0.30247564       0.31152208 </v>
    <v>       0.00132170       0.70614989       0.31218822 </v>
    <v>       0.00219980       0.29660015       0.56204436 </v>
    <v>       0.24927639       0.70726280       0.56121492 </v>
    <v>       0.25117816       0.30278103       0.81153918 </v>
    <v>       0.50151185       0.70730498       0.81358058 </v>
    <v>       0.49955776       0.29669887       0.56329780 </v>
    <v>       0.74925004       0.69744853       0.56410796 </v>
    <v>       0.74823387       0.29263718       0.81401671 </v>
    <v>       0.99879258       0.69706169       0.81208578 </v>
    <v>       0.24957415       0.32903343       0.06102119 </v>
    <v>       0.00214014       0.67180392       0.06077668 </v>
    <v>       0.50168958       0.32907659       0.31251377 </v>
    <v>       0.25156565       0.67161592       0.31122530 </v>
    <v>       0.74956216       0.32769374       0.06460870 </v>
    <v>       0.49885781       0.67169662       0.06478290 </v>
    <v>       0.99818768       0.32767764       0.31333172 </v>
    <v>       0.74842856       0.67169093       0.31439665 </v>
    <v>       0.25020917       0.32836794       0.56448333 </v>
    <v>      -0.00186048       0.67168373       0.56403504 </v>
    <v>       0.49832120       0.32837365       0.81269473 </v>
    <v>       0.24807840       0.67108018       0.81472771 </v>
    <v>       0.75038113       0.32908458       0.56111791 </v>
    <v>       0.50148080       0.67083710       0.56141321 </v>
    <v>       0.00179592       0.32902039       0.81333046 </v>
    <v>       0.75159411       0.67161324       0.81123570 </v>
    <v>       0.49755631       0.07721022       0.07293230 </v>
    <v>       0.24608146       0.92636740       0.05761318 </v>
    <v>       0.25659175       0.07818645       0.30584733 </v>
    <v>      -0.00452674       0.92088962       0.31639469 </v>
    <v>       0.00990461       0.07706518       0.05249093 </v>
[...]
       <r>    8.8838    0.0000 </r>
       <r>    8.9246    0.0000 </r>
       <r>    9.0271    0.0000 </r>
       <r>    9.0772    0.0000 </r>
       <r>    9.1017    0.0000 </r>
      </set>
     </set>
    </set>
   </array>
  </eigenvalues>
  <separator name="orbital magnetization" >
   <v name="MAGDIPOLOUT">      0.00000000      0.00000000      0.00000000</v>
  </separator>
  <dos>
   <i name="efermi">      4.58095823 </i>
   <total>
    <array>
     <dimension dim="1">gridpoints</dimension>
     <dimension dim="2">spin</dimension>
     <field>energy</field>
     <field>total</field>
     <field>integrated</field>
     <set>
      <set comment="spin 1">
       <r>   -42.3644     0.0000     0.0000 </r>
       <r>   -42.1832     0.0000     0.0000 </r>
       <r>   -42.0021     0.0000     0.0000 </r>
       <r>   -41.8209     0.0000     0.0000 </r>
       <r>   -41.6397     0.0000     0.0000 </r>
       <r>   -41.4585     0.0000     0.0000 </r>
       <r>   -41.2774     0.0000     0.0000 </r>
       <r>   -41.0962     0.0000     0.0000 </r>
       <r>   -40.9150     0.0000     0.0000 </r>
       <r>   -40.7339     0.0000     0.0000 </r>
       <r>   -40.5527     0.0000     0.0000 </r>
       <r>   -40.3715     0.0000     0.0000 </r>
       <r>   -40.1904     0.0000     0.0000 </r>
       <r>   -40.0092     0.0000     0.0000 </r>
       <r>   -39.8280     0.0000     4.0000 </r>
       <r>   -39.6469     0.0000     8.0000 </r>
       <r>   -39.4657     0.0000    12.0000 </r>
       <r>   -39.2845     0.0000    18.0000 </r>
       <r>   -39.1034     0.0000    20.0000 </r>
       <r>   -38.9222     0.0000    20.0000 </r>
       <r>   -38.7410     0.0000    20.0000 </r>
       <r>   -38.5598     0.0000    20.0000 </r>
       <r>   -38.3787     0.0000    20.0000 </r>
       <r>   -38.1975     0.0000    20.0000 </r>
       <r>   -38.0163     0.0000    20.0000 </r>
       <r>   -37.8352     0.0000    20.0000 </r>
       <r>   -37.6540     0.0000    20.0000 </r>
       <r>   -37.4728     0.0000    20.0000 </r>
       <r>   -37.2917     0.0000    20.0000 </r>
       <r>   -37.1105     0.0000    20.0000 </r>
       <r>   -36.9293     0.0000    20.0000 </r>
       <r>   -36.7482     0.0000    20.0000 </r>
       <r>   -36.5670     0.0000    20.0000 </r>
       <r>   -36.3858     0.0000    20.0000 </r>
       <r>   -36.2047     0.0000    20.0000 </r>
       <r>   -36.0235     0.0000    20.0000 </r>
       <r>   -35.8423     0.0000    20.0000 </r>
       <r>   -35.6611     0.0000    20.0000 </r>
       <r>   -35.4800     0.0000    20.0000 </r>
       <r>   -35.2988     0.0000    20.0000 </r>
       <r>   -35.1176     0.0000    20.0000 </r>
       <r>   -34.9365     0.0000    20.0000 </r>
       <r>   -34.7553     0.0000    20.0000 </r>
       <r>   -34.5741     0.0000    20.0000 </r>
       <r>   -34.3930     0.0000    20.0000 </r>
       <r>   -34.2118     0.0000    20.0000 </r>
       <r>   -34.0306     0.0000    20.0000 </r>
       <r>   -33.8495     0.0000    20.0000 </r>
       <r>   -33.6683     0.0000    20.0000 </r>
       <r>   -33.4871     0.0000    20.0000 </r>
       <r>   -33.3060     0.0000    20.0000 </r>
       <r>   -33.1248     0.0000    20.0000 </r>
       <r>   -32.9436     0.0000    20.0000 </r>
       <r>   -32.7624     0.0000    20.0000 </r>
       <r>   -32.5813     0.0000    20.0000 </r>
       <r>   -32.4001     0.0000    20.0000 </r>
       <r>   -32.2189     0.0000    20.0000 </r>
       <r>   -32.0378     0.0000    20.0000 </r>
       <r>   -31.8566     0.0000    20.0000 </r>
       <r>   -31.6754     0.0000    20.0000 </r>
       <r>   -31.4943     0.0000    20.0000 </r>
       <r>   -31.3131     0.0000    20.0000 </r>
       <r>   -31.1319     0.0000    20.0000 </r>
       <r>   -30.9508     0.0000    20.0000 </r>
       <r>   -30.7696     0.0000    20.0000 </r>
       <r>   -30.5884     0.0000    20.0000 </r>
       <r>   -30.4073     0.0000    20.0000 </r>
       <r>   -30.2261     0.0000    20.0000 </r>
       <r>   -30.0449     0.0000    20.0000 </r>
       <r>   -29.8637     0.0000    20.0000 </r>
       <r>   -29.6826     0.0000    20.0000 </r>
       <r>   -29.5014     0.0000    20.0000 </r>
       <r>   -29.3202     0.0000    20.0000 </r>
       <r>   -29.1391     0.0000    20.0000 </r>
       <r>   -28.9579     0.0000    20.0000 </r>
       <r>   -28.7767     0.0000    20.0000 </r>
       <r>   -28.5956     0.0000    20.0000 </r>
       <r>   -28.4144     0.0000    20.0000 </r>
       <r>   -28.2332     0.0000    20.0000 </r>
       <r>   -28.0521     0.0000    20.0000 </r>
       <r>   -27.8709     0.0000    20.0000 </r>
       <r>   -27.6897     0.0000    20.0000 </r>
       <r>   -27.5086     0.0000    20.0000 </r>
       <r>   -27.3274     0.0000    20.0000 </r>
       <r>   -27.1462     0.0000    20.0000 </r>
       <r>   -26.9650     0.0000    20.0000 </r>
       <r>   -26.7839     0.0000    20.0000 </r>
       <r>   -26.6027     0.0000    20.0000 </r>
       <r>   -26.4215     0.0000    20.0000 </r>
       <r>   -26.2404     0.0000    20.0000 </r>
       <r>   -26.0592     0.0000    20.0000 </r>
       <r>   -25.8780     0.0000    20.0000 </r>
       <r>   -25.6969     0.0000    20.0000 </r>
       <r>   -25.5157     0.0000    20.0000 </r>
       <r>   -25.3345     0.0000    20.0000 </r>
       <r>   -25.1534     0.0000    20.0000 </r>
       <r>   -24.9722     0.0000    20.0000 </r>
       <r>   -24.7910     0.0000    20.0000 </r>
       <r>   -24.6099     0.0000    20.0000 </r>
       <r>   -24.4287     0.0000    20.0000 </r>
       <r>   -24.2475     0.0000    20.0000 </r>
       <r>   -24.0663     0.0000    20.0000 </r>
       <r>   -23.8852     0.0000    20.0000 </r>
       <r>   -23.7040     0.0000    20.0000 </r>
       <r>   -23.5228     0.0000    20.0000 </r>
       <r>   -23.3417     0.0000    20.0000 </r>
       <r>   -23.1605     0.0000    20.0000 </r>
       <r>   -22.9793     0.0000    20.0000 </r>
       <r>   -22.7982     0.0000    20.0000 </r>
       <r>   -22.6170     0.0000    20.0000 </r>
       <r>   -22.4358     0.0000    20.0000 </r>
       <r>   -22.2547     0.0000    20.0000 </r>
       <r>   -22.0735     0.0000    20.0000 </r>
       <r>   -21.8923     0.0000    20.0000 </r>
       <r>   -21.7112     0.0000    20.0000 </r>
       <r>   -21.5300     0.0000    20.0000 </r>
       <r>   -21.3488     0.0000    20.0000 </r>
       <r>   -21.1676     0.0000    20.0000 </r>
       <r>   -20.9865     0.0000    20.0000 </r>
       <r>   -20.8053     0.0000    20.0000 </r>
       <r>   -20.6241     0.0000    20.0000 </r>
       <r>   -20.4430     0.0000    20.0000 </r>
       <r>   -20.2618     0.0000    20.0000 </r>
       <r>   -20.0806     0.0000    20.0000 </r>
       <r>   -19.8995     0.0000    20.0000 </r>
       <r>   -19.7183     0.0000    20.0000 </r>
       <r>   -19.5371     0.0000    20.0000 </r>
       <r>   -19.3560     0.0000    20.0000 </r>
       <r>   -19.1748     0.0000    20.0000 </r>
       <r>   -18.9936     0.0000    20.0000 </r>
       <r>   -18.8125     0.0000    20.0000 </r>
       <r>   -18.6313     0.0000    20.0000 </r>
       <r>   -18.4501     0.0000   118.0000 </r>
       <r>   -18.2689     0.0000   180.0000 </r>
       <r>   -18.0878     0.0000   180.0000 </r>
       <r>   -17.9066     0.0000   180.0000 </r>
       <r>   -17.7254     0.0000   180.0000 </r>
       <r>   -17.5443     0.0000   180.0000 </r>
       <r>   -17.3631     0.0000   180.0000 </r>
       <r>   -17.1819     0.0000   180.0000 </r>
       <r>   -17.0008     0.0000   180.0000 </r>
       <r>   -16.8196     0.0000   180.0000 </r>
       <r>   -16.6384     0.0000   180.0000 </r>
       <r>   -16.4573     0.0000   180.0000 </r>
       <r>   -16.2761     0.0000   180.0000 </r>
       <r>   -16.0949     0.0000   180.0000 </r>
       <r>   -15.9138     0.0000   180.0000 </r>
       <r>   -15.7326     0.0000   180.0000 </r>
       <r>   -15.5514     0.0000   180.0000 </r>
       <r>   -15.3702     0.0000   180.0000 </r>
       <r>   -15.1891     0.0000   180.0000 </r>
       <r>   -15.0079     0.0000   180.0000 </r>
       <r>   -14.8267     0.0000   180.0000 </r>
       <r>   -14.6456     0.0000   180.0000 </r>
       <r>   -14.4644     0.0000   180.0000 </r>
       <r>   -14.2832     0.0000   180.0000 </r>
       <r>   -14.1021     0.0000   180.0000 </r>
       <r>   -13.9209     0.0000   180.0000 </r>
       <r>   -13.7397     0.0000   180.0000 </r>
       <r>   -13.5586     0.0000   180.0000 </r>
       <r>   -13.3774     0.0000   180.0000 </r>
       <r>   -13.1962     0.0000   180.0000 </r>
       <r>   -13.0151     0.0000   180.0000 </r>
       <r>   -12.8339     0.0000   182.0000 </r>
       <r>   -12.6527     0.0000   190.0000 </r>
       <r>   -12.4715     0.0000   204.0000 </r>
       <r>   -12.2904     0.0000   212.0000 </r>
       <r>   -12.1092     0.0000   212.0000 </r>
       <r>   -11.9280     0.0000   212.0000 </r>
       <r>   -11.7469     0.0000   212.0000 </r>
       <r>   -11.5657     0.0000   212.0000 </r>
       <r>   -11.3845     0.0000   212.0000 </r>
       <r>   -11.2034     0.0000   212.0000 </r>
       <r>   -11.0222     0.0000   212.0000 </r>
       <r>   -10.8410     0.0000   212.0000 </r>
       <r>   -10.6599     0.0000   212.0000 </r>
       <r>   -10.4787     0.0000   212.0000 </r>
       <r>   -10.2975     0.0000   212.0000 </r>
       <r>   -10.1164     0.0000   212.0000 </r>
       <r>    -9.9352     0.0000   212.0000 </r>
       <r>    -9.7540     0.0000   212.0000 </r>
       <r>    -9.5728     0.0000   212.0000 </r>
       <r>    -9.3917     0.0000   212.0000 </r>
       <r>    -9.2105     6.8283   212.3951 </r>
       <r>    -9.0293    12.4884   214.7015 </r>
       <r>    -8.8482     1.7256   216.0241 </r>
       <r>    -8.6670    28.6086   218.2946 </r>
       <r>    -8.4858     8.2609   220.1278 </r>
       <r>    -8.3047    23.3556   225.9287 </r>
       <r>    -8.1235     0.4034   227.9980 </r>
       <r>    -7.9423    33.9616   232.2114 </r>
       <r>    -7.7612    23.3524   237.3165 </r>
       <r>    -7.5800     6.4256   240.1437 </r>
       <r>    -7.3988    11.2688   243.5549 </r>
       <r>    -7.2177     0.0000   244.0000 </r>
       <r>    -7.0365     0.0000   244.0000 </r>
       <r>    -6.8553     0.0000   244.0000 </r>
       <r>    -6.6741     0.0000   244.0000 </r>
       <r>    -6.4930     0.0000   244.0000 </r>
       <r>    -6.3118     0.0000   244.0000 </r>
       <r>    -6.1306     9.5681   244.4943 </r>
       <r>    -5.9495    41.6912   248.3100 </r>
       <r>    -5.7683     6.4669   252.2343 </r>
       <r>    -5.5871    37.1534   256.3141 </r>
       <r>    -5.4060    24.1005   261.1408 </r>
       <r>    -5.2248    17.5111   265.3309 </r>
       <r>    -5.0436    10.1523   267.6126 </r>
       <r>    -4.8625     4.5849   268.2357 </r>
       <r>    -4.6813    11.0144   269.7565 </r>
       <r>    -4.5001     9.5201   271.9907 </r>
       <r>    -4.3190     4.8340   272.7602 </r>
       <r>    -4.1378     8.0140   273.8935 </r>
       <r>    -3.9566     4.4808   275.3179 </r>
       <r>    -3.7754     1.6975   275.7768 </r>
       <r>    -3.5943     0.5138   275.9771 </r>
       <r>    -3.4131     0.0000   276.0000 </r>
       <r>    -3.2319     0.0000   276.0000 </r>
       <r>    -3.0508     0.0000   276.0000 </r>
       <r>    -2.8696     0.0000   276.0000 </r>
       <r>    -2.6884     0.0000   276.0000 </r>
       <r>    -2.5073     0.0000   276.0000 </r>
       <r>    -2.3261     0.0000   276.0000 </r>
       <r>    -2.1449     0.0000   276.0000 </r>
       <r>    -1.9638     0.0000   276.0000 </r>
       <r>    -1.7826     0.0000   276.0000 </r>
       <r>    -1.6014     0.0000   276.0000 </r>
       <r>    -1.4203     0.0000   276.0000 </r>
       <r>    -1.2391     2.2181   276.0763 </r>
       <r>    -1.0579     9.3727   277.2789 </r>
       <r>    -0.8768     5.8274   278.4258 </r>
       <r>    -0.6956    13.2232   280.2014 </r>
       <r>    -0.5144     8.7233   282.2476 </r>
       <r>    -0.3332    12.8256   283.8876 </r>
       <r>    -0.1521    26.0681   287.5475 </r>
       <r>     0.0291    41.6933   292.3724 </r>
       <r>     0.2103    38.7727   300.3896 </r>
       <r>     0.3914    53.7886   307.0877 </r>
       <r>     0.5726    35.8468   314.7389 </r>
       <r>     0.7538    45.4920   320.3841 </r>
       <r>     0.9349    31.2894   325.9432 </r>
       <r>     1.1161    33.6087   333.0449 </r>
       <r>     1.2973    44.1761   341.5225 </r>
       <r>     1.4784    44.6740   349.4513 </r>
       <r>     1.6596    44.6899   357.3155 </r>
       <r>     1.8408    43.3149   365.7338 </r>
       <r>     2.0219    68.6717   375.3038 </r>
       <r>     2.2031    45.2593   385.1311 </r>
       <r>     2.3843    44.8333   393.4652 </r>
       <r>     2.5655    63.6887   402.2814 </r>
       <r>     2.7466    69.0661   415.1643 </r>
       <r>     2.9278    97.2255   428.0512 </r>
       <r>     3.1090    45.4455   441.5921 </r>
       <r>     3.2901    37.4565   449.8640 </r>
       <r>     3.4713    27.5090   454.4177 </r>
       <r>     3.6525    37.5588   461.6946 </r>
       <r>     3.8336    13.3929   464.8449 </r>
       <r>     4.0148     8.1417   466.7955 </r>
       <r>     4.1960     2.8982   467.7954 </r>
       <r>     4.3771     0.1155   467.9982 </r>
       <r>     4.5583     0.0000   468.0000 </r>
       <r>     4.7395     0.0000   468.0000 </r>
       <r>     4.9206     0.0000   468.0000 </r>
       <r>     5.1018     0.0000   468.0000 </r>
       <r>     5.2830     0.7624   468.0322 </r>
       <r>     5.4642     3.9632   468.4140 </r>
       <r>     5.6453     9.3617   469.6208 </r>
       <r>     5.8265    10.1249   471.3734 </r>
       <r>     6.0077    19.3961   474.4879 </r>
       <r>     6.1888    13.5221   477.7373 </r>
       <r>     6.3700    12.6945   480.0975 </r>
       <r>     6.5512    13.4538   482.4380 </r>
       <r>     6.7323    14.7417   484.9923 </r>
       <r>     6.9135    16.1524   487.7846 </r>
       <r>     7.0947    18.9729   490.9470 </r>
       <r>     7.2758    24.1822   494.8132 </r>
       <r>     7.4570    30.5296   499.4924 </r>
       <r>     7.6382    38.8841   506.2512 </r>
       <r>     7.8193    35.4388   512.3285 </r>
       <r>     8.0005    37.2946   518.9817 </r>
       <r>     8.1817    28.3874   525.3364 </r>
       <r>     8.3629    30.7730   530.7345 </r>
       <r>     8.5440    21.0890   535.2176 </r>
       <r>     8.7252    28.6709   539.4004 </r>
       <r>     8.9064    39.7501   545.4510 </r>
       <r>     9.0875    34.4340   552.5191 </r>
       <r>     9.2687    21.5434   557.9877 </r>
       <r>     9.4499     2.4751   559.9410 </r>
       <r>     9.6310     0.0000   560.0000 </r>
       <r>     9.8122     0.0000   560.0000 </r>
       <r>     9.9934     0.0000   560.0000 </r>
       <r>    10.1745     0.0000   560.0000 </r>
       <r>    10.3557     0.0000   560.0000 </r>
       <r>    10.5369     0.0000   560.0000 </r>
       <r>    10.7180     0.0000   560.0000 </r>
       <r>    10.8992     0.0000   560.0000 </r>
       <r>    11.0804     0.0000   560.0000 </r>
       <r>    11.2616     0.0000   560.0000 </r>
       <r>    11.4427     0.0000   560.0000 </r>
       <r>    11.6239     0.0000   560.0000 </r>
       <r>    11.8051     0.0000   560.0000 </r>
       <r>    11.9862     0.0000   560.0000 </r>
      </set>
     </set>
    </array>
   </total>
  </dos>
 </calculation>
 <structure name="finalpos" >
  <crystal>
   <varray name="basis" >
    <v>      11.15821155       0.01841217      -0.08465082 </v>
    <v>       0.01596919       9.51573000      -0.01597027 </v>
    <v>      -0.08463013      -0.01841158      11.15774640 </v>
   </varray>
   <i name="volume">   1184.63841012 </i>
   <varray name="rec_basis" >
    <v>       0.08962550      -0.00014927       0.00067955 </v>
    <v>      -0.00017210       0.10508973       0.00017210 </v>
    <v>       0.00067972       0.00014928       0.08962923 </v>
   </varray>
  </crystal>
  <varray name="positions" >
   <v>       0.35267265       0.00974073       0.44881715 </v>
   <v>       0.08359799       0.03337687       0.23933887 </v>
   <v>       0.35939776       0.00262077       0.17984782 </v>
   <v>       0.61301449      -0.00612165       0.44942246 </v>
   <v>       0.40345133      -0.00590348       0.94371204 </v>
   <v>       0.11759203       0.99288772       0.65744468 </v>
   <v>       0.36495524      -0.00119854       0.69751963 </v>
   <v>       0.82259831       0.03342344       0.97876080 </v>
   <v>       0.61366943       0.00978823       0.70973561 </v>
   <v>       0.88228866       0.00256812       0.70288910 </v>
   <v>       0.86843039       0.00414693       0.43545926 </v>
   <v>       0.62685814       0.00416025       0.19400437 </v>
   <v>       0.13455522       0.00007969       0.92799913 </v>
   <v>       0.00635705       0.30572656       0.05623283 </v>
   <v>       0.25584186       0.69474336       0.05541832 </v>
   <v>       0.25336100       0.30031483       0.30935141 </v>
   <v>       0.50318522       0.69062389       0.30968882 </v>
   <v>       0.50159225       0.30152237       0.06286146 </v>
   <v>       0.75203346       0.70194105       0.06108119 </v>
   <v>       0.74986739       0.31006911       0.31265021 </v>
   <v>       0.00157505       0.70195212       0.31053925 </v>
   <v>      -0.00028865       0.30149066       0.56096689 </v>
   <v>       0.25483075       0.70331880       0.55906206 </v>
   <v>       0.25436377       0.31103861       0.80862949 </v>
   <v>       0.50361098       0.70351795       0.80790720 </v>
   <v>       0.50069165       0.29788914       0.56187316 </v>
   <v>       0.75293235       0.69064204       0.55943517 </v>
   <v>       0.75334183       0.30042696       0.80918412 </v>
   <v>       0.00728310       0.69480801       0.80673282 </v>
   <v>       0.25359977       0.35229657       0.05866585 </v>
   <v>       0.00644382       0.67479204       0.05612319 </v>
   <v>       0.50263178       0.35172230       0.30886349 </v>
   <v>       0.25484727       0.67657626       0.30689813 </v>
   <v>       0.75353439       0.28997461       0.06172364 </v>
   <v>       0.50642098       0.64794555       0.05920474 </v>
   <v>       0.00080111       0.29000946       0.30903180 </v>
   <v>       0.75604688       0.63984363       0.30656971 </v>
   <v>       0.25366294       0.33271657       0.55796310 </v>
   <v>       0.00349305       0.64798779       0.55619877 </v>
   <v>       0.50476178       0.33334762       0.80886650 </v>
   <v>       0.25543137       0.64234945       0.80719662 </v>
   <v>       0.75372263       0.35171950       0.55992325 </v>
   <v>       0.50338976       0.65125019       0.55927887 </v>
   <v>       0.00407343       0.35187142       0.80893985 </v>
   <v>       0.75579049       0.67670248       0.80773329 </v>
   <v>       0.49188820       0.08462976       0.08815403 </v>
   <v>       0.26459811       0.91334469       0.03427643 </v>
   <v>       0.25988783       0.08497307       0.30115418 </v>
   <v>      -0.01856954       0.91393870       0.32536598 </v>
   <v>       0.02104488       0.08978353       0.04176111 </v>
   <v>       0.73707190       0.91392219       0.08113835 </v>
   <v>       0.72936620       0.08858821       0.33308072 </v>
   <v>       0.51491900       0.91050021       0.30879440 </v>
   <v>       0.49887382       0.07963188       0.56370520 </v>
   <v>       0.25929032       0.91780099       0.57581377 </v>
   <v>       0.24930082       0.09093396       0.81497299 </v>
   <v>       0.02852273       0.91345963       0.79766196 </v>
   <v>       0.97422919       0.08454595       0.57044497 </v>
   <v>       0.75382606       0.91053143       0.54766495 </v>
   <v>       0.76131078       0.08504482       0.80264412 </v>
   <v>       0.48673754       0.91790102       0.80309074 </v>
  </varray>
 </structure>
</modeling>
