<?xml version="1.0" encoding="ISO-8859-1"?>
<modeling>
 <generator>
  <i name="program" type="string">vasp </i>
  <i name="version" type="string">5.4.4.18Apr17-6-g9f103f2a35  </i>
  <i name="subversion" type="string">(build Jul 31 2017 11:33:29) complex            parallel </i>
  <i name="platform" type="string">LinuxIFC </i>
  <i name="date" type="string">2021 09 20 </i>
  <i name="time" type="string">19:41:23 </i>
 </generator>
 <incar>
  <i type="string" name="SYSTEM"> La2O2S</i>
  <i type="string" name="PREC">normal</i>
  <i type="int" name="NELMIN">     4</i>
  <i type="int" name="IBRION">     2</i>
  <i type="int" name="NFREE">    10</i>
  <i name="EDIFF">      0.00000100</i>
  <i name="EDIFFG">     -0.01000000</i>
  <i type="int" name="NSW">   200</i>
  <i type="int" name="ISIF">     3</i>
  <i name="ENCUT">    600.00000000</i>
  <i name="ENAUG">    900.00000000</i>
  <i type="int" name="ISMEAR">    -5</i>
  <i type="logical" name="LWAVE"> F  </i>
  <i type="logical" name="LCHARG"> F  </i>
  <v type="int" name="KPOINT_BSE">    -1     0     0     0</v>
 </incar>
 <structure name="primitive_cell" >
  <crystal>
   <varray name="basis" >
    <v>      11.17850000       0.00000000       0.00000000 </v>
    <v>       0.00000000       9.57460000       0.00000000 </v>
    <v>       0.00000000       0.00000000      11.18240000 </v>
   </varray>
   <i name="volume">   1196.84853820 </i>
   <varray name="rec_basis" >
    <v>       0.08945744       0.00000000       0.00000000 </v>
    <v>       0.00000000       0.10444301       0.00000000 </v>
    <v>       0.00000000       0.00000000       0.08942624 </v>
   </varray>
  </crystal>
  <varray name="positions" >
   <v>       0.12461000      -0.00016000       0.18687000 </v>
   <v>      -0.00013000       0.07798000       0.06246000 </v>
   <v>       0.24987000      -0.07798000       0.06246000 </v>
   <v>       0.00013000      -0.07798000       0.31246000 </v>
   <v>       0.25013000       0.07798000       0.31246000 </v>
   <v>       0.37461000       0.00017000       0.18687000 </v>
   <v>      -0.12539000       0.00017000       0.18687000 </v>
   <v>       0.00013000       0.29519000       0.06281000 </v>
   <v>       0.25013000      -0.29519000       0.06281000 </v>
   <v>      -0.00013000      -0.29519000       0.31282000 </v>
   <v>       0.24987000       0.29519000       0.31282000 </v>
   <v>       0.00005000      -0.32677000       0.06286000 </v>
   <v>       0.25005000       0.32677000       0.06286000 </v>
   <v>      -0.00005000       0.32677000       0.31286000 </v>
   <v>       0.24995000      -0.32677000       0.31286000 </v>
   <v>      -0.12461000       0.00017000       0.43687000 </v>
   <v>      -0.12461000       0.00017000      -0.06313000 </v>
   <v>       0.37539000       0.00017000      -0.06313000 </v>
   <v>       0.00013000      -0.07798000      -0.18754000 </v>
   <v>      -0.25013000      -0.07798000       0.06246000 </v>
   <v>      -0.24987000       0.07798000       0.31246000 </v>
   <v>       0.25013000       0.07798000      -0.18754000 </v>
   <v>       0.49987000       0.07798000       0.06246000 </v>
   <v>      -0.00013000       0.07798000      -0.43754000 </v>
   <v>      -0.49987000      -0.07798000       0.31246000 </v>
   <v>       0.24987000      -0.07798000      -0.43754000 </v>
   <v>      -0.00013000      -0.29519000      -0.18718000 </v>
   <v>      -0.24987000      -0.29519000       0.06281000 </v>
   <v>       0.24987000       0.29519000      -0.18718000 </v>
   <v>      -0.25013000       0.29519000       0.31282000 </v>
   <v>      -0.49987000       0.29519000       0.06281000 </v>
   <v>       0.49987000      -0.29519000       0.31282000 </v>
   <v>       0.00013000       0.29519000      -0.43719000 </v>
   <v>       0.25013000      -0.29519000      -0.43719000 </v>
   <v>      -0.00005000       0.32677000      -0.18714000 </v>
   <v>       0.24995000      -0.32677000      -0.18714000 </v>
   <v>      -0.24995000       0.32677000       0.06286000 </v>
   <v>      -0.25005000      -0.32677000       0.31286000 </v>
   <v>      -0.49995000      -0.32677000       0.06286000 </v>
   <v>       0.49995000       0.32677000       0.31286000 </v>
   <v>       0.00005000      -0.32677000      -0.43714000 </v>
   <v>       0.25005000       0.32677000      -0.43714000 </v>
   <v>      -0.37539000      -0.00016000       0.18687000 </v>
   <v>       0.12461000      -0.00016000      -0.31313000 </v>
   <v>      -0.24987000       0.07798000      -0.18754000 </v>
   <v>      -0.49987000      -0.07798000      -0.18754000 </v>
   <v>      -0.25013000      -0.07798000      -0.43754000 </v>
   <v>       0.49987000       0.07798000      -0.43754000 </v>
   <v>      -0.37461000      -0.00016000       0.43687000 </v>
   <v>       0.37461000       0.00017000      -0.31313000 </v>
   <v>      -0.12539000       0.00017000      -0.31313000 </v>
   <v>      -0.25013000       0.29519000      -0.18718000 </v>
   <v>       0.49987000      -0.29519000      -0.18718000 </v>
   <v>      -0.24987000      -0.29519000      -0.43719000 </v>
   <v>      -0.49987000       0.29519000      -0.43719000 </v>
   <v>      -0.25005000      -0.32677000      -0.18714000 </v>
   <v>       0.49995000       0.32677000      -0.18714000 </v>
   <v>      -0.24995000       0.32677000      -0.43714000 </v>
   <v>      -0.49995000      -0.32677000      -0.43714000 </v>
   <v>      -0.37539000      -0.00016000      -0.31313000 </v>
  </varray>
 </structure>
 <varray name="primitive_index" >
  <v type="int" >        1 </v>
  <v type="int" >       49 </v>
  <v type="int" >       46 </v>
  <v type="int" >       48 </v>
  <v type="int" >       47 </v>
  <v type="int" >        2 </v>
  <v type="int" >        5 </v>
  <v type="int" >       13 </v>
  <v type="int" >       14 </v>
  <v type="int" >       20 </v>
  <v type="int" >       15 </v>
  <v type="int" >       30 </v>
  <v type="int" >       29 </v>
  <v type="int" >       35 </v>
  <v type="int" >       32 </v>
  <v type="int" >        4 </v>
  <v type="int" >       11 </v>
  <v type="int" >       10 </v>
  <v type="int" >       56 </v>
  <v type="int" >       50 </v>
  <v type="int" >       51 </v>
  <v type="int" >       55 </v>
  <v type="int" >       45 </v>
  <v type="int" >       57 </v>
  <v type="int" >       52 </v>
  <v type="int" >       54 </v>
  <v type="int" >       28 </v>
  <v type="int" >       18 </v>
  <v type="int" >       23 </v>
  <v type="int" >       19 </v>
  <v type="int" >       17 </v>
  <v type="int" >       16 </v>
  <v type="int" >       21 </v>
  <v type="int" >       22 </v>
  <v type="int" >       43 </v>
  <v type="int" >       40 </v>
  <v type="int" >       33 </v>
  <v type="int" >       36 </v>
  <v type="int" >       34 </v>
  <v type="int" >       31 </v>
  <v type="int" >       38 </v>
  <v type="int" >       37 </v>
  <v type="int" >        9 </v>
  <v type="int" >        6 </v>
  <v type="int" >       59 </v>
  <v type="int" >       60 </v>
  <v type="int" >       58 </v>
  <v type="int" >       53 </v>
  <v type="int" >        3 </v>
  <v type="int" >        7 </v>
  <v type="int" >        8 </v>
  <v type="int" >       27 </v>
  <v type="int" >       24 </v>
  <v type="int" >       26 </v>
  <v type="int" >       25 </v>
  <v type="int" >       44 </v>
  <v type="int" >       39 </v>
  <v type="int" >       41 </v>
  <v type="int" >       42 </v>
  <v type="int" >       12 </v>
 </varray>
 <kpoints>
  <generation param="Gamma">
   <v type="int" name="divisions">       2        2        2 </v>
   <v name="usershift">      0.00000000       0.00000000       0.00000000 </v>
   <v name="genvec1">      0.50000000       0.00000000       0.00000000 </v>
   <v name="genvec2">      0.00000000       0.50000000       0.00000000 </v>
   <v name="genvec3">      0.00000000       0.00000000       0.50000000 </v>
   <v name="shift">      0.00000000       0.00000000       0.00000000 </v>
  </generation>
  <varray name="kpointlist" >
   <v>       0.00000000       0.00000000       0.00000000 </v>
   <v>       0.50000000       0.00000000       0.00000000 </v>
   <v>       0.00000000       0.50000000       0.00000000 </v>
   <v>       0.50000000       0.50000000       0.00000000 </v>
   <v>       0.00000000       0.00000000       0.50000000 </v>
   <v>       0.50000000       0.00000000       0.50000000 </v>
   <v>       0.00000000       0.50000000       0.50000000 </v>
   <v>       0.50000000       0.50000000       0.50000000 </v>
  </varray>
  <varray name="weights" >
   <v>       0.12500000 </v>
   <v>       0.12500000 </v>
   <v>       0.12500000 </v>
   <v>       0.12500000 </v>
   <v>       0.12500000 </v>
   <v>       0.12500000 </v>
   <v>       0.12500000 </v>
   <v>       0.12500000 </v>
  </varray>
  <varray name="tetrahedronlist"  type="int" >
   <v type="int" >        2        1        2        4        5 </v>
   <v type="int" >        2        1        3        4        5 </v>
   <v type="int" >        2        3        4        5        7 </v>
   <v type="int" >        2        2        4        5        6 </v>
   <v type="int" >        2        4        5        6        8 </v>
   <v type="int" >        2        4        5        7        8 </v>
   <v type="int" >        2        1        2        3        6 </v>
   <v type="int" >        2        2        3        4        6 </v>
   <v type="int" >        2        3        4        6        8 </v>
   <v type="int" >        2        1        3        5        6 </v>
   <v type="int" >        2        3        5        6        7 </v>
   <v type="int" >        2        3        6        7        8 </v>
   <v type="int" >        2        2        3        4        7 </v>
   <v type="int" >        2        1        2        3        7 </v>
   <v type="int" >        2        1        2        5        7 </v>
   <v type="int" >        2        2        4        7        8 </v>
   <v type="int" >        2        2        6        7        8 </v>
   <v type="int" >        2        2        5        6        7 </v>
   <v type="int" >        2        1        3        4        8 </v>
   <v type="int" >        2        1        2        4        8 </v>
   <v type="int" >        2        1        2        6        8 </v>
   <v type="int" >        2        1        3        7        8 </v>
   <v type="int" >        2        1        5        7        8 </v>
   <v type="int" >        2        1        5        6        8 </v>
  </varray>
  <i name="volumeweight">      0.02083333 </i>
 </kpoints>
 <parameters>
  <separator name="general" >
   <i type="string" name="SYSTEM">La2O2S</i>
   <i type="logical" name="LCOMPAT"> F  </i>
  </separator>
  <separator name="electronic" >
   <i type="string" name="PREC">normal</i>
   <i name="ENMAX">    600.00000000</i>
   <i name="ENAUG">    900.00000000</i>
   <i name="EDIFF">      0.00000100</i>
   <i type="int" name="IALGO">    38</i>
   <i type="int" name="IWAVPR">    11</i>
   <i type="int" name="NBANDS">   280</i>
   <i name="NELECT">    464.00000000</i>
   <i type="int" name="TURBO">     0</i>
   <i type="int" name="IRESTART">     0</i>
   <i type="int" name="NREBOOT">     0</i>
   <i type="int" name="NMIN">     0</i>
   <i name="EREF">      0.00000000</i>
   <separator name="electronic smearing" >
    <i type="int" name="ISMEAR">    -5</i>
    <i name="SIGMA">      0.20000000</i>
    <i name="KSPACING">      0.50000000</i>
    <i type="logical" name="KGAMMA"> T  </i>
   </separator>
   <separator name="electronic projectors" >
    <i type="logical" name="LREAL"> F  </i>
    <v name="ROPT">      0.00000000      0.00000000      0.00000000      0.00000000      0.00000000</v>
    <i type="int" name="LMAXPAW">  -100</i>
    <i type="int" name="LMAXMIX">     2</i>
    <i type="logical" name="NLSPLINE"> F  </i>
   </separator>
   <separator name="electronic startup" >
    <i type="int" name="ISTART">     0</i>
    <i type="int" name="ICHARG">     2</i>
    <i type="int" name="INIWAV">     1</i>
   </separator>
   <separator name="electronic spin" >
    <i type="int" name="ISPIN">     1</i>
    <i type="logical" name="LNONCOLLINEAR"> F  </i>
    <v name="MAGMOM">      1.00000000      1.00000000      1.00000000      1.00000000      1.00000000      1.00000000      1.00000000      1.00000000      1.00000000      1.00000000      1.00000000      1.00000000      1.00000000      1.00000000      1.00000000      1.00000000      1.00000000      1.00000000      1.00000000      1.00000000
      1.00000000      1.00000000      1.00000000      1.00000000      1.00000000      1.00000000      1.00000000      1.00000000      1.00000000      1.00000000      1.00000000      1.00000000      1.00000000      1.00000000      1.00000000      1.00000000      1.00000000      1.00000000      1.00000000      1.00000000
      1.00000000      1.00000000      1.00000000      1.00000000      1.00000000      1.00000000      1.00000000      1.00000000      1.00000000      1.00000000      1.00000000      1.00000000      1.00000000      1.00000000      1.00000000      1.00000000      1.00000000      1.00000000      1.00000000      1.00000000
</v>
    <i name="NUPDOWN">     -1.00000000</i>
    <i type="logical" name="LSORBIT"> F  </i>
    <v name="SAXIS">      0.00000000      0.00000000      1.00000000</v>
    <i type="logical" name="LSPIRAL"> F  </i>
    <v name="QSPIRAL">      0.00000000      0.00000000      0.00000000</v>
    <i type="logical" name="LZEROZ"> F  </i>
   </separator>
   <separator name="electronic exchange-correlation" >
    <i type="logical" name="LASPH"> F  </i>
    <i type="logical" name="LMETAGGA"> F  </i>
   </separator>
   <separator name="electronic convergence" >
    <i type="int" name="NELM">    60</i>
    <i type="int" name="NELMDL">    -5</i>
    <i type="int" name="NELMIN">     4</i>
    <i name="ENINI">    600.00000000</i>
    <separator name="electronic convergence detail" >
     <i type="logical" name="LDIAG"> T  </i>
     <i type="logical" name="LSUBROT"> F  </i>
     <i name="WEIMIN">      0.00100000</i>
     <i name="EBREAK">      0.00000000</i>
     <i name="DEPER">      0.30000000</i>
     <i type="int" name="NRMM">     4</i>
     <i name="TIME">      0.40000000</i>
    </separator>
   </separator>
   <separator name="electronic mixer" >
    <i name="AMIX">      0.40000000</i>
    <i name="BMIX">      1.00000000</i>
    <i name="AMIN">      0.10000000</i>
    <i name="AMIX_MAG">      1.60000000</i>
    <i name="BMIX_MAG">      1.00000000</i>
    <separator name="electronic mixer details" >
     <i type="int" name="IMIX">     4</i>
     <i type="logical" name="MIXFIRST"> F  </i>
     <i type="int" name="MAXMIX">   -45</i>
     <i name="WC">    100.00000000</i>
     <i type="int" name="INIMIX">     1</i>
     <i type="int" name="MIXPRE">     1</i>
     <i type="int" name="MREMOVE">     5</i>
    </separator>
   </separator>
   <separator name="electronic dipolcorrection" >
    <i type="logical" name="LDIPOL"> F  </i>
    <i type="logical" name="LMONO"> F  </i>
    <i type="int" name="IDIPOL">     0</i>
    <i name="EPSILON">      1.00000000</i>
    <v name="DIPOL">   -100.00000000   -100.00000000   -100.00000000</v>
    <i name="EFIELD">      0.00000000</i>
   </separator>
  </separator>
  <separator name="grids" >
   <i type="int" name="NGX">    70</i>
   <i type="int" name="NGY">    60</i>
   <i type="int" name="NGZ">    70</i>
   <i type="int" name="NGXF">   140</i>
   <i type="int" name="NGYF">   120</i>
   <i type="int" name="NGZF">   140</i>
   <i type="logical" name="ADDGRID"> F  </i>
  </separator>
  <separator name="ionic" >
   <i type="int" name="NSW">   200</i>
   <i type="int" name="IBRION">     2</i>
   <i type="int" name="MDALGO">     0</i>
   <i type="int" name="ISIF">     3</i>
   <i name="PSTRESS">      0.00000000</i>
   <i name="EDIFFG">     -0.01000000</i>
   <i type="int" name="NFREE">    10</i>
   <i name="POTIM">      0.50000000</i>
   <i name="SMASS">     -3.00000000</i>
   <i name="SCALEE">      1.00000000</i>
  </separator>
  <separator name="ionic md" >
   <i name="TEBEG">      0.00010000</i>
   <i name="TEEND">      0.00010000</i>
   <i type="int" name="NBLOCK">     1</i>
   <i type="int" name="KBLOCK">   200</i>
   <i type="int" name="NPACO">   256</i>
   <i name="APACO">     16.00000000</i>
  </separator>
  <separator name="symmetry" >
   <i type="int" name="ISYM">     2</i>
   <i name="SYMPREC">      0.00001000</i>
  </separator>
  <separator name="dos" >
   <i type="int" name="LORBIT">     0</i>
   <v name="RWIGS">     -1.00000000     -1.00000000     -1.00000000     -1.00000000     -1.00000000</v>
   <i type="int" name="NEDOS">   301</i>
   <i name="EMIN">     10.00000000</i>
   <i name="EMAX">    -10.00000000</i>
   <i name="EFERMI">      0.00000000</i>
  </separator>
  <separator name="writing" >
   <i type="int" name="NWRITE">     2</i>
   <i type="logical" name="LWAVE"> F  </i>
   <i type="logical" name="LDOWNSAMPLE"> F  </i>
   <i type="logical" name="LCHARG"> F  </i>
   <i type="logical" name="LPARD"> F  </i>
   <i type="logical" name="LVTOT"> F  </i>
   <i type="logical" name="LVHAR"> F  </i>
   <i type="logical" name="LELF"> F  </i>
   <i type="logical" name="LOPTICS"> F  </i>
   <v name="STM">      0.00000000      0.00000000      0.00000000      0.00000000      0.00000000      0.00000000      0.00000000</v>
  </separator>
  <separator name="performance" >
   <i type="int" name="NPAR">    28</i>
   <i type="int" name="NSIM">     4</i>
   <i type="int" name="NBLK">    -1</i>
   <i type="logical" name="LPLANE"> T  </i>
   <i type="logical" name="LSCALAPACK"> T  </i>
   <i type="logical" name="LSCAAWARE"> F  </i>
   <i type="logical" name="LSCALU"> F  </i>
   <i type="logical" name="LASYNC"> F  </i>
   <i type="logical" name="LORBITALREAL"> F  </i>
  </separator>
  <separator name="miscellaneous" >
   <i type="int" name="IDIOT">     3</i>
   <i type="int" name="ISPECIAL">     0</i>
   <i type="logical" name="LMUSIC"> F  </i>
   <v name="POMASS">      7.01000000     24.30500000    208.98000000     32.06600000     16.00000000</v>
   <v name="DARWINR">      0.00000000      0.00000000      0.00000000      0.00000000      0.00000000</v>
   <v name="DARWINV">      1.00000000      1.00000000      1.00000000      1.00000000      1.00000000</v>
   <i type="logical" name="LCORR"> T  </i>
  </separator>
  <i type="logical" name="GGA_COMPAT"> T  </i>
  <i type="logical" name="LBERRY"> F  </i>
  <i type="int" name="ICORELEVEL">     0</i>
  <i type="logical" name="LDAU"> F  </i>
  <i type="int" name="I_CONSTRAINED_M">     0</i>
  <separator name="electronic exchange-correlation" >
   <i type="string" name="GGA">--</i>
   <i type="int" name="VOSKOWN">     0</i>
   <i type="logical" name="LHFCALC"> F  </i>
   <i type="string" name="PRECFOCK"></i>
   <i type="logical" name="LSYMGRAD"> F  </i>
   <i type="logical" name="LHFONE"> F  </i>
   <i type="logical" name="LRHFCALC"> F  </i>
   <i type="logical" name="LTHOMAS"> F  </i>
   <i type="logical" name="LMODELHF"> F  </i>
   <i name="ENCUT4O">     -1.00000000</i>
   <i type="int" name="EXXOEP">     0</i>
   <i type="int" name="FOURORBIT">     0</i>
   <i name="AEXX">      0.00000000</i>
   <i name="HFALPHA">      0.00000000</i>
   <i name="MCALPHA">      0.00000000</i>
   <i name="ALDAX">      1.00000000</i>
   <i name="AGGAX">      1.00000000</i>
   <i name="ALDAC">      1.00000000</i>
   <i name="AGGAC">      1.00000000</i>
   <i type="int" name="NKREDX">     1</i>
   <i type="int" name="NKREDY">     1</i>
   <i type="int" name="NKREDZ">     1</i>
   <i type="logical" name="SHIFTRED"> F  </i>
   <i type="logical" name="ODDONLY"> F  </i>
   <i type="logical" name="EVENONLY"> F  </i>
   <i type="int" name="LMAXFOCK">     0</i>
   <i type="int" name="NMAXFOCKAE">     0</i>
   <i type="logical" name="LFOCKAEDFT"> F  </i>
   <i name="HFSCREEN">      0.00000000</i>
   <i name="HFSCREENC">      0.00000000</i>
   <i type="int" name="NBANDSGWLOW">     0</i>
  </separator>
  <separator name="vdW DFT" >
   <i type="logical" name="LUSE_VDW"> F  </i>
   <i name="Zab_VDW">     -0.84910000</i>
   <i name="PARAM1">      0.12340000</i>
   <i name="PARAM2">      1.00000000</i>
   <i name="PARAM3">      0.00000000</i>
  </separator>
  <separator name="model GW" >
   <i type="int" name="MODEL_GW">     0</i>
   <i name="MODEL_EPS0">     11.96848538</i>
   <i name="MODEL_ALPHA">      1.00000000</i>
  </separator>
  <separator name="linear response parameters" >
   <i type="logical" name="LEPSILON"> F  </i>
   <i type="logical" name="LRPA"> F  </i>
   <i type="logical" name="LNABLA"> F  </i>
   <i type="logical" name="LVEL"> F  </i>
   <i type="int" name="KINTER">     0</i>
   <i name="CSHIFT">      0.10000000</i>
   <i name="OMEGAMAX">     -1.00000000</i>
   <i name="DEG_THRESHOLD">      0.00200000</i>
   <i name="RTIME">     -0.10000000</i>
   <i name="WPLASMAI">      0.00000000</i>
   <v name="DFIELD">      0.00000000      0.00000000      0.00000000</v>
   <v name="WPLASMA">      0.00000000      0.00000000      0.00000000      0.00000000      0.00000000      0.00000000      0.00000000      0.00000000      0.00000000</v>
  </separator>
  <separator name="orbital magnetization" >
   <i type="logical" name="NUCIND"> F  </i>
   <v name="MAGPOS">      0.00000000      0.00000000      0.00000000</v>
   <i type="logical" name="LNICSALL"> T  </i>
   <i type="logical" name="ORBITALMAG"> F  </i>
   <i type="logical" name="LMAGBLOCH"> F  </i>
   <i type="logical" name="LCHIMAG"> F  </i>
   <i type="logical" name="LGAUGE"> T  </i>
   <i type="int" name="MAGATOM">     0</i>
   <v name="MAGDIPOL">      0.00000000      0.00000000      0.00000000</v>
   <v name="AVECCONST">      0.00000000      0.00000000      0.00000000</v>
  </separator>
  <separator name="response functions" >
   <i type="logical" name="LADDER"> F  </i>
   <i type="logical" name="LRPAFORCE"> F  </i>
   <i type="logical" name="LFXC"> F  </i>
   <i type="logical" name="LHARTREE"> T  </i>
   <i type="int" name="IBSE">     0</i>
   <v type="int" name="KPOINT">    -1     0     0     0</v>
   <i type="logical" name="LTCTE"> F  </i>
   <i type="logical" name="LTETE"> F  </i>
   <i type="logical" name="LTRIPLET"> F  </i>
   <i type="logical" name="LFXCEPS"> F  </i>
   <i type="logical" name="LFXHEG"> F  </i>
   <i type="int" name="NATURALO">     2</i>
   <i type="logical" name="L2ORDER"> F  </i>
   <i type="logical" name="LMP2LT"> F  </i>
   <i type="logical" name="LUSEW"> F  </i>
   <i name="ENCUTGW">     -2.00000000</i>
   <i name="ENCUTGWSOFT">     -2.00000000</i>
   <i name="ENCUTLF">     -1.00000000</i>
   <i type="int" name="LMAXMP2">    -1</i>
   <i name="SCISSOR">      0.00000000</i>
   <i type="int" name="NOMEGA">     0</i>
   <i type="int" name="NOMEGAR">     0</i>
   <i type="int" name="NBANDSGW">    -1</i>
   <i type="int" name="NBANDSO">    -1</i>
   <i type="int" name="NBANDSV">    -1</i>
   <i type="int" name="NELM">     1</i>
   <i type="int" name="NELMHF">     1</i>
   <i type="int" name="DIM">     3</i>
   <i type="int" name="ANTIRES">     0</i>
   <i name="OMEGAMAX">    -30.00000000</i>
   <i name="OMEGAMIN">    -30.00000000</i>
   <i name="OMEGATL">   -200.00000000</i>
   <i type="int" name="OMEGAGRID">   140</i>
   <i name="CSHIFT">     -0.10000000</i>
   <i type="logical" name="SELFENERGY"> F  </i>
   <i type="logical" name="LSPECTRAL"> F  </i>
   <i type="logical" name="LSPECTRALGW"> F  </i>
   <i type="logical" name="LSINGLES"> F  </i>
   <i type="logical" name="LFERMIGW"> F  </i>
   <i type="logical" name="ODDONLYGW"> F  </i>
   <i type="logical" name="EVENONLYGW"> F  </i>
   <i type="int" name="NKREDLFX">     1</i>
   <i type="int" name="NKREDLFY">     1</i>
   <i type="int" name="NKREDLFZ">     1</i>
   <i type="int" name="MAXMEM">  2800</i>
   <i type="int" name="TELESCOPE">     0</i>
   <i type="int" name="TAUPAR">     1</i>
   <i type="int" name="OMEGAPAR">    -1</i>
   <i name="LAMBDA">      1.00000000</i>
  </separator>
  <separator name="External order field" >
   <i name="OFIELD_KAPPA">      0.00000000</i>
   <v name="OFIELD_K">      0.00000000      0.00000000      0.00000000</v>
   <i name="OFIELD_Q6_NEAR">      0.00000000</i>
   <i name="OFIELD_Q6_FAR">      0.00000000</i>
   <i name="OFIELD_A">      0.00000000</i>
  </separator>
 </parameters>
 <atominfo>
  <atoms>      60 </atoms>
  <types>       5 </types>
  <array name="atoms" >
   <dimension dim="1">ion</dimension>
   <field type="string">element</field>
   <field type="int">atomtype</field>
   <set>
    <rc><c>Li</c><c>   1</c></rc>
    <rc><c>Li</c><c>   1</c></rc>
    <rc><c>Li</c><c>   1</c></rc>
    <rc><c>Li</c><c>   1</c></rc>
    <rc><c>Li</c><c>   1</c></rc>
    <rc><c>Li</c><c>   1</c></rc>
    <rc><c>Li</c><c>   1</c></rc>
    <rc><c>Li</c><c>   1</c></rc>
    <rc><c>Mg</c><c>   2</c></rc>
    <rc><c>Mg</c><c>   2</c></rc>
    <rc><c>Mg</c><c>   2</c></rc>
    <rc><c>Mg</c><c>   2</c></rc>
    <rc><c>Bi</c><c>   3</c></rc>
    <rc><c>Bi</c><c>   3</c></rc>
    <rc><c>Bi</c><c>   3</c></rc>
    <rc><c>Bi</c><c>   3</c></rc>
    <rc><c>Bi</c><c>   3</c></rc>
    <rc><c>Bi</c><c>   3</c></rc>
    <rc><c>Bi</c><c>   3</c></rc>
    <rc><c>Bi</c><c>   3</c></rc>
    <rc><c>Bi</c><c>   3</c></rc>
    <rc><c>Bi</c><c>   3</c></rc>
    <rc><c>Bi</c><c>   3</c></rc>
    <rc><c>Bi</c><c>   3</c></rc>
    <rc><c>Bi</c><c>   3</c></rc>
    <rc><c>Bi</c><c>   3</c></rc>
    <rc><c>Bi</c><c>   3</c></rc>
    <rc><c>Bi</c><c>   3</c></rc>
    <rc><c>S </c><c>   4</c></rc>
    <rc><c>S </c><c>   4</c></rc>
    <rc><c>S </c><c>   4</c></rc>
    <rc><c>S </c><c>   4</c></rc>
    <rc><c>S </c><c>   4</c></rc>
    <rc><c>S </c><c>   4</c></rc>
    <rc><c>S </c><c>   4</c></rc>
    <rc><c>S </c><c>   4</c></rc>
    <rc><c>S </c><c>   4</c></rc>
    <rc><c>S </c><c>   4</c></rc>
    <rc><c>S </c><c>   4</c></rc>
    <rc><c>S </c><c>   4</c></rc>
    <rc><c>S </c><c>   4</c></rc>
    <rc><c>S </c><c>   4</c></rc>
    <rc><c>S </c><c>   4</c></rc>
    <rc><c>S </c><c>   4</c></rc>
    <rc><c>O </c><c>   5</c></rc>
    <rc><c>O </c><c>   5</c></rc>
    <rc><c>O </c><c>   5</c></rc>
    <rc><c>O </c><c>   5</c></rc>
    <rc><c>O </c><c>   5</c></rc>
    <rc><c>O </c><c>   5</c></rc>
    <rc><c>O </c><c>   5</c></rc>
    <rc><c>O </c><c>   5</c></rc>
    <rc><c>O </c><c>   5</c></rc>
    <rc><c>O </c><c>   5</c></rc>
    <rc><c>O </c><c>   5</c></rc>
    <rc><c>O </c><c>   5</c></rc>
    <rc><c>O </c><c>   5</c></rc>
    <rc><c>O </c><c>   5</c></rc>
    <rc><c>O </c><c>   5</c></rc>
    <rc><c>O </c><c>   5</c></rc>
   </set>
  </array>
  <array name="atomtypes" >
   <dimension dim="1">type</dimension>
   <field type="int">atomspertype</field>
   <field type="string">element</field>
   <field>mass</field>
   <field>valence</field>
   <field type="string">pseudopotential</field>
   <set>
    <rc><c>   8</c><c>Li</c><c>      7.01000000</c><c>      3.00000000</c><c>  PAW_PBE Li_sv 10Sep2004               </c></rc>
    <rc><c>   4</c><c>Mg</c><c>     24.30500000</c><c>      2.00000000</c><c>  PAW_PBE Mg 13Apr2007                  </c></rc>
    <rc><c>  16</c><c>Bi</c><c>    208.98000000</c><c>     15.00000000</c><c>  PAW_PBE Bi_d 06Sep2000                </c></rc>
    <rc><c>  16</c><c>S </c><c>     32.06600000</c><c>      6.00000000</c><c>  PAW_PBE S 06Sep2000                   </c></rc>
    <rc><c>  16</c><c>O </c><c>     16.00000000</c><c>      6.00000000</c><c>  PAW_PBE O 08Apr2002                   </c></rc>
   </set>
  </array>
 </atominfo>
 <structure name="initialpos" >
  <crystal>
   <varray name="basis" >
    <v>      11.17850000       0.00000000       0.00000000 </v>
    <v>       0.00000000       9.57460000       0.00000000 </v>
    <v>       0.00000000       0.00000000      11.18240000 </v>
   </varray>
   <i name="volume">   1196.84853820 </i>
   <varray name="rec_basis" >
    <v>       0.08945744       0.00000000       0.00000000 </v>
    <v>       0.00000000       0.10444301       0.00000000 </v>
    <v>       0.00000000       0.00000000       0.08942624 </v>
   </varray>
  </crystal>
  <varray name="positions" >
   <v>       0.12461000       0.99984000       0.18687000 </v>
   <v>       0.37461000       0.00017000       0.18687000 </v>
   <v>       0.62539000       0.99984000       0.43687000 </v>
   <v>       0.87539000       0.00017000       0.43687000 </v>
   <v>       0.87461000       0.00017000       0.18687000 </v>
   <v>       0.12461000       0.99984000       0.68687000 </v>
   <v>       0.37461000       0.00017000       0.68687000 </v>
   <v>       0.87461000       0.00017000       0.68687000 </v>
   <v>       0.62461000       0.99984000       0.18687000 </v>
   <v>       0.37539000       0.00017000       0.93687000 </v>
   <v>       0.87539000       0.00017000       0.93687000 </v>
   <v>       0.62461000       0.99984000       0.68687000 </v>
   <v>       0.00013000       0.29519000       0.06281000 </v>
   <v>       0.25013000       0.70481000       0.06281000 </v>
   <v>       0.24987000       0.29519000       0.31282000 </v>
   <v>       0.49987000       0.70481000       0.31282000 </v>
   <v>       0.50013000       0.29519000       0.06281000 </v>
   <v>       0.75013000       0.70481000       0.06281000 </v>
   <v>       0.74987000       0.29519000       0.31282000 </v>
   <v>       0.99987000       0.70481000       0.31282000 </v>
   <v>       0.00013000       0.29519000       0.56281000 </v>
   <v>       0.25013000       0.70481000       0.56281000 </v>
   <v>       0.24987000       0.29519000       0.81282000 </v>
   <v>       0.49987000       0.70481000       0.81282000 </v>
   <v>       0.50013000       0.29519000       0.56281000 </v>
   <v>       0.75013000       0.70481000       0.56281000 </v>
   <v>       0.74987000       0.29519000       0.81282000 </v>
   <v>       0.99987000       0.70481000       0.81282000 </v>
   <v>       0.25005000       0.32677000       0.06286000 </v>
   <v>       0.00005000       0.67323000       0.06286000 </v>
   <v>       0.49995000       0.32677000       0.31286000 </v>
   <v>       0.24995000       0.67323000       0.31286000 </v>
   <v>       0.75005000       0.32677000       0.06286000 </v>
   <v>       0.50005000       0.67323000       0.06286000 </v>
   <v>       0.99995000       0.32677000       0.31286000 </v>
   <v>       0.74995000       0.67323000       0.31286000 </v>
   <v>       0.25005000       0.32677000       0.56286000 </v>
   <v>       0.00005000       0.67323000       0.56286000 </v>
   <v>       0.49995000       0.32677000       0.81286000 </v>
   <v>       0.24995000       0.67323000       0.81286000 </v>
   <v>       0.75005000       0.32677000       0.56286000 </v>
   <v>       0.50005000       0.67323000       0.56286000 </v>
   <v>       0.99995000       0.32677000       0.81286000 </v>
   <v>       0.74995000       0.67323000       0.81286000 </v>
   <v>       0.49987000       0.07798000       0.06246000 </v>
   <v>       0.24987000       0.92202000       0.06246000 </v>
   <v>       0.25013000       0.07798000       0.31246000 </v>
   <v>       0.00013000       0.92202000       0.31246000 </v>
   <v>       0.99987000       0.07798000       0.06246000 </v>
   <v>       0.74987000       0.92202000       0.06246000 </v>
   <v>       0.75013000       0.07798000       0.31246000 </v>
   <v>       0.50013000       0.92202000       0.31246000 </v>
   <v>       0.49987000       0.07798000       0.56246000 </v>
   <v>       0.24987000       0.92202000       0.56246000 </v>
   <v>       0.25013000       0.07798000       0.81246000 </v>
   <v>       0.00013000       0.92202000       0.81246000 </v>
   <v>       0.99987000       0.07798000       0.56246000 </v>
   <v>       0.74987000       0.92202000       0.56246000 </v>
   <v>       0.75013000       0.07798000       0.81246000 </v>
   <v>       0.50013000       0.92202000       0.81246000 </v>
  </varray>
 </structure>
 <calculation>
  <scstep>
   <time name="dav">   59.87   60.09</time>
   <time name="total">   59.97   60.24</time>
   <energy>
    <i name="alphaZ">   1067.11773629 </i>
    <i name="ewald"> -30658.14368153 </i>
    <i name="hartreedc"> -12695.46930140 </i>
    <i name="XCdc">   1321.10821030 </i>
    <i name="pawpsdc">  36729.48549953 </i>
    <i name="pawaedc"> -36149.63912807 </i>
    <i name="eentropy">      0.00000000 </i>
    <i name="bandstr">   1837.96977247 </i>
    <i name="atom">  44408.54722957 </i>
    <i name="e_fr_energy">   5860.97633715 </i>
    <i name="e_wo_entrp">   5860.97633715 </i>
    <i name="e_0_energy">   5860.97633715 </i>
   </energy>
  </scstep>
  <scstep>
   <time name="dav">   60.33   60.56</time>
   <time name="total">   60.34   60.57</time>
   <energy>
    <i name="e_fr_energy">    784.76368754 </i>
    <i name="e_wo_entrp">    784.76368754 </i>
    <i name="e_0_energy">    784.76368754 </i>
   </energy>
  </scstep>
  <scstep>
   <time name="dav">   70.90   71.05</time>
   <time name="total">   70.91   71.05</time>
   <energy>
    <i name="e_fr_energy">   -244.87337051 </i>
    <i name="e_wo_entrp">   -244.87337051 </i>
    <i name="e_0_energy">   -244.87337051 </i>
   </energy>
  </scstep>
  <scstep>
   <time name="dav">   71.58   71.98</time>
   <time name="total">   71.58   71.98</time>
   <energy>
    <i name="e_fr_energy">   -340.38012088 </i>
    <i name="e_wo_entrp">   -340.38012088 </i>
    <i name="e_0_energy">   -340.38012088 </i>
   </energy>
  </scstep>
  <scstep>
   <time name="dav">   96.57   97.23</time>
   <time name="total">   97.29   97.96</time>
   <energy>
    <i name="e_fr_energy">   -348.70193842 </i>
    <i name="e_wo_entrp">   -348.70193842 </i>
    <i name="e_0_energy">   -348.70193842 </i>
   </energy>
  </scstep>
  <scstep>
   <time name="dav">   84.90   85.66</time>
   <time name="total">   85.69   86.45</time>
   <energy>
    <i name="e_fr_energy">   -291.40555806 </i>
    <i name="e_wo_entrp">   -291.40555806 </i>
    <i name="e_0_energy">   -291.40555806 </i>
   </energy>
  </scstep>
  <scstep>
   <time name="dav">   64.70   65.19</time>
   <time name="total">   65.48   65.98</time>
   <energy>
    <i name="e_fr_energy">   -293.85068335 </i>
    <i name="e_wo_entrp">   -293.85068335 </i>
    <i name="e_0_energy">   -293.85068335 </i>
   </energy>
  </scstep>
  <scstep>
   <time name="dav">   82.69   82.68</time>
   <time name="total">   83.47   83.46</time>
   <energy>
    <i name="e_fr_energy">   -292.62731426 </i>
    <i name="e_wo_entrp">   -292.62731426 </i>
    <i name="e_0_energy">   -292.62731426 </i>
   </energy>
  </scstep>
  <scstep>
   <time name="dav">   69.26   69.47</time>
   <time name="total">   70.04   70.26</time>
   <energy>
    <i name="e_fr_energy">   -291.99249068 </i>
    <i name="e_wo_entrp">   -291.99249068 </i>
    <i name="e_0_energy">   -291.99249068 </i>
   </energy>
  </scstep>
  <scstep>
   <time name="dav">   74.38   74.93</time>
   <time name="total">   75.16   75.72</time>
   <energy>
    <i name="e_fr_energy">   -292.04521962 </i>
    <i name="e_wo_entrp">   -292.04521962 </i>
    <i name="e_0_energy">   -292.04521962 </i>
   </energy>
  </scstep>
  <scstep>
   <time name="dav">   83.18   84.15</time>
   <time name="total">   83.96   84.93</time>
   <energy>
    <i name="e_fr_energy">   -292.04592751 </i>
    <i name="e_wo_entrp">   -292.04592751 </i>
    <i name="e_0_energy">   -292.04592751 </i>
   </energy>
  </scstep>
  <scstep>
   <time name="dav">   77.78   78.42</time>
   <time name="total">   78.56   79.21</time>
   <energy>
    <i name="e_fr_energy">   -292.04998661 </i>
    <i name="e_wo_entrp">   -292.04998661 </i>
    <i name="e_0_energy">   -292.04998661 </i>
   </energy>
  </scstep>
  <scstep>
   <time name="dav">   72.91   73.15</time>
   <time name="total">   73.69   73.94</time>
   <energy>
    <i name="e_fr_energy">   -292.05093449 </i>
    <i name="e_wo_entrp">   -292.05093449 </i>
    <i name="e_0_energy">   -292.05093449 </i>
   </energy>
  </scstep>
  <scstep>
   <time name="dav">   77.08   77.89</time>
   <time name="total">   77.83   78.68</time>
   <energy>
    <i name="e_fr_energy">   -292.05093906 </i>
    <i name="e_wo_entrp">   -292.05093906 </i>
    <i name="e_0_energy">   -292.05093906 </i>
   </energy>
  </scstep>
  <scstep>
   <time name="dav">   77.94   78.21</time>
   <time name="total">   78.77   79.04</time>
   <energy>
    <i name="e_fr_energy">   -292.05105911 </i>
    <i name="e_wo_entrp">   -292.05105911 </i>
    <i name="e_0_energy">   -292.05105911 </i>
   </energy>
  </scstep>
  <scstep>
   <time name="dav">   79.57   79.72</time>
   <time name="total">   80.35   80.50</time>
   <energy>
    <i name="e_fr_energy">   -292.05105482 </i>
    <i name="e_wo_entrp">   -292.05105482 </i>
    <i name="e_0_energy">   -292.05105482 </i>
   </energy>
  </scstep>
  <scstep>
   <time name="dav">   64.82   64.98</time>
   <time name="total">   65.61   65.78</time>
   <energy>
    <i name="e_fr_energy">   -292.05105710 </i>
    <i name="e_wo_entrp">   -292.05105710 </i>
    <i name="e_0_energy">   -292.05105710 </i>
   </energy>
  </scstep>
  <scstep>
   <time name="dav">   67.24   67.38</time>
   <time name="total">   68.02   68.16</time>
   <energy>
    <i name="e_fr_energy">   -292.05105836 </i>
    <i name="e_wo_entrp">   -292.05105836 </i>
    <i name="e_0_energy">   -292.05105836 </i>
   </energy>
  </scstep>
  <scstep>
   <time name="dav">   56.57   56.86</time>
   <time name="total">   56.64   56.94</time>
   <energy>
    <i name="alphaZ">   1067.11773629 </i>
    <i name="ewald"> -30658.14368153 </i>
    <i name="hartreedc"> -12930.08831751 </i>
    <i name="XCdc">   1345.10493847 </i>
    <i name="pawpsdc">  43757.25892163 </i>
    <i name="pawaedc"> -43151.59203583 </i>
    <i name="eentropy">      0.00000000 </i>
    <i name="bandstr">  -4130.25585023 </i>
    <i name="atom">  44408.54722957 </i>
    <i name="e_fr_energy">   -292.05105915 </i>
    <i name="e_wo_entrp">   -292.05105915 </i>
    <i name="e_0_energy">   -292.05105915 </i>
   </energy>
  </scstep>
  <structure>
   <crystal>
    <varray name="basis" >
     <v>      11.17850000       0.00000000       0.00000000 </v>
     <v>       0.00000000       9.57460000       0.00000000 </v>
     <v>       0.00000000       0.00000000      11.18240000 </v>
    </varray>
    <i name="volume">   1196.84853820 </i>
    <varray name="rec_basis" >
     <v>       0.08945744       0.00000000       0.00000000 </v>
     <v>       0.00000000       0.10444301       0.00000000 </v>
     <v>       0.00000000       0.00000000       0.08942624 </v>
    </varray>
   </crystal>
   <varray name="positions" >
    <v>       0.12461000       0.99984000       0.18687000 </v>
    <v>       0.37461000       0.00017000       0.18687000 </v>
    <v>       0.62539000       0.99984000       0.43687000 </v>
    <v>       0.87539000       0.00017000       0.43687000 </v>
    <v>       0.87461000       0.00017000       0.18687000 </v>
    <v>       0.12461000       0.99984000       0.68687000 </v>
    <v>       0.37461000       0.00017000       0.68687000 </v>
    <v>       0.87461000       0.00017000       0.68687000 </v>
    <v>       0.62461000       0.99984000       0.18687000 </v>
    <v>       0.37539000       0.00017000       0.93687000 </v>
    <v>       0.87539000       0.00017000       0.93687000 </v>
    <v>       0.62461000       0.99984000       0.68687000 </v>
    <v>       0.00013000       0.29519000       0.06281000 </v>
    <v>       0.25013000       0.70481000       0.06281000 </v>
    <v>       0.24987000       0.29519000       0.31282000 </v>
    <v>       0.49987000       0.70481000       0.31282000 </v>
    <v>       0.50013000       0.29519000       0.06281000 </v>
    <v>       0.75013000       0.70481000       0.06281000 </v>
    <v>       0.74987000       0.29519000       0.31282000 </v>
    <v>       0.99987000       0.70481000       0.31282000 </v>
    <v>       0.00013000       0.29519000       0.56281000 </v>
    <v>       0.25013000       0.70481000       0.56281000 </v>
    <v>       0.24987000       0.29519000       0.81282000 </v>
    <v>       0.49987000       0.70481000       0.81282000 </v>
    <v>       0.50013000       0.29519000       0.56281000 </v>
    <v>       0.75013000       0.70481000       0.56281000 </v>
    <v>       0.74987000       0.29519000       0.81282000 </v>
    <v>       0.99987000       0.70481000       0.81282000 </v>
    <v>       0.25005000       0.32677000       0.06286000 </v>
    <v>       0.00005000       0.67323000       0.06286000 </v>
    <v>       0.49995000       0.32677000       0.31286000 </v>
    <v>       0.24995000       0.67323000       0.31286000 </v>
    <v>       0.75005000       0.32677000       0.06286000 </v>
    <v>       0.50005000       0.67323000       0.06286000 </v>
    <v>       0.99995000       0.32677000       0.31286000 </v>
    <v>       0.74995000       0.67323000       0.31286000 </v>
    <v>       0.25005000       0.32677000       0.56286000 </v>
    <v>       0.00005000       0.67323000       0.56286000 </v>
    <v>       0.49995000       0.32677000       0.81286000 </v>
    <v>       0.24995000       0.67323000       0.81286000 </v>
    <v>       0.75005000       0.32677000       0.56286000 </v>
    <v>       0.50005000       0.67323000       0.56286000 </v>
    <v>       0.99995000       0.32677000       0.81286000 </v>
    <v>       0.74995000       0.67323000       0.81286000 </v>
    <v>       0.49987000       0.07798000       0.06246000 </v>
    <v>       0.24987000       0.92202000       0.06246000 </v>
    <v>       0.25013000       0.07798000       0.31246000 </v>
    <v>       0.00013000       0.92202000       0.31246000 </v>
    <v>       0.99987000       0.07798000       0.06246000 </v>
    <v>       0.74987000       0.92202000       0.06246000 </v>
    <v>       0.75013000       0.07798000       0.31246000 </v>
    <v>       0.50013000       0.92202000       0.31246000 </v>
    <v>       0.49987000       0.07798000       0.56246000 </v>
    <v>       0.24987000       0.92202000       0.56246000 </v>
    <v>       0.25013000       0.07798000       0.81246000 </v>
    <v>       0.00013000       0.92202000       0.81246000 </v>
    <v>       0.99987000       0.07798000       0.56246000 </v>
    <v>       0.74987000       0.92202000       0.56246000 </v>
    <v>       0.75013000       0.07798000       0.81246000 </v>
    <v>       0.50013000       0.92202000       0.81246000 </v>
   </varray>
  </structure>
  <varray name="forces" >
   <v>       0.19043963       0.04977004       0.37249201 </v>
   <v>      -0.72483393       0.04782937       0.85659842 </v>
   <v>      -0.54202318       0.00041116       0.00339064 </v>
   <v>       0.76073104      -0.00121179       0.00362929 </v>
   <v>       0.74583269      -0.06183029       0.36968608 </v>
   <v>       0.18968896      -0.04942876      -0.36075635 </v>
   <v>      -0.72437795      -0.05011368      -0.84096001 </v>
   <v>       0.74628900       0.06074239      -0.35414529 </v>
   <v>      -0.25603105      -0.10788640      -0.26521286 </v>
   <v>      -0.58918477      -0.00727322       0.02907173 </v>
   <v>       0.53652808      -0.00576774       0.02900566 </v>
   <v>      -0.25712547       0.11338862       0.33076780 </v>
   <v>       0.50597918       0.04121843       0.17891964 </v>
   <v>      -0.36995698      -0.04155103       0.21118126 </v>
   <v>      -0.16700701      -1.95164792       0.42313316 </v>
   <v>      -0.64925987      -0.09612078       0.36356953 </v>
   <v>      -0.26220778       1.01546759       0.09863469 </v>
   <v>       0.09983356      -1.01651922       0.05251057 </v>
   <v>       0.32674059       1.10756285       0.21320517 </v>
   <v>       0.51832093       0.99582108       0.29637971 </v>
   <v>       0.50155456      -0.98418361      -0.30990305 </v>
   <v>      -0.18477021       1.93463738      -0.43668981 </v>
   <v>      -0.36110761       0.04710615      -0.21683228 </v>
   <v>      -0.24454646      -1.00566480      -0.10331999 </v>
   <v>      -0.65998628       0.11121082      -0.37610999 </v>
   <v>       0.32048407      -1.11829004      -0.22215990 </v>
   <v>       0.10160225       1.01053652      -0.05925416 </v>
   <v>       0.52093535      -0.03847678      -0.18417605 </v>
   <v>       0.24018202       0.17316495      -0.31524289 </v>
   <v>      -0.31134263      -0.13241560      -0.19859388 </v>
   <v>       0.47180661       0.10097844      -0.21292279 </v>
   <v>       0.19006848      -0.21904936      -0.30860283 </v>
   <v>      -0.12106687      -0.01552457      -0.04089190 </v>
   <v>       0.19894105      -0.03582449      -0.11470323 </v>
   <v>      -0.46795465       0.21694323      -0.17761175 </v>
   <v>      -0.19892416      -0.11484794      -0.11666179 </v>
   <v>       0.18745806       0.21738046       0.30925242 </v>
   <v>      -0.46706426      -0.21607096       0.17780353 </v>
   <v>       0.19675025       0.03553015       0.11453370 </v>
   <v>       0.24268244      -0.17256212       0.30862371 </v>
   <v>      -0.20011857       0.11230970       0.11943224 </v>
   <v>       0.47101197      -0.09831865       0.21417761 </v>
   <v>      -0.31070146       0.13008407       0.19601326 </v>
   <v>      -0.11839567       0.01366036       0.03940523 </v>
   <v>      -0.39867637      -0.72908611       0.49537451 </v>
   <v>       1.32067568      -0.02846338      -0.10344702 </v>
   <v>       0.11697709       1.60423704      -1.27582131 </v>
   <v>      -0.93559389      -0.81402733      -0.70390977 </v>
   <v>      -1.37079175      -0.01394330      -0.03518917 </v>
   <v>       0.49337054       0.80536574       0.56506292 </v>
   <v>      -0.63833240      -0.88431340      -0.59161532 </v>
   <v>       1.37831673       0.18133892      -1.20962148 </v>
   <v>       1.38160835      -0.18371990       1.19896731 </v>
   <v>       0.12967975      -1.59704046       1.28318040 </v>
   <v>       1.30005426       0.03500048       0.08611815 </v>
   <v>      -1.37563207       0.01028844       0.02477804 </v>
   <v>      -0.92358490       0.80947160       0.70685973 </v>
   <v>      -0.61659332       0.88358457       0.57310125 </v>
   <v>       0.46341644      -0.80032254      -0.59544715 </v>
   <v>      -0.40076813       0.72645566      -0.51505736 </v>
  </varray>
  <varray name="stress" >
   <v>      -8.34561384      -0.20350565      -0.02281869 </v>
   <v>      -0.20350566     -13.09243250      -0.12260123 </v>
   <v>      -0.02281882      -0.12260089      -7.19872998 </v>
  </varray>
  <energy>
   <i name="e_fr_energy">   -305.52228659 </i>
   <i name="e_wo_entrp">   -305.52228659 </i>
   <i name="e_0_energy">      0.00000000 </i>
  </energy>
  <time name="totalsc"> 1521.42 1530.91</time>
 </calculation>
 <calculation>
  <scstep>
   <time name="dav">   61.43   61.41</time>
   <time name="total">   62.22   62.20</time>
   <energy>
    <i name="alphaZ">   1085.68873054 </i>
    <i name="ewald"> -30809.71464650 </i>
    <i name="hartreedc"> -13018.73813113 </i>
    <i name="XCdc">   1355.19282044 </i>
    <i name="pawpsdc">  43757.16640482 </i>
    <i name="pawaedc"> -43151.50509923 </i>
    <i name="eentropy">      0.00000000 </i>
    <i name="bandstr">  -3918.05149752 </i>
    <i name="atom">  44408.54722957 </i>
    <i name="e_fr_energy">   -291.41418902 </i>
    <i name="e_wo_entrp">   -291.41418902 </i>
    <i name="e_0_energy">   -291.41418902 </i>
   </energy>
  </scstep>
  <scstep>
   <time name="dav">   69.59   69.67</time>
   <time name="total">   70.37   70.45</time>
   <energy>
    <i name="e_fr_energy">   -293.70652498 </i>
    <i name="e_wo_entrp">   -293.70652498 </i>
    <i name="e_0_energy">   -293.70652498 </i>
   </energy>
  </scstep>
  <scstep>
   <time name="dav">   92.64   92.73</time>
   <time name="total">   93.43   93.52</time>
   <energy>
    <i name="e_fr_energy">   -293.48383653 </i>
    <i name="e_wo_entrp">   -293.48383653 </i>
    <i name="e_0_energy">   -293.48383653 </i>
   </energy>
  </scstep>
  <scstep>
   <time name="dav">   76.17   76.77</time>
   <time name="total">   76.95   77.56</time>
   <energy>
    <i name="e_fr_energy">   -293.36910589 </i>
    <i name="e_wo_entrp">   -293.36910589 </i>
    <i name="e_0_energy">   -293.36910589 </i>
   </energy>
  </scstep>
  <scstep>
   <time name="dav">   79.29   79.58</time>
   <time name="total">   80.07   80.37</time>
   <energy>
    <i name="e_fr_energy">   -293.36866264 </i>
    <i name="e_wo_entrp">   -293.36866264 </i>
    <i name="e_0_energy">   -293.36866264 </i>
   </energy>
  </scstep>
  <scstep>
   <time name="dav">   71.57   71.87</time>
   <time name="total">   72.36   72.66</time>
   <energy>
    <i name="e_fr_energy">   -293.36682260 </i>
    <i name="e_wo_entrp">   -293.36682260 </i>
    <i name="e_0_energy">   -293.36682260 </i>
   </energy>
  </scstep>
  <scstep>
   <time name="dav">   79.76   80.11</time>
   <time name="total">   80.55   80.90</time>
   <energy>
    <i name="e_fr_energy">   -293.36598264 </i>
    <i name="e_wo_entrp">   -293.36598264 </i>
    <i name="e_0_energy">   -293.36598264 </i>
   </energy>
  </scstep>
  <scstep>
   <time name="dav">   87.83   88.33</time>
   <time name="total">   88.62   89.11</time>
   <energy>
    <i name="e_fr_energy">   -293.36599326 </i>
    <i name="e_wo_entrp">   -293.36599326 </i>
    <i name="e_0_energy">   -293.36599326 </i>
   </energy>
  </scstep>
  <scstep>
   <time name="dav">   75.68   75.67</time>
   <time name="total">   76.57   76.56</time>
   <energy>
    <i name="e_fr_energy">   -293.36604794 </i>
    <i name="e_wo_entrp">   -293.36604794 </i>
    <i name="e_0_energy">   -293.36604794 </i>
   </energy>
  </scstep>
  <scstep>
   <time name="dav">   85.55   86.02</time>
   <time name="total">   86.34   86.81</time>
   <energy>
    <i name="e_fr_energy">   -293.36604974 </i>
    <i name="e_wo_entrp">   -293.36604974 </i>
    <i name="e_0_energy">   -293.36604974 </i>
   </energy>
  </scstep>
  <scstep>
   <time name="dav">   67.60   67.98</time>
   <time name="total">   68.38   68.77</time>
   <energy>
    <i name="e_fr_energy">   -293.36605210 </i>
    <i name="e_wo_entrp">   -293.36605210 </i>
    <i name="e_0_energy">   -293.36605210 </i>
   </energy>
  </scstep>
  <scstep>
   <time name="dav">   60.22   60.22</time>
   <time name="total">   60.29   60.29</time>
   <energy>
    <i name="alphaZ">   1085.68873054 </i>
    <i name="ewald"> -30809.71464650 </i>
    <i name="hartreedc"> -12862.64825338 </i>
    <i name="XCdc">   1348.21685668 </i>
    <i name="pawpsdc">  44155.34313921 </i>
    <i name="pawaedc"> -43552.74848412 </i>
    <i name="eentropy">      0.00000000 </i>
    <i name="bandstr">  -4066.05062392 </i>
    <i name="atom">  44408.54722957 </i>
    <i name="e_fr_energy">   -293.36605193 </i>
    <i name="e_wo_entrp">   -293.36605193 </i>
    <i name="e_0_energy">   -293.36605193 </i>
   </energy>
  </scstep>
  <structure>
   <crystal>
    <varray name="basis" >
     <v>      11.12246616      -0.00136637      -0.00015321 </v>
     <v>      -0.00117032       9.49930788      -0.00070506 </v>
     <v>      -0.00015326      -0.00082345      11.13404967 </v>
    </varray>
    <i name="volume">   1176.37612590 </i>
    <varray name="rec_basis" >
     <v>       0.08990812       0.00001108       0.00000124 </v>
     <v>       0.00001293       0.10527083       0.00000779 </v>
     <v>       0.00000124       0.00000667       0.08981458 </v>
    </varray>
   </crystal>
   <varray name="positions" >
    <v>       0.12543187       0.00009077       0.18847699 </v>
    <v>       0.37148186       0.00041099       0.19056550 </v>
    <v>       0.62305081       0.99984207       0.43688463 </v>
    <v>       0.87867306       0.00016389       0.43688566 </v>
    <v>       0.87782876      -0.00014154       0.18846488 </v>
    <v>       0.12542863       0.99959095       0.68531364 </v>
    <v>       0.37148383      -0.00008250       0.68324196 </v>
    <v>       0.87783073       0.00047606       0.68534216 </v>
    <v>       0.62350506       0.99929640       0.18572583 </v>
    <v>       0.37284728       0.00013335       0.93699542 </v>
    <v>       0.87770548       0.00014094       0.93699514 </v>
    <v>       0.62350033       0.00041132       0.68829698 </v>
    <v>       0.00231364       0.29539768       0.06358189 </v>
    <v>       0.24853339       0.70460064       0.06372107 </v>
    <v>       0.24914925       0.28535641       0.31464546 </v>
    <v>       0.49706801       0.70432569       0.31438850 </v>
    <v>       0.49899840       0.30030654       0.06323553 </v>
    <v>       0.75056085       0.69968816       0.06303654 </v>
    <v>       0.75128010       0.30077057       0.31373980 </v>
    <v>       0.00210690       0.70982755       0.31409863 </v>
    <v>       0.00229454       0.29023108       0.56147303 </v>
    <v>       0.24933259       0.71455788       0.56092605 </v>
    <v>       0.24831158       0.29542735       0.81188455 </v>
    <v>       0.49881462       0.69974285       0.81237426 </v>
    <v>       0.49728172       0.29575035       0.56118740 </v>
    <v>       0.75151310       0.69917538       0.56185157 </v>
    <v>       0.75030848       0.30028170       0.81256437 </v>
    <v>       0.00211818       0.70461613       0.81202544 </v>
    <v>       0.25108654       0.32764251       0.06149999 </v>
    <v>      -0.00129365       0.67256281       0.06200323 </v>
    <v>       0.50198616       0.32727879       0.31194142 </v>
    <v>       0.25077027       0.67212630       0.31152864 </v>
    <v>       0.74952752       0.32669178       0.06268359 </v>
    <v>       0.50090856       0.67304949       0.06236515 </v>
    <v>       0.99793046       0.32786309       0.31209375 </v>
    <v>       0.74909151       0.67265133       0.31235670 </v>
    <v>       0.25085901       0.32786529       0.56419416 </v>
    <v>      -0.00196569       0.67214130       0.56362707 </v>
    <v>       0.50079911       0.32694902       0.81335412 </v>
    <v>       0.25099734       0.67236053       0.81419145 </v>
    <v>       0.74918636       0.32733588       0.56337525 </v>
    <v>       0.50208273       0.67273461       0.56378400 </v>
    <v>       0.99860912       0.32742544       0.81370563 </v>
    <v>       0.74943904       0.67329883       0.81303000 </v>
    <v>       0.49814945       0.07430642       0.06459712 </v>
    <v>       0.25556959       0.92187658       0.06201371 </v>
    <v>       0.25063483       0.08606312       0.30695590 </v>
    <v>      -0.00390771       0.91791844       0.30942322 </v>
    <v>       0.99395412       0.07790975       0.06230819 </v>
    <v>       0.75199922       0.92607792       0.06489777 </v>
    <v>       0.74737517       0.07352429       0.30990768 </v>
    <v>       0.50607835       0.92293370       0.30724150 </v>
    <v>       0.50583256       0.07705431       0.56763254 </v>
    <v>       0.25042965       0.91397314       0.56799584 </v>
    <v>       0.25574060       0.07815635       0.81283153 </v>
    <v>      -0.00580677       0.92207184       0.81256690 </v>
    <v>       0.99588412       0.08205861       0.56550951 </v>
    <v>       0.74720899       0.92647204       0.56493245 </v>
    <v>       0.75212995       0.07394749       0.80989115 </v>
    <v>       0.49840042       0.92568033       0.81023796 </v>
   </varray>
  </structure>
  <varray name="forces" >
   <v>       0.11706248       0.02574116       0.16408635 </v>
   <v>      -0.36780448       0.00935289       0.56277524 </v>
   <v>      -0.31039700       0.00252514       0.00972224 </v>
   <v>       0.33298320       0.00062120       0.00403195 </v>
   <v>       0.32736119      -0.02899214       0.22661424 </v>
   <v>       0.11391508      -0.02240982      -0.15394761 </v>
   <v>      -0.36674999      -0.00725621      -0.54401650 </v>
   <v>       0.32461245       0.02043347      -0.20291208 </v>
   <v>       0.11189917       0.01517650      -0.51216587 </v>
   <v>       0.04399557      -0.01164107       0.02615984 </v>
   <v>      -0.10472694      -0.00068085       0.02025698 </v>
   <v>       0.11487902      -0.01110751       0.56472517 </v>
   <v>       0.19141686       0.24394473       0.04162838 </v>
   <v>      -0.14135191      -0.30703917       0.03636620 </v>
   <v>      -0.04846487       2.37345220       0.34937547 </v>
   <v>      -0.22461862      -0.05018302       0.15408468 </v>
   <v>      -0.07972958      -0.00356610       0.02366616 </v>
   <v>       0.01208180       0.07504599       0.03041703 </v>
   <v>       0.10404357      -0.07888531       0.06997810 </v>
   <v>       0.18484229      -1.01423253       0.15831759 </v>
   <v>       0.17620483       1.00875541      -0.16165319 </v>
   <v>      -0.05218496      -2.36622418      -0.34385793 </v>
   <v>      -0.13673668       0.30460939      -0.04625581 </v>
   <v>      -0.06549426       0.00701356      -0.03383431 </v>
   <v>      -0.23535524       0.05283335      -0.16260471 </v>
   <v>       0.09338069       0.07896871      -0.07990208 </v>
   <v>       0.01737600      -0.07726350      -0.04100734 </v>
   <v>       0.20399791      -0.24391690      -0.05078760 </v>
   <v>       0.12975349       0.17893403      -0.15588599 </v>
   <v>      -0.15465778      -0.14260063      -0.10223329 </v>
   <v>       0.20613245       0.15183062      -0.10687587 </v>
   <v>       0.09079358      -0.09874355      -0.19729717 </v>
   <v>      -0.02943946       0.12724209      -0.01118134 </v>
   <v>       0.06410621      -0.15405811      -0.02670117 </v>
   <v>      -0.21603072       0.14726023      -0.09265782 </v>
   <v>      -0.08360512      -0.24145926      -0.05848398 </v>
   <v>       0.09075601       0.09781321       0.19552734 </v>
   <v>      -0.21360715      -0.14806417       0.09146393 </v>
   <v>       0.06383655       0.15433862       0.02753962 </v>
   <v>       0.13140115      -0.17831644       0.15333678 </v>
   <v>      -0.08545459       0.24097019       0.05790594 </v>
   <v>       0.20500570      -0.14974505       0.10594608 </v>
   <v>      -0.15664073       0.14052418       0.10194807 </v>
   <v>      -0.02663365      -0.12834285       0.01080034 </v>
   <v>      -0.50179353       0.36526580       0.34566774 </v>
   <v>       0.72925162       0.13285433       0.19245660 </v>
   <v>      -0.00382816      -2.69861425      -1.12706570 </v>
   <v>      -0.54666896       1.14338646      -0.51105122 </v>
   <v>      -0.70341211      -0.08454391       0.20690872 </v>
   <v>       0.48619919      -0.38599808       0.36505226 </v>
   <v>      -0.26143908       0.36674326      -0.26499592 </v>
   <v>       0.63693728      -0.08184453      -0.64649562 </v>
   <v>       0.63669012       0.08926012       0.63256875 </v>
   <v>      -0.00394573       2.67667236       1.11360942 </v>
   <v>       0.71012733      -0.11942465      -0.20941112 </v>
   <v>      -0.71000088       0.08570231      -0.21707046 </v>
   <v>      -0.53466038      -1.12755467       0.49889333 </v>
   <v>      -0.24258354      -0.37649768       0.25041210 </v>
   <v>       0.46426252       0.38450176      -0.38052722 </v>
   <v>      -0.50728922      -0.36256712      -0.35136370 </v>
  </varray>
  <varray name="stress" >
   <v>       7.71338705      -0.13674944      -0.01674847 </v>
   <v>      -0.13674908      10.06291659       0.19672912 </v>
   <v>      -0.01674864       0.19672927       5.71411905 </v>
  </varray>
  <energy>
   <i name="e_fr_energy">   -307.02355410 </i>
   <i name="e_wo_entrp">   -307.02355410 </i>
   <i name="e_0_energy">      0.00000000 </i>
  </energy>
  <time name="totalsc"> 1022.89 1025.99</time>
 </calculation>
 <calculation>
  <scstep>
   <time name="dav">   65.95   66.03</time>
   <time name="total">   66.74   66.83</time>
   <energy>
    <i name="alphaZ">   1084.22709980 </i>
    <i name="ewald"> -30799.33083382 </i>
    <i name="hartreedc"> -12854.50713281 </i>
    <i name="XCdc">   1347.40837260 </i>
    <i name="pawpsdc">  44155.24557582 </i>
    <i name="pawaedc"> -43552.65534854 </i>
    <i name="eentropy">      0.00000000 </i>
    <i name="bandstr">  -4082.32060159 </i>
    <i name="atom">  44408.54722957 </i>
    <i name="e_fr_energy">   -293.38563897 </i>
    <i name="e_wo_entrp">   -293.38563897 </i>
    <i name="e_0_energy">   -293.38563897 </i>
   </energy>
  </scstep>
  <scstep>
   <time name="dav">   66.12   66.13</time>
   <time name="total">   66.91   66.92</time>
   <energy>
    <i name="e_fr_energy">   -293.39666216 </i>
    <i name="e_wo_entrp">   -293.39666216 </i>
    <i name="e_0_energy">   -293.39666216 </i>
   </energy>
  </scstep>
  <scstep>
   <time name="dav">   85.53   85.58</time>
   <time name="total">   86.32   86.37</time>
   <energy>
    <i name="e_fr_energy">   -293.39527937 </i>
    <i name="e_wo_entrp">   -293.39527937 </i>
    <i name="e_0_energy">   -293.39527937 </i>
   </energy>
  </scstep>
  <scstep>
   <time name="dav">   76.38   76.55</time>
   <time name="total">   77.17   77.34</time>
   <energy>
    <i name="e_fr_energy">   -293.39476761 </i>
    <i name="e_wo_entrp">   -293.39476761 </i>
    <i name="e_0_energy">   -293.39476761 </i>
   </energy>
  </scstep>
  <scstep>
   <time name="dav">   75.06   75.23</time>
   <time name="total">   75.84   76.02</time>
   <energy>
    <i name="e_fr_energy">   -293.39473955 </i>
    <i name="e_wo_entrp">   -293.39473955 </i>
    <i name="e_0_energy">   -293.39473955 </i>
   </energy>
  </scstep>
  <scstep>
   <time name="dav">   82.99   83.13</time>
   <time name="total">   83.79   83.94</time>
   <energy>
    <i name="e_fr_energy">   -293.39471964 </i>
    <i name="e_wo_entrp">   -293.39471964 </i>
    <i name="e_0_energy">   -293.39471964 </i>
   </energy>
  </scstep>
  <scstep>
   <time name="dav">   78.69   78.73</time>
   <time name="total">   79.48   79.52</time>
   <energy>
    <i name="e_fr_energy">   -293.39470532 </i>
    <i name="e_wo_entrp">   -293.39470532 </i>
    <i name="e_0_energy">   -293.39470532 </i>
   </energy>
  </scstep>
  <scstep>
   <time name="dav">   74.87   74.86</time>
   <time name="total">   75.65   75.64</time>
   <energy>
    <i name="e_fr_energy">   -293.39470420 </i>
    <i name="e_wo_entrp">   -293.39470420 </i>
    <i name="e_0_energy">   -293.39470420 </i>
   </energy>
  </scstep>
  <scstep>
   <time name="dav">   54.79   54.77</time>
   <time name="total">   54.87   54.85</time>
   <energy>
    <i name="alphaZ">   1084.22709980 </i>
    <i name="ewald"> -30799.33083382 </i>
    <i name="hartreedc"> -12866.77657982 </i>
    <i name="XCdc">   1347.95961237 </i>
    <i name="pawpsdc">  44117.94139095 </i>
    <i name="pawaedc"> -43515.01299875 </i>
    <i name="eentropy">      0.00000000 </i>
    <i name="bandstr">  -4070.94962458 </i>
    <i name="atom">  44408.54722957 </i>
    <i name="e_fr_energy">   -293.39470428 </i>
    <i name="e_wo_entrp">   -293.39470428 </i>
    <i name="e_0_energy">   -293.39470428 </i>
   </energy>
  </scstep>
  <structure>
   <crystal>
    <varray name="basis" >
     <v>      11.12682900      -0.00125998      -0.00014128 </v>
     <v>      -0.00107920       9.50517018      -0.00065016 </v>
     <v>      -0.00014133      -0.00075934      11.13781426 </v>
    </varray>
    <i name="volume">   1177.96198139 </i>
    <varray name="rec_basis" >
     <v>       0.08987287       0.00001020       0.00000114 </v>
     <v>       0.00001191       0.10520590       0.00000717 </v>
     <v>       0.00000114       0.00000614       0.08978422 </v>
    </varray>
   </crystal>
   <varray name="positions" >
    <v>       0.12536756       0.00007107       0.18835132 </v>
    <v>       0.37172664       0.00039209       0.19027652 </v>
    <v>       0.62323386       0.99984194       0.43688349 </v>
    <v>       0.87841615       0.00016434       0.43688443 </v>
    <v>       0.87757689      -0.00011714       0.18834016 </v>
    <v>       0.12536458       0.99961049       0.68543535 </v>
    <v>       0.37172847      -0.00006263       0.68352568 </v>
    <v>       0.87757870       0.00045201       0.68546163 </v>
    <v>       0.62359153       0.99933908       0.18581531 </v>
    <v>       0.37304625       0.00013626       0.93698562 </v>
    <v>       0.87752428       0.00014319       0.93698535 </v>
    <v>       0.62358716       0.00036649       0.68818539 </v>
    <v>       0.00214276       0.29538136       0.06352152 </v>
    <v>       0.24865833       0.70461708       0.06364983 </v>
    <v>       0.24920573       0.28612813       0.31450276 </v>
    <v>       0.49728728       0.70436371       0.31426585 </v>
    <v>       0.49908691       0.29990502       0.06320223 </v>
    <v>       0.75052718       0.70009010       0.06301885 </v>
    <v>       0.75116971       0.30033260       0.31366784 </v>
    <v>       0.00193181       0.70943375       0.31399861 </v>
    <v>       0.00212520       0.29062023       0.56157760 </v>
    <v>       0.24939491       0.71379291       0.56107333 </v>
    <v>       0.24843353       0.29540875       0.81195770 </v>
    <v>       0.49889725       0.70014052       0.81240914 </v>
    <v>       0.49750460       0.29570642       0.56131429 </v>
    <v>       0.75140492       0.69961756       0.56192654 </v>
    <v>       0.75027413       0.29988211       0.81258433 </v>
    <v>       0.00194226       0.70463133       0.81208757 </v>
    <v>       0.25100543       0.32757404       0.06160634 </v>
    <v>      -0.00118850       0.67261519       0.06207024 </v>
    <v>       0.50182682       0.32723885       0.31201324 </v>
    <v>       0.25070609       0.67221291       0.31163275 </v>
    <v>       0.74956840       0.32669792       0.06269738 </v>
    <v>       0.50084138       0.67306365       0.06240385 </v>
    <v>       0.99808849       0.32777734       0.31215367 </v>
    <v>       0.74915869       0.67269675       0.31239606 </v>
    <v>       0.25079569       0.32777932       0.56408983 </v>
    <v>      -0.00180795       0.67222676       0.56356710 </v>
    <v>       0.50073266       0.32693496       0.81331548 </v>
    <v>       0.25091538       0.67242874       0.81408734 </v>
    <v>       0.74925393       0.32729148       0.56333496 </v>
    <v>       0.50192367       0.67277346       0.56371174 </v>
    <v>       0.99871404       0.32737401       0.81363950 </v>
    <v>       0.74947903       0.67329343       0.81301671 </v>
    <v>       0.49828411       0.07459472       0.06443002 </v>
    <v>       0.25512358       0.92188778       0.06204861 </v>
    <v>       0.25059527       0.08542881       0.30738628 </v>
    <v>      -0.00359171       0.91824038       0.30966072 </v>
    <v>       0.99441706       0.07791533       0.06232007 </v>
    <v>       0.75183257       0.92575942       0.06470712 </v>
    <v>       0.74759078       0.07387401       0.31010729 </v>
    <v>       0.50561287       0.92286196       0.30764957 </v>
    <v>       0.50536597       0.07712685       0.56722805 </v>
    <v>       0.25038592       0.91460460       0.56756299 </v>
    <v>       0.25530155       0.07814245       0.81280247 </v>
    <v>      -0.00534220       0.92206784       0.81255854 </v>
    <v>       0.99619599       0.08173855       0.56527102 </v>
    <v>       0.74741718       0.92612266       0.56473909 </v>
    <v>       0.75197348       0.07426395       0.81009205 </v>
    <v>       0.49853574       0.92539311       0.81041171 </v>
   </varray>
  </structure>
  <varray name="forces" >
   <v>       0.12369412       0.02879842       0.18153281 </v>
   <v>      -0.39821336       0.01459841       0.58760108 </v>
   <v>      -0.32914471       0.00235328       0.00919792 </v>
   <v>       0.36709140       0.00048342       0.00399130 </v>
   <v>       0.36222853      -0.03251738       0.23874182 </v>
   <v>       0.12073673      -0.02573501      -0.17135561 </v>
   <v>      -0.39731760      -0.01294568      -0.56917761 </v>
   <v>       0.35969402       0.02455246      -0.21569864 </v>
   <v>       0.07810286       0.00298213      -0.48636954 </v>
   <v>      -0.01072394      -0.01138432       0.02652781 </v>
   <v>      -0.04947240      -0.00099883       0.02103688 </v>
   <v>       0.08083001       0.00121946       0.54043383 </v>
   <v>       0.21608840       0.22868012       0.05264637 </v>
   <v>      -0.15862631      -0.28626986       0.05046649 </v>
   <v>      -0.05495447       1.88055842       0.33696072 </v>
   <v>      -0.26046790      -0.05523116       0.17060914 </v>
   <v>      -0.09471609       0.06440355       0.02939227 </v>
   <v>       0.01907257       0.00227399       0.03202907 </v>
   <v>       0.12345053      -0.00151889       0.08175106 </v>
   <v>       0.20703969      -0.82025866       0.16609704 </v>
   <v>       0.19763549       0.81686340      -0.17033176 </v>
   <v>      -0.06025447      -1.87706540      -0.33371320 </v>
   <v>      -0.15370834       0.28448186      -0.06005386 </v>
   <v>      -0.08017409      -0.06061641      -0.03901898 </v>
   <v>      -0.27157589       0.05887678      -0.17990209 </v>
   <v>       0.11311002       0.00098165      -0.09150779 </v>
   <v>       0.02417005      -0.00468423      -0.04216212 </v>
   <v>       0.22885777      -0.22846397      -0.06153502 </v>
   <v>       0.13893248       0.17900308      -0.16891571 </v>
   <v>      -0.16753161      -0.14199219      -0.10994834 </v>
   <v>       0.22783992       0.14879322      -0.11547845 </v>
   <v>       0.09967311      -0.10932544      -0.20607527 </v>
   <v>      -0.03629947       0.11695619      -0.01334095 </v>
   <v>       0.07469128      -0.14528905      -0.03358533 </v>
   <v>      -0.23806706       0.15382383      -0.09930436 </v>
   <v>      -0.09261118      -0.23206660      -0.06311874 </v>
   <v>       0.09946908       0.10832234       0.20451361 </v>
   <v>      -0.23575450      -0.15453517       0.09824176 </v>
   <v>       0.07427931       0.14551092       0.03432701 </v>
   <v>       0.14062894      -0.17840627       0.16601852 </v>
   <v>      -0.09441580       0.23140457       0.06280983 </v>
   <v>       0.22671508      -0.14667992       0.11473836 </v>
   <v>      -0.16931699       0.13987163       0.10946125 </v>
   <v>      -0.03349661      -0.11813338       0.01287144 </v>
   <v>      -0.49271359       0.28979535       0.35898422 </v>
   <v>       0.77828005       0.12271860       0.16607478 </v>
   <v>       0.00325294      -2.21226560      -1.12181449 </v>
   <v>      -0.57398102       0.95591941      -0.52428859 </v>
   <v>      -0.75878800      -0.08281781       0.18571769 </v>
   <v>       0.48712628      -0.30425360       0.38231817 </v>
   <v>      -0.29357219       0.28220837      -0.29307766 </v>
   <v>       0.70271744      -0.05496197      -0.69823178 </v>
   <v>       0.70261676       0.06176233       0.68420213 </v>
   <v>       0.00448627       2.19422597       1.11068576 </v>
   <v>       0.75887164      -0.10969223      -0.18310783 </v>
   <v>      -0.76506600       0.08350884      -0.19589509 </v>
   <v>      -0.56218805      -0.94225066       0.51349858 </v>
   <v>      -0.27460093      -0.29141158       0.27833097 </v>
   <v>       0.46419652       0.30307437      -0.39895864 </v>
   <v>      -0.49782671      -0.28723506      -0.36584225 </v>
  </varray>
  <varray name="stress" >
   <v>       6.30358153      -0.14207518      -0.01665995 </v>
   <v>      -0.14207507       7.19163486       0.10681764 </v>
   <v>      -0.01665973       0.10681749       4.54794904 </v>
  </varray>
  <energy>
   <i name="e_fr_energy">   -307.03705719 </i>
   <i name="e_wo_entrp">   -307.03705719 </i>
   <i name="e_0_energy">      0.00000000 </i>
  </energy>
  <time name="totalsc">  773.24  774.61</time>
 </calculation>
 <calculation>
  <scstep>
   <time name="dav">   62.15   62.32</time>
   <time name="total">   62.94   63.11</time>
   <energy>
    <i name="alphaZ">   1082.81916562 </i>
    <i name="ewald"> -30877.13317930 </i>
    <i name="hartreedc"> -12774.95965730 </i>
    <i name="XCdc">   1346.60395548 </i>
    <i name="pawpsdc">  44118.03190508 </i>
    <i name="pawaedc"> -43515.10441724 </i>
    <i name="eentropy">      0.00000000 </i>
    <i name="bandstr">  -4081.10345148 </i>
    <i name="atom">  44408.54722957 </i>
    <i name="e_fr_energy">   -292.29844956 </i>
    <i name="e_wo_entrp">   -292.29844956 </i>
    <i name="e_0_energy">   -292.29844956 </i>
   </energy>
  </scstep>
  <scstep>
   <time name="dav">   68.96   69.09</time>
   <time name="total">   69.75   69.88</time>
   <energy>
    <i name="e_fr_energy">   -294.33012813 </i>
    <i name="e_wo_entrp">   -294.33012813 </i>
    <i name="e_0_energy">   -294.33012813 </i>
   </energy>
  </scstep>
  <scstep>
   <time name="dav">   91.56   91.83</time>
   <time name="total">   92.34   92.62</time>
   <energy>
    <i name="e_fr_energy">   -294.30239570 </i>
    <i name="e_wo_entrp">   -294.30239570 </i>
    <i name="e_0_energy">   -294.30239570 </i>
   </energy>
  </scstep>
  <scstep>
   <time name="dav">   74.05   74.39</time>
   <time name="total">   74.83   75.17</time>
   <energy>
    <i name="e_fr_energy">   -294.26365664 </i>
    <i name="e_wo_entrp">   -294.26365664 </i>
    <i name="e_0_energy">   -294.26365664 </i>
   </energy>
  </scstep>
  <scstep>
   <time name="dav">   76.29   76.56</time>
   <time name="total">   77.07   77.34</time>
   <energy>
    <i name="e_fr_energy">   -294.23871688 </i>
    <i name="e_wo_entrp">   -294.23871688 </i>
    <i name="e_0_energy">   -294.23871688 </i>
   </energy>
  </scstep>
  <scstep>
   <time name="dav">   75.96   76.13</time>
   <time name="total">   76.73   76.92</time>
   <energy>
    <i name="e_fr_energy">   -294.23960809 </i>
    <i name="e_wo_entrp">   -294.23960809 </i>
    <i name="e_0_energy">   -294.23960809 </i>
   </energy>
  </scstep>
  <scstep>
   <time name="dav">   80.74   80.92</time>
   <time name="total">   81.53   81.71</time>
   <energy>
    <i name="e_fr_energy">   -294.23960307 </i>
    <i name="e_wo_entrp">   -294.23960307 </i>
    <i name="e_0_energy">   -294.23960307 </i>
   </energy>
  </scstep>
  <scstep>
   <time name="dav">   79.80   79.92</time>
   <time name="total">   80.59   80.71</time>
   <energy>
    <i name="e_fr_energy">   -294.23945737 </i>
    <i name="e_wo_entrp">   -294.23945737 </i>
    <i name="e_0_energy">   -294.23945737 </i>
   </energy>
  </scstep>
  <scstep>
   <time name="dav">   76.07   76.34</time>
   <time name="total">   76.85   77.13</time>
   <energy>
    <i name="e_fr_energy">   -294.23942925 </i>
    <i name="e_wo_entrp">   -294.23942925 </i>
    <i name="e_0_energy">   -294.23942925 </i>
   </energy>
  </scstep>
  <scstep>
   <time name="dav">   70.75   70.92</time>
   <time name="total">   71.53   71.71</time>
   <energy>
    <i name="e_fr_energy">   -294.23944157 </i>
    <i name="e_wo_entrp">   -294.23944157 </i>
    <i name="e_0_energy">   -294.23944157 </i>
   </energy>
  </scstep>
  <scstep>
   <time name="dav">   76.26   76.48</time>
   <time name="total">   77.04   77.26</time>
   <energy>
    <i name="e_fr_energy">   -294.23944462 </i>
    <i name="e_wo_entrp">   -294.23944462 </i>
    <i name="e_0_energy">   -294.23944462 </i>
   </energy>
  </scstep>
  <scstep>
   <time name="dav">   62.49   62.70</time>
   <time name="total">   62.56   62.77</time>
   <energy>
    <i name="alphaZ">   1082.81916562 </i>
    <i name="ewald"> -30877.13317930 </i>
    <i name="hartreedc"> -12784.53776998 </i>
    <i name="XCdc">   1347.05204676 </i>
    <i name="pawpsdc">  43915.86907773 </i>
    <i name="pawaedc"> -43309.31524512 </i>
    <i name="eentropy">      0.00000000 </i>
    <i name="bandstr">  -4077.54076951 </i>
    <i name="atom">  44408.54722957 </i>
    <i name="e_fr_energy">   -294.23944423 </i>
    <i name="e_wo_entrp">   -294.23944423 </i>
    <i name="e_0_energy">   -294.23944423 </i>
   </energy>
  </scstep>
  <structure>
   <crystal>
    <varray name="basis" >
     <v>      11.13781292      -0.00290741      -0.00033080 </v>
     <v>      -0.00248760       9.50496992      -0.00043389 </v>
     <v>      -0.00033099      -0.00050565      11.14153332 </v>
    </varray>
    <i name="volume">   1179.49362489 </i>
    <varray name="rec_basis" >
     <v>       0.08978424       0.00002350       0.00000267 </v>
     <v>       0.00002746       0.10520813       0.00000478 </v>
     <v>       0.00000267       0.00000410       0.08975425 </v>
    </varray>
   </crystal>
   <varray name="positions" >
    <v>       0.12633721       0.00035033       0.18998841 </v>
    <v>       0.36834608       0.00059479       0.19476661 </v>
    <v>       0.62057199       0.99985446       0.43693053 </v>
    <v>       0.88174720       0.00016391       0.43690990 </v>
    <v>       0.88085262      -0.00044688       0.19021468 </v>
    <v>       0.12631977       0.99934773       0.68386887 </v>
    <v>       0.36835264      -0.00026415       0.67915029 </v>
    <v>       0.88084469       0.00073988       0.68372146 </v>
    <v>       0.62333105       0.99906084       0.18312696 </v>
    <v>       0.37163408       0.00005946       0.93716606 </v>
    <v>       0.87855740       0.00012269       0.93714226 </v>
    <v>       0.62333592       0.00068062       0.69125615 </v>
    <v>       0.00423863       0.29663616       0.06416064 </v>
    <v>       0.24712316       0.70307382       0.06435418 </v>
    <v>       0.24858429       0.29022589       0.31692012 </v>
    <v>       0.49466980       0.70382659       0.31583559 </v>
    <v>       0.49807485       0.30298348       0.06355624 </v>
    <v>       0.75083984       0.69734189       0.06327692 </v>
    <v>       0.75245468       0.30333206       0.31451058 </v>
    <v>       0.00401743       0.70803927       0.31539346 </v>
    <v>       0.00413204       0.29202989       0.56013342 </v>
    <v>       0.24870880       0.70966624       0.55863839 </v>
    <v>       0.24694016       0.29695775       0.81119934 </v>
    <v>       0.49798762       0.69710733       0.81200320 </v>
    <v>       0.49481491       0.29630201       0.55967580 </v>
    <v>       0.75263063       0.69658663       0.56102148 </v>
    <v>       0.75061318       0.30260212       0.81226743 </v>
    <v>       0.00412705       0.70338561       0.81139843 </v>
    <v>       0.25215554       0.32893855       0.06015581 </v>
    <v>      -0.00262572       0.67154600       0.06114123 </v>
    <v>       0.50389355       0.32825660       0.31102762 </v>
    <v>       0.25157218       0.67107199       0.31003901 </v>
    <v>       0.74913275       0.32724006       0.06254578 </v>
    <v>       0.50162146       0.67224055       0.06199485 </v>
    <v>       0.99598725       0.32913451       0.31131879 </v>
    <v>       0.74830193       0.67122531       0.31185654 </v>
    <v>       0.25165511       0.32891092       0.56567844 </v>
    <v>      -0.00389750       0.67086784       0.56439783 </v>
    <v>       0.50150607       0.32775858       0.81372726 </v>
    <v>       0.25207831       0.67106915       0.81551021 </v>
    <v>       0.74838700       0.32875249       0.56387956 </v>
    <v>       0.50398358       0.67177403       0.56469717 </v>
    <v>       0.99727092       0.32842590       0.81456042 </v>
    <v>       0.74906143       0.67274023       0.81316285 </v>
    <v>       0.49525652       0.07406314       0.06710836 </v>
    <v>       0.26150831       0.92242454       0.06251719 </v>
    <v>       0.25087969       0.07873009       0.29964662 </v>
    <v>      -0.00821113       0.92080568       0.30579440 </v>
    <v>       0.98799933       0.07746289       0.06303033 </v>
    <v>       0.75505601       0.92642632       0.06764656 </v>
    <v>       0.74485726       0.07288273       0.30748684 </v>
    <v>       0.51180865       0.92308001       0.30186991 </v>
    <v>       0.51156906       0.07693796       0.57292336 </v>
    <v>       0.25070655       0.92123280       0.57527225 </v>
    <v>       0.26155550       0.07769019       0.81222127 </v>
[...]
       <r>    9.0649    0.0000 </r>
       <r>    9.0979    0.0000 </r>
       <r>    9.1059    0.0000 </r>
       <r>    9.1085    0.0000 </r>
       <r>    9.1746    0.0000 </r>
       <r>    9.2042    0.0000 </r>
       <r>    9.2278    0.0000 </r>
      </set>
     </set>
    </set>
   </array>
  </eigenvalues>
  <separator name="orbital magnetization" >
   <v name="MAGDIPOLOUT">      0.00000000      0.00000000      0.00000000</v>
  </separator>
  <dos>
   <i name="efermi">      4.43193218 </i>
   <total>
    <array>
     <dimension dim="1">gridpoints</dimension>
     <dimension dim="2">spin</dimension>
     <field>energy</field>
     <field>total</field>
     <field>integrated</field>
     <set>
      <set comment="spin 1">
       <r>   -42.6613     0.0000     0.0000 </r>
       <r>   -42.4789     0.0000     0.0000 </r>
       <r>   -42.2966     0.0000     0.0000 </r>
       <r>   -42.1142     0.0000     0.0000 </r>
       <r>   -41.9319     0.0000     0.0000 </r>
       <r>   -41.7495     0.0000     0.0000 </r>
       <r>   -41.5672     0.0000     0.0000 </r>
       <r>   -41.3848     0.0000     0.0000 </r>
       <r>   -41.2024     0.0000     0.0000 </r>
       <r>   -41.0201     0.0000     0.0000 </r>
       <r>   -40.8377     0.0000     0.0000 </r>
       <r>   -40.6554     0.0000     0.0000 </r>
       <r>   -40.4730     0.0000     0.0000 </r>
       <r>   -40.2907     0.0000     0.0000 </r>
       <r>   -40.1083     0.0000     2.0000 </r>
       <r>   -39.9260     0.0000     2.0000 </r>
       <r>   -39.7436     0.0000     2.0000 </r>
       <r>   -39.5612     0.0000     2.0000 </r>
       <r>   -39.3789     0.0000    16.0000 </r>
       <r>   -39.1965     0.0000    16.0000 </r>
       <r>   -39.0142     0.0000    16.0000 </r>
       <r>   -38.8318     0.0000    16.0000 </r>
       <r>   -38.6495     0.0000    16.0000 </r>
       <r>   -38.4671     0.0000    16.0000 </r>
       <r>   -38.2848     0.0000    16.0000 </r>
       <r>   -38.1024     0.0000    16.0000 </r>
       <r>   -37.9200     0.0000    16.0000 </r>
       <r>   -37.7377     0.0000    16.0000 </r>
       <r>   -37.5553     0.0000    16.0000 </r>
       <r>   -37.3730     0.0000    16.0000 </r>
       <r>   -37.1906     0.0000    16.0000 </r>
       <r>   -37.0083     0.0000    16.0000 </r>
       <r>   -36.8259     0.0000    16.0000 </r>
       <r>   -36.6436     0.0000    16.0000 </r>
       <r>   -36.4612     0.0000    16.0000 </r>
       <r>   -36.2789     0.0000    16.0000 </r>
       <r>   -36.0965     0.0000    16.0000 </r>
       <r>   -35.9141     0.0000    16.0000 </r>
       <r>   -35.7318     0.0000    16.0000 </r>
       <r>   -35.5494     0.0000    16.0000 </r>
       <r>   -35.3671     0.0000    16.0000 </r>
       <r>   -35.1847     0.0000    16.0000 </r>
       <r>   -35.0024     0.0000    16.0000 </r>
       <r>   -34.8200     0.0000    16.0000 </r>
       <r>   -34.6377     0.0000    16.0000 </r>
       <r>   -34.4553     0.0000    16.0000 </r>
       <r>   -34.2729     0.0000    16.0000 </r>
       <r>   -34.0906     0.0000    16.0000 </r>
       <r>   -33.9082     0.0000    16.0000 </r>
       <r>   -33.7259     0.0000    16.0000 </r>
       <r>   -33.5435     0.0000    16.0000 </r>
       <r>   -33.3612     0.0000    16.0000 </r>
       <r>   -33.1788     0.0000    16.0000 </r>
       <r>   -32.9965     0.0000    16.0000 </r>
       <r>   -32.8141     0.0000    16.0000 </r>
       <r>   -32.6317     0.0000    16.0000 </r>
       <r>   -32.4494     0.0000    16.0000 </r>
       <r>   -32.2670     0.0000    16.0000 </r>
       <r>   -32.0847     0.0000    16.0000 </r>
       <r>   -31.9023     0.0000    16.0000 </r>
       <r>   -31.7200     0.0000    16.0000 </r>
       <r>   -31.5376     0.0000    16.0000 </r>
       <r>   -31.3553     0.0000    16.0000 </r>
       <r>   -31.1729     0.0000    16.0000 </r>
       <r>   -30.9906     0.0000    16.0000 </r>
       <r>   -30.8082     0.0000    16.0000 </r>
       <r>   -30.6258     0.0000    16.0000 </r>
       <r>   -30.4435     0.0000    16.0000 </r>
       <r>   -30.2611     0.0000    16.0000 </r>
       <r>   -30.0788     0.0000    16.0000 </r>
       <r>   -29.8964     0.0000    16.0000 </r>
       <r>   -29.7141     0.0000    16.0000 </r>
       <r>   -29.5317     0.0000    16.0000 </r>
       <r>   -29.3494     0.0000    16.0000 </r>
       <r>   -29.1670     0.0000    16.0000 </r>
       <r>   -28.9846     0.0000    16.0000 </r>
       <r>   -28.8023     0.0000    16.0000 </r>
       <r>   -28.6199     0.0000    16.0000 </r>
       <r>   -28.4376     0.0000    16.0000 </r>
       <r>   -28.2552     0.0000    16.0000 </r>
       <r>   -28.0729     0.0000    16.0000 </r>
       <r>   -27.8905     0.0000    16.0000 </r>
       <r>   -27.7082     0.0000    16.0000 </r>
       <r>   -27.5258     0.0000    16.0000 </r>
       <r>   -27.3435     0.0000    16.0000 </r>
       <r>   -27.1611     0.0000    16.0000 </r>
       <r>   -26.9787     0.0000    16.0000 </r>
       <r>   -26.7964     0.0000    16.0000 </r>
       <r>   -26.6140     0.0000    16.0000 </r>
       <r>   -26.4317     0.0000    16.0000 </r>
       <r>   -26.2493     0.0000    16.0000 </r>
       <r>   -26.0670     0.0000    16.0000 </r>
       <r>   -25.8846     0.0000    16.0000 </r>
       <r>   -25.7023     0.0000    16.0000 </r>
       <r>   -25.5199     0.0000    16.0000 </r>
       <r>   -25.3375     0.0000    16.0000 </r>
       <r>   -25.1552     0.0000    16.0000 </r>
       <r>   -24.9728     0.0000    16.0000 </r>
       <r>   -24.7905     0.0000    16.0000 </r>
       <r>   -24.6081     0.0000    16.0000 </r>
       <r>   -24.4258     0.0000    16.0000 </r>
       <r>   -24.2434     0.0000    16.0000 </r>
       <r>   -24.0611     0.0000    16.0000 </r>
       <r>   -23.8787     0.0000    16.0000 </r>
       <r>   -23.6963     0.0000    16.0000 </r>
       <r>   -23.5140     0.0000    16.0000 </r>
       <r>   -23.3316     0.0000    16.0000 </r>
       <r>   -23.1493     0.0000    16.0000 </r>
       <r>   -22.9669     0.0000    16.0000 </r>
       <r>   -22.7846     0.0000    16.0000 </r>
       <r>   -22.6022     0.0000    16.0000 </r>
       <r>   -22.4199     0.0000    16.0000 </r>
       <r>   -22.2375     0.0000    16.0000 </r>
       <r>   -22.0552     0.0000    16.0000 </r>
       <r>   -21.8728     0.0000    16.0000 </r>
       <r>   -21.6904     0.0000    16.0000 </r>
       <r>   -21.5081     0.0000    16.0000 </r>
       <r>   -21.3257     0.0000    16.0000 </r>
       <r>   -21.1434     0.0000    16.0000 </r>
       <r>   -20.9610     0.0000    16.0000 </r>
       <r>   -20.7787     0.0000    16.0000 </r>
       <r>   -20.5963     0.0000    16.0000 </r>
       <r>   -20.4140     0.0000    16.0000 </r>
       <r>   -20.2316     0.0000    16.0000 </r>
       <r>   -20.0492     0.0000    16.0000 </r>
       <r>   -19.8669     0.0000    16.0000 </r>
       <r>   -19.6845     0.0000    16.0000 </r>
       <r>   -19.5022     0.0000    16.0000 </r>
       <r>   -19.3198     0.0000    16.0000 </r>
       <r>   -19.1375     0.0000    16.0000 </r>
       <r>   -18.9551     0.0000    16.0000 </r>
       <r>   -18.7728     0.0000    16.0000 </r>
       <r>   -18.5904     0.0000    40.0000 </r>
       <r>   -18.4080     0.0000   122.0000 </r>
       <r>   -18.2257     0.0000   160.0000 </r>
       <r>   -18.0433     0.0000   176.0000 </r>
       <r>   -17.8610     0.0000   176.0000 </r>
       <r>   -17.6786     0.0000   176.0000 </r>
       <r>   -17.4963     0.0000   176.0000 </r>
       <r>   -17.3139     0.0000   176.0000 </r>
       <r>   -17.1316     0.0000   176.0000 </r>
       <r>   -16.9492     0.0000   176.0000 </r>
       <r>   -16.7669     0.0000   176.0000 </r>
       <r>   -16.5845     0.0000   176.0000 </r>
       <r>   -16.4021     0.0000   176.0000 </r>
       <r>   -16.2198     0.0000   176.0000 </r>
       <r>   -16.0374     0.0000   176.0000 </r>
       <r>   -15.8551     0.0000   176.0000 </r>
       <r>   -15.6727     0.0000   176.0000 </r>
       <r>   -15.4904     0.0000   176.0000 </r>
       <r>   -15.3080     0.0000   176.0000 </r>
       <r>   -15.1257     0.0000   176.0000 </r>
       <r>   -14.9433     0.0000   176.0000 </r>
       <r>   -14.7609     0.0000   176.0000 </r>
       <r>   -14.5786     0.0000   176.0000 </r>
       <r>   -14.3962     0.0000   176.0000 </r>
       <r>   -14.2139     0.0000   176.0000 </r>
       <r>   -14.0315     0.0000   176.0000 </r>
       <r>   -13.8492     0.0000   176.0000 </r>
       <r>   -13.6668     0.0000   176.0000 </r>
       <r>   -13.4845     0.0000   176.0000 </r>
       <r>   -13.3021     0.0000   176.0000 </r>
       <r>   -13.1197     0.0000   176.0000 </r>
       <r>   -12.9374     0.0000   182.0000 </r>
       <r>   -12.7550     0.0000   184.0000 </r>
       <r>   -12.5727   332.5223   198.5970 </r>
       <r>   -12.3903     0.0000   202.0000 </r>
       <r>   -12.2080     0.0000   208.0000 </r>
       <r>   -12.0256     0.0000   208.0000 </r>
       <r>   -11.8433     0.0000   208.0000 </r>
       <r>   -11.6609     0.0000   208.0000 </r>
       <r>   -11.4786     0.0000   208.0000 </r>
       <r>   -11.2962     0.0000   208.0000 </r>
       <r>   -11.1138     0.0000   208.0000 </r>
       <r>   -10.9315     0.0000   208.0000 </r>
       <r>   -10.7491     0.0000   208.0000 </r>
       <r>   -10.5668     0.0000   208.0000 </r>
       <r>   -10.3844     0.0000   208.0000 </r>
       <r>   -10.2021     0.0000   208.0000 </r>
       <r>   -10.0197     0.0000   208.0000 </r>
       <r>    -9.8374     0.0000   208.0000 </r>
       <r>    -9.6550     0.0000   208.0000 </r>
       <r>    -9.4726     0.0000   208.0000 </r>
       <r>    -9.2903    12.8108   208.8393 </r>
       <r>    -9.1079     9.9060   210.0594 </r>
       <r>    -8.9256     6.4311   211.9177 </r>
       <r>    -8.7432    14.5464   213.1919 </r>
       <r>    -8.5609     0.0000   216.0000 </r>
       <r>    -8.3785    28.4179   220.3894 </r>
       <r>    -8.1962     8.3572   223.7748 </r>
       <r>    -8.0138    29.7840   225.3996 </r>
       <r>    -7.8315    28.7596   232.2329 </r>
       <r>    -7.6491     0.0972   236.0001 </r>
       <r>    -7.4667    20.6241   238.8056 </r>
       <r>    -7.2844     0.0000   240.0000 </r>
       <r>    -7.1020     0.0000   240.0000 </r>
       <r>    -6.9197     0.0000   240.0000 </r>
       <r>    -6.7373     0.0000   240.0000 </r>
       <r>    -6.5550     0.0000   240.0000 </r>
       <r>    -6.3726     0.0000   240.0000 </r>
       <r>    -6.1903    10.0434   240.3687 </r>
       <r>    -6.0079    29.1889   244.6875 </r>
       <r>    -5.8255    11.4737   248.1908 </r>
       <r>    -5.6432    33.1889   251.3535 </r>
       <r>    -5.4608    16.1347   256.4213 </r>
       <r>    -5.2785    23.5016   260.4940 </r>
       <r>    -5.0961     9.4384   263.2489 </r>
       <r>    -4.9138     1.5799   264.0337 </r>
       <r>    -4.7314    12.6924   265.3678 </r>
       <r>    -4.5491     7.9369   267.6157 </r>
       <r>    -4.3667     4.3999   268.6282 </r>
       <r>    -4.1843     7.3521   269.6934 </r>
       <r>    -4.0020     5.0781   271.2155 </r>
       <r>    -3.8196     1.9423   271.7390 </r>
       <r>    -3.6373     0.6077   271.9713 </r>
       <r>    -3.4549     0.0000   272.0000 </r>
       <r>    -3.2726     0.0000   272.0000 </r>
       <r>    -3.0902     0.0000   272.0000 </r>
       <r>    -2.9079     0.0000   272.0000 </r>
       <r>    -2.7255     0.0000   272.0000 </r>
       <r>    -2.5432     0.0000   272.0000 </r>
       <r>    -2.3608     0.0000   272.0000 </r>
       <r>    -2.1784     0.0000   272.0000 </r>
       <r>    -1.9961     0.0000   272.0000 </r>
       <r>    -1.8137     0.0000   272.0000 </r>
       <r>    -1.6314     0.0000   272.0000 </r>
       <r>    -1.4490     0.0000   272.0000 </r>
       <r>    -1.2667     2.8524   272.1093 </r>
       <r>    -1.0843     6.7055   273.2380 </r>
       <r>    -0.9020     5.8447   274.4497 </r>
       <r>    -0.7196    12.6413   276.0401 </r>
       <r>    -0.5372    10.6835   278.3635 </r>
       <r>    -0.3549    16.7073   280.3871 </r>
       <r>    -0.1725    26.8314   284.4808 </r>
       <r>     0.0098    33.5627   289.9178 </r>
       <r>     0.1922    37.4600   297.8240 </r>
       <r>     0.3745    56.2637   305.5409 </r>
       <r>     0.5569    18.5641   312.1732 </r>
       <r>     0.7392    39.9393   318.4448 </r>
       <r>     0.9216    36.0050   325.7073 </r>
       <r>     1.1040    32.8825   331.5979 </r>
       <r>     1.2863    48.9426   339.6572 </r>
       <r>     1.4687    49.2626   347.8286 </r>
       <r>     1.6510    43.5823   355.2561 </r>
       <r>     1.8334    55.0139   365.3985 </r>
       <r>     2.0157    45.0634   373.5638 </r>
       <r>     2.1981    45.7824   381.6597 </r>
       <r>     2.3804    50.3520   389.3221 </r>
       <r>     2.5628    67.7048   399.7325 </r>
       <r>     2.7451    49.1740   412.4346 </r>
       <r>     2.9275    61.4157   425.0317 </r>
       <r>     3.1099    66.9964   437.5478 </r>
       <r>     3.2922    30.3955   446.7403 </r>
       <r>     3.4746    30.1355   451.1789 </r>
       <r>     3.6569    19.4748   458.0291 </r>
       <r>     3.8393    13.5490   460.8621 </r>
       <r>     4.0216     8.1698   462.8418 </r>
       <r>     4.2040     2.8282   463.8440 </r>
       <r>     4.3863     0.0000   464.0000 </r>
       <r>     4.5687     0.0000   464.0000 </r>
       <r>     4.7511     0.0000   464.0000 </r>
       <r>     4.9334     0.0000   464.0000 </r>
       <r>     5.1158     0.0000   464.0000 </r>
       <r>     5.2981     0.0331   464.0001 </r>
       <r>     5.4805     5.6209   464.4532 </r>
       <r>     5.6628     9.9476   465.9846 </r>
       <r>     5.8452    12.1159   467.9212 </r>
       <r>     6.0275    24.8815   471.6974 </r>
       <r>     6.2099    13.5883   474.5782 </r>
       <r>     6.3922    12.7110   476.9556 </r>
       <r>     6.5746    13.9610   479.3516 </r>
       <r>     6.7570    16.2229   482.0977 </r>
       <r>     6.9393    18.6897   485.2761 </r>
       <r>     7.1217    22.2204   488.9827 </r>
       <r>     7.3040    27.8963   493.5303 </r>
       <r>     7.4864    34.6743   498.9270 </r>
       <r>     7.6687    26.8340   505.2905 </r>
       <r>     7.8511    29.6445   510.6176 </r>
       <r>     8.0334    29.3369   515.8082 </r>
       <r>     8.2158    39.1217   522.4328 </r>
       <r>     8.3982    30.0628   529.1668 </r>
       <r>     8.5805    18.1074   533.3937 </r>
       <r>     8.7629    30.8731   537.2747 </r>
       <r>     8.9452    36.4569   543.7196 </r>
       <r>     9.1276    29.2256   550.0739 </r>
       <r>     9.3099    31.8143   555.2214 </r>
       <r>     9.4923     7.1429   559.8143 </r>
       <r>     9.6746     0.0000   560.0000 </r>
       <r>     9.8570     0.0000   560.0000 </r>
       <r>    10.0394     0.0000   560.0000 </r>
       <r>    10.2217     0.0000   560.0000 </r>
       <r>    10.4041     0.0000   560.0000 </r>
       <r>    10.5864     0.0000   560.0000 </r>
       <r>    10.7688     0.0000   560.0000 </r>
       <r>    10.9511     0.0000   560.0000 </r>
       <r>    11.1335     0.0000   560.0000 </r>
       <r>    11.3158     0.0000   560.0000 </r>
       <r>    11.4982     0.0000   560.0000 </r>
       <r>    11.6805     0.0000   560.0000 </r>
       <r>    11.8629     0.0000   560.0000 </r>
       <r>    12.0453     0.0000   560.0000 </r>
      </set>
     </set>
    </array>
   </total>
  </dos>
 </calculation>
 <structure name="finalpos" >
  <crystal>
   <varray name="basis" >
    <v>      11.18446987      -0.00018761       0.00000638 </v>
    <v>      -0.00024550       9.54090556       0.00595974 </v>
    <v>       0.00000777       0.00709244      11.12278489 </v>
   </varray>
   <i name="volume">   1186.91157737 </i>
   <varray name="rec_basis" >
    <v>       0.08940969       0.00000230      -0.00000006 </v>
    <v>       0.00000176       0.10481190      -0.00006683 </v>
    <v>      -0.00000005      -0.00005616       0.08990558 </v>
   </varray>
  </crystal>
  <varray name="positions" >
   <v>       0.11991116      -0.00055612       0.17467184 </v>
   <v>       0.36158293      -0.00749819       0.20920640 </v>
   <v>       0.62063208       0.00001054       0.43759210 </v>
   <v>       0.11765124       0.00002640       0.43757131 </v>
   <v>       0.87838944       0.00499666       0.20834035 </v>
   <v>       0.11989572       0.00056938       0.70048139 </v>
   <v>       0.36156545       0.00751107       0.66584879 </v>
   <v>       0.87839867      -0.00494545       0.66673699 </v>
   <v>       0.62046184      -0.00059621       0.16331462 </v>
   <v>       0.37811145       0.00000611       0.93753957 </v>
   <v>       0.86339875      -0.00002963       0.93752908 </v>
   <v>       0.62045332       0.00058893       0.71178735 </v>
   <v>      -0.00684346       0.30314524       0.06419941 </v>
   <v>       0.24909662       0.69584408       0.06425384 </v>
   <v>       0.24220642       0.29474057       0.31145168 </v>
   <v>       0.49758175       0.69566705       0.31015873 </v>
   <v>       0.49245324       0.31311217       0.06483881 </v>
   <v>       0.74981728       0.68645093       0.06522956 </v>
   <v>       0.74419785       0.30268347       0.31003928 </v>
   <v>      -0.00047319       0.70344182       0.31158458 </v>
   <v>      -0.00043071       0.29663636       0.56347231 </v>
   <v>       0.24219207       0.70529628       0.56360197 </v>
   <v>       0.24909327       0.30416444       0.81080585 </v>
   <v>       0.49243378       0.68688070       0.81029533 </v>
   <v>       0.49763353       0.30434002       0.56496972 </v>
   <v>       0.74417369       0.69733677       0.56508069 </v>
   <v>       0.74983142       0.31353253       0.80989932 </v>
   <v>      -0.00685533       0.69683056       0.81085054 </v>
   <v>       0.24821180       0.34554760       0.06178387 </v>
   <v>      -0.00525320       0.65448308       0.06132019 </v>
   <v>       0.49715006       0.34398507       0.31164453 </v>
   <v>       0.24745315       0.65630467       0.31132213 </v>
   <v>       0.74648294       0.35228985       0.06266130 </v>
   <v>       0.49661659       0.64737977       0.06232272 </v>
   <v>      -0.00470483       0.34347894       0.31156356 </v>
   <v>       0.74558570       0.65496018       0.31142804 </v>
   <v>       0.24747437       0.34374283       0.56375188 </v>
   <v>      -0.00468752       0.65654990       0.56346940 </v>
   <v>       0.49660072       0.35259159       0.81277260 </v>
   <v>       0.24820662       0.65446614       0.81328452 </v>
   <v>       0.74559950       0.34505794       0.56367909 </v>
   <v>       0.49715097       0.65599274       0.56344728 </v>
   <v>      -0.00527144       0.34556768       0.81373687 </v>
   <v>       0.74647873       0.64769790       0.81243599 </v>
   <v>       0.48815487       0.08891121       0.06477502 </v>
   <v>       0.27332362       0.91246362       0.06612461 </v>
   <v>       0.22919992       0.08220367       0.29675566 </v>
   <v>       0.01071785       0.91633839       0.29713428 </v>
   <v>       0.96849024       0.08659760       0.06621988 </v>
   <v>       0.75367078       0.91082209       0.06531104 </v>
   <v>       0.72694480       0.08660476       0.28805627 </v>
   <v>       0.51390474       0.91186853       0.28798282 </v>
   <v>       0.51392069       0.08812243       0.58710313 </v>
   <v>       0.22918339       0.91786479       0.57832675 </v>
   <v>       0.27330933       0.08754228       0.80893523 </v>
   <v>      -0.03151126       0.91339113       0.80882673 </v>
   <v>       0.01073588       0.08371317       0.57798226 </v>
   <v>       0.72691850       0.91342254       0.58701643 </v>
   <v>       0.75368152       0.08916170       0.80976676 </v>
   <v>       0.48814071       0.91107973       0.81030776 </v>
  </varray>
 </structure>
</modeling>
