<?xml version="1.0" encoding="ISO-8859-1"?>
<modeling>
 <generator>
  <i name="program" type="string">vasp </i>
  <i name="version" type="string">5.4.4.18Apr17-6-g9f103f2a35  </i>
  <i name="subversion" type="string">(build Jul 31 2017 11:33:29) complex            parallel </i>
  <i name="platform" type="string">LinuxIFC </i>
  <i name="date" type="string">2021 09 29 </i>
  <i name="time" type="string">07:41:43 </i>
 </generator>
 <incar>
  <i type="string" name="SYSTEM"> La2O2S</i>
  <i type="string" name="PREC">normal</i>
  <i type="int" name="NELMIN">     4</i>
  <i type="int" name="IBRION">     2</i>
  <i type="int" name="NFREE">    10</i>
  <i name="EDIFF">      0.00000100</i>
  <i name="EDIFFG">     -0.01000000</i>
  <i type="int" name="NSW">     1</i>
  <i type="int" name="ISIF">     2</i>
  <i name="ENCUT">    600.00000000</i>
  <i name="ENAUG">    900.00000000</i>
  <i type="int" name="ISMEAR">    -5</i>
  <i type="logical" name="LWAVE"> F  </i>
  <i type="logical" name="LCHARG"> F  </i>
  <v type="int" name="KPOINT_BSE">    -1     0     0     0</v>
 </incar>
 <structure name="primitive_cell" >
  <crystal>
   <varray name="basis" >
    <v>      11.17850000       0.00000000       0.00000000 </v>
    <v>       0.00000000       9.57460000       0.00000000 </v>
    <v>       0.00000000       0.00000000      11.18240000 </v>
   </varray>
   <i name="volume">   1196.84853820 </i>
   <varray name="rec_basis" >
    <v>       0.08945744       0.00000000       0.00000000 </v>
    <v>       0.00000000       0.10444301       0.00000000 </v>
    <v>       0.00000000       0.00000000       0.08942624 </v>
   </varray>
  </crystal>
  <varray name="positions" >
   <v>       0.37539000       0.00017000       0.43687000 </v>
   <v>      -0.49987000      -0.07798000       0.31246000 </v>
   <v>       0.25013000       0.07798000       0.31246000 </v>
   <v>       0.49987000       0.07798000      -0.43754000 </v>
   <v>       0.24987000      -0.07798000      -0.43754000 </v>
   <v>      -0.37461000      -0.00017000       0.43687000 </v>
   <v>       0.37461000       0.00017000       0.18687000 </v>
   <v>       0.37461000       0.00017000      -0.31313000 </v>
   <v>       0.49987000      -0.29519000       0.31282000 </v>
   <v>       0.24987000       0.29519000       0.31282000 </v>
   <v>      -0.49987000       0.29519000      -0.43718000 </v>
   <v>       0.25013000      -0.29519000      -0.43718000 </v>
   <v>       0.49995000       0.32677000       0.31286000 </v>
   <v>       0.24995000      -0.32677000       0.31286000 </v>
   <v>      -0.49995000      -0.32677000      -0.43714000 </v>
   <v>       0.25005000       0.32677000      -0.43714000 </v>
   <v>      -0.37539000      -0.00017000       0.18687000 </v>
   <v>      -0.37539000      -0.00017000      -0.31313000 </v>
   <v>       0.12461000      -0.00017000      -0.31313000 </v>
   <v>       0.12461000      -0.00017000       0.18687000 </v>
   <v>       0.49987000       0.07798000       0.06246000 </v>
   <v>      -0.24987000       0.07798000       0.31246000 </v>
   <v>      -0.25013000      -0.07798000      -0.43754000 </v>
   <v>       0.24987000      -0.07798000       0.06246000 </v>
   <v>       0.00013000      -0.07798000       0.31246000 </v>
   <v>      -0.49987000      -0.07798000      -0.18754000 </v>
   <v>      -0.00013000       0.07798000      -0.43754000 </v>
   <v>       0.25013000       0.07798000      -0.18754000 </v>
   <v>      -0.49987000       0.29519000       0.06282000 </v>
   <v>      -0.25013000       0.29519000       0.31282000 </v>
   <v>       0.25013000      -0.29519000       0.06282000 </v>
   <v>      -0.24987000      -0.29519000      -0.43718000 </v>
   <v>      -0.00013000      -0.29519000       0.31282000 </v>
   <v>       0.00013000       0.29519000      -0.43718000 </v>
   <v>       0.49987000      -0.29519000      -0.18718000 </v>
   <v>       0.24987000       0.29519000      -0.18718000 </v>
   <v>      -0.49995000      -0.32677000       0.06286000 </v>
   <v>       0.25005000       0.32677000       0.06286000 </v>
   <v>      -0.25005000      -0.32677000       0.31286000 </v>
   <v>      -0.24995000       0.32677000      -0.43714000 </v>
   <v>      -0.00005000       0.32677000       0.31286000 </v>
   <v>       0.00005000      -0.32677000      -0.43714000 </v>
   <v>       0.49995000       0.32677000      -0.18714000 </v>
   <v>       0.24995000      -0.32677000      -0.18714000 </v>
   <v>      -0.12461000       0.00017000       0.43687000 </v>
   <v>       0.37539000       0.00017000      -0.06313000 </v>
   <v>      -0.25013000      -0.07798000       0.06246000 </v>
   <v>      -0.00013000       0.07798000       0.06246000 </v>
   <v>      -0.24987000       0.07798000      -0.18754000 </v>
   <v>       0.00013000      -0.07798000      -0.18754000 </v>
   <v>      -0.12539000       0.00017000       0.18687000 </v>
   <v>      -0.12539000       0.00017000      -0.31313000 </v>
   <v>       0.12539000      -0.00017000      -0.06313000 </v>
   <v>      -0.37461000      -0.00017000      -0.06313000 </v>
   <v>      -0.24987000      -0.29519000       0.06282000 </v>
   <v>       0.00013000       0.29519000       0.06282000 </v>
   <v>      -0.25013000       0.29519000      -0.18718000 </v>
   <v>      -0.00013000      -0.29519000      -0.18718000 </v>
   <v>      -0.24995000       0.32677000       0.06286000 </v>
   <v>       0.00005000      -0.32677000       0.06286000 </v>
   <v>      -0.25005000      -0.32677000      -0.18714000 </v>
   <v>      -0.00005000       0.32677000      -0.18714000 </v>
   <v>      -0.12461000       0.00017000      -0.06313000 </v>
  </varray>
 </structure>
 <varray name="primitive_index" >
  <v type="int" >        1 </v>
  <v type="int" >       53 </v>
  <v type="int" >       51 </v>
  <v type="int" >       56 </v>
  <v type="int" >       58 </v>
  <v type="int" >        3 </v>
  <v type="int" >        2 </v>
  <v type="int" >       10 </v>
  <v type="int" >       19 </v>
  <v type="int" >       18 </v>
  <v type="int" >       28 </v>
  <v type="int" >       25 </v>
  <v type="int" >       34 </v>
  <v type="int" >       35 </v>
  <v type="int" >       45 </v>
  <v type="int" >       40 </v>
  <v type="int" >        5 </v>
  <v type="int" >       13 </v>
  <v type="int" >        9 </v>
  <v type="int" >       15 </v>
  <v type="int" >       48 </v>
  <v type="int" >       55 </v>
  <v type="int" >       62 </v>
  <v type="int" >       50 </v>
  <v type="int" >       49 </v>
  <v type="int" >       61 </v>
  <v type="int" >       60 </v>
  <v type="int" >       59 </v>
  <v type="int" >       20 </v>
  <v type="int" >       22 </v>
  <v type="int" >       17 </v>
  <v type="int" >       29 </v>
  <v type="int" >       23 </v>
  <v type="int" >       24 </v>
  <v type="int" >       27 </v>
  <v type="int" >       26 </v>
  <v type="int" >       37 </v>
  <v type="int" >       32 </v>
  <v type="int" >       39 </v>
  <v type="int" >       44 </v>
  <v type="int" >       38 </v>
  <v type="int" >       41 </v>
  <v type="int" >       42 </v>
  <v type="int" >       43 </v>
  <v type="int" >        4 </v>
  <v type="int" >        8 </v>
  <v type="int" >       54 </v>
  <v type="int" >       52 </v>
  <v type="int" >       63 </v>
  <v type="int" >       57 </v>
  <v type="int" >        6 </v>
  <v type="int" >       14 </v>
  <v type="int" >        7 </v>
  <v type="int" >       11 </v>
  <v type="int" >       21 </v>
  <v type="int" >       16 </v>
  <v type="int" >       30 </v>
  <v type="int" >       31 </v>
  <v type="int" >       36 </v>
  <v type="int" >       33 </v>
  <v type="int" >       47 </v>
  <v type="int" >       46 </v>
  <v type="int" >       12 </v>
 </varray>
 <kpoints>
  <generation param="Gamma">
   <v type="int" name="divisions">       2        2        2 </v>
   <v name="usershift">      0.00000000       0.00000000       0.00000000 </v>
   <v name="genvec1">      0.50000000       0.00000000       0.00000000 </v>
   <v name="genvec2">      0.00000000       0.50000000       0.00000000 </v>
   <v name="genvec3">      0.00000000       0.00000000       0.50000000 </v>
   <v name="shift">      0.00000000       0.00000000       0.00000000 </v>
  </generation>
  <varray name="kpointlist" >
   <v>       0.00000000       0.00000000       0.00000000 </v>
   <v>       0.50000000       0.00000000       0.00000000 </v>
   <v>       0.00000000       0.50000000       0.00000000 </v>
   <v>       0.50000000       0.50000000       0.00000000 </v>
   <v>       0.00000000       0.00000000       0.50000000 </v>
   <v>       0.50000000       0.00000000       0.50000000 </v>
   <v>       0.00000000       0.50000000       0.50000000 </v>
   <v>       0.50000000       0.50000000       0.50000000 </v>
  </varray>
  <varray name="weights" >
   <v>       0.12500000 </v>
   <v>       0.12500000 </v>
   <v>       0.12500000 </v>
   <v>       0.12500000 </v>
   <v>       0.12500000 </v>
   <v>       0.12500000 </v>
   <v>       0.12500000 </v>
   <v>       0.12500000 </v>
  </varray>
  <varray name="tetrahedronlist"  type="int" >
   <v type="int" >        2        1        2        4        5 </v>
   <v type="int" >        2        1        3        4        5 </v>
   <v type="int" >        2        3        4        5        7 </v>
   <v type="int" >        2        2        4        5        6 </v>
   <v type="int" >        2        4        5        6        8 </v>
   <v type="int" >        2        4        5        7        8 </v>
   <v type="int" >        2        1        2        3        6 </v>
   <v type="int" >        2        2        3        4        6 </v>
   <v type="int" >        2        3        4        6        8 </v>
   <v type="int" >        2        1        3        5        6 </v>
   <v type="int" >        2        3        5        6        7 </v>
   <v type="int" >        2        3        6        7        8 </v>
   <v type="int" >        2        2        3        4        7 </v>
   <v type="int" >        2        1        2        3        7 </v>
   <v type="int" >        2        1        2        5        7 </v>
   <v type="int" >        2        2        4        7        8 </v>
   <v type="int" >        2        2        6        7        8 </v>
   <v type="int" >        2        2        5        6        7 </v>
   <v type="int" >        2        1        3        4        8 </v>
   <v type="int" >        2        1        2        4        8 </v>
   <v type="int" >        2        1        2        6        8 </v>
   <v type="int" >        2        1        3        7        8 </v>
   <v type="int" >        2        1        5        7        8 </v>
   <v type="int" >        2        1        5        6        8 </v>
  </varray>
  <i name="volumeweight">      0.02083333 </i>
 </kpoints>
 <parameters>
  <separator name="general" >
   <i type="string" name="SYSTEM">La2O2S</i>
   <i type="logical" name="LCOMPAT"> F  </i>
  </separator>
  <separator name="electronic" >
   <i type="string" name="PREC">normal</i>
   <i name="ENMAX">    600.00000000</i>
   <i name="ENAUG">    900.00000000</i>
   <i name="EDIFF">      0.00000100</i>
   <i type="int" name="IALGO">    38</i>
   <i type="int" name="IWAVPR">    11</i>
   <i type="int" name="NBANDS">   308</i>
   <i name="NELECT">    476.00000000</i>
   <i type="int" name="TURBO">     0</i>
   <i type="int" name="IRESTART">     0</i>
   <i type="int" name="NREBOOT">     0</i>
   <i type="int" name="NMIN">     0</i>
   <i name="EREF">      0.00000000</i>
   <separator name="electronic smearing" >
    <i type="int" name="ISMEAR">    -5</i>
    <i name="SIGMA">      0.20000000</i>
    <i name="KSPACING">      0.50000000</i>
    <i type="logical" name="KGAMMA"> T  </i>
   </separator>
   <separator name="electronic projectors" >
    <i type="logical" name="LREAL"> F  </i>
    <v name="ROPT">      0.00000000      0.00000000      0.00000000      0.00000000      0.00000000</v>
    <i type="int" name="LMAXPAW">  -100</i>
    <i type="int" name="LMAXMIX">     2</i>
    <i type="logical" name="NLSPLINE"> F  </i>
   </separator>
   <separator name="electronic startup" >
    <i type="int" name="ISTART">     0</i>
    <i type="int" name="ICHARG">     2</i>
    <i type="int" name="INIWAV">     1</i>
   </separator>
   <separator name="electronic spin" >
    <i type="int" name="ISPIN">     1</i>
    <i type="logical" name="LNONCOLLINEAR"> F  </i>
    <v name="MAGMOM">      1.00000000      1.00000000      1.00000000      1.00000000      1.00000000      1.00000000      1.00000000      1.00000000      1.00000000      1.00000000      1.00000000      1.00000000      1.00000000      1.00000000      1.00000000      1.00000000      1.00000000      1.00000000      1.00000000      1.00000000
      1.00000000      1.00000000      1.00000000      1.00000000      1.00000000      1.00000000      1.00000000      1.00000000      1.00000000      1.00000000      1.00000000      1.00000000      1.00000000      1.00000000      1.00000000      1.00000000      1.00000000      1.00000000      1.00000000      1.00000000
      1.00000000      1.00000000      1.00000000      1.00000000      1.00000000      1.00000000      1.00000000      1.00000000      1.00000000      1.00000000      1.00000000      1.00000000      1.00000000      1.00000000      1.00000000      1.00000000      1.00000000      1.00000000      1.00000000      1.00000000
      1.00000000      1.00000000      1.00000000</v>
    <i name="NUPDOWN">     -1.00000000</i>
    <i type="logical" name="LSORBIT"> F  </i>
    <v name="SAXIS">      0.00000000      0.00000000      1.00000000</v>
    <i type="logical" name="LSPIRAL"> F  </i>
    <v name="QSPIRAL">      0.00000000      0.00000000      0.00000000</v>
    <i type="logical" name="LZEROZ"> F  </i>
   </separator>
   <separator name="electronic exchange-correlation" >
    <i type="logical" name="LASPH"> F  </i>
    <i type="logical" name="LMETAGGA"> F  </i>
   </separator>
   <separator name="electronic convergence" >
    <i type="int" name="NELM">    60</i>
    <i type="int" name="NELMDL">    -5</i>
    <i type="int" name="NELMIN">     4</i>
    <i name="ENINI">    600.00000000</i>
    <separator name="electronic convergence detail" >
     <i type="logical" name="LDIAG"> T  </i>
     <i type="logical" name="LSUBROT"> F  </i>
     <i name="WEIMIN">      0.00100000</i>
     <i name="EBREAK">      0.00000000</i>
     <i name="DEPER">      0.30000000</i>
     <i type="int" name="NRMM">     4</i>
     <i name="TIME">      0.40000000</i>
    </separator>
   </separator>
   <separator name="electronic mixer" >
    <i name="AMIX">      0.40000000</i>
    <i name="BMIX">      1.00000000</i>
    <i name="AMIN">      0.10000000</i>
    <i name="AMIX_MAG">      1.60000000</i>
    <i name="BMIX_MAG">      1.00000000</i>
    <separator name="electronic mixer details" >
     <i type="int" name="IMIX">     4</i>
     <i type="logical" name="MIXFIRST"> F  </i>
     <i type="int" name="MAXMIX">   -45</i>
     <i name="WC">    100.00000000</i>
     <i type="int" name="INIMIX">     1</i>
     <i type="int" name="MIXPRE">     1</i>
     <i type="int" name="MREMOVE">     5</i>
    </separator>
   </separator>
   <separator name="electronic dipolcorrection" >
    <i type="logical" name="LDIPOL"> F  </i>
    <i type="logical" name="LMONO"> F  </i>
    <i type="int" name="IDIPOL">     0</i>
    <i name="EPSILON">      1.00000000</i>
    <v name="DIPOL">   -100.00000000   -100.00000000   -100.00000000</v>
    <i name="EFIELD">      0.00000000</i>
   </separator>
  </separator>
  <separator name="grids" >
   <i type="int" name="NGX">    70</i>
   <i type="int" name="NGY">    60</i>
   <i type="int" name="NGZ">    70</i>
   <i type="int" name="NGXF">   140</i>
   <i type="int" name="NGYF">   120</i>
   <i type="int" name="NGZF">   140</i>
   <i type="logical" name="ADDGRID"> F  </i>
  </separator>
  <separator name="ionic" >
   <i type="int" name="NSW">     1</i>
   <i type="int" name="IBRION">     2</i>
   <i type="int" name="MDALGO">     0</i>
   <i type="int" name="ISIF">     2</i>
   <i name="PSTRESS">      0.00000000</i>
   <i name="EDIFFG">     -0.01000000</i>
   <i type="int" name="NFREE">    10</i>
   <i name="POTIM">      0.50000000</i>
   <i name="SMASS">     -3.00000000</i>
   <i name="SCALEE">      1.00000000</i>
  </separator>
  <separator name="ionic md" >
   <i name="TEBEG">      0.00010000</i>
   <i name="TEEND">      0.00010000</i>
   <i type="int" name="NBLOCK">     1</i>
   <i type="int" name="KBLOCK">     1</i>
   <i type="int" name="NPACO">   256</i>
   <i name="APACO">     16.00000000</i>
  </separator>
  <separator name="symmetry" >
   <i type="int" name="ISYM">     2</i>
   <i name="SYMPREC">      0.00001000</i>
  </separator>
  <separator name="dos" >
   <i type="int" name="LORBIT">     0</i>
   <v name="RWIGS">     -1.00000000     -1.00000000     -1.00000000     -1.00000000     -1.00000000</v>
   <i type="int" name="NEDOS">   301</i>
   <i name="EMIN">     10.00000000</i>
   <i name="EMAX">    -10.00000000</i>
   <i name="EFERMI">      0.00000000</i>
  </separator>
  <separator name="writing" >
   <i type="int" name="NWRITE">     2</i>
   <i type="logical" name="LWAVE"> F  </i>
   <i type="logical" name="LDOWNSAMPLE"> F  </i>
   <i type="logical" name="LCHARG"> F  </i>
   <i type="logical" name="LPARD"> F  </i>
   <i type="logical" name="LVTOT"> F  </i>
   <i type="logical" name="LVHAR"> F  </i>
   <i type="logical" name="LELF"> F  </i>
   <i type="logical" name="LOPTICS"> F  </i>
   <v name="STM">      0.00000000      0.00000000      0.00000000      0.00000000      0.00000000      0.00000000      0.00000000</v>
  </separator>
  <separator name="performance" >
   <i type="int" name="NPAR">    28</i>
   <i type="int" name="NSIM">     4</i>
   <i type="int" name="NBLK">    -1</i>
   <i type="logical" name="LPLANE"> T  </i>
   <i type="logical" name="LSCALAPACK"> T  </i>
   <i type="logical" name="LSCAAWARE"> F  </i>
   <i type="logical" name="LSCALU"> F  </i>
   <i type="logical" name="LASYNC"> F  </i>
   <i type="logical" name="LORBITALREAL"> F  </i>
  </separator>
  <separator name="miscellaneous" >
   <i type="int" name="IDIOT">     3</i>
   <i type="int" name="ISPECIAL">     0</i>
   <i type="logical" name="LMUSIC"> F  </i>
   <v name="POMASS">      7.01000000     24.30500000    208.98000000     32.06600000     16.00000000</v>
   <v name="DARWINR">      0.00000000      0.00000000      0.00000000      0.00000000      0.00000000</v>
   <v name="DARWINV">      1.00000000      1.00000000      1.00000000      1.00000000      1.00000000</v>
   <i type="logical" name="LCORR"> T  </i>
  </separator>
  <i type="logical" name="GGA_COMPAT"> T  </i>
  <i type="logical" name="LBERRY"> F  </i>
  <i type="int" name="ICORELEVEL">     0</i>
  <i type="logical" name="LDAU"> F  </i>
  <i type="int" name="I_CONSTRAINED_M">     0</i>
  <separator name="electronic exchange-correlation" >
   <i type="string" name="GGA">--</i>
   <i type="int" name="VOSKOWN">     0</i>
   <i type="logical" name="LHFCALC"> F  </i>
   <i type="string" name="PRECFOCK"></i>
   <i type="logical" name="LSYMGRAD"> F  </i>
   <i type="logical" name="LHFONE"> F  </i>
   <i type="logical" name="LRHFCALC"> F  </i>
   <i type="logical" name="LTHOMAS"> F  </i>
   <i type="logical" name="LMODELHF"> F  </i>
   <i name="ENCUT4O">     -1.00000000</i>
   <i type="int" name="EXXOEP">     0</i>
   <i type="int" name="FOURORBIT">     0</i>
   <i name="AEXX">      0.00000000</i>
   <i name="HFALPHA">      0.00000000</i>
   <i name="MCALPHA">      0.00000000</i>
   <i name="ALDAX">      1.00000000</i>
   <i name="AGGAX">      1.00000000</i>
   <i name="ALDAC">      1.00000000</i>
   <i name="AGGAC">      1.00000000</i>
   <i type="int" name="NKREDX">     1</i>
   <i type="int" name="NKREDY">     1</i>
   <i type="int" name="NKREDZ">     1</i>
   <i type="logical" name="SHIFTRED"> F  </i>
   <i type="logical" name="ODDONLY"> F  </i>
   <i type="logical" name="EVENONLY"> F  </i>
   <i type="int" name="LMAXFOCK">     0</i>
   <i type="int" name="NMAXFOCKAE">     0</i>
   <i type="logical" name="LFOCKAEDFT"> F  </i>
   <i name="HFSCREEN">      0.00000000</i>
   <i name="HFSCREENC">      0.00000000</i>
   <i type="int" name="NBANDSGWLOW">     0</i>
  </separator>
  <separator name="vdW DFT" >
   <i type="logical" name="LUSE_VDW"> F  </i>
   <i name="Zab_VDW">     -0.84910000</i>
   <i name="PARAM1">      0.12340000</i>
   <i name="PARAM2">      1.00000000</i>
   <i name="PARAM3">      0.00000000</i>
  </separator>
  <separator name="model GW" >
   <i type="int" name="MODEL_GW">     0</i>
   <i name="MODEL_EPS0">     11.39855751</i>
   <i name="MODEL_ALPHA">      1.00000000</i>
  </separator>
  <separator name="linear response parameters" >
   <i type="logical" name="LEPSILON"> F  </i>
   <i type="logical" name="LRPA"> F  </i>
   <i type="logical" name="LNABLA"> F  </i>
   <i type="logical" name="LVEL"> F  </i>
   <i type="int" name="KINTER">     0</i>
   <i name="CSHIFT">      0.10000000</i>
   <i name="OMEGAMAX">     -1.00000000</i>
   <i name="DEG_THRESHOLD">      0.00200000</i>
   <i name="RTIME">     -0.10000000</i>
   <i name="WPLASMAI">      0.00000000</i>
   <v name="DFIELD">      0.00000000      0.00000000      0.00000000</v>
   <v name="WPLASMA">      0.00000000      0.00000000      0.00000000      0.00000000      0.00000000      0.00000000      0.00000000      0.00000000      0.00000000</v>
  </separator>
  <separator name="orbital magnetization" >
   <i type="logical" name="NUCIND"> F  </i>
   <v name="MAGPOS">      0.00000000      0.00000000      0.00000000</v>
   <i type="logical" name="LNICSALL"> T  </i>
   <i type="logical" name="ORBITALMAG"> F  </i>
   <i type="logical" name="LMAGBLOCH"> F  </i>
   <i type="logical" name="LCHIMAG"> F  </i>
   <i type="logical" name="LGAUGE"> T  </i>
   <i type="int" name="MAGATOM">     0</i>
   <v name="MAGDIPOL">      0.00000000      0.00000000      0.00000000</v>
   <v name="AVECCONST">      0.00000000      0.00000000      0.00000000</v>
  </separator>
  <separator name="response functions" >
   <i type="logical" name="LADDER"> F  </i>
   <i type="logical" name="LRPAFORCE"> F  </i>
   <i type="logical" name="LFXC"> F  </i>
   <i type="logical" name="LHARTREE"> T  </i>
   <i type="int" name="IBSE">     0</i>
   <v type="int" name="KPOINT">    -1     0     0     0</v>
   <i type="logical" name="LTCTE"> F  </i>
   <i type="logical" name="LTETE"> F  </i>
   <i type="logical" name="LTRIPLET"> F  </i>
   <i type="logical" name="LFXCEPS"> F  </i>
   <i type="logical" name="LFXHEG"> F  </i>
   <i type="int" name="NATURALO">     2</i>
   <i type="logical" name="L2ORDER"> F  </i>
   <i type="logical" name="LMP2LT"> F  </i>
   <i type="logical" name="LUSEW"> F  </i>
   <i name="ENCUTGW">     -2.00000000</i>
   <i name="ENCUTGWSOFT">     -2.00000000</i>
   <i name="ENCUTLF">     -1.00000000</i>
   <i type="int" name="LMAXMP2">    -1</i>
   <i name="SCISSOR">      0.00000000</i>
   <i type="int" name="NOMEGA">     0</i>
   <i type="int" name="NOMEGAR">     0</i>
   <i type="int" name="NBANDSGW">    -1</i>
   <i type="int" name="NBANDSO">    -1</i>
   <i type="int" name="NBANDSV">    -1</i>
   <i type="int" name="NELM">     1</i>
   <i type="int" name="NELMHF">     1</i>
   <i type="int" name="DIM">     3</i>
   <i type="int" name="ANTIRES">     0</i>
   <i name="OMEGAMAX">    -30.00000000</i>
   <i name="OMEGAMIN">    -30.00000000</i>
   <i name="OMEGATL">   -200.00000000</i>
   <i type="int" name="OMEGAGRID">   140</i>
   <i name="CSHIFT">     -0.10000000</i>
   <i type="logical" name="SELFENERGY"> F  </i>
   <i type="logical" name="LSPECTRAL"> F  </i>
   <i type="logical" name="LSPECTRALGW"> F  </i>
   <i type="logical" name="LSINGLES"> F  </i>
   <i type="logical" name="LFERMIGW"> F  </i>
   <i type="logical" name="ODDONLYGW"> F  </i>
   <i type="logical" name="EVENONLYGW"> F  </i>
   <i type="int" name="NKREDLFX">     1</i>
   <i type="int" name="NKREDLFY">     1</i>
   <i type="int" name="NKREDLFZ">     1</i>
   <i type="int" name="MAXMEM">  2800</i>
   <i type="int" name="TELESCOPE">     0</i>
   <i type="int" name="TAUPAR">     1</i>
   <i type="int" name="OMEGAPAR">    -1</i>
   <i name="LAMBDA">      1.00000000</i>
  </separator>
  <separator name="External order field" >
   <i name="OFIELD_KAPPA">      0.00000000</i>
   <v name="OFIELD_K">      0.00000000      0.00000000      0.00000000</v>
   <i name="OFIELD_Q6_NEAR">      0.00000000</i>
   <i name="OFIELD_Q6_FAR">      0.00000000</i>
   <i name="OFIELD_A">      0.00000000</i>
  </separator>
 </parameters>
 <atominfo>
  <atoms>      63 </atoms>
  <types>       5 </types>
  <array name="atoms" >
   <dimension dim="1">ion</dimension>
   <field type="string">element</field>
   <field type="int">atomtype</field>
   <set>
    <rc><c>Li</c><c>   1</c></rc>
    <rc><c>Li</c><c>   1</c></rc>
    <rc><c>Li</c><c>   1</c></rc>
    <rc><c>Li</c><c>   1</c></rc>
    <rc><c>Li</c><c>   1</c></rc>
    <rc><c>Li</c><c>   1</c></rc>
    <rc><c>Li</c><c>   1</c></rc>
    <rc><c>Li</c><c>   1</c></rc>
    <rc><c>Li</c><c>   1</c></rc>
    <rc><c>Li</c><c>   1</c></rc>
    <rc><c>Li</c><c>   1</c></rc>
    <rc><c>Li</c><c>   1</c></rc>
    <rc><c>Li</c><c>   1</c></rc>
    <rc><c>Li</c><c>   1</c></rc>
    <rc><c>Mg</c><c>   2</c></rc>
    <rc><c>Bi</c><c>   3</c></rc>
    <rc><c>Bi</c><c>   3</c></rc>
    <rc><c>Bi</c><c>   3</c></rc>
    <rc><c>Bi</c><c>   3</c></rc>
    <rc><c>Bi</c><c>   3</c></rc>
    <rc><c>Bi</c><c>   3</c></rc>
    <rc><c>Bi</c><c>   3</c></rc>
    <rc><c>Bi</c><c>   3</c></rc>
    <rc><c>Bi</c><c>   3</c></rc>
    <rc><c>Bi</c><c>   3</c></rc>
    <rc><c>Bi</c><c>   3</c></rc>
    <rc><c>Bi</c><c>   3</c></rc>
    <rc><c>Bi</c><c>   3</c></rc>
    <rc><c>Bi</c><c>   3</c></rc>
    <rc><c>Bi</c><c>   3</c></rc>
    <rc><c>Bi</c><c>   3</c></rc>
    <rc><c>S </c><c>   4</c></rc>
    <rc><c>S </c><c>   4</c></rc>
    <rc><c>S </c><c>   4</c></rc>
    <rc><c>S </c><c>   4</c></rc>
    <rc><c>S </c><c>   4</c></rc>
    <rc><c>S </c><c>   4</c></rc>
    <rc><c>S </c><c>   4</c></rc>
    <rc><c>S </c><c>   4</c></rc>
    <rc><c>S </c><c>   4</c></rc>
    <rc><c>S </c><c>   4</c></rc>
    <rc><c>S </c><c>   4</c></rc>
    <rc><c>S </c><c>   4</c></rc>
    <rc><c>S </c><c>   4</c></rc>
    <rc><c>S </c><c>   4</c></rc>
    <rc><c>S </c><c>   4</c></rc>
    <rc><c>S </c><c>   4</c></rc>
    <rc><c>O </c><c>   5</c></rc>
    <rc><c>O </c><c>   5</c></rc>
    <rc><c>O </c><c>   5</c></rc>
    <rc><c>O </c><c>   5</c></rc>
    <rc><c>O </c><c>   5</c></rc>
    <rc><c>O </c><c>   5</c></rc>
    <rc><c>O </c><c>   5</c></rc>
    <rc><c>O </c><c>   5</c></rc>
    <rc><c>O </c><c>   5</c></rc>
    <rc><c>O </c><c>   5</c></rc>
    <rc><c>O </c><c>   5</c></rc>
    <rc><c>O </c><c>   5</c></rc>
    <rc><c>O </c><c>   5</c></rc>
    <rc><c>O </c><c>   5</c></rc>
    <rc><c>O </c><c>   5</c></rc>
    <rc><c>O </c><c>   5</c></rc>
   </set>
  </array>
  <array name="atomtypes" >
   <dimension dim="1">type</dimension>
   <field type="int">atomspertype</field>
   <field type="string">element</field>
   <field>mass</field>
   <field>valence</field>
   <field type="string">pseudopotential</field>
   <set>
    <rc><c>  14</c><c>Li</c><c>      7.01000000</c><c>      3.00000000</c><c>  PAW_PBE Li_sv 10Sep2004               </c></rc>
    <rc><c>   1</c><c>Mg</c><c>     24.30500000</c><c>      2.00000000</c><c>  PAW_PBE Mg 13Apr2007                  </c></rc>
    <rc><c>  16</c><c>Bi</c><c>    208.98000000</c><c>     15.00000000</c><c>  PAW_PBE Bi_d 06Sep2000                </c></rc>
    <rc><c>  16</c><c>S </c><c>     32.06600000</c><c>      6.00000000</c><c>  PAW_PBE S 06Sep2000                   </c></rc>
    <rc><c>  16</c><c>O </c><c>     16.00000000</c><c>      6.00000000</c><c>  PAW_PBE O 08Apr2002                   </c></rc>
   </set>
  </array>
 </atominfo>
 <structure name="initialpos" >
  <crystal>
   <varray name="basis" >
    <v>      11.17850000       0.00000000       0.00000000 </v>
    <v>       0.00000000       9.57460000       0.00000000 </v>
    <v>       0.00000000       0.00000000      11.18240000 </v>
   </varray>
   <i name="volume">   1196.84853820 </i>
   <varray name="rec_basis" >
    <v>       0.08945744       0.00000000       0.00000000 </v>
    <v>       0.00000000       0.10444301       0.00000000 </v>
    <v>       0.00000000       0.00000000       0.08942624 </v>
   </varray>
  </crystal>
  <varray name="positions" >
   <v>       0.37539000       0.00017000       0.43687000 </v>
   <v>       0.37461000       0.00017000       0.18687000 </v>
   <v>       0.62539000       0.99983000       0.43687000 </v>
   <v>       0.87539000       0.00017000       0.43687000 </v>
   <v>       0.62461000       0.99983000       0.18687000 </v>
   <v>       0.87461000       0.00017000       0.18687000 </v>
   <v>       0.12539000       0.99983000       0.93687000 </v>
   <v>       0.37539000       0.00017000       0.93687000 </v>
   <v>       0.12461000       0.99983000       0.68687000 </v>
   <v>       0.37461000       0.00017000       0.68687000 </v>
   <v>       0.62539000       0.99983000       0.93687000 </v>
   <v>       0.87539000       0.00017000       0.93687000 </v>
   <v>       0.62461000       0.99983000       0.68687000 </v>
   <v>       0.87461000       0.00017000       0.68687000 </v>
   <v>       0.12461000       0.99983000       0.18687000 </v>
   <v>       0.00013000       0.29519000       0.06282000 </v>
   <v>       0.25013000       0.70481000       0.06282000 </v>
   <v>       0.24987000       0.29519000       0.31282000 </v>
   <v>       0.49987000       0.70481000       0.31282000 </v>
   <v>       0.50013000       0.29519000       0.06282000 </v>
   <v>       0.75013000       0.70481000       0.06282000 </v>
   <v>       0.74987000       0.29519000       0.31282000 </v>
   <v>       0.99987000       0.70481000       0.31282000 </v>
   <v>       0.00013000       0.29519000       0.56282000 </v>
   <v>       0.25013000       0.70481000       0.56282000 </v>
   <v>       0.24987000       0.29519000       0.81282000 </v>
   <v>       0.49987000       0.70481000       0.81282000 </v>
   <v>       0.50013000       0.29519000       0.56282000 </v>
   <v>       0.75013000       0.70481000       0.56282000 </v>
   <v>       0.74987000       0.29519000       0.81282000 </v>
   <v>       0.99987000       0.70481000       0.81282000 </v>
   <v>       0.25005000       0.32677000       0.06286000 </v>
   <v>       0.00005000       0.67323000       0.06286000 </v>
   <v>       0.49995000       0.32677000       0.31286000 </v>
   <v>       0.24995000       0.67323000       0.31286000 </v>
   <v>       0.75005000       0.32677000       0.06286000 </v>
   <v>       0.50005000       0.67323000       0.06286000 </v>
   <v>       0.99995000       0.32677000       0.31286000 </v>
   <v>       0.74995000       0.67323000       0.31286000 </v>
   <v>       0.25005000       0.32677000       0.56286000 </v>
   <v>       0.00005000       0.67323000       0.56286000 </v>
   <v>       0.49995000       0.32677000       0.81286000 </v>
   <v>       0.24995000       0.67323000       0.81286000 </v>
   <v>       0.75005000       0.32677000       0.56286000 </v>
   <v>       0.50005000       0.67323000       0.56286000 </v>
   <v>       0.99995000       0.32677000       0.81286000 </v>
   <v>       0.74995000       0.67323000       0.81286000 </v>
   <v>       0.49987000       0.07798000       0.06246000 </v>
   <v>       0.00013000       0.92202000       0.31246000 </v>
   <v>       0.24987000       0.92202000       0.06246000 </v>
   <v>       0.25013000       0.07798000       0.31246000 </v>
   <v>       0.99987000       0.07798000       0.06246000 </v>
   <v>       0.50013000       0.92202000       0.31246000 </v>
   <v>       0.74987000       0.92202000       0.06246000 </v>
   <v>       0.75013000       0.07798000       0.31246000 </v>
   <v>       0.49987000       0.07798000       0.56246000 </v>
   <v>       0.00013000       0.92202000       0.81246000 </v>
   <v>       0.24987000       0.92202000       0.56246000 </v>
   <v>       0.25013000       0.07798000       0.81246000 </v>
   <v>       0.99987000       0.07798000       0.56246000 </v>
   <v>       0.50013000       0.92202000       0.81246000 </v>
   <v>       0.74987000       0.92202000       0.56246000 </v>
   <v>       0.75013000       0.07798000       0.81246000 </v>
  </varray>
 </structure>
 <calculation>
  <scstep>
   <time name="dav">   65.90   66.02</time>
   <time name="total">   65.98   66.11</time>
   <energy>
    <i name="alphaZ">   1086.17722071 </i>
    <i name="ewald"> -31336.04460950 </i>
    <i name="hartreedc"> -12725.06452777 </i>
    <i name="XCdc">   1542.79848321 </i>
    <i name="pawpsdc">  37012.13516878 </i>
    <i name="pawaedc"> -36680.30965123 </i>
    <i name="eentropy">      0.00000000 </i>
    <i name="bandstr">   1533.72837064 </i>
    <i name="atom">  45556.09114881 </i>
    <i name="e_fr_energy">   5989.51160365 </i>
    <i name="e_wo_entrp">   5989.51160365 </i>
    <i name="e_0_energy">   5989.51160365 </i>
   </energy>
  </scstep>
  <scstep>
   <time name="dav">   65.75   65.83</time>
   <time name="total">   65.76   65.84</time>
   <energy>
    <i name="e_fr_energy">    780.02473482 </i>
    <i name="e_wo_entrp">    780.02473482 </i>
    <i name="e_0_energy">    780.02473482 </i>
   </energy>
  </scstep>
  <scstep>
   <time name="dav">   73.61   73.70</time>
   <time name="total">   73.61   73.70</time>
   <energy>
    <i name="e_fr_energy">   -242.05106371 </i>
    <i name="e_wo_entrp">   -242.05106371 </i>
    <i name="e_0_energy">   -242.05106371 </i>
   </energy>
  </scstep>
  <scstep>
   <time name="dav">   81.99   82.36</time>
   <time name="total">   81.99   82.36</time>
   <energy>
    <i name="e_fr_energy">   -357.76430689 </i>
    <i name="e_wo_entrp">   -357.76430689 </i>
    <i name="e_0_energy">   -357.76430689 </i>
   </energy>
  </scstep>
  <scstep>
   <time name="dav">  105.71  106.26</time>
   <time name="total">  106.44  107.00</time>
   <energy>
    <i name="e_fr_energy">   -367.19188278 </i>
    <i name="e_wo_entrp">   -367.19188278 </i>
    <i name="e_0_energy">   -367.19188278 </i>
   </energy>
  </scstep>
  <scstep>
   <time name="dav">   96.26   96.70</time>
   <time name="total">   97.06   97.51</time>
   <energy>
    <i name="e_fr_energy">   -305.80627045 </i>
    <i name="e_wo_entrp">   -305.80627045 </i>
    <i name="e_0_energy">   -305.80627045 </i>
   </energy>
  </scstep>
  <scstep>
   <time name="dav">   73.84   74.39</time>
   <time name="total">   74.64   75.20</time>
   <energy>
    <i name="e_fr_energy">   -308.04583725 </i>
    <i name="e_wo_entrp">   -308.04583725 </i>
    <i name="e_0_energy">   -308.04583725 </i>
   </energy>
  </scstep>
  <scstep>
   <time name="dav">   83.97   84.29</time>
   <time name="total">   84.79   85.11</time>
   <energy>
    <i name="e_fr_energy">   -306.54823636 </i>
    <i name="e_wo_entrp">   -306.54823636 </i>
    <i name="e_0_energy">   -306.54823636 </i>
   </energy>
  </scstep>
  <scstep>
   <time name="dav">   94.21   94.27</time>
   <time name="total">   95.02   95.08</time>
   <energy>
    <i name="e_fr_energy">   -305.85921096 </i>
    <i name="e_wo_entrp">   -305.85921096 </i>
    <i name="e_0_energy">   -305.85921096 </i>
   </energy>
  </scstep>
  <scstep>
   <time name="dav">   82.44   82.63</time>
   <time name="total">   83.24   83.43</time>
   <energy>
    <i name="e_fr_energy">   -305.84245663 </i>
    <i name="e_wo_entrp">   -305.84245663 </i>
    <i name="e_0_energy">   -305.84245663 </i>
   </energy>
  </scstep>
  <scstep>
   <time name="dav">   86.42   87.22</time>
   <time name="total">   87.23   88.03</time>
   <energy>
    <i name="e_fr_energy">   -305.85678205 </i>
    <i name="e_wo_entrp">   -305.85678205 </i>
    <i name="e_0_energy">   -305.85678205 </i>
   </energy>
  </scstep>
  <scstep>
   <time name="dav">   94.07   94.33</time>
   <time name="total">   94.88   95.14</time>
   <energy>
    <i name="e_fr_energy">   -305.86150329 </i>
    <i name="e_wo_entrp">   -305.86150329 </i>
    <i name="e_0_energy">   -305.86150329 </i>
   </energy>
  </scstep>
  <scstep>
   <time name="dav">   78.82   79.24</time>
   <time name="total">   79.66   80.08</time>
   <energy>
    <i name="e_fr_energy">   -305.86244375 </i>
    <i name="e_wo_entrp">   -305.86244375 </i>
    <i name="e_0_energy">   -305.86244375 </i>
   </energy>
  </scstep>
  <scstep>
   <time name="dav">   80.26   80.66</time>
   <time name="total">   81.07   81.47</time>
   <energy>
    <i name="e_fr_energy">   -305.86263156 </i>
    <i name="e_wo_entrp">   -305.86263156 </i>
    <i name="e_0_energy">   -305.86263156 </i>
   </energy>
  </scstep>
  <scstep>
   <time name="dav">   91.19   91.60</time>
   <time name="total">   92.00   92.41</time>
   <energy>
    <i name="e_fr_energy">   -305.86266034 </i>
    <i name="e_wo_entrp">   -305.86266034 </i>
    <i name="e_0_energy">   -305.86266034 </i>
   </energy>
  </scstep>
  <scstep>
   <time name="dav">   71.24   72.07</time>
   <time name="total">   72.05   72.89</time>
   <energy>
    <i name="e_fr_energy">   -305.86267681 </i>
    <i name="e_wo_entrp">   -305.86267681 </i>
    <i name="e_0_energy">   -305.86267681 </i>
   </energy>
  </scstep>
  <scstep>
   <time name="dav">   79.02   79.21</time>
   <time name="total">   79.83   80.02</time>
   <energy>
    <i name="e_fr_energy">   -305.86267857 </i>
    <i name="e_wo_entrp">   -305.86267857 </i>
    <i name="e_0_energy">   -305.86267857 </i>
   </energy>
  </scstep>
  <scstep>
   <time name="dav">   61.45   61.51</time>
   <time name="total">   61.52   61.58</time>
   <energy>
    <i name="alphaZ">   1086.17722071 </i>
    <i name="ewald"> -31336.04460950 </i>
    <i name="hartreedc"> -12961.23901031 </i>
    <i name="XCdc">   1565.18178108 </i>
    <i name="pawpsdc">  44045.82048282 </i>
    <i name="pawaedc"> -43690.23864504 </i>
    <i name="eentropy">      0.00000000 </i>
    <i name="bandstr">  -4571.61104732 </i>
    <i name="atom">  45556.09114881 </i>
    <i name="e_fr_energy">   -305.86267876 </i>
    <i name="e_wo_entrp">   -305.86267876 </i>
    <i name="e_0_energy">   -305.86267876 </i>
   </energy>
  </scstep>
  <structure>
   <crystal>
    <varray name="basis" >
     <v>      11.17850000       0.00000000       0.00000000 </v>
     <v>       0.00000000       9.57460000       0.00000000 </v>
     <v>       0.00000000       0.00000000      11.18240000 </v>
    </varray>
    <i name="volume">   1196.84853820 </i>
    <varray name="rec_basis" >
     <v>       0.08945744       0.00000000       0.00000000 </v>
     <v>       0.00000000       0.10444301       0.00000000 </v>
     <v>       0.00000000       0.00000000       0.08942624 </v>
    </varray>
   </crystal>
   <varray name="positions" >
    <v>       0.37539000       0.00017000       0.43687000 </v>
    <v>       0.37461000       0.00017000       0.18687000 </v>
    <v>       0.62539000       0.99983000       0.43687000 </v>
    <v>       0.87539000       0.00017000       0.43687000 </v>
    <v>       0.62461000       0.99983000       0.18687000 </v>
    <v>       0.87461000       0.00017000       0.18687000 </v>
    <v>       0.12539000       0.99983000       0.93687000 </v>
    <v>       0.37539000       0.00017000       0.93687000 </v>
    <v>       0.12461000       0.99983000       0.68687000 </v>
    <v>       0.37461000       0.00017000       0.68687000 </v>
    <v>       0.62539000       0.99983000       0.93687000 </v>
    <v>       0.87539000       0.00017000       0.93687000 </v>
    <v>       0.62461000       0.99983000       0.68687000 </v>
    <v>       0.87461000       0.00017000       0.68687000 </v>
    <v>       0.12461000       0.99983000       0.18687000 </v>
    <v>       0.00013000       0.29519000       0.06282000 </v>
    <v>       0.25013000       0.70481000       0.06282000 </v>
    <v>       0.24987000       0.29519000       0.31282000 </v>
    <v>       0.49987000       0.70481000       0.31282000 </v>
    <v>       0.50013000       0.29519000       0.06282000 </v>
    <v>       0.75013000       0.70481000       0.06282000 </v>
    <v>       0.74987000       0.29519000       0.31282000 </v>
    <v>       0.99987000       0.70481000       0.31282000 </v>
    <v>       0.00013000       0.29519000       0.56282000 </v>
    <v>       0.25013000       0.70481000       0.56282000 </v>
    <v>       0.24987000       0.29519000       0.81282000 </v>
    <v>       0.49987000       0.70481000       0.81282000 </v>
    <v>       0.50013000       0.29519000       0.56282000 </v>
    <v>       0.75013000       0.70481000       0.56282000 </v>
    <v>       0.74987000       0.29519000       0.81282000 </v>
    <v>       0.99987000       0.70481000       0.81282000 </v>
    <v>       0.25005000       0.32677000       0.06286000 </v>
    <v>       0.00005000       0.67323000       0.06286000 </v>
    <v>       0.49995000       0.32677000       0.31286000 </v>
    <v>       0.24995000       0.67323000       0.31286000 </v>
    <v>       0.75005000       0.32677000       0.06286000 </v>
    <v>       0.50005000       0.67323000       0.06286000 </v>
    <v>       0.99995000       0.32677000       0.31286000 </v>
    <v>       0.74995000       0.67323000       0.31286000 </v>
    <v>       0.25005000       0.32677000       0.56286000 </v>
    <v>       0.00005000       0.67323000       0.56286000 </v>
    <v>       0.49995000       0.32677000       0.81286000 </v>
    <v>       0.24995000       0.67323000       0.81286000 </v>
    <v>       0.75005000       0.32677000       0.56286000 </v>
    <v>       0.50005000       0.67323000       0.56286000 </v>
    <v>       0.99995000       0.32677000       0.81286000 </v>
    <v>       0.74995000       0.67323000       0.81286000 </v>
    <v>       0.49987000       0.07798000       0.06246000 </v>
    <v>       0.00013000       0.92202000       0.31246000 </v>
    <v>       0.24987000       0.92202000       0.06246000 </v>
    <v>       0.25013000       0.07798000       0.31246000 </v>
    <v>       0.99987000       0.07798000       0.06246000 </v>
    <v>       0.50013000       0.92202000       0.31246000 </v>
    <v>       0.74987000       0.92202000       0.06246000 </v>
    <v>       0.75013000       0.07798000       0.31246000 </v>
    <v>       0.49987000       0.07798000       0.56246000 </v>
    <v>       0.00013000       0.92202000       0.81246000 </v>
    <v>       0.24987000       0.92202000       0.56246000 </v>
    <v>       0.25013000       0.07798000       0.81246000 </v>
    <v>       0.99987000       0.07798000       0.56246000 </v>
    <v>       0.50013000       0.92202000       0.81246000 </v>
    <v>       0.74987000       0.92202000       0.56246000 </v>
    <v>       0.75013000       0.07798000       0.81246000 </v>
   </varray>
  </structure>
  <varray name="forces" >
   <v>      -0.42106005      -0.06624479       0.12515353 </v>
   <v>       0.33015916       0.06529078       0.20994830 </v>
   <v>      -0.00840201       0.00040963       0.04856809 </v>
   <v>       0.40562337       0.06459155       0.12439553 </v>
   <v>       0.00797609       0.00044712       0.03399303 </v>
   <v>      -0.31760403      -0.06525410       0.20583710 </v>
   <v>      -0.00650247       0.00044028      -0.52335208 </v>
   <v>       0.08861636       0.06690682      -0.11949290 </v>
   <v>       0.00993646       0.00035869      -0.52405580 </v>
   <v>      -0.14670866      -0.06251391      -0.19202808 </v>
   <v>      -0.00841074       0.00040674      -0.03572058 </v>
   <v>      -0.10344797      -0.06781371      -0.11876088 </v>
   <v>       0.00797868       0.00035818      -0.02403279 </v>
   <v>       0.15940294       0.06095885      -0.18785087 </v>
   <v>       0.02461297       0.00447363       1.10655432 </v>
   <v>      -0.15340264       1.05176345      -0.10659329 </v>
   <v>       0.14490878      -1.04904168      -0.10542125 </v>
   <v>      -0.02501470      -0.02721395       0.43494236 </v>
   <v>       0.02739916      -0.00461935       0.13997582 </v>
   <v>       0.05788758       0.02218312      -0.00624259 </v>
   <v>      -0.07156604      -0.02281682      -0.00664971 </v>
   <v>      -0.01703436       0.00560537       0.13956332 </v>
   <v>       0.03821635       0.01711896       0.43590250 </v>
   <v>       0.14007874      -1.02536332      -0.08760454 </v>
   <v>      -0.15281132       1.03203827      -0.08820570 </v>
   <v>       0.01007380       0.01324508      -0.26005784 </v>
   <v>       0.00364684       0.01006419      -0.15806132 </v>
   <v>      -0.04485529      -0.01281157       0.00651197 </v>
   <v>       0.03144103       0.01211464       0.00689626 </v>
   <v>       0.00739952      -0.00976578      -0.15752600 </v>
   <v>       0.00303463      -0.01318293      -0.26038517 </v>
   <v>      -0.12765209       0.10008043       0.03424150 </v>
   <v>       0.12596831      -0.09871736       0.03596694 </v>
   <v>       0.00732140       0.18369206      -0.07709308 </v>
   <v>      -0.02946427      -0.11383627      -0.32038901 </v>
   <v>       0.07840178       0.14436343       0.00005170 </v>
   <v>      -0.07904125      -0.14438929       0.00003928 </v>
   <v>       0.02952724       0.11320182      -0.31921868 </v>
   <v>      -0.00449958      -0.18348192      -0.07730574 </v>
   <v>       0.11501605       0.19343956       0.02180251 </v>
   <v>      -0.11754383      -0.19320457       0.02059083 </v>
   <v>       0.00121550       0.17855952       0.07940019 </v>
   <v>      -0.00230071      -0.18466673       0.26591087 </v>
   <v>      -0.10658802       0.22023318      -0.00407446 </v>
   <v>       0.10689385      -0.22067783      -0.00406198 </v>
   <v>       0.00310001       0.18414712       0.26497488 </v>
   <v>       0.00067928      -0.17854781       0.07948716 </v>
   <v>      -0.07116387      -0.07763469      -0.00053131 </v>
   <v>      -0.11860248       0.00219847      -1.32464209 </v>
   <v>      -0.55554575       0.84805809       0.45844956 </v>
   <v>       0.09192827      -0.00144029      -1.33350735 </v>
   <v>       0.55904482      -0.84851748       0.45646556 </v>
   <v>      -0.00284164       0.01824835      -0.09050751 </v>
   <v>       0.08275518       0.07790439      -0.00013386 </v>
   <v>      -0.00645015      -0.01910687      -0.09056179 </v>
   <v>       0.08113069       0.03538730       0.00079141 </v>
   <v>      -0.00510776       0.02662572       0.23739722 </v>
   <v>       0.66568537      -0.84067573       0.61094096 </v>
   <v>      -0.00625354      -0.02626101       0.23732403 </v>
   <v>      -0.65797692       0.83751536       0.61032145 </v>
   <v>      -0.00387341       0.01637265       0.08561041 </v>
   <v>      -0.06880650      -0.03450654       0.00042122 </v>
   <v>      -0.00652819      -0.01649650       0.08563844 </v>
  </varray>
  <varray name="stress" >
   <v>      -8.27574385      -0.23500319      -0.02959778 </v>
   <v>      -0.23500269     -14.90980117      -0.01711669 </v>
   <v>      -0.02959761      -0.01711658     -10.57443738 </v>
  </varray>
  <energy>
   <i name="e_fr_energy">   -322.96711455 </i>
   <i name="e_wo_entrp">   -322.96711455 </i>
   <i name="e_0_energy">      0.00000000 </i>
  </energy>
  <time name="totalsc"> 1590.49 1597.33</time>
  <eigenvalues>
   <array>
    <dimension dim="1">band</dimension>
    <dimension dim="2">kpoint</dimension>
    <dimension dim="3">spin</dimension>
    <field>eigene</field>
    <field>occ</field>
    <set>
     <set comment="spin 1">
      <set comment="kpoint 1">
       <r>  -40.1806    1.0000 </r>
       <r>  -40.0154    1.0000 </r>
       <r>  -40.0129    1.0000 </r>
       <r>  -39.9653    1.0000 </r>
       <r>  -39.9625    1.0000 </r>
       <r>  -39.8028    1.0000 </r>
       <r>  -39.7933    1.0000 </r>
       <r>  -39.7118    1.0000 </r>
       <r>  -39.7017    1.0000 </r>
       <r>  -39.5510    1.0000 </r>
       <r>  -39.5488    1.0000 </r>
       <r>  -39.5184    1.0000 </r>
       <r>  -39.5164    1.0000 </r>
       <r>  -39.3568    1.0000 </r>
       <r>  -18.8828    1.0000 </r>
       <r>  -18.8812    1.0000 </r>
       <r>  -18.8115    1.0000 </r>
       <r>  -18.8103    1.0000 </r>
       <r>  -18.8045    1.0000 </r>
       <r>  -18.8033    1.0000 </r>
       <r>  -18.7085    1.0000 </r>
       <r>  -18.7067    1.0000 </r>
       <r>  -18.6956    1.0000 </r>
       <r>  -18.6942    1.0000 </r>
       <r>  -18.6646    1.0000 </r>
       <r>  -18.6639    1.0000 </r>
       <r>  -18.6544    1.0000 </r>
       <r>  -18.6539    1.0000 </r>
       <r>  -18.6457    1.0000 </r>
       <r>  -18.6448    1.0000 </r>
       <r>  -18.6013    1.0000 </r>
       <r>  -18.5991    1.0000 </r>
       <r>  -18.5939    1.0000 </r>
       <r>  -18.5936    1.0000 </r>
       <r>  -18.5929    1.0000 </r>
       <r>  -18.5921    1.0000 </r>
       <r>  -18.5919    1.0000 </r>
       <r>  -18.5900    1.0000 </r>
       <r>  -18.5871    1.0000 </r>
       <r>  -18.5870    1.0000 </r>
       <r>  -18.5851    1.0000 </r>
       <r>  -18.5834    1.0000 </r>
       <r>  -18.5829    1.0000 </r>
       <r>  -18.5822    1.0000 </r>
       <r>  -18.5817    1.0000 </r>
       <r>  -18.5811    1.0000 </r>
       <r>  -18.5790    1.0000 </r>
       <r>  -18.5787    1.0000 </r>
       <r>  -18.5736    1.0000 </r>
       <r>  -18.5731    1.0000 </r>
       <r>  -18.5722    1.0000 </r>
       <r>  -18.5715    1.0000 </r>
       <r>  -18.5687    1.0000 </r>
       <r>  -18.5683    1.0000 </r>
       <r>  -18.5152    1.0000 </r>
       <r>  -18.5147    1.0000 </r>
       <r>  -18.5034    1.0000 </r>
       <r>  -18.5020    1.0000 </r>
       <r>  -18.5016    1.0000 </r>
       <r>  -18.5014    1.0000 </r>
       <r>  -18.4930    1.0000 </r>
       <r>  -18.4925    1.0000 </r>
       <r>  -18.4888    1.0000 </r>
       <r>  -18.4884    1.0000 </r>
       <r>  -18.4463    1.0000 </r>
       <r>  -18.4430    1.0000 </r>
       <r>  -18.4319    1.0000 </r>
       <r>  -18.4290    1.0000 </r>
       <r>  -18.4287    1.0000 </r>
       <r>  -18.4280    1.0000 </r>
       <r>  -18.4275    1.0000 </r>
       <r>  -18.4273    1.0000 </r>
       <r>  -18.4269    1.0000 </r>
       <r>  -18.4267    1.0000 </r>
       <r>  -18.4261    1.0000 </r>
       <r>  -18.4256    1.0000 </r>
       <r>  -18.4245    1.0000 </r>
       <r>  -18.4237    1.0000 </r>
       <r>  -18.4234    1.0000 </r>
       <r>  -18.4224    1.0000 </r>
       <r>  -18.3532    1.0000 </r>
       <r>  -18.3529    1.0000 </r>
       <r>  -18.3477    1.0000 </r>
       <r>  -18.3452    1.0000 </r>
       <r>  -18.3422    1.0000 </r>
       <r>  -18.3410    1.0000 </r>
       <r>  -18.3347    1.0000 </r>
       <r>  -18.3322    1.0000 </r>
       <r>  -18.2562    1.0000 </r>
       <r>  -18.2532    1.0000 </r>
       <r>  -18.1410    1.0000 </r>
       <r>  -18.1380    1.0000 </r>
       <r>  -18.1275    1.0000 </r>
       <r>  -18.1244    1.0000 </r>
       <r>  -13.5206    1.0000 </r>
       <r>  -13.4128    1.0000 </r>
       <r>  -12.7925    1.0000 </r>
       <r>  -12.7246    1.0000 </r>
       <r>  -12.6918    1.0000 </r>
       <r>  -12.6755    1.0000 </r>
       <r>  -12.6376    1.0000 </r>
       <r>  -12.6318    1.0000 </r>
       <r>  -12.6059    1.0000 </r>
       <r>  -12.6024    1.0000 </r>
       <r>  -12.5728    1.0000 </r>
       <r>  -12.5490    1.0000 </r>
       <r>  -12.5135    1.0000 </r>
       <r>  -12.4749    1.0000 </r>
       <r>  -11.9163    1.0000 </r>
       <r>  -11.8633    1.0000 </r>
       <r>   -9.2696    1.0000 </r>
       <r>   -8.9764    1.0000 </r>
       <r>   -8.4790    1.0000 </r>
       <r>   -8.4448    1.0000 </r>
       <r>   -8.4311    1.0000 </r>
       <r>   -8.3887    1.0000 </r>
       <r>   -8.2574    1.0000 </r>
       <r>   -8.2253    1.0000 </r>
       <r>   -8.2052    1.0000 </r>
       <r>   -8.1653    1.0000 </r>
       <r>   -7.9739    1.0000 </r>
       <r>   -7.9734    1.0000 </r>
       <r>   -7.9388    1.0000 </r>
       <r>   -7.9383    1.0000 </r>
       <r>   -7.3024    1.0000 </r>
       <r>   -7.3016    1.0000 </r>
       <r>   -6.3148    1.0000 </r>
       <r>   -6.3126    1.0000 </r>
       <r>   -6.2861    1.0000 </r>
       <r>   -6.2851    1.0000 </r>
       <r>   -5.4743    1.0000 </r>
       <r>   -5.4389    1.0000 </r>
       <r>   -5.3067    1.0000 </r>
       <r>   -5.2829    1.0000 </r>
       <r>   -5.2819    1.0000 </r>
       <r>   -5.1952    1.0000 </r>
       <r>   -5.1536    1.0000 </r>
       <r>   -5.1105    1.0000 </r>
       <r>   -5.0674    1.0000 </r>
       <r>   -5.0012    1.0000 </r>
       <r>   -3.7494    1.0000 </r>
       <r>   -3.5912    1.0000 </r>
       <r>   -1.3374    1.0000 </r>
       <r>   -1.2832    1.0000 </r>
       <r>   -1.0159    1.0000 </r>
       <r>   -0.9797    1.0000 </r>
       <r>   -0.4852    1.0000 </r>
       <r>   -0.4231    1.0000 </r>
       <r>   -0.4193    1.0000 </r>
       <r>   -0.3958    1.0000 </r>
       <r>   -0.1244    1.0000 </r>
       <r>   -0.1056    1.0000 </r>
       <r>   -0.1015    1.0000 </r>
       <r>   -0.0824    1.0000 </r>
       <r>    0.0815    1.0000 </r>
       <r>    0.3183    1.0000 </r>
       <r>    0.4104    1.0000 </r>
       <r>    0.5433    1.0000 </r>
       <r>    0.6040    1.0000 </r>
       <r>    0.6511    1.0000 </r>
       <r>    0.7645    1.0000 </r>
       <r>    0.7670    1.0000 </r>
       <r>    0.7719    1.0000 </r>
       <r>    0.7852    1.0000 </r>
       <r>    0.8148    1.0000 </r>
       <r>    0.8293    1.0000 </r>
       <r>    0.9184    1.0000 </r>
       <r>    0.9320    1.0000 </r>
       <r>    1.0155    1.0000 </r>
       <r>    1.0318    1.0000 </r>
       <r>    1.0567    1.0000 </r>
       <r>    1.0959    1.0000 </r>
       <r>    1.1419    1.0000 </r>
       <r>    1.1712    1.0000 </r>
       <r>    1.3041    1.0000 </r>
       <r>    1.3129    1.0000 </r>
       <r>    1.3317    1.0000 </r>
       <r>    1.4046    1.0000 </r>
       <r>    1.4190    1.0000 </r>
       <r>    1.4509    1.0000 </r>
       <r>    1.5259    1.0000 </r>
       <r>    1.5613    1.0000 </r>
       <r>    1.5655    1.0000 </r>
       <r>    1.5713    1.0000 </r>
       <r>    1.7290    1.0000 </r>
       <r>    1.7428    1.0000 </r>
       <r>    1.7750    1.0000 </r>
       <r>    1.8075    1.0000 </r>
       <r>    1.8235    1.0000 </r>
       <r>    1.8422    1.0000 </r>
       <r>    1.9105    1.0000 </r>
       <r>    1.9120    1.0000 </r>
       <r>    1.9823    1.0000 </r>
       <r>    2.0069    1.0000 </r>
       <r>    2.0831    1.0000 </r>
       <r>    2.1089    1.0000 </r>
       <r>    2.2586    1.0000 </r>
       <r>    2.3051    1.0000 </r>
       <r>    2.3585    1.0000 </r>
       <r>    2.4329    1.0000 </r>
       <r>    2.5972    1.0000 </r>
       <r>    2.6234    1.0000 </r>
       <r>    2.6302    1.0000 </r>
       <r>    2.6381    1.0000 </r>
       <r>    2.6446    1.0000 </r>
       <r>    2.6744    1.0000 </r>
       <r>    2.6793    1.0000 </r>
       <r>    2.7203    1.0000 </r>
       <r>    2.7345    1.0000 </r>
       <r>    2.7354    1.0000 </r>
       <r>    2.7526    1.0000 </r>
       <r>    2.7983    1.0000 </r>
       <r>    2.8259    1.0000 </r>
       <r>    2.8516    1.0000 </r>
       <r>    2.8545    1.0000 </r>
       <r>    2.9415    1.0000 </r>
       <r>    2.9469    1.0000 </r>
       <r>    2.9820    1.0000 </r>
       <r>    2.9843    1.0000 </r>
       <r>    3.0243    1.0000 </r>
       <r>    3.0839    1.0000 </r>
       <r>    3.1513    1.0000 </r>
       <r>    3.1618    1.0000 </r>
       <r>    3.1922    1.0000 </r>
       <r>    3.2078    1.0000 </r>
       <r>    3.2232    1.0000 </r>
       <r>    3.2392    1.0000 </r>
       <r>    3.2832    1.0000 </r>
       <r>    3.3492    1.0000 </r>
       <r>    3.3587    1.0000 </r>
       <r>    3.4548    1.0000 </r>
       <r>    3.4878    1.0000 </r>
       <r>    3.4967    1.0000 </r>
       <r>    3.6228    1.0000 </r>
       <r>    4.2495    1.0000 </r>
       <r>    4.2508    1.0000 </r>
       <r>    4.2727    1.0000 </r>
       <r>    4.2787    1.0000 </r>
       <r>    5.1496    0.0000 </r>
       <r>    5.1505    0.0000 </r>
       <r>    5.1874    0.0000 </r>
       <r>    5.1937    0.0000 </r>
       <r>    5.8090    0.0000 </r>
       <r>    5.8096    0.0000 </r>
       <r>    5.8448    0.0000 </r>
       <r>    5.8474    0.0000 </r>
       <r>    6.1466    0.0000 </r>
       <r>    6.1620    0.0000 </r>
       <r>    6.1890    0.0000 </r>
       <r>    6.1909    0.0000 </r>
       <r>    6.2908    0.0000 </r>
       <r>    6.2957    0.0000 </r>
       <r>    6.3224    0.0000 </r>
       <r>    6.3237    0.0000 </r>
       <r>    7.1988    0.0000 </r>
       <r>    7.2647    0.0000 </r>
       <r>    7.3426    0.0000 </r>
       <r>    7.3537    0.0000 </r>
       <r>    7.8582    0.0000 </r>
       <r>    7.9649    0.0000 </r>
       <r>    7.9757    0.0000 </r>
       <r>    8.0125    0.0000 </r>
       <r>    8.0466    0.0000 </r>
       <r>    8.1559    0.0000 </r>
       <r>    8.2288    0.0000 </r>
       <r>    8.2621    0.0000 </r>
       <r>    8.5415    0.0000 </r>
       <r>    8.7369    0.0000 </r>
       <r>    8.7404    0.0000 </r>
       <r>    8.8326    0.0000 </r>
       <r>    8.8350    0.0000 </r>
       <r>    8.9763    0.0000 </r>
       <r>    9.0222    0.0000 </r>
       <r>    9.0551    0.0000 </r>
       <r>    9.0902    0.0000 </r>
       <r>    9.1040    0.0000 </r>
       <r>    9.1266    0.0000 </r>
       <r>    9.1771    0.0000 </r>
       <r>    9.1905    0.0000 </r>
       <r>    9.2287    0.0000 </r>
       <r>    9.2502    0.0000 </r>
       <r>    9.2926    0.0000 </r>
       <r>    9.5124    0.0000 </r>
       <r>    9.5568    0.0000 </r>
       <r>    9.5783    0.0000 </r>
       <r>    9.6661    0.0000 </r>
       <r>    9.7112    0.0000 </r>
       <r>    9.7369    0.0000 </r>
       <r>    9.7621    0.0000 </r>
       <r>   10.1085    0.0000 </r>
       <r>   10.2827    0.0000 </r>
       <r>   10.2844    0.0000 </r>
       <r>   10.3058    0.0000 </r>
       <r>   10.3407    0.0000 </r>
       <r>   10.5392    0.0000 </r>
       <r>   10.6107    0.0000 </r>
       <r>   10.6398    0.0000 </r>
       <r>   10.6553    0.0000 </r>
       <r>   10.6633    0.0000 </r>
       <r>   10.7633    0.0000 </r>
       <r>   11.3015    0.0000 </r>
       <r>   11.4645    0.0000 </r>
       <r>   11.5399    0.0000 </r>
       <r>   11.5424    0.0000 </r>
       <r>   11.6666    0.0000 </r>
       <r>   11.7251    0.0000 </r>
       <r>   11.7643    0.0000 </r>
       <r>   11.7922    0.0000 </r>
      </set>
      <set comment="kpoint 2">
       <r>  -40.1806    1.0000 </r>
       <r>  -40.0154    1.0000 </r>
       <r>  -40.0129    1.0000 </r>
       <r>  -39.9653    1.0000 </r>
       <r>  -39.9625    1.0000 </r>
       <r>  -39.8028    1.0000 </r>
       <r>  -39.7933    1.0000 </r>
       <r>  -39.7118    1.0000 </r>
       <r>  -39.7017    1.0000 </r>
       <r>  -39.5510    1.0000 </r>
       <r>  -39.5488    1.0000 </r>
       <r>  -39.5184    1.0000 </r>
       <r>  -39.5164    1.0000 </r>
       <r>  -39.3568    1.0000 </r>
       <r>  -18.8828    1.0000 </r>
       <r>  -18.8812    1.0000 </r>
       <r>  -18.8114    1.0000 </r>
       <r>  -18.8102    1.0000 </r>
       <r>  -18.8045    1.0000 </r>
       <r>  -18.8033    1.0000 </r>
       <r>  -18.7085    1.0000 </r>
       <r>  -18.7067    1.0000 </r>
       <r>  -18.6956    1.0000 </r>
       <r>  -18.6942    1.0000 </r>
       <r>  -18.6647    1.0000 </r>
       <r>  -18.6640    1.0000 </r>
       <r>  -18.6543    1.0000 </r>
       <r>  -18.6539    1.0000 </r>
       <r>  -18.6457    1.0000 </r>
       <r>  -18.6448    1.0000 </r>
       <r>  -18.6009    1.0000 </r>
       <r>  -18.5986    1.0000 </r>
       <r>  -18.5940    1.0000 </r>
       <r>  -18.5936    1.0000 </r>
       <r>  -18.5933    1.0000 </r>
       <r>  -18.5911    1.0000 </r>
       <r>  -18.5910    1.0000 </r>
       <r>  -18.5899    1.0000 </r>
       <r>  -18.5884    1.0000 </r>
       <r>  -18.5880    1.0000 </r>
       <r>  -18.5855    1.0000 </r>
       <r>  -18.5837    1.0000 </r>
       <r>  -18.5831    1.0000 </r>
       <r>  -18.5827    1.0000 </r>
       <r>  -18.5819    1.0000 </r>
       <r>  -18.5814    1.0000 </r>
       <r>  -18.5786    1.0000 </r>
       <r>  -18.5785    1.0000 </r>
       <r>  -18.5735    1.0000 </r>
       <r>  -18.5730    1.0000 </r>
       <r>  -18.5717    1.0000 </r>
       <r>  -18.5711    1.0000 </r>
       <r>  -18.5686    1.0000 </r>
       <r>  -18.5683    1.0000 </r>
       <r>  -18.5152    1.0000 </r>
       <r>  -18.5146    1.0000 </r>
       <r>  -18.5034    1.0000 </r>
       <r>  -18.5020    1.0000 </r>
       <r>  -18.5016    1.0000 </r>
       <r>  -18.5015    1.0000 </r>
       <r>  -18.4930    1.0000 </r>
       <r>  -18.4924    1.0000 </r>
       <r>  -18.4888    1.0000 </r>
       <r>  -18.4884    1.0000 </r>
       <r>  -18.4463    1.0000 </r>
       <r>  -18.4430    1.0000 </r>
       <r>  -18.4319    1.0000 </r>
       <r>  -18.4291    1.0000 </r>
       <r>  -18.4285    1.0000 </r>
       <r>  -18.4280    1.0000 </r>
       <r>  -18.4276    1.0000 </r>
       <r>  -18.4274    1.0000 </r>
       <r>  -18.4269    1.0000 </r>
       <r>  -18.4267    1.0000 </r>
       <r>  -18.4261    1.0000 </r>
       <r>  -18.4256    1.0000 </r>
       <r>  -18.4244    1.0000 </r>
       <r>  -18.4237    1.0000 </r>
       <r>  -18.4233    1.0000 </r>
       <r>  -18.4225    1.0000 </r>
       <r>  -18.3532    1.0000 </r>
       <r>  -18.3529    1.0000 </r>
       <r>  -18.3477    1.0000 </r>
       <r>  -18.3452    1.0000 </r>
       <r>  -18.3422    1.0000 </r>
       <r>  -18.3409    1.0000 </r>
       <r>  -18.3347    1.0000 </r>
       <r>  -18.3322    1.0000 </r>
       <r>  -18.2562    1.0000 </r>
       <r>  -18.2532    1.0000 </r>
       <r>  -18.1410    1.0000 </r>
       <r>  -18.1380    1.0000 </r>
       <r>  -18.1275    1.0000 </r>
       <r>  -18.1244    1.0000 </r>
       <r>  -13.5200    1.0000 </r>
       <r>  -13.4134    1.0000 </r>
       <r>  -12.7860    1.0000 </r>
       <r>  -12.7337    1.0000 </r>
       <r>  -12.6846    1.0000 </r>
       <r>  -12.6657    1.0000 </r>
       <r>  -12.6509    1.0000 </r>
       <r>  -12.6501    1.0000 </r>
       <r>  -12.6102    1.0000 </r>
       <r>  -12.5764    1.0000 </r>
       <r>  -12.5666    1.0000 </r>
       <r>  -12.5589    1.0000 </r>
       <r>  -12.5131    1.0000 </r>
       <r>  -12.4760    1.0000 </r>
       <r>  -11.9169    1.0000 </r>
       <r>  -11.8628    1.0000 </r>
       <r>   -9.0688    1.0000 </r>
       <r>   -9.0466    1.0000 </r>
       <r>   -8.7956    1.0000 </r>
       <r>   -8.7716    1.0000 </r>
       <r>   -8.2685    1.0000 </r>
       <r>   -8.2651    1.0000 </r>
       <r>   -8.2614    1.0000 </r>
       <r>   -8.2555    1.0000 </r>
       <r>   -8.0805    1.0000 </r>
       <r>   -8.0780    1.0000 </r>
       <r>   -8.0756    1.0000 </r>
       <r>   -8.0703    1.0000 </r>
       <r>   -7.6352    1.0000 </r>
       <r>   -7.6343    1.0000 </r>
       <r>   -7.5261    1.0000 </r>
       <r>   -7.5242    1.0000 </r>
       <r>   -5.9289    1.0000 </r>
       <r>   -5.8892    1.0000 </r>
       <r>   -5.8353    1.0000 </r>
       <r>   -5.8298    1.0000 </r>
       <r>   -5.7927    1.0000 </r>
       <r>   -5.7143    1.0000 </r>
       <r>   -5.6849    1.0000 </r>
       <r>   -5.6780    1.0000 </r>
       <r>   -5.5828    1.0000 </r>
       <r>   -5.5344    1.0000 </r>
       <r>   -5.4485    1.0000 </r>
       <r>   -5.4335    1.0000 </r>
       <r>   -4.3700    1.0000 </r>
       <r>   -4.3621    1.0000 </r>
       <r>   -4.1963    1.0000 </r>
       <r>   -4.1923    1.0000 </r>
       <r>   -1.0870    1.0000 </r>
       <r>   -1.0442    1.0000 </r>
       <r>   -0.7578    1.0000 </r>
       <r>   -0.7425    1.0000 </r>
       <r>   -0.3884    1.0000 </r>
       <r>   -0.2228    1.0000 </r>
       <r>    0.0636    1.0000 </r>
       <r>    0.1130    1.0000 </r>
       <r>    0.1696    1.0000 </r>
       <r>    0.1979    1.0000 </r>
       <r>    0.2311    1.0000 </r>
       <r>    0.2684    1.0000 </r>
       <r>    0.3045    1.0000 </r>
       <r>    0.3829    1.0000 </r>
       <r>    0.3898    1.0000 </r>
       <r>    0.3966    1.0000 </r>
       <r>    0.6133    1.0000 </r>
       <r>    0.6342    1.0000 </r>
       <r>    0.6436    1.0000 </r>
       <r>    0.6665    1.0000 </r>
       <r>    0.6843    1.0000 </r>
       <r>    0.6846    1.0000 </r>
       <r>    0.7579    1.0000 </r>
       <r>    0.7843    1.0000 </r>
       <r>    0.8020    1.0000 </r>
       <r>    0.9206    1.0000 </r>
       <r>    0.9639    1.0000 </r>
       <r>    0.9768    1.0000 </r>
       <r>    1.0520    1.0000 </r>
       <r>    1.0894    1.0000 </r>
       <r>    1.1213    1.0000 </r>
       <r>    1.1898    1.0000 </r>
       <r>    1.2556    1.0000 </r>
       <r>    1.3225    1.0000 </r>
       <r>    1.3426    1.0000 </r>
       <r>    1.3675    1.0000 </r>
       <r>    1.3901    1.0000 </r>
       <r>    1.4640    1.0000 </r>
       <r>    1.5078    1.0000 </r>
       <r>    1.5206    1.0000 </r>
       <r>    1.5219    1.0000 </r>
       <r>    1.5707    1.0000 </r>
       <r>    1.6440    1.0000 </r>
       <r>    1.7235    1.0000 </r>
       <r>    1.7367    1.0000 </r>
       <r>    1.7849    1.0000 </r>
       <r>    1.8161    1.0000 </r>
       <r>    1.8512    1.0000 </r>
       <r>    1.9027    1.0000 </r>
       <r>    1.9276    1.0000 </r>
       <r>    1.9551    1.0000 </r>
       <r>    1.9625    1.0000 </r>
       <r>    2.0230    1.0000 </r>
       <r>    2.0421    1.0000 </r>
       <r>    2.0673    1.0000 </r>
       <r>    2.1174    1.0000 </r>
       <r>    2.1605    1.0000 </r>
       <r>    2.1936    1.0000 </r>
       <r>    2.1989    1.0000 </r>
       <r>    2.3480    1.0000 </r>
       <r>    2.3503    1.0000 </r>
       <r>    2.3665    1.0000 </r>
       <r>    2.4435    1.0000 </r>
       <r>    2.4840    1.0000 </r>
       <r>    2.5765    1.0000 </r>
       <r>    2.6046    1.0000 </r>
       <r>    2.6457    1.0000 </r>
       <r>    2.6665    1.0000 </r>
       <r>    2.7006    1.0000 </r>
       <r>    2.7102    1.0000 </r>
       <r>    2.7317    1.0000 </r>
       <r>    2.7716    1.0000 </r>
       <r>    2.8147    1.0000 </r>
       <r>    2.8364    1.0000 </r>
       <r>    2.8392    1.0000 </r>
       <r>    2.8785    1.0000 </r>
       <r>    2.9289    1.0000 </r>
       <r>    2.9569    1.0000 </r>
       <r>    2.9612    1.0000 </r>
       <r>    2.9894    1.0000 </r>
       <r>    3.1044    1.0000 </r>
       <r>    3.1105    1.0000 </r>
       <r>    3.1390    1.0000 </r>
       <r>    3.1662    1.0000 </r>
       <r>    3.1947    1.0000 </r>
       <r>    3.2012    1.0000 </r>
       <r>    3.3298    1.0000 </r>
       <r>    3.3357    1.0000 </r>
       <r>    3.5632    1.0000 </r>
       <r>    3.5662    1.0000 </r>
       <r>    3.5907    1.0000 </r>
       <r>    3.6104    1.0000 </r>
       <r>    3.6111    1.0000 </r>
       <r>    3.6250    1.0000 </r>
       <r>    3.6491    1.0000 </r>
       <r>    3.8260    1.0000 </r>
       <r>    5.7314    0.0000 </r>
       <r>    5.7357    0.0000 </r>
       <r>    5.7394    0.0000 </r>
       <r>    5.7434    0.0000 </r>
       <r>    5.8253    0.0000 </r>
       <r>    5.8303    0.0000 </r>
       <r>    5.8421    0.0000 </r>
       <r>    5.8448    0.0000 </r>
       <r>    7.2823    0.0000 </r>
       <r>    7.2946    0.0000 </r>
       <r>    7.3750    0.0000 </r>
       <r>    7.3872    0.0000 </r>
       <r>    7.4673    0.0000 </r>
       <r>    7.5108    0.0000 </r>
       <r>    7.5176    0.0000 </r>
       <r>    7.5226    0.0000 </r>
       <r>    7.5348    0.0000 </r>
       <r>    7.5398    0.0000 </r>
       <r>    7.5411    0.0000 </r>
       <r>    7.5744    0.0000 </r>
       <r>    7.8955    0.0000 </r>
       <r>    7.9150    0.0000 </r>
       <r>    7.9156    0.0000 </r>
       <r>    7.9207    0.0000 </r>
       <r>    7.9286    0.0000 </r>
       <r>    8.0001    0.0000 </r>
       <r>    8.0040    0.0000 </r>
       <r>    8.0207    0.0000 </r>
       <r>    8.0438    0.0000 </r>
       <r>    8.0761    0.0000 </r>
       <r>    8.1685    0.0000 </r>
       <r>    8.1788    0.0000 </r>
       <r>    8.3815    0.0000 </r>
       <r>    8.4337    0.0000 </r>
       <r>    8.5911    0.0000 </r>
       <r>    8.6821    0.0000 </r>
       <r>    8.7215    0.0000 </r>
       <r>    8.7334    0.0000 </r>
       <r>    8.8150    0.0000 </r>
       <r>    8.8169    0.0000 </r>
       <r>    8.8815    0.0000 </r>
       <r>    8.8880    0.0000 </r>
       <r>    8.9809    0.0000 </r>
       <r>    8.9874    0.0000 </r>
       <r>    9.2451    0.0000 </r>
       <r>    9.2944    0.0000 </r>
       <r>    9.5103    0.0000 </r>
       <r>    9.5289    0.0000 </r>
       <r>    9.5409    0.0000 </r>
       <r>    9.8742    0.0000 </r>
       <r>   10.3224    0.0000 </r>
       <r>   10.3247    0.0000 </r>
       <r>   10.5577    0.0000 </r>
       <r>   10.5666    0.0000 </r>
       <r>   10.6606    0.0000 </r>
       <r>   10.6820    0.0000 </r>
       <r>   10.8293    0.0000 </r>
       <r>   10.8453    0.0000 </r>
       <r>   10.8609    0.0000 </r>
       <r>   10.8741    0.0000 </r>
       <r>   10.9436    0.0000 </r>
       <r>   10.9521    0.0000 </r>
       <r>   10.9579    0.0000 </r>
       <r>   11.0766    0.0000 </r>
       <r>   11.3195    0.0000 </r>
       <r>   11.3466    0.0000 </r>
       <r>   11.3733    0.0000 </r>
       <r>   11.4254    0.0000 </r>
       <r>   11.4564    0.0000 </r>
       <r>   11.4858    0.0000 </r>
      </set>
      <set comment="kpoint 3">
       <r>  -40.1806    1.0000 </r>
       <r>  -40.0154    1.0000 </r>
       <r>  -40.0129    1.0000 </r>
       <r>  -39.9652    1.0000 </r>
       <r>  -39.9625    1.0000 </r>
       <r>  -39.8028    1.0000 </r>
       <r>  -39.7933    1.0000 </r>
       <r>  -39.7118    1.0000 </r>
       <r>  -39.7017    1.0000 </r>
       <r>  -39.5510    1.0000 </r>
       <r>  -39.5488    1.0000 </r>
       <r>  -39.5184    1.0000 </r>
       <r>  -39.5164    1.0000 </r>
       <r>  -39.3568    1.0000 </r>
       <r>  -18.8831    1.0000 </r>
       <r>  -18.8808    1.0000 </r>
       <r>  -18.8115    1.0000 </r>
       <r>  -18.8103    1.0000 </r>
       <r>  -18.8045    1.0000 </r>
       <r>  -18.8033    1.0000 </r>
       <r>  -18.7084    1.0000 </r>
       <r>  -18.7067    1.0000 </r>
       <r>  -18.6956    1.0000 </r>
       <r>  -18.6942    1.0000 </r>
       <r>  -18.6645    1.0000 </r>
       <r>  -18.6639    1.0000 </r>
       <r>  -18.6544    1.0000 </r>
       <r>  -18.6539    1.0000 </r>
       <r>  -18.6457    1.0000 </r>
       <r>  -18.6449    1.0000 </r>
       <r>  -18.6012    1.0000 </r>
       <r>  -18.5991    1.0000 </r>
       <r>  -18.5940    1.0000 </r>
       <r>  -18.5936    1.0000 </r>
       <r>  -18.5928    1.0000 </r>
       <r>  -18.5920    1.0000 </r>
       <r>  -18.5919    1.0000 </r>
       <r>  -18.5900    1.0000 </r>
       <r>  -18.5871    1.0000 </r>
       <r>  -18.5870    1.0000 </r>
       <r>  -18.5851    1.0000 </r>
       <r>  -18.5834    1.0000 </r>
       <r>  -18.5829    1.0000 </r>
       <r>  -18.5822    1.0000 </r>
       <r>  -18.5817    1.0000 </r>
       <r>  -18.5811    1.0000 </r>
       <r>  -18.5789    1.0000 </r>
       <r>  -18.5787    1.0000 </r>
       <r>  -18.5737    1.0000 </r>
       <r>  -18.5729    1.0000 </r>
       <r>  -18.5725    1.0000 </r>
       <r>  -18.5713    1.0000 </r>
       <r>  -18.5687    1.0000 </r>
       <r>  -18.5682    1.0000 </r>
       <r>  -18.5151    1.0000 </r>
       <r>  -18.5147    1.0000 </r>
       <r>  -18.5034    1.0000 </r>
       <r>  -18.5021    1.0000 </r>
       <r>  -18.5016    1.0000 </r>
       <r>  -18.5014    1.0000 </r>
       <r>  -18.4930    1.0000 </r>
       <r>  -18.4924    1.0000 </r>
       <r>  -18.4892    1.0000 </r>
       <r>  -18.4881    1.0000 </r>
       <r>  -18.4462    1.0000 </r>
       <r>  -18.4430    1.0000 </r>
       <r>  -18.4318    1.0000 </r>
       <r>  -18.4289    1.0000 </r>
       <r>  -18.4287    1.0000 </r>
       <r>  -18.4280    1.0000 </r>
       <r>  -18.4275    1.0000 </r>
       <r>  -18.4273    1.0000 </r>
       <r>  -18.4269    1.0000 </r>
       <r>  -18.4267    1.0000 </r>
       <r>  -18.4261    1.0000 </r>
       <r>  -18.4256    1.0000 </r>
       <r>  -18.4245    1.0000 </r>
       <r>  -18.4237    1.0000 </r>
       <r>  -18.4234    1.0000 </r>
       <r>  -18.4224    1.0000 </r>
       <r>  -18.3532    1.0000 </r>
       <r>  -18.3529    1.0000 </r>
       <r>  -18.3477    1.0000 </r>
       <r>  -18.3452    1.0000 </r>
       <r>  -18.3422    1.0000 </r>
       <r>  -18.3410    1.0000 </r>
       <r>  -18.3347    1.0000 </r>
       <r>  -18.3322    1.0000 </r>
       <r>  -18.2563    1.0000 </r>
       <r>  -18.2531    1.0000 </r>
       <r>  -18.1410    1.0000 </r>
       <r>  -18.1380    1.0000 </r>
       <r>  -18.1275    1.0000 </r>
       <r>  -18.1244    1.0000 </r>
       <r>  -13.5204    1.0000 </r>
       <r>  -13.4129    1.0000 </r>
       <r>  -12.7906    1.0000 </r>
       <r>  -12.7242    1.0000 </r>
       <r>  -12.6922    1.0000 </r>
       <r>  -12.6747    1.0000 </r>
       <r>  -12.6378    1.0000 </r>
       <r>  -12.6316    1.0000 </r>
       <r>  -12.6058    1.0000 </r>
       <r>  -12.6024    1.0000 </r>
       <r>  -12.5744    1.0000 </r>
       <r>  -12.5500    1.0000 </r>
       <r>  -12.5136    1.0000 </r>
       <r>  -12.4759    1.0000 </r>
       <r>  -11.9154    1.0000 </r>
       <r>  -11.8649    1.0000 </r>
       <r>   -9.2611    1.0000 </r>
       <r>   -8.9819    1.0000 </r>
       <r>   -8.4977    1.0000 </r>
       <r>   -8.4632    1.0000 </r>
       <r>   -8.4496    1.0000 </r>
       <r>   -8.4063    1.0000 </r>
       <r>   -8.2365    1.0000 </r>
       <r>   -8.2053    1.0000 </r>
       <r>   -8.1840    1.0000 </r>
       <r>   -8.1457    1.0000 </r>
       <r>   -7.9778    1.0000 </r>
       <r>   -7.9774    1.0000 </r>
       <r>   -7.9415    1.0000 </r>
       <r>   -7.9413    1.0000 </r>
       <r>   -7.3051    1.0000 </r>
       <r>   -7.3046    1.0000 </r>
       <r>   -6.3053    1.0000 </r>
       <r>   -6.3030    1.0000 </r>
       <r>   -6.2763    1.0000 </r>
       <r>   -6.2755    1.0000 </r>
       <r>   -5.4892    1.0000 </r>
       <r>   -5.4243    1.0000 </r>
       <r>   -5.3434    1.0000 </r>
       <r>   -5.3267    1.0000 </r>
       <r>   -5.3227    1.0000 </r>
       <r>   -5.2148    1.0000 </r>
       <r>   -5.0988    1.0000 </r>
       <r>   -5.0559    1.0000 </r>
       <r>   -5.0267    1.0000 </r>
       <r>   -4.9551    1.0000 </r>
       <r>   -3.8185    1.0000 </r>
       <r>   -3.5112    1.0000 </r>
       <r>   -1.2763    1.0000 </r>
       <r>   -1.2445    1.0000 </r>
       <r>   -1.1011    1.0000 </r>
       <r>   -1.0309    1.0000 </r>
       <r>   -0.3674    1.0000 </r>
       <r>   -0.3547    1.0000 </r>
       <r>   -0.3452    1.0000 </r>
       <r>   -0.3312    1.0000 </r>
       <r>   -0.3115    1.0000 </r>
       <r>   -0.2103    1.0000 </r>
       <r>   -0.2027    1.0000 </r>
       <r>   -0.1693    1.0000 </r>
       <r>   -0.0558    1.0000 </r>
       <r>    0.0146    1.0000 </r>
       <r>    0.2385    1.0000 </r>
       <r>    0.3160    1.0000 </r>
       <r>    0.3878    1.0000 </r>
       <r>    0.4236    1.0000 </r>
       <r>    0.4901    1.0000 </r>
       <r>    0.5407    1.0000 </r>
       <r>    0.5786    1.0000 </r>
       <r>    0.7623    1.0000 </r>
       <r>    0.8060    1.0000 </r>
       <r>    0.8097    1.0000 </r>
       <r>    0.8429    1.0000 </r>
       <r>    0.8630    1.0000 </r>
       <r>    0.9102    1.0000 </r>
       <r>    1.0454    1.0000 </r>
       <r>    1.0720    1.0000 </r>
       <r>    1.1817    1.0000 </r>
       <r>    1.2160    1.0000 </r>
       <r>    1.2990    1.0000 </r>
       <r>    1.3358    1.0000 </r>
       <r>    1.3509    1.0000 </r>
       <r>    1.4578    1.0000 </r>
       <r>    1.5037    1.0000 </r>
       <r>    1.6970    1.0000 </r>
       <r>    1.7038    1.0000 </r>
       <r>    1.7219    1.0000 </r>
       <r>    1.7758    1.0000 </r>
       <r>    1.8174    1.0000 </r>
       <r>    1.8314    1.0000 </r>
       <r>    1.8467    1.0000 </r>
       <r>    1.8542    1.0000 </r>
       <r>    1.8775    1.0000 </r>
       <r>    1.8926    1.0000 </r>
       <r>    1.9018    1.0000 </r>
       <r>    1.9456    1.0000 </r>
       <r>    1.9491    1.0000 </r>
       <r>    2.0234    1.0000 </r>
       <r>    2.0244    1.0000 </r>
       <r>    2.0717    1.0000 </r>
       <r>    2.1673    1.0000 </r>
       <r>    2.1715    1.0000 </r>
       <r>    2.2904    1.0000 </r>
       <r>    2.3400    1.0000 </r>
       <r>    2.4807    1.0000 </r>
       <r>    2.5340    1.0000 </r>
       <r>    2.5445    1.0000 </r>
       <r>    2.5814    1.0000 </r>
       <r>    2.6175    1.0000 </r>
       <r>    2.6277    1.0000 </r>
       <r>    2.6352    1.0000 </r>
       <r>    2.6381    1.0000 </r>
       <r>    2.6534    1.0000 </r>
       <r>    2.6559    1.0000 </r>
       <r>    2.6981    1.0000 </r>
       <r>    2.7542    1.0000 </r>
       <r>    2.7835    1.0000 </r>
       <r>    2.7855    1.0000 </r>
       <r>    2.8245    1.0000 </r>
       <r>    2.8277    1.0000 </r>
       <r>    2.8405    1.0000 </r>
       <r>    2.8793    1.0000 </r>
       <r>    2.9165    1.0000 </r>
       <r>    2.9573    1.0000 </r>
       <r>    2.9794    1.0000 </r>
       <r>    3.0031    1.0000 </r>
       <r>    3.0586    1.0000 </r>
       <r>    3.0759    1.0000 </r>
       <r>    3.1017    1.0000 </r>
       <r>    3.1050    1.0000 </r>
       <r>    3.2049    1.0000 </r>
       <r>    3.3376    1.0000 </r>
       <r>    3.3963    1.0000 </r>
       <r>    3.4346    1.0000 </r>
       <r>    3.4607    1.0000 </r>
       <r>    3.5044    1.0000 </r>
       <r>    3.5053    1.0000 </r>
       <r>    3.5171    1.0000 </r>
       <r>    3.5534    1.0000 </r>
       <r>    3.6387    1.0000 </r>
       <r>    4.2979    1.0000 </r>
       <r>    4.2998    1.0000 </r>
       <r>    4.3271    1.0000 </r>
       <r>    4.3278    1.0000 </r>
       <r>    5.2158    0.0000 </r>
       <r>    5.2190    0.0000 </r>
       <r>    5.2531    0.0000 </r>
       <r>    5.2559    0.0000 </r>
       <r>    5.8176    0.0000 </r>
       <r>    5.8188    0.0000 </r>
       <r>    5.8524    0.0000 </r>
       <r>    5.8551    0.0000 </r>
       <r>    6.2108    0.0000 </r>
       <r>    6.2230    0.0000 </r>
       <r>    6.2404    0.0000 </r>
       <r>    6.2474    0.0000 </r>
       <r>    6.2956    0.0000 </r>
       <r>    6.3030    0.0000 </r>
       <r>    6.3300    0.0000 </r>
       <r>    6.3338    0.0000 </r>
       <r>    6.8334    0.0000 </r>
       <r>    7.0151    0.0000 </r>
       <r>    7.0999    0.0000 </r>
       <r>    7.1047    0.0000 </r>
       <r>    7.3345    0.0000 </r>
       <r>    7.4874    0.0000 </r>
       <r>    7.5438    0.0000 </r>
       <r>    7.5850    0.0000 </r>
       <r>    7.8669    0.0000 </r>
       <r>    7.8833    0.0000 </r>
       <r>    7.9872    0.0000 </r>
       <r>    8.0427    0.0000 </r>
       <r>    8.0467    0.0000 </r>
       <r>    8.3438    0.0000 </r>
       <r>    8.3765    0.0000 </r>
       <r>    8.5278    0.0000 </r>
       <r>    8.7807    0.0000 </r>
       <r>    8.8904    0.0000 </r>
       <r>    8.9851    0.0000 </r>
       <r>    9.0036    0.0000 </r>
       <r>    9.0966    0.0000 </r>
       <r>    9.1247    0.0000 </r>
       <r>    9.1301    0.0000 </r>
[...]
       <r>   11.4280    0.0000 </r>
       <r>   11.4487    0.0000 </r>
      </set>
     </set>
    </set>
   </array>
  </eigenvalues>
  <separator name="orbital magnetization" >
   <v name="MAGDIPOLOUT">      0.00000000      0.00000000      0.00000000</v>
  </separator>
  <dos>
   <i name="efermi">      4.36438485 </i>
   <total>
    <array>
     <dimension dim="1">gridpoints</dimension>
     <dimension dim="2">spin</dimension>
     <field>energy</field>
     <field>total</field>
     <field>integrated</field>
     <set>
      <set comment="spin 1">
       <r>   -42.8004     0.0000     0.0000 </r>
       <r>   -42.6083     0.0000     0.0000 </r>
       <r>   -42.4161     0.0000     0.0000 </r>
       <r>   -42.2240     0.0000     0.0000 </r>
       <r>   -42.0319     0.0000     0.0000 </r>
       <r>   -41.8398     0.0000     0.0000 </r>
       <r>   -41.6477     0.0000     0.0000 </r>
       <r>   -41.4556     0.0000     0.0000 </r>
       <r>   -41.2634     0.0000     0.0000 </r>
       <r>   -41.0713     0.0000     0.0000 </r>
       <r>   -40.8792     0.0000     0.0000 </r>
       <r>   -40.6871     0.0000     0.0000 </r>
       <r>   -40.4950     0.0000     0.0000 </r>
       <r>   -40.3029     0.0000     0.0000 </r>
       <r>   -40.1107     0.0000     2.0000 </r>
       <r>   -39.9186     0.0000    10.0000 </r>
       <r>   -39.7265     0.0000    14.0000 </r>
       <r>   -39.5344     0.0000    22.0000 </r>
       <r>   -39.3423     0.0000    28.0000 </r>
       <r>   -39.1501     0.0000    28.0000 </r>
       <r>   -38.9580     0.0000    28.0000 </r>
       <r>   -38.7659     0.0000    28.0000 </r>
       <r>   -38.5738     0.0000    28.0000 </r>
       <r>   -38.3817     0.0000    28.0000 </r>
       <r>   -38.1896     0.0000    28.0000 </r>
       <r>   -37.9974     0.0000    28.0000 </r>
       <r>   -37.8053     0.0000    28.0000 </r>
       <r>   -37.6132     0.0000    28.0000 </r>
       <r>   -37.4211     0.0000    28.0000 </r>
       <r>   -37.2290     0.0000    28.0000 </r>
       <r>   -37.0369     0.0000    28.0000 </r>
       <r>   -36.8447     0.0000    28.0000 </r>
       <r>   -36.6526     0.0000    28.0000 </r>
       <r>   -36.4605     0.0000    28.0000 </r>
       <r>   -36.2684     0.0000    28.0000 </r>
       <r>   -36.0763     0.0000    28.0000 </r>
       <r>   -35.8842     0.0000    28.0000 </r>
       <r>   -35.6920     0.0000    28.0000 </r>
       <r>   -35.4999     0.0000    28.0000 </r>
       <r>   -35.3078     0.0000    28.0000 </r>
       <r>   -35.1157     0.0000    28.0000 </r>
       <r>   -34.9236     0.0000    28.0000 </r>
       <r>   -34.7315     0.0000    28.0000 </r>
       <r>   -34.5393     0.0000    28.0000 </r>
       <r>   -34.3472     0.0000    28.0000 </r>
       <r>   -34.1551     0.0000    28.0000 </r>
       <r>   -33.9630     0.0000    28.0000 </r>
       <r>   -33.7709     0.0000    28.0000 </r>
       <r>   -33.5788     0.0000    28.0000 </r>
       <r>   -33.3866     0.0000    28.0000 </r>
       <r>   -33.1945     0.0000    28.0000 </r>
       <r>   -33.0024     0.0000    28.0000 </r>
       <r>   -32.8103     0.0000    28.0000 </r>
       <r>   -32.6182     0.0000    28.0000 </r>
       <r>   -32.4260     0.0000    28.0000 </r>
       <r>   -32.2339     0.0000    28.0000 </r>
       <r>   -32.0418     0.0000    28.0000 </r>
       <r>   -31.8497     0.0000    28.0000 </r>
       <r>   -31.6576     0.0000    28.0000 </r>
       <r>   -31.4655     0.0000    28.0000 </r>
       <r>   -31.2733     0.0000    28.0000 </r>
       <r>   -31.0812     0.0000    28.0000 </r>
       <r>   -30.8891     0.0000    28.0000 </r>
       <r>   -30.6970     0.0000    28.0000 </r>
       <r>   -30.5049     0.0000    28.0000 </r>
       <r>   -30.3128     0.0000    28.0000 </r>
       <r>   -30.1206     0.0000    28.0000 </r>
       <r>   -29.9285     0.0000    28.0000 </r>
       <r>   -29.7364     0.0000    28.0000 </r>
       <r>   -29.5443     0.0000    28.0000 </r>
       <r>   -29.3522     0.0000    28.0000 </r>
       <r>   -29.1601     0.0000    28.0000 </r>
       <r>   -28.9679     0.0000    28.0000 </r>
       <r>   -28.7758     0.0000    28.0000 </r>
       <r>   -28.5837     0.0000    28.0000 </r>
       <r>   -28.3916     0.0000    28.0000 </r>
       <r>   -28.1995     0.0000    28.0000 </r>
       <r>   -28.0074     0.0000    28.0000 </r>
       <r>   -27.8152     0.0000    28.0000 </r>
       <r>   -27.6231     0.0000    28.0000 </r>
       <r>   -27.4310     0.0000    28.0000 </r>
       <r>   -27.2389     0.0000    28.0000 </r>
       <r>   -27.0468     0.0000    28.0000 </r>
       <r>   -26.8547     0.0000    28.0000 </r>
       <r>   -26.6625     0.0000    28.0000 </r>
       <r>   -26.4704     0.0000    28.0000 </r>
       <r>   -26.2783     0.0000    28.0000 </r>
       <r>   -26.0862     0.0000    28.0000 </r>
       <r>   -25.8941     0.0000    28.0000 </r>
       <r>   -25.7019     0.0000    28.0000 </r>
       <r>   -25.5098     0.0000    28.0000 </r>
       <r>   -25.3177     0.0000    28.0000 </r>
       <r>   -25.1256     0.0000    28.0000 </r>
       <r>   -24.9335     0.0000    28.0000 </r>
       <r>   -24.7414     0.0000    28.0000 </r>
       <r>   -24.5492     0.0000    28.0000 </r>
       <r>   -24.3571     0.0000    28.0000 </r>
       <r>   -24.1650     0.0000    28.0000 </r>
       <r>   -23.9729     0.0000    28.0000 </r>
       <r>   -23.7808     0.0000    28.0000 </r>
       <r>   -23.5887     0.0000    28.0000 </r>
       <r>   -23.3965     0.0000    28.0000 </r>
       <r>   -23.2044     0.0000    28.0000 </r>
       <r>   -23.0123     0.0000    28.0000 </r>
       <r>   -22.8202     0.0000    28.0000 </r>
       <r>   -22.6281     0.0000    28.0000 </r>
       <r>   -22.4360     0.0000    28.0000 </r>
       <r>   -22.2438     0.0000    28.0000 </r>
       <r>   -22.0517     0.0000    28.0000 </r>
       <r>   -21.8596     0.0000    28.0000 </r>
       <r>   -21.6675     0.0000    28.0000 </r>
       <r>   -21.4754     0.0000    28.0000 </r>
       <r>   -21.2833     0.0000    28.0000 </r>
       <r>   -21.0911     0.0000    28.0000 </r>
       <r>   -20.8990     0.0000    28.0000 </r>
       <r>   -20.7069     0.0000    28.0000 </r>
       <r>   -20.5148     0.0000    28.0000 </r>
       <r>   -20.3227     0.0000    28.0000 </r>
       <r>   -20.1306     0.0000    28.0000 </r>
       <r>   -19.9384     0.0000    28.0000 </r>
       <r>   -19.7463     0.0000    28.0000 </r>
       <r>   -19.5542     0.0000    28.0000 </r>
       <r>   -19.3621     0.0000    28.0000 </r>
       <r>   -19.1700     0.0000    28.0000 </r>
       <r>   -18.9778     0.0000    28.0000 </r>
       <r>   -18.7857     0.0000    40.0000 </r>
       <r>   -18.5936 10436.4449    66.7889 </r>
       <r>   -18.4015     0.0000   160.0000 </r>
       <r>   -18.2094     0.0000   180.0000 </r>
       <r>   -18.0173     0.0000   188.0000 </r>
       <r>   -17.8251     0.0000   188.0000 </r>
       <r>   -17.6330     0.0000   188.0000 </r>
       <r>   -17.4409     0.0000   188.0000 </r>
       <r>   -17.2488     0.0000   188.0000 </r>
       <r>   -17.0567     0.0000   188.0000 </r>
       <r>   -16.8646     0.0000   188.0000 </r>
       <r>   -16.6724     0.0000   188.0000 </r>
       <r>   -16.4803     0.0000   188.0000 </r>
       <r>   -16.2882     0.0000   188.0000 </r>
       <r>   -16.0961     0.0000   188.0000 </r>
       <r>   -15.9040     0.0000   188.0000 </r>
       <r>   -15.7119     0.0000   188.0000 </r>
       <r>   -15.5197     0.0000   188.0000 </r>
       <r>   -15.3276     0.0000   188.0000 </r>
       <r>   -15.1355     0.0000   188.0000 </r>
       <r>   -14.9434     0.0000   188.0000 </r>
       <r>   -14.7513     0.0000   188.0000 </r>
       <r>   -14.5592     0.0000   188.0000 </r>
       <r>   -14.3670     0.0000   188.0000 </r>
       <r>   -14.1749     0.0000   188.0000 </r>
       <r>   -13.9828     0.0000   188.0000 </r>
       <r>   -13.7907     0.0000   188.0000 </r>
       <r>   -13.5986     0.0000   188.0000 </r>
       <r>   -13.4065     0.0000   192.0000 </r>
       <r>   -13.2143     0.0000   192.0000 </r>
       <r>   -13.0222     0.0000   192.0000 </r>
       <r>   -12.8301     0.0000   192.0000 </r>
       <r>   -12.6380   117.7048   202.6287 </r>
       <r>   -12.4459     0.0000   216.0000 </r>
       <r>   -12.2537     0.0000   216.0000 </r>
       <r>   -12.0616     0.0000   216.0000 </r>
       <r>   -11.8695     0.0000   218.0000 </r>
       <r>   -11.6774     0.0000   220.0000 </r>
       <r>   -11.4853     0.0000   220.0000 </r>
       <r>   -11.2932     0.0000   220.0000 </r>
       <r>   -11.1010     0.0000   220.0000 </r>
       <r>   -10.9089     0.0000   220.0000 </r>
       <r>   -10.7168     0.0000   220.0000 </r>
       <r>   -10.5247     0.0000   220.0000 </r>
       <r>   -10.3326     0.0000   220.0000 </r>
       <r>   -10.1405     0.0000   220.0000 </r>
       <r>    -9.9483     0.0000   220.0000 </r>
       <r>    -9.7562     0.0000   220.0000 </r>
       <r>    -9.5641     0.0000   220.0000 </r>
       <r>    -9.3720     0.0000   220.0000 </r>
       <r>    -9.1799     6.6171   220.2830 </r>
       <r>    -8.9878    24.9594   222.5959 </r>
       <r>    -8.7956    20.7010   224.5813 </r>
       <r>    -8.6035    12.4771   227.4862 </r>
       <r>    -8.4114    24.1696   230.3709 </r>
       <r>    -8.2193    19.5424   235.8708 </r>
       <r>    -8.0272    28.6313   238.6070 </r>
       <r>    -7.8351    19.5105   243.6705 </r>
       <r>    -7.6429    24.5915   247.1678 </r>
       <r>    -7.4508    16.6828   250.7701 </r>
       <r>    -7.2587     0.0000   252.0000 </r>
       <r>    -7.0666     0.0000   252.0000 </r>
       <r>    -6.8745     0.0000   252.0000 </r>
       <r>    -6.6824     0.0000   252.0000 </r>
       <r>    -6.4902     0.0000   252.0000 </r>
       <r>    -6.2981     0.7002   252.0041 </r>
       <r>    -6.1060    19.4074   253.8803 </r>
       <r>    -5.9139    16.3176   258.4201 </r>
       <r>    -5.7218    27.4834   262.2206 </r>
       <r>    -5.5296    23.8063   267.1777 </r>
       <r>    -5.3375    21.0110   271.2849 </r>
       <r>    -5.1454    13.1058   274.6744 </r>
       <r>    -4.9533     3.6697   276.0743 </r>
       <r>    -4.7612     7.5572   277.2278 </r>
       <r>    -4.5691     9.3956   278.7956 </r>
       <r>    -4.3769     7.5002   280.6200 </r>
       <r>    -4.1848     7.2430   281.8733 </r>
       <r>    -3.9927     5.1144   283.1347 </r>
       <r>    -3.8006     1.8015   283.7958 </r>
       <r>    -3.6085     0.3664   283.9878 </r>
       <r>    -3.4164     0.0000   284.0000 </r>
       <r>    -3.2242     0.0000   284.0000 </r>
       <r>    -3.0321     0.0000   284.0000 </r>
       <r>    -2.8400     0.0000   284.0000 </r>
       <r>    -2.6479     0.0000   284.0000 </r>
       <r>    -2.4558     0.0000   284.0000 </r>
       <r>    -2.2637     0.0000   284.0000 </r>
       <r>    -2.0715     0.0000   284.0000 </r>
       <r>    -1.8794     0.0000   284.0000 </r>
       <r>    -1.6873     0.0000   284.0000 </r>
       <r>    -1.4952     0.0000   284.0000 </r>
       <r>    -1.3031     0.3271   284.0037 </r>
       <r>    -1.1110     8.3631   284.8686 </r>
       <r>    -0.9188    12.3859   286.7368 </r>
       <r>    -0.7267    11.0295   289.1553 </r>
       <r>    -0.5346     6.4252   290.7947 </r>
       <r>    -0.3425    16.8378   292.4152 </r>
       <r>    -0.1504    24.5283   296.3618 </r>
       <r>     0.0417    40.2775   302.6531 </r>
       <r>     0.2339    27.0151   309.7003 </r>
       <r>     0.4260    33.8576   316.3472 </r>
       <r>     0.6181    42.2986   323.7585 </r>
       <r>     0.8102    37.1746   331.2101 </r>
       <r>     1.0023    40.1228   337.1917 </r>
       <r>     1.1945    37.5085   346.4543 </r>
       <r>     1.3866    50.6150   354.6664 </r>
       <r>     1.5787    54.4830   363.3154 </r>
       <r>     1.7708    53.5717   372.6778 </r>
       <r>     1.9629    63.2917   385.4765 </r>
       <r>     2.1550    29.9174   393.3702 </r>
       <r>     2.3472    38.2153   401.0313 </r>
       <r>     2.5393    59.0802   410.2858 </r>
       <r>     2.7314    67.6858   423.5705 </r>
       <r>     2.9235    61.6566   436.1523 </r>
       <r>     3.1156    59.0048   449.3814 </r>
       <r>     3.3077    31.9443   457.8995 </r>
       <r>     3.4999    37.6682   464.4465 </r>
       <r>     3.6920    14.3118   470.6055 </r>
       <r>     3.8841    11.9052   473.5733 </r>
       <r>     4.0762     6.2846   475.3208 </r>
       <r>     4.2683     0.6900   475.9873 </r>
       <r>     4.4604     0.0000   476.0000 </r>
       <r>     4.6526     0.0000   476.0000 </r>
       <r>     4.8447     0.0000   476.0000 </r>
       <r>     5.0368     0.0000   476.0000 </r>
       <r>     5.2289     0.6521   476.0159 </r>
       <r>     5.4210     4.8238   476.5372 </r>
       <r>     5.6131     9.0542   477.8702 </r>
       <r>     5.8053     8.2528   479.6166 </r>
       <r>     5.9974    13.9545   484.0016 </r>
       <r>     6.1895    11.6453   486.4533 </r>
       <r>     6.3816    12.0415   488.6740 </r>
       <r>     6.5737    13.7803   491.1548 </r>
       <r>     6.7658    15.4981   493.9676 </r>
       <r>     6.9580    17.3436   497.1159 </r>
       <r>     7.1501    21.7829   500.7601 </r>
       <r>     7.3422    34.8460   506.2748 </r>
       <r>     7.5343    38.5124   514.5355 </r>
       <r>     7.7264    29.8645   519.7005 </r>
       <r>     7.9186    42.6450   527.5220 </r>
       <r>     8.1107    33.7341   536.2240 </r>
       <r>     8.3028    19.2429   540.8239 </r>
       <r>     8.4949    19.2533   544.3929 </r>
       <r>     8.6870    27.3241   548.7590 </r>
       <r>     8.8791    45.5536   554.5798 </r>
       <r>     9.0713    31.9535   563.0244 </r>
       <r>     9.2634    14.4122   567.0673 </r>
       <r>     9.4555    11.4217   569.6380 </r>
       <r>     9.6476    15.1470   572.1863 </r>
       <r>     9.8397     3.5886   574.1196 </r>
       <r>    10.0318    14.0736   575.9597 </r>
       <r>    10.2240    13.5117   577.6749 </r>
       <r>    10.4161    17.1784   581.4484 </r>
       <r>    10.6082    27.3184   586.7587 </r>
       <r>    10.8003    48.9192   594.2239 </r>
       <r>    10.9924    14.9641   600.5802 </r>
       <r>    11.1845    17.8409   603.7753 </r>
       <r>    11.3767    26.5447   608.4642 </r>
       <r>    11.5688    16.5407   612.5750 </r>
       <r>    11.7609     8.2152   614.9583 </r>
       <r>    11.9530     1.9913   615.8491 </r>
       <r>    12.1451     0.1000   615.9977 </r>
       <r>    12.3372     0.0000   616.0000 </r>
       <r>    12.5294     0.0000   616.0000 </r>
       <r>    12.7215     0.0000   616.0000 </r>
       <r>    12.9136     0.0000   616.0000 </r>
       <r>    13.1057     0.0000   616.0000 </r>
       <r>    13.2978     0.0000   616.0000 </r>
       <r>    13.4899     0.0000   616.0000 </r>
       <r>    13.6821     0.0000   616.0000 </r>
       <r>    13.8742     0.0000   616.0000 </r>
       <r>    14.0663     0.0000   616.0000 </r>
       <r>    14.2584     0.0000   616.0000 </r>
       <r>    14.4505     0.0000   616.0000 </r>
       <r>    14.6427     0.0000   616.0000 </r>
       <r>    14.8348     0.0000   616.0000 </r>
      </set>
     </set>
    </array>
   </total>
  </dos>
 </calculation>
 <structure name="finalpos" >
  <crystal>
   <varray name="basis" >
    <v>      11.17850000       0.00000000       0.00000000 </v>
    <v>       0.00000000       9.57460000       0.00000000 </v>
    <v>       0.00000000       0.00000000      11.18240000 </v>
   </varray>
   <i name="volume">   1196.84853820 </i>
   <varray name="rec_basis" >
    <v>       0.08945744       0.00000000       0.00000000 </v>
    <v>       0.00000000       0.10444301       0.00000000 </v>
    <v>       0.00000000       0.00000000       0.08942624 </v>
   </varray>
  </crystal>
  <varray name="positions" >
   <v>       0.37539000       0.00017000       0.43687000 </v>
   <v>       0.37461000       0.00017000       0.18687000 </v>
   <v>       0.62539000       0.99983000       0.43687000 </v>
   <v>       0.87539000       0.00017000       0.43687000 </v>
   <v>       0.62461000       0.99983000       0.18687000 </v>
   <v>       0.87461000       0.00017000       0.18687000 </v>
   <v>       0.12539000       0.99983000       0.93687000 </v>
   <v>       0.37539000       0.00017000       0.93687000 </v>
   <v>       0.12461000       0.99983000       0.68687000 </v>
   <v>       0.37461000       0.00017000       0.68687000 </v>
   <v>       0.62539000       0.99983000       0.93687000 </v>
   <v>       0.87539000       0.00017000       0.93687000 </v>
   <v>       0.62461000       0.99983000       0.68687000 </v>
   <v>       0.87461000       0.00017000       0.68687000 </v>
   <v>       0.12461000       0.99983000       0.18687000 </v>
   <v>       0.00013000       0.29519000       0.06282000 </v>
   <v>       0.25013000       0.70481000       0.06282000 </v>
   <v>       0.24987000       0.29519000       0.31282000 </v>
   <v>       0.49987000       0.70481000       0.31282000 </v>
   <v>       0.50013000       0.29519000       0.06282000 </v>
   <v>       0.75013000       0.70481000       0.06282000 </v>
   <v>       0.74987000       0.29519000       0.31282000 </v>
   <v>       0.99987000       0.70481000       0.31282000 </v>
   <v>       0.00013000       0.29519000       0.56282000 </v>
   <v>       0.25013000       0.70481000       0.56282000 </v>
   <v>       0.24987000       0.29519000       0.81282000 </v>
   <v>       0.49987000       0.70481000       0.81282000 </v>
   <v>       0.50013000       0.29519000       0.56282000 </v>
   <v>       0.75013000       0.70481000       0.56282000 </v>
   <v>       0.74987000       0.29519000       0.81282000 </v>
   <v>       0.99987000       0.70481000       0.81282000 </v>
   <v>       0.25005000       0.32677000       0.06286000 </v>
   <v>       0.00005000       0.67323000       0.06286000 </v>
   <v>       0.49995000       0.32677000       0.31286000 </v>
   <v>       0.24995000       0.67323000       0.31286000 </v>
   <v>       0.75005000       0.32677000       0.06286000 </v>
   <v>       0.50005000       0.67323000       0.06286000 </v>
   <v>       0.99995000       0.32677000       0.31286000 </v>
   <v>       0.74995000       0.67323000       0.31286000 </v>
   <v>       0.25005000       0.32677000       0.56286000 </v>
   <v>       0.00005000       0.67323000       0.56286000 </v>
   <v>       0.49995000       0.32677000       0.81286000 </v>
   <v>       0.24995000       0.67323000       0.81286000 </v>
   <v>       0.75005000       0.32677000       0.56286000 </v>
   <v>       0.50005000       0.67323000       0.56286000 </v>
   <v>       0.99995000       0.32677000       0.81286000 </v>
   <v>       0.74995000       0.67323000       0.81286000 </v>
   <v>       0.49987000       0.07798000       0.06246000 </v>
   <v>       0.00013000       0.92202000       0.31246000 </v>
   <v>       0.24987000       0.92202000       0.06246000 </v>
   <v>       0.25013000       0.07798000       0.31246000 </v>
   <v>       0.99987000       0.07798000       0.06246000 </v>
   <v>       0.50013000       0.92202000       0.31246000 </v>
   <v>       0.74987000       0.92202000       0.06246000 </v>
   <v>       0.75013000       0.07798000       0.31246000 </v>
   <v>       0.49987000       0.07798000       0.56246000 </v>
   <v>       0.00013000       0.92202000       0.81246000 </v>
   <v>       0.24987000       0.92202000       0.56246000 </v>
   <v>       0.25013000       0.07798000       0.81246000 </v>
   <v>       0.99987000       0.07798000       0.56246000 </v>
   <v>       0.50013000       0.92202000       0.81246000 </v>
   <v>       0.74987000       0.92202000       0.56246000 </v>
   <v>       0.75013000       0.07798000       0.81246000 </v>
  </varray>
 </structure>
</modeling>
