<?xml version="1.0" encoding="ISO-8859-1"?>
<modeling>
 <generator>
  <i name="program" type="string">vasp </i>
  <i name="version" type="string">5.3.3  </i>
  <i name="subversion" type="string">18Dez12 (build Nov 19 2020 19:34:37) complex                          parallel </i>
  <i name="platform" type="string">LinuxIFC </i>
  <i name="date" type="string">2021 09 22 </i>
  <i name="time" type="string">11:16:53 </i>
 </generator>
 <incar>
  <i type="string" name="SYSTEM"> La2O2S</i>
  <i type="string" name="PREC">normal</i>
  <i type="int" name="NELMIN">     4</i>
  <i type="int" name="IBRION">     2</i>
  <i type="int" name="NFREE">    10</i>
  <i name="EDIFF">      0.00000100</i>
  <i name="EDIFFG">     -0.01000000</i>
  <i type="int" name="NSW">   200</i>
  <i type="int" name="ISIF">     3</i>
  <i name="ENCUT">    600.00000000</i>
  <i name="ENAUG">    900.00000000</i>
  <i type="int" name="ISMEAR">    -5</i>
  <i type="logical" name="LWAVE"> F  </i>
  <i type="logical" name="LCHARG"> F  </i>
 </incar>
 <kpoints>
  <generation param="Gamma">
   <v type="int" name="divisions">       2        2        2 </v>
   <v name="usershift">      0.00000000       0.00000000       0.00000000 </v>
   <v name="genvec1">      0.50000000       0.00000000       0.00000000 </v>
   <v name="genvec2">      0.00000000       0.50000000       0.00000000 </v>
   <v name="genvec3">      0.00000000       0.00000000       0.50000000 </v>
   <v name="shift">      0.00000000       0.00000000       0.00000000 </v>
  </generation>
  <varray name="kpointlist" >
   <v>       0.00000000       0.00000000       0.00000000 </v>
   <v>       0.50000000       0.00000000       0.00000000 </v>
   <v>       0.00000000       0.50000000       0.00000000 </v>
   <v>       0.50000000       0.50000000       0.00000000 </v>
   <v>       0.00000000       0.00000000       0.50000000 </v>
   <v>       0.50000000       0.00000000       0.50000000 </v>
   <v>       0.00000000       0.50000000       0.50000000 </v>
   <v>       0.50000000       0.50000000       0.50000000 </v>
  </varray>
  <varray name="weights" >
   <v>       0.12500000 </v>
   <v>       0.12500000 </v>
   <v>       0.12500000 </v>
   <v>       0.12500000 </v>
   <v>       0.12500000 </v>
   <v>       0.12500000 </v>
   <v>       0.12500000 </v>
   <v>       0.12500000 </v>
  </varray>
  <varray name="tetrahedronlist"  type="int" >
   <v type="int" >        2        1        2        4        5 </v>
   <v type="int" >        2        1        3        4        5 </v>
   <v type="int" >        2        3        4        5        7 </v>
   <v type="int" >        2        2        4        5        6 </v>
   <v type="int" >        2        4        5        6        8 </v>
   <v type="int" >        2        4        5        7        8 </v>
   <v type="int" >        2        1        2        3        6 </v>
   <v type="int" >        2        2        3        4        6 </v>
   <v type="int" >        2        3        4        6        8 </v>
   <v type="int" >        2        1        3        5        6 </v>
   <v type="int" >        2        3        5        6        7 </v>
   <v type="int" >        2        3        6        7        8 </v>
   <v type="int" >        2        2        3        4        7 </v>
   <v type="int" >        2        1        2        3        7 </v>
   <v type="int" >        2        1        2        5        7 </v>
   <v type="int" >        2        2        4        7        8 </v>
   <v type="int" >        2        2        6        7        8 </v>
   <v type="int" >        2        2        5        6        7 </v>
   <v type="int" >        2        1        3        4        8 </v>
   <v type="int" >        2        1        2        4        8 </v>
   <v type="int" >        2        1        2        6        8 </v>
   <v type="int" >        2        1        3        7        8 </v>
   <v type="int" >        2        1        5        7        8 </v>
   <v type="int" >        2        1        5        6        8 </v>
  </varray>
  <i name="volumeweight">      0.02083333 </i>
 </kpoints>
 <parameters>
  <separator name="general" >
   <i type="string" name="SYSTEM">La2O2S</i>
   <i type="logical" name="LCOMPAT"> F  </i>
  </separator>
  <separator name="electronic" >
   <i type="string" name="PREC">normal</i>
   <i name="ENMAX">    600.00000000</i>
   <i name="ENAUG">    900.00000000</i>
   <i name="EDIFF">      0.00000100</i>
   <i type="int" name="IALGO">    38</i>
   <i type="int" name="IWAVPR">    11</i>
   <i type="int" name="NBANDS">   280</i>
   <i name="NELECT">    464.00000000</i>
   <i type="int" name="TURBO">     0</i>
   <i type="int" name="IRESTART">     0</i>
   <i type="int" name="NREBOOT">     0</i>
   <i type="int" name="NMIN">     0</i>
   <i name="EREF">      0.00000000</i>
   <separator name="electronic smearing" >
    <i type="int" name="ISMEAR">    -5</i>
    <i name="SIGMA">      0.20000000</i>
    <i name="KSPACING">      0.50000000</i>
    <i type="logical" name="KGAMMA"> T  </i>
   </separator>
   <separator name="electronic projectors" >
    <i type="logical" name="LREAL"> F  </i>
    <v name="ROPT">      0.00000000      0.00000000      0.00000000      0.00000000      0.00000000</v>
    <i type="int" name="LMAXPAW">  -100</i>
    <i type="int" name="LMAXMIX">     2</i>
    <i type="logical" name="NLSPLINE"> F  </i>
   </separator>
   <separator name="electronic startup" >
    <i type="int" name="ISTART">     0</i>
    <i type="int" name="ICHARG">     2</i>
    <i type="int" name="INIWAV">     1</i>
   </separator>
   <separator name="electronic spin" >
    <i type="int" name="ISPIN">     1</i>
    <i type="logical" name="LNONCOLLINEAR"> F  </i>
    <v name="MAGMOM">      1.00000000      1.00000000      1.00000000      1.00000000      1.00000000      1.00000000      1.00000000      1.00000000      1.00000000      1.00000000      1.00000000      1.00000000      1.00000000      1.00000000      1.00000000      1.00000000      1.00000000      1.00000000      1.00000000      1.00000000
      1.00000000      1.00000000      1.00000000      1.00000000      1.00000000      1.00000000      1.00000000      1.00000000      1.00000000      1.00000000      1.00000000      1.00000000      1.00000000      1.00000000      1.00000000      1.00000000      1.00000000      1.00000000      1.00000000      1.00000000
      1.00000000      1.00000000      1.00000000      1.00000000      1.00000000      1.00000000      1.00000000      1.00000000      1.00000000      1.00000000      1.00000000      1.00000000      1.00000000      1.00000000      1.00000000      1.00000000      1.00000000      1.00000000      1.00000000      1.00000000
</v>
    <i name="NUPDOWN">     -1.00000000</i>
    <i type="logical" name="LSORBIT"> F  </i>
    <v name="SAXIS">      0.00000000      0.00000000      1.00000000</v>
    <i type="logical" name="LSPIRAL"> F  </i>
    <v name="QSPIRAL">      0.00000000      0.00000000      0.00000000</v>
    <i type="logical" name="LZEROZ"> F  </i>
   </separator>
   <separator name="electronic exchange-correlation" >
    <i type="logical" name="LASPH"> F  </i>
    <i type="logical" name="LMETAGGA"> F  </i>
   </separator>
   <separator name="electronic convergence" >
    <i type="int" name="NELM">    60</i>
    <i type="int" name="NELMDL">    -5</i>
    <i type="int" name="NELMIN">     4</i>
    <i name="ENINI">    600.00000000</i>
    <separator name="electronic convergence detail" >
     <i type="logical" name="LDIAG"> T  </i>
     <i type="logical" name="LSUBROT"> T  </i>
     <i name="WEIMIN">      0.00100000</i>
     <i name="EBREAK">      0.00000000</i>
     <i name="DEPER">      0.30000000</i>
     <i type="int" name="NRMM">     4</i>
     <i name="TIME">      0.40000000</i>
    </separator>
   </separator>
   <separator name="electronic mixer" >
    <i name="AMIX">      0.40000000</i>
    <i name="BMIX">      1.00000000</i>
    <i name="AMIN">      0.10000000</i>
    <i name="AMIX_MAG">      1.60000000</i>
    <i name="BMIX_MAG">      1.00000000</i>
    <separator name="electronic mixer details" >
     <i type="int" name="IMIX">     4</i>
     <i type="int" name="MAXMIX">   -45</i>
     <i name="WC">    100.00000000</i>
     <i type="int" name="INIMIX">     1</i>
     <i type="int" name="MIXPRE">     1</i>
     <i type="int" name="MREMOVE">     5</i>
    </separator>
   </separator>
   <separator name="electronic dipolcorrection" >
    <i type="logical" name="LDIPOL"> F  </i>
    <i type="logical" name="LMONO"> F  </i>
    <i type="int" name="IDIPOL">     0</i>
    <i name="EPSILON">      1.00000000</i>
    <v name="DIPOL">   -100.00000000   -100.00000000   -100.00000000</v>
    <i name="EFIELD">      0.00000000</i>
   </separator>
  </separator>
  <separator name="grids" >
   <i type="int" name="NGX">    70</i>
   <i type="int" name="NGY">    60</i>
   <i type="int" name="NGZ">    70</i>
   <i type="int" name="NGXF">   140</i>
   <i type="int" name="NGYF">   120</i>
   <i type="int" name="NGZF">   140</i>
   <i type="logical" name="ADDGRID"> F  </i>
  </separator>
  <separator name="ionic" >
   <i type="int" name="NSW">   200</i>
   <i type="int" name="IBRION">     2</i>
   <i type="int" name="ISIF">     3</i>
   <i name="PSTRESS">      0.00000000</i>
   <i name="EDIFFG">     -0.01000000</i>
   <i type="int" name="NFREE">    10</i>
   <i name="POTIM">      0.50000000</i>
   <i name="SMASS">     -3.00000000</i>
   <i name="SCALEE">      1.00000000</i>
  </separator>
  <separator name="ionic md" >
   <i name="TEBEG">      0.00010000</i>
   <i name="TEEND">      0.00010000</i>
   <i type="int" name="NBLOCK">     1</i>
   <i type="int" name="KBLOCK">   200</i>
   <i type="int" name="NPACO">   256</i>
   <i name="APACO">     16.00000000</i>
  </separator>
  <separator name="symmetry" >
   <i type="int" name="ISYM">     2</i>
   <i name="SYMPREC">      0.00001000</i>
  </separator>
  <separator name="dos" >
   <i type="logical" name="LORBIT"> F  </i>
   <v name="RWIGS">     -1.00000000     -1.00000000     -1.00000000     -1.00000000     -1.00000000</v>
   <i type="int" name="NEDOS">   301</i>
   <i name="EMIN">     10.00000000</i>
   <i name="EMAX">    -10.00000000</i>
   <i name="EFERMI">      0.00000000</i>
  </separator>
  <separator name="writing" >
   <i type="int" name="NWRITE">     2</i>
   <i type="logical" name="LWAVE"> F  </i>
   <i type="logical" name="LCHARG"> F  </i>
   <i type="logical" name="LPARD"> F  </i>
   <i type="logical" name="LVTOT"> F  </i>
   <i type="logical" name="LVHAR"> F  </i>
   <i type="logical" name="LELF"> F  </i>
   <i type="logical" name="LOPTICS"> F  </i>
   <v name="STM">      0.00000000      0.00000000      0.00000000      0.00000000      0.00000000      0.00000000      0.00000000</v>
  </separator>
  <separator name="performance" >
   <i type="int" name="NPAR">    40</i>
   <i type="int" name="NSIM">     4</i>
   <i type="int" name="NBLK">    -1</i>
   <i type="logical" name="LPLANE"> T  </i>
   <i type="logical" name="LSCALAPACK"> F  </i>
   <i type="logical" name="LSCAAWARE"> F  </i>
   <i type="logical" name="LSCALU"> F  </i>
   <i type="logical" name="LASYNC"> F  </i>
   <i type="logical" name="LORBITALREAL"> F  </i>
  </separator>
  <separator name="miscellaneous" >
   <i type="int" name="IDIOT">     3</i>
   <i type="logical" name="LMUSIC"> F  </i>
   <v name="POMASS">      7.01000000     24.30500000    208.98000000     32.06600000     16.00000000</v>
   <v name="DARWINR">      0.00000000      0.00000000      0.00000000      0.00000000      0.00000000</v>
   <v name="DARWINV">      1.00000000      1.00000000      1.00000000      1.00000000      1.00000000</v>
   <i type="logical" name="LCORR"> T  </i>
  </separator>
  <i type="logical" name="GGA_COMPAT"> T  </i>
  <i type="logical" name="LBERRY"> F  </i>
  <i type="int" name="ICORELEVEL">     0</i>
  <i type="logical" name="LDAU"> F  </i>
  <i type="int" name="I_CONSTRAINED_M">     0</i>
  <separator name="electronic exchange-correlation" >
   <i type="string" name="GGA">--</i>
   <i type="int" name="VOSKOWN">     0</i>
   <i type="logical" name="LHFCALC"> F  </i>
   <i type="string" name="PRECFOCK"></i>
   <i type="logical" name="LSYMGRAD"> F  </i>
   <i type="logical" name="LHFONE"> F  </i>
   <i type="logical" name="LRHFCALC"> F  </i>
   <i type="logical" name="LTHOMAS"> F  </i>
   <i type="logical" name="LMODELHF"> F  </i>
   <i name="ENCUT4O">     -1.00000000</i>
   <i type="int" name="EXXOEP">     0</i>
   <i type="int" name="FOURORBIT">     0</i>
   <i name="AEXX">      0.00000000</i>
   <i name="HFALPHA">      0.00000000</i>
   <i name="MCALPHA">      0.00000000</i>
   <i name="ALDAX">      1.00000000</i>
   <i name="AGGAX">      1.00000000</i>
   <i name="ALDAC">      1.00000000</i>
   <i name="AGGAC">      1.00000000</i>
   <i type="int" name="NKREDX">     1</i>
   <i type="int" name="NKREDY">     1</i>
   <i type="int" name="NKREDZ">     1</i>
   <i type="logical" name="SHIFTRED"> F  </i>
   <i type="logical" name="ODDONLY"> F  </i>
   <i type="logical" name="EVENONLY"> F  </i>
   <i type="int" name="LMAXFOCK">     0</i>
   <i type="int" name="NMAXFOCKAE">     0</i>
   <i type="logical" name="LFOCKAEDFT"> F  </i>
   <i name="HFSCREEN">      0.00000000</i>
   <i name="HFSCREENC">      0.00000000</i>
   <i type="int" name="NBANDSGWLOW">     0</i>
  </separator>
  <separator name="vdW DFT" >
   <i type="logical" name="LUSE_VDW"> F  </i>
   <i name="Zab_VDW">     -0.84910000</i>
   <i name="PARAM1">      0.12340000</i>
   <i name="PARAM2">      1.00000000</i>
   <i name="PARAM3">      0.00000000</i>
  </separator>
  <separator name="model GW" >
   <i type="int" name="MODEL_GW">     0</i>
   <i name="MODEL_EPS0">     11.96848538</i>
   <i name="MODEL_ALPHA">      1.00000000</i>
  </separator>
  <separator name="linear response parameters" >
   <i type="logical" name="LEPSILON"> F  </i>
   <i type="logical" name="LRPA"> F  </i>
   <i type="logical" name="LNABLA"> F  </i>
   <i type="logical" name="LVEL"> F  </i>
   <i type="int" name="KINTER">     0</i>
   <i name="CSHIFT">      0.10000000</i>
   <i name="OMEGAMAX">     -1.00000000</i>
   <i name="DEG_THRESHOLD">      0.00200000</i>
  </separator>
  <separator name="orbital magnetization" >
   <i type="logical" name="NUCIND"> F  </i>
   <v name="MAGPOS">      0.00000000      0.00000000      0.00000000</v>
   <i type="logical" name="LNICSALL"> T  </i>
   <i type="logical" name="ORBITALMAG"> F  </i>
   <i type="logical" name="LMAGBLOCH"> F  </i>
   <i type="logical" name="LCHIMAG"> F  </i>
   <i type="logical" name="LGAUGE"> T  </i>
   <i type="int" name="MAGATOM">     0</i>
   <v name="MAGDIPOL">      0.00000000      0.00000000      0.00000000</v>
   <v name="AVECCONST">      0.00000000      0.00000000      0.00000000</v>
  </separator>
  <separator name="response functions" >
   <i type="logical" name="LADDER"> F  </i>
   <i type="logical" name="LFXC"> F  </i>
   <i type="logical" name="LHARTREE"> T  </i>
   <i type="int" name="IBSE">     0</i>
   <i type="logical" name="LTCTE"> F  </i>
   <i type="logical" name="LTETE"> F  </i>
   <i type="logical" name="LTRIPLET"> F  </i>
   <i type="logical" name="LFXCEPS"> F  </i>
   <i type="logical" name="L2ORDER"> F  </i>
   <i type="logical" name="LUSEW"> F  </i>
   <i name="ENCUTGW">     -2.00000000</i>
   <i name="ENCUTGWSOFT">     -2.00000000</i>
   <i name="ENCUTLF">     -1.00000000</i>
   <i type="int" name="LMAXMP2">    -1</i>
   <i name="SCISSOR">      0.00000000</i>
   <i type="int" name="NOMEGA">     0</i>
   <i type="int" name="NOMEGAR">     0</i>
   <i type="int" name="NBANDSGW">    -1</i>
   <i type="int" name="NBANDSO">    -1</i>
   <i type="int" name="NBANDSV">    -1</i>
   <i type="int" name="NELM">     1</i>
   <i type="int" name="DIM">     3</i>
   <i type="int" name="ANTIRES">     0</i>
   <i name="OMEGAMAX">    -30.00000000</i>
   <i name="OMEGATL">   -200.00000000</i>
   <i type="int" name="OMEGAGRID">     0</i>
   <i name="CSHIFT">     -0.10000000</i>
   <i type="logical" name="SELFENERGY"> F  </i>
   <i type="logical" name="LSPECTRAL"> F  </i>
   <i type="logical" name="ODDONLYGW"> F  </i>
   <i type="logical" name="EVENONLYGW"> F  </i>
   <i type="int" name="NKREDLFX">     1</i>
   <i type="int" name="NKREDLFY">     1</i>
   <i type="int" name="NKREDLFZ">     1</i>
   <i type="int" name="MAXMEM">  1800</i>
   <i type="int" name="TELESCOPE">     0</i>
  </separator>
 </parameters>
 <atominfo>
  <atoms>      60 </atoms>
  <types>       5 </types>
  <array name="atoms" >
   <dimension dim="1">ion</dimension>
   <field type="string">element</field>
   <field type="int">atomtype</field>
   <set>
    <rc><c>Li</c><c>   1</c></rc>
    <rc><c>Li</c><c>   1</c></rc>
    <rc><c>Li</c><c>   1</c></rc>
    <rc><c>Li</c><c>   1</c></rc>
    <rc><c>Li</c><c>   1</c></rc>
    <rc><c>Li</c><c>   1</c></rc>
    <rc><c>Li</c><c>   1</c></rc>
    <rc><c>Li</c><c>   1</c></rc>
    <rc><c>Mg</c><c>   2</c></rc>
    <rc><c>Mg</c><c>   2</c></rc>
    <rc><c>Mg</c><c>   2</c></rc>
    <rc><c>Mg</c><c>   2</c></rc>
    <rc><c>Bi</c><c>   3</c></rc>
    <rc><c>Bi</c><c>   3</c></rc>
    <rc><c>Bi</c><c>   3</c></rc>
    <rc><c>Bi</c><c>   3</c></rc>
    <rc><c>Bi</c><c>   3</c></rc>
    <rc><c>Bi</c><c>   3</c></rc>
    <rc><c>Bi</c><c>   3</c></rc>
    <rc><c>Bi</c><c>   3</c></rc>
    <rc><c>Bi</c><c>   3</c></rc>
    <rc><c>Bi</c><c>   3</c></rc>
    <rc><c>Bi</c><c>   3</c></rc>
    <rc><c>Bi</c><c>   3</c></rc>
    <rc><c>Bi</c><c>   3</c></rc>
    <rc><c>Bi</c><c>   3</c></rc>
    <rc><c>Bi</c><c>   3</c></rc>
    <rc><c>Bi</c><c>   3</c></rc>
    <rc><c>S </c><c>   4</c></rc>
    <rc><c>S </c><c>   4</c></rc>
    <rc><c>S </c><c>   4</c></rc>
    <rc><c>S </c><c>   4</c></rc>
    <rc><c>S </c><c>   4</c></rc>
    <rc><c>S </c><c>   4</c></rc>
    <rc><c>S </c><c>   4</c></rc>
    <rc><c>S </c><c>   4</c></rc>
    <rc><c>S </c><c>   4</c></rc>
    <rc><c>S </c><c>   4</c></rc>
    <rc><c>S </c><c>   4</c></rc>
    <rc><c>S </c><c>   4</c></rc>
    <rc><c>S </c><c>   4</c></rc>
    <rc><c>S </c><c>   4</c></rc>
    <rc><c>S </c><c>   4</c></rc>
    <rc><c>S </c><c>   4</c></rc>
    <rc><c>O </c><c>   5</c></rc>
    <rc><c>O </c><c>   5</c></rc>
    <rc><c>O </c><c>   5</c></rc>
    <rc><c>O </c><c>   5</c></rc>
    <rc><c>O </c><c>   5</c></rc>
    <rc><c>O </c><c>   5</c></rc>
    <rc><c>O </c><c>   5</c></rc>
    <rc><c>O </c><c>   5</c></rc>
    <rc><c>O </c><c>   5</c></rc>
    <rc><c>O </c><c>   5</c></rc>
    <rc><c>O </c><c>   5</c></rc>
    <rc><c>O </c><c>   5</c></rc>
    <rc><c>O </c><c>   5</c></rc>
    <rc><c>O </c><c>   5</c></rc>
    <rc><c>O </c><c>   5</c></rc>
    <rc><c>O </c><c>   5</c></rc>
   </set>
  </array>
  <array name="atomtypes" >
   <dimension dim="1">type</dimension>
   <field type="int">atomspertype</field>
   <field type="string">element</field>
   <field>mass</field>
   <field>valence</field>
   <field type="string">pseudopotential</field>
   <set>
    <rc><c>   8</c><c>Li</c><c>      7.01000000</c><c>      3.00000000</c><c>  PAW_PBE Li_sv 10Sep2004               </c></rc>
    <rc><c>   4</c><c>Mg</c><c>     24.30500000</c><c>      2.00000000</c><c>  PAW_PBE Mg 13Apr2007                  </c></rc>
    <rc><c>  16</c><c>Bi</c><c>    208.98000000</c><c>     15.00000000</c><c>  PAW_PBE Bi_d 06Sep2000                </c></rc>
    <rc><c>  16</c><c>S </c><c>     32.06600000</c><c>      6.00000000</c><c>  PAW_PBE S 06Sep2000                   </c></rc>
    <rc><c>  16</c><c>O </c><c>     16.00000000</c><c>      6.00000000</c><c>  PAW_PBE O 08Apr2002                   </c></rc>
   </set>
  </array>
 </atominfo>
 <structure name="initialpos" >
  <crystal>
   <varray name="basis" >
    <v>      11.17850000       0.00000000       0.00000000 </v>
    <v>       0.00000000       9.57460000       0.00000000 </v>
    <v>       0.00000000       0.00000000      11.18240000 </v>
   </varray>
   <i name="volume">   1196.84853820 </i>
   <varray name="rec_basis" >
    <v>       0.08945744       0.00000000       0.00000000 </v>
    <v>       0.00000000       0.10444301       0.00000000 </v>
    <v>       0.00000000       0.00000000       0.08942624 </v>
   </varray>
  </crystal>
  <varray name="positions" >
   <v>       0.12461000       0.99984000       0.18687000 </v>
   <v>       0.87539000       0.00017000       0.43687000 </v>
   <v>       0.62461000       0.99984000       0.18687000 </v>
   <v>       0.87461000       0.00017000       0.18687000 </v>
   <v>       0.12461000       0.99984000       0.68687000 </v>
   <v>       0.87539000       0.00017000       0.93687000 </v>
   <v>       0.62461000       0.99984000       0.68687000 </v>
   <v>       0.87461000       0.00017000       0.68687000 </v>
   <v>       0.37461000       0.00017000       0.18687000 </v>
   <v>       0.62539000       0.99984000       0.43687000 </v>
   <v>       0.12539000       0.99984000       0.93687000 </v>
   <v>       0.62539000       0.99984000       0.93687000 </v>
   <v>       0.00013000       0.29519000       0.06281000 </v>
   <v>       0.25013000       0.70481000       0.06281000 </v>
   <v>       0.24987000       0.29519000       0.31282000 </v>
   <v>       0.49987000       0.70481000       0.31282000 </v>
   <v>       0.50013000       0.29519000       0.06281000 </v>
   <v>       0.75013000       0.70481000       0.06281000 </v>
   <v>       0.74987000       0.29519000       0.31282000 </v>
   <v>       0.99987000       0.70481000       0.31282000 </v>
   <v>       0.00013000       0.29519000       0.56281000 </v>
   <v>       0.25013000       0.70481000       0.56281000 </v>
   <v>       0.24987000       0.29519000       0.81282000 </v>
   <v>       0.49987000       0.70481000       0.81282000 </v>
   <v>       0.50013000       0.29519000       0.56281000 </v>
   <v>       0.75013000       0.70481000       0.56281000 </v>
   <v>       0.74987000       0.29519000       0.81282000 </v>
   <v>       0.99987000       0.70481000       0.81282000 </v>
   <v>       0.25005000       0.32677000       0.06286000 </v>
   <v>       0.00005000       0.67323000       0.06286000 </v>
   <v>       0.49995000       0.32677000       0.31286000 </v>
   <v>       0.24995000       0.67323000       0.31286000 </v>
   <v>       0.75005000       0.32677000       0.06286000 </v>
   <v>       0.50005000       0.67323000       0.06286000 </v>
   <v>       0.99995000       0.32677000       0.31286000 </v>
   <v>       0.74995000       0.67323000       0.31286000 </v>
   <v>       0.25005000       0.32677000       0.56286000 </v>
   <v>       0.00005000       0.67323000       0.56286000 </v>
   <v>       0.49995000       0.32677000       0.81286000 </v>
   <v>       0.24995000       0.67323000       0.81286000 </v>
   <v>       0.75005000       0.32677000       0.56286000 </v>
   <v>       0.50005000       0.67323000       0.56286000 </v>
   <v>       0.99995000       0.32677000       0.81286000 </v>
   <v>       0.74995000       0.67323000       0.81286000 </v>
   <v>       0.49987000       0.07798000       0.06246000 </v>
   <v>       0.24987000       0.92202000       0.06246000 </v>
   <v>       0.25013000       0.07798000       0.31246000 </v>
   <v>       0.00013000       0.92202000       0.31246000 </v>
   <v>       0.99987000       0.07798000       0.06246000 </v>
   <v>       0.74987000       0.92202000       0.06246000 </v>
   <v>       0.75013000       0.07798000       0.31246000 </v>
   <v>       0.50013000       0.92202000       0.31246000 </v>
   <v>       0.49987000       0.07798000       0.56246000 </v>
   <v>       0.24987000       0.92202000       0.56246000 </v>
   <v>       0.25013000       0.07798000       0.81246000 </v>
   <v>       0.00013000       0.92202000       0.81246000 </v>
   <v>       0.99987000       0.07798000       0.56246000 </v>
   <v>       0.74987000       0.92202000       0.56246000 </v>
   <v>       0.75013000       0.07798000       0.81246000 </v>
   <v>       0.50013000       0.92202000       0.81246000 </v>
  </varray>
 </structure>
 <calculation>
  <scstep>
   <time name="dav">   39.31   39.54</time>
   <time name="total">   39.39   39.65</time>
   <energy>
    <i name="alphaZ">   1067.11773629 </i>
    <i name="ewald"> -30613.35693538 </i>
    <i name="hartreedc"> -12737.44978839 </i>
    <i name="XCdc">   1321.22426670 </i>
    <i name="pawpsdc">  36729.48549953 </i>
    <i name="pawaedc"> -36149.63912807 </i>
    <i name="eentropy">      0.00000000 </i>
    <i name="bandstr">   1656.55831132 </i>
    <i name="atom">  44408.54722957 </i>
    <i name="e_fr_energy">   5682.48719156 </i>
    <i name="e_wo_entrp">   5682.48719156 </i>
    <i name="e_0_energy">   5682.48719156 </i>
   </energy>
  </scstep>
  <scstep>
   <time name="dav">   39.83   40.15</time>
   <time name="total">   39.85   40.21</time>
   <energy>
    <i name="e_fr_energy">    700.55125145 </i>
    <i name="e_wo_entrp">    700.55125145 </i>
    <i name="e_0_energy">    700.55125145 </i>
   </energy>
  </scstep>
  <scstep>
   <time name="dav">   46.32   46.58</time>
   <time name="total">   46.33   46.61</time>
   <energy>
    <i name="e_fr_energy">   -255.63453326 </i>
    <i name="e_wo_entrp">   -255.63453326 </i>
    <i name="e_0_energy">   -255.63453326 </i>
   </energy>
  </scstep>
  <scstep>
   <time name="dav">   49.88   50.02</time>
   <time name="total">   49.89   50.05</time>
   <energy>
    <i name="e_fr_energy">   -341.18980093 </i>
    <i name="e_wo_entrp">   -341.18980093 </i>
    <i name="e_0_energy">   -341.18980093 </i>
   </energy>
  </scstep>
  <scstep>
   <time name="dav">   64.54   64.72</time>
   <time name="total">   64.99   65.19</time>
   <energy>
    <i name="e_fr_energy">   -347.49202111 </i>
    <i name="e_wo_entrp">   -347.49202111 </i>
    <i name="e_0_energy">   -347.49202111 </i>
   </energy>
  </scstep>
  <scstep>
   <time name="dav">   57.62   57.81</time>
   <time name="total">   58.12   58.33</time>
   <energy>
    <i name="e_fr_energy">   -291.50800235 </i>
    <i name="e_wo_entrp">   -291.50800235 </i>
    <i name="e_0_energy">   -291.50800235 </i>
   </energy>
  </scstep>
  <scstep>
   <time name="dav">   43.77   44.64</time>
   <time name="total">   44.27   45.16</time>
   <energy>
    <i name="e_fr_energy">   -293.17537379 </i>
    <i name="e_wo_entrp">   -293.17537379 </i>
    <i name="e_0_energy">   -293.17537379 </i>
   </energy>
  </scstep>
  <scstep>
   <time name="dav">   54.75   55.05</time>
   <time name="total">   55.25   55.57</time>
   <energy>
    <i name="e_fr_energy">   -291.85596274 </i>
    <i name="e_wo_entrp">   -291.85596274 </i>
    <i name="e_0_energy">   -291.85596274 </i>
   </energy>
  </scstep>
  <scstep>
   <time name="dav">   45.04   45.15</time>
   <time name="total">   45.54   45.68</time>
   <energy>
    <i name="e_fr_energy">   -291.17156079 </i>
    <i name="e_wo_entrp">   -291.17156079 </i>
    <i name="e_0_energy">   -291.17156079 </i>
   </energy>
  </scstep>
  <scstep>
   <time name="dav">   53.71   53.83</time>
   <time name="total">   54.21   54.35</time>
   <energy>
    <i name="e_fr_energy">   -291.15419391 </i>
    <i name="e_wo_entrp">   -291.15419391 </i>
    <i name="e_0_energy">   -291.15419391 </i>
   </energy>
  </scstep>
  <scstep>
   <time name="dav">   44.21   44.63</time>
   <time name="total">   44.71   45.15</time>
   <energy>
    <i name="e_fr_energy">   -291.15269481 </i>
    <i name="e_wo_entrp">   -291.15269481 </i>
    <i name="e_0_energy">   -291.15269481 </i>
   </energy>
  </scstep>
  <scstep>
   <time name="dav">   53.18   53.72</time>
   <time name="total">   53.67   54.23</time>
   <energy>
    <i name="e_fr_energy">   -291.15905879 </i>
    <i name="e_wo_entrp">   -291.15905879 </i>
    <i name="e_0_energy">   -291.15905879 </i>
   </energy>
  </scstep>
  <scstep>
   <time name="dav">   53.71   54.37</time>
   <time name="total">   54.21   54.88</time>
   <energy>
    <i name="e_fr_energy">   -291.15951455 </i>
    <i name="e_wo_entrp">   -291.15951455 </i>
    <i name="e_0_energy">   -291.15951455 </i>
   </energy>
  </scstep>
  <scstep>
   <time name="dav">   52.50   52.70</time>
   <time name="total">   52.99   53.24</time>
   <energy>
    <i name="e_fr_energy">   -291.15888471 </i>
    <i name="e_wo_entrp">   -291.15888471 </i>
    <i name="e_0_energy">   -291.15888471 </i>
   </energy>
  </scstep>
  <scstep>
   <time name="dav">   49.40   49.68</time>
   <time name="total">   49.90   50.20</time>
   <energy>
    <i name="e_fr_energy">   -291.15893931 </i>
    <i name="e_wo_entrp">   -291.15893931 </i>
    <i name="e_0_energy">   -291.15893931 </i>
   </energy>
  </scstep>
  <scstep>
   <time name="dav">   60.46   60.82</time>
   <time name="total">   60.98   61.36</time>
   <energy>
    <i name="e_fr_energy">   -291.15902600 </i>
    <i name="e_wo_entrp">   -291.15902600 </i>
    <i name="e_0_energy">   -291.15902600 </i>
   </energy>
  </scstep>
  <scstep>
   <time name="dav">   52.80   53.17</time>
   <time name="total">   53.32   53.76</time>
   <energy>
    <i name="e_fr_energy">   -291.15900521 </i>
    <i name="e_wo_entrp">   -291.15900521 </i>
    <i name="e_0_energy">   -291.15900521 </i>
   </energy>
  </scstep>
  <scstep>
   <time name="dav">   39.42   39.69</time>
   <time name="total">   39.93   40.22</time>
   <energy>
    <i name="e_fr_energy">   -291.15900989 </i>
    <i name="e_wo_entrp">   -291.15900989 </i>
    <i name="e_0_energy">   -291.15900989 </i>
   </energy>
  </scstep>
  <scstep>
   <time name="dav">   40.50   40.79</time>
   <time name="total">   41.00   41.34</time>
   <energy>
    <i name="e_fr_energy">   -291.15901160 </i>
    <i name="e_wo_entrp">   -291.15901160 </i>
    <i name="e_0_energy">   -291.15901160 </i>
   </energy>
  </scstep>
  <scstep>
   <time name="dav">   35.89   36.07</time>
   <time name="total">   35.96   36.14</time>
   <energy>
    <i name="alphaZ">   1067.11773629 </i>
    <i name="ewald"> -30613.35693538 </i>
    <i name="hartreedc"> -12965.69225701 </i>
    <i name="XCdc">   1345.00002187 </i>
    <i name="pawpsdc">  43760.71931522 </i>
    <i name="pawaedc"> -43155.17173743 </i>
    <i name="eentropy">      0.00000000 </i>
    <i name="bandstr">  -4138.32238499 </i>
    <i name="atom">  44408.54722957 </i>
    <i name="e_fr_energy">   -291.15901187 </i>
    <i name="e_wo_entrp">   -291.15901187 </i>
    <i name="e_0_energy">   -291.15901187 </i>
   </energy>
  </scstep>
  <structure>
   <crystal>
    <varray name="basis" >
     <v>      11.17850000       0.00000000       0.00000000 </v>
     <v>       0.00000000       9.57460000       0.00000000 </v>
     <v>       0.00000000       0.00000000      11.18240000 </v>
    </varray>
    <i name="volume">   1196.84853820 </i>
    <varray name="rec_basis" >
     <v>       0.08945744       0.00000000       0.00000000 </v>
     <v>       0.00000000       0.10444301       0.00000000 </v>
     <v>       0.00000000       0.00000000       0.08942624 </v>
    </varray>
   </crystal>
   <varray name="positions" >
    <v>       0.12461000       0.99984000       0.18687000 </v>
    <v>       0.87539000       0.00017000       0.43687000 </v>
    <v>       0.62461000       0.99984000       0.18687000 </v>
    <v>       0.87461000       0.00017000       0.18687000 </v>
    <v>       0.12461000       0.99984000       0.68687000 </v>
    <v>       0.87539000       0.00017000       0.93687000 </v>
    <v>       0.62461000       0.99984000       0.68687000 </v>
    <v>       0.87461000       0.00017000       0.68687000 </v>
    <v>       0.37461000       0.00017000       0.18687000 </v>
    <v>       0.62539000       0.99984000       0.43687000 </v>
    <v>       0.12539000       0.99984000       0.93687000 </v>
    <v>       0.62539000       0.99984000       0.93687000 </v>
    <v>       0.00013000       0.29519000       0.06281000 </v>
    <v>       0.25013000       0.70481000       0.06281000 </v>
    <v>       0.24987000       0.29519000       0.31282000 </v>
    <v>       0.49987000       0.70481000       0.31282000 </v>
    <v>       0.50013000       0.29519000       0.06281000 </v>
    <v>       0.75013000       0.70481000       0.06281000 </v>
    <v>       0.74987000       0.29519000       0.31282000 </v>
    <v>       0.99987000       0.70481000       0.31282000 </v>
    <v>       0.00013000       0.29519000       0.56281000 </v>
    <v>       0.25013000       0.70481000       0.56281000 </v>
    <v>       0.24987000       0.29519000       0.81282000 </v>
    <v>       0.49987000       0.70481000       0.81282000 </v>
    <v>       0.50013000       0.29519000       0.56281000 </v>
    <v>       0.75013000       0.70481000       0.56281000 </v>
    <v>       0.74987000       0.29519000       0.81282000 </v>
    <v>       0.99987000       0.70481000       0.81282000 </v>
    <v>       0.25005000       0.32677000       0.06286000 </v>
    <v>       0.00005000       0.67323000       0.06286000 </v>
    <v>       0.49995000       0.32677000       0.31286000 </v>
    <v>       0.24995000       0.67323000       0.31286000 </v>
    <v>       0.75005000       0.32677000       0.06286000 </v>
    <v>       0.50005000       0.67323000       0.06286000 </v>
    <v>       0.99995000       0.32677000       0.31286000 </v>
    <v>       0.74995000       0.67323000       0.31286000 </v>
    <v>       0.25005000       0.32677000       0.56286000 </v>
    <v>       0.00005000       0.67323000       0.56286000 </v>
    <v>       0.49995000       0.32677000       0.81286000 </v>
    <v>       0.24995000       0.67323000       0.81286000 </v>
    <v>       0.75005000       0.32677000       0.56286000 </v>
    <v>       0.50005000       0.67323000       0.56286000 </v>
    <v>       0.99995000       0.32677000       0.81286000 </v>
    <v>       0.74995000       0.67323000       0.81286000 </v>
    <v>       0.49987000       0.07798000       0.06246000 </v>
    <v>       0.24987000       0.92202000       0.06246000 </v>
    <v>       0.25013000       0.07798000       0.31246000 </v>
    <v>       0.00013000       0.92202000       0.31246000 </v>
    <v>       0.99987000       0.07798000       0.06246000 </v>
    <v>       0.74987000       0.92202000       0.06246000 </v>
    <v>       0.75013000       0.07798000       0.31246000 </v>
    <v>       0.50013000       0.92202000       0.31246000 </v>
    <v>       0.49987000       0.07798000       0.56246000 </v>
    <v>       0.24987000       0.92202000       0.56246000 </v>
    <v>       0.25013000       0.07798000       0.81246000 </v>
    <v>       0.00013000       0.92202000       0.81246000 </v>
    <v>       0.99987000       0.07798000       0.56246000 </v>
    <v>       0.74987000       0.92202000       0.56246000 </v>
    <v>       0.75013000       0.07798000       0.81246000 </v>
    <v>       0.50013000       0.92202000       0.81246000 </v>
   </varray>
  </structure>
  <varray name="forces" >
   <v>      -0.08173426      -0.01495009       1.03329825 </v>
   <v>       1.03290560      -0.01175791       0.07521390 </v>
   <v>       0.09658043      -0.00432933       0.06839747 </v>
   <v>       0.31851806      -0.13202272       0.31469169 </v>
   <v>       0.82431176       0.04116809      -0.96637453 </v>
   <v>       0.05936380      -0.00435238      -0.05737405 </v>
   <v>      -0.86959462      -0.01003708      -0.06241991 </v>
   <v>       0.30877887       0.11442606      -0.31185033 </v>
   <v>      -0.51084743       0.19966879       0.52296485 </v>
   <v>      -1.14383650       0.20814035       0.56300164 </v>
   <v>       1.13529964       0.20776340      -0.47215438 </v>
   <v>      -1.16272935      -0.23030385      -0.48619215 </v>
   <v>       0.19310111       1.07927277       0.17942051 </v>
   <v>       0.07674650      -1.05726929      -0.13326850 </v>
   <v>      -0.18349731      -0.92958515       0.75996100 </v>
   <v>      -0.49696529      -1.01650151       0.52559610 </v>
   <v>      -0.38697371       1.02714622      -0.23308653 </v>
   <v>       0.09830132      -1.13229476       0.07391320 </v>
   <v>       0.21750460       1.09101105       0.21153680 </v>
   <v>       0.46661206       0.94652125       0.47459494 </v>
   <v>       0.55629135      -0.94964444      -0.20146705 </v>
   <v>       0.05832044       2.64039521      -0.11070429 </v>
   <v>       0.34407945      -0.93079925      -0.54370445 </v>
   <v>      -0.61678974       0.90375015      -0.43828059 </v>
   <v>      -0.73606503      -0.93269831       0.14618892 </v>
   <v>       0.10475277      -1.11031197       0.07745715 </v>
   <v>       0.00882153       1.10422112      -0.37713425 </v>
   <v>       0.31246614      -1.08031304      -0.49544414 </v>
   <v>      -0.02145963       0.11718658      -0.00150450 </v>
   <v>      -0.12516236      -0.06911439      -0.21004267 </v>
   <v>       0.32341200       0.09017174      -0.31513742 </v>
   <v>       0.24438113      -0.11589482      -0.57791976 </v>
   <v>      -0.03927733      -0.01853282      -0.04758282 </v>
   <v>       0.18282418      -0.01720771       0.16454664 </v>
   <v>      -0.34034464       0.15105033      -0.33546267 </v>
   <v>      -0.20280938      -0.06836482      -0.11184736 </v>
   <v>      -0.01124147       0.23156559       0.01393944 </v>
   <v>      -0.55041855      -0.19545284       0.20567346 </v>
   <v>       0.40635414       0.08265072       0.36260046 </v>
   <v>      -0.27283059      -0.13049181       0.56897187 </v>
   <v>      -0.03061789       0.16418203      -0.05364492 </v>
   <v>       0.58139776      -0.11863327      -0.23527732 </v>
   <v>      -0.28557861       0.15592475       0.36148806 </v>
   <v>       0.13174743      -0.08567541       0.20891593 </v>
   <v>       0.81652928      -0.79006794       0.72837709 </v>
   <v>      -0.64538162       0.69329103       0.58366212 </v>
   <v>       0.57304502       0.65115229      -1.93766819 </v>
   <v>      -0.86559716      -0.69530688      -0.85543671 </v>
   <v>       0.31472856      -0.92165281      -0.62280440 </v>
   <v>      -0.46020978       1.06196473      -0.47110110 </v>
   <v>      -0.60820872      -0.91680100       0.29367084 </v>
   <v>       0.86861877       0.72542878      -0.90503202 </v>
   <v>       1.95446799       0.64915375      -0.59243018 </v>
   <v>      -0.52099449      -2.28080934       0.52423501 </v>
   <v>      -1.77765070       0.69223692       0.78624128 </v>
   <v>       0.14737083       0.81990062       0.78168772 </v>
   <v>      -0.95661004       0.77137531       0.71314707 </v>
   <v>      -0.44152674       0.84025873      -0.50572548 </v>
   <v>      -0.30173754      -0.89610357       0.65109365 </v>
   <v>       1.88905795      -0.59369783       0.69358562 </v>
  </varray>
  <varray name="stress" >
   <v>      -6.37504187       0.14423687       1.27074299 </v>
   <v>       0.14423691     -12.45174731      -0.11581053 </v>
   <v>       1.27074313      -0.11581081      -4.81507311 </v>
  </varray>
  <energy>
   <i name="e_fr_energy">   -304.70049237 </i>
   <i name="e_wo_entrp">   -304.70049237 </i>
   <i name="e_0_energy">      0.00000000 </i>
  </energy>
  <time name="totalsc"> 1069.79 1077.22</time>
 </calculation>
 <calculation>
  <scstep>
   <time name="dav">   41.15   41.44</time>
   <time name="total">   41.65   41.95</time>
   <energy>
    <i name="alphaZ">   1082.42253539 </i>
    <i name="ewald"> -30751.20030184 </i>
    <i name="hartreedc"> -13023.27720486 </i>
    <i name="XCdc">   1353.34485987 </i>
    <i name="pawpsdc">  43760.74218237 </i>
    <i name="pawaedc"> -43155.19612126 </i>
    <i name="eentropy">      0.00000000 </i>
    <i name="bandstr">  -3965.36511756 </i>
    <i name="atom">  44408.54722957 </i>
    <i name="e_fr_energy">   -289.98193832 </i>
    <i name="e_wo_entrp">   -289.98193832 </i>
    <i name="e_0_energy">   -289.98193832 </i>
   </energy>
  </scstep>
  <scstep>
   <time name="dav">   46.68   46.86</time>
   <time name="total">   47.17   47.37</time>
   <energy>
    <i name="e_fr_energy">   -293.25146935 </i>
    <i name="e_wo_entrp">   -293.25146935 </i>
    <i name="e_0_energy">   -293.25146935 </i>
   </energy>
  </scstep>
  <scstep>
   <time name="dav">   63.85   64.56</time>
   <time name="total">   64.35   65.16</time>
   <energy>
    <i name="e_fr_energy">   -293.03026488 </i>
    <i name="e_wo_entrp">   -293.03026488 </i>
    <i name="e_0_energy">   -293.03026488 </i>
   </energy>
  </scstep>
  <scstep>
   <time name="dav">   53.66   54.42</time>
   <time name="total">   54.15   54.93</time>
   <energy>
    <i name="e_fr_energy">   -292.86342594 </i>
    <i name="e_wo_entrp">   -292.86342594 </i>
    <i name="e_0_energy">   -292.86342594 </i>
   </energy>
  </scstep>
  <scstep>
   <time name="dav">   55.38   55.76</time>
   <time name="total">   55.87   56.28</time>
   <energy>
    <i name="e_fr_energy">   -292.85213051 </i>
    <i name="e_wo_entrp">   -292.85213051 </i>
    <i name="e_0_energy">   -292.85213051 </i>
   </energy>
  </scstep>
  <scstep>
   <time name="dav">   53.93   54.30</time>
   <time name="total">   54.42   54.82</time>
   <energy>
    <i name="e_fr_energy">   -292.84907085 </i>
    <i name="e_wo_entrp">   -292.84907085 </i>
    <i name="e_0_energy">   -292.84907085 </i>
   </energy>
  </scstep>
  <scstep>
   <time name="dav">   57.93   58.32</time>
   <time name="total">   58.43   58.85</time>
   <energy>
    <i name="e_fr_energy">   -292.84806925 </i>
    <i name="e_wo_entrp">   -292.84806925 </i>
    <i name="e_0_energy">   -292.84806925 </i>
   </energy>
  </scstep>
  <scstep>
   <time name="dav">   56.00   56.44</time>
   <time name="total">   56.50   56.95</time>
   <energy>
    <i name="e_fr_energy">   -292.84772753 </i>
    <i name="e_wo_entrp">   -292.84772753 </i>
    <i name="e_0_energy">   -292.84772753 </i>
   </energy>
  </scstep>
  <scstep>
   <time name="dav">   48.95   49.35</time>
   <time name="total">   49.42   49.87</time>
   <energy>
    <i name="e_fr_energy">   -292.84781360 </i>
    <i name="e_wo_entrp">   -292.84781360 </i>
    <i name="e_0_energy">   -292.84781360 </i>
   </energy>
  </scstep>
  <scstep>
   <time name="dav">   60.05   60.55</time>
   <time name="total">   60.55   61.06</time>
   <energy>
    <i name="e_fr_energy">   -292.84781708 </i>
    <i name="e_wo_entrp">   -292.84781708 </i>
    <i name="e_0_energy">   -292.84781708 </i>
   </energy>
  </scstep>
  <scstep>
   <time name="dav">   46.30   46.46</time>
   <time name="total">   46.80   46.97</time>
   <energy>
    <i name="e_fr_energy">   -292.84782590 </i>
    <i name="e_wo_entrp">   -292.84782590 </i>
    <i name="e_0_energy">   -292.84782590 </i>
   </energy>
  </scstep>
  <scstep>
   <time name="dav">   52.35   52.67</time>
   <time name="total">   52.85   53.20</time>
   <energy>
    <i name="e_fr_energy">   -292.84782597 </i>
    <i name="e_wo_entrp">   -292.84782597 </i>
    <i name="e_0_energy">   -292.84782597 </i>
   </energy>
  </scstep>
  <scstep>
   <time name="dav">   44.93   45.10</time>
   <time name="total">   44.99   45.17</time>
   <energy>
    <i name="alphaZ">   1082.42253539 </i>
    <i name="ewald"> -30751.20030184 </i>
    <i name="hartreedc"> -12899.89603836 </i>
    <i name="XCdc">   1347.83690408 </i>
    <i name="pawpsdc">  44101.44278130 </i>
    <i name="pawaedc"> -43498.64216391 </i>
    <i name="eentropy">      0.00000000 </i>
    <i name="bandstr">  -4083.35877270 </i>
    <i name="atom">  44408.54722957 </i>
    <i name="e_fr_energy">   -292.84782648 </i>
    <i name="e_wo_entrp">   -292.84782648 </i>
    <i name="e_0_energy">   -292.84782648 </i>
   </energy>
  </scstep>
  <structure>
   <crystal>
    <varray name="basis" >
     <v>      11.13569691       0.00096843       0.00853198 </v>
     <v>       0.00082948       9.50299234      -0.00066600 </v>
     <v>       0.00853496      -0.00077784      11.15005952 </v>
    </varray>
    <i name="volume">   1179.92582471 </i>
    <varray name="rec_basis" >
     <v>       0.08980135      -0.00000784      -0.00006874 </v>
     <v>      -0.00000916       0.10523001       0.00000735 </v>
     <v>      -0.00006872       0.00000629       0.08968567 </v>
    </varray>
   </crystal>
   <varray name="positions" >
    <v>       0.12425726       0.99976467       0.19132781 </v>
    <v>       0.87984767       0.00011076       0.43719448 </v>
    <v>       0.62502681       0.99981819       0.18716508 </v>
    <v>       0.87598462      -0.00049521       0.18822763 </v>
    <v>       0.12816745       0.00004743       0.68270091 </v>
    <v>       0.87564619       0.00014807       0.93662248 </v>
    <v>       0.62085712       0.99978943       0.68660071 </v>
    <v>       0.87594259       0.00074655       0.68552463 </v>
    <v>       0.37240535       0.00117605       0.18912615 </v>
    <v>       0.62045359       0.00088874       0.43929888 </v>
    <v>       0.13028957       0.00088684       0.93483305 </v>
    <v>       0.62037205       0.99867959       0.93477249 </v>
    <v>       0.00096336       0.30062803       0.06358405 </v>
    <v>       0.25046121       0.69948283       0.06223506 </v>
    <v>       0.24907809       0.29050619       0.31609859 </v>
    <v>       0.49772526       0.69968825       0.31508751 </v>
    <v>       0.49845995       0.30036539       0.06180443 </v>
    <v>       0.75055424       0.69910481       0.06312887 </v>
    <v>       0.75080868       0.30068718       0.31373260 </v>
    <v>       0.00188374       0.70957915       0.31486748 </v>
    <v>       0.00253077       0.29040511       0.56194084 </v>
    <v>       0.25038169       0.71811392       0.56233240 </v>
    <v>       0.25135493       0.29050007       0.81047437 </v>
    <v>       0.49720814       0.70936364       0.81092919 </v>
    <v>       0.49695339       0.29049050       0.56344068 </v>
    <v>       0.75058208       0.69921557       0.56314416 </v>
    <v>       0.74990807       0.30075374       0.81119298 </v>
    <v>       0.00121850       0.69936673       0.81068258 </v>
    <v>       0.24995739       0.32736046       0.06285351 </v>
    <v>      -0.00049016       0.67288176       0.06195384 </v>
    <v>       0.50134574       0.32722434       0.31150045 </v>
    <v>       0.25100467       0.67264605       0.31036676 </v>
    <v>       0.74988049       0.32667662       0.06265472 </v>
    <v>       0.50083901       0.67314330       0.06356988 </v>
    <v>       0.99848119       0.32753108       0.31141276 </v>
    <v>       0.74907474       0.67288554       0.31237747 </v>
    <v>       0.25000149       0.32793677       0.56292014 </v>
    <v>      -0.00232542       0.67224519       0.56374731 </v>
    <v>       0.50170369       0.32718644       0.81442432 </v>
    <v>       0.24877255       0.67257250       0.81531464 </v>
    <v>       0.74991786       0.32759725       0.56262857 </v>
    <v>       0.50255912       0.67263225       0.56184498 </v>
    <v>       0.99871754       0.32755564       0.81441952 </v>
    <v>       0.75051858       0.67279832       0.81376130 </v>
    <v>       0.50339387       0.07399916       0.06560233 </v>
    <v>       0.24708475       0.92551322       0.06497801 </v>
    <v>       0.25260307       0.08126090       0.30410059 </v>
    <v>      -0.00360563       0.91851662       0.30876951 </v>
    <v>       0.00122826       0.07333615       0.05977312 </v>
    <v>       0.74788389       0.92737082       0.06042759 </v>
    <v>       0.74750518       0.07336060       0.31372694 </v>
    <v>       0.50387867       0.92567515       0.30855555 </v>
    <v>       0.50830483       0.08125083       0.55990416 </v>
    <v>       0.24762156       0.91052790       0.56472163 </v>
    <v>       0.24245826       0.08146791       0.81585197 </v>
    <v>       0.00076600       0.92615116       0.81583233 </v>
    <v>       0.99574159       0.08186666       0.56553663 </v>
    <v>       0.74796452       0.92625373       0.56027822 </v>
    <v>       0.74882780       0.07346489       0.81526892 </v>
    <v>       0.50828254       0.91902859       0.81545224 </v>
   </varray>
  </structure>
  <varray name="forces" >
   <v>      -0.12852498      -0.00941587       0.57097220 </v>
   <v>       0.49518162      -0.00687238       0.04473396 </v>
   <v>       0.16018552      -0.00013198       0.02615115 </v>
   <v>       0.08397190      -0.07033491       0.08313861 </v>
   <v>       0.54894781       0.02427382      -0.63329909 </v>
   <v>       0.02001073      -0.00146950      -0.01427896 </v>
   <v>      -0.45932098      -0.00920819      -0.02067270 </v>
   <v>       0.09423086       0.05151386      -0.09022905 </v>
   <v>       0.14590783      -0.05551664      -0.02469593 </v>
   <v>      -0.31117865      -0.05822920      -0.14600820 </v>
   <v>       0.29104549      -0.08496101       0.19808026 </v>
   <v>      -0.30783604       0.05681009       0.22998439 </v>
   <v>       0.04559304      -0.15286263      -0.01426384 </v>
   <v>       0.00259350      -0.07012918      -0.05903006 </v>
   <v>      -0.07988131       0.71627138       0.39759115 </v>
   <v>      -0.15096462      -0.02075808       0.18518214 </v>
   <v>      -0.12166902      -0.05148876      -0.05787695 </v>
   <v>       0.05688873       0.25160074       0.02388991 </v>
   <v>       0.03870670      -0.15186992       0.08060325 </v>
   <v>       0.19570979      -0.80326450       0.20531419 </v>
   <v>       0.18322458       0.90375582      -0.06770687 </v>
   <v>       0.14809665      -4.03043224      -0.18292293 </v>
   <v>       0.20362986       0.78752353      -0.20522625 </v>
   <v>      -0.34539090      -0.63878539      -0.19491542 </v>
   <v>      -0.35771038       0.73358441       0.04830457 </v>
   <v>       0.04348197       0.04873962       0.01009259 </v>
   <v>       0.08663536      -0.12561847      -0.13185057 </v>
   <v>       0.08191065       0.06291486      -0.14290602 </v>
   <v>       0.00005547       0.20175116      -0.00989714 </v>
   <v>      -0.04536544      -0.21094273      -0.07878369 </v>
   <v>       0.09505422       0.17799146      -0.10700845 </v>
   <v>       0.14452340      -0.08913062      -0.34588089 </v>
   <v>      -0.02887810       0.16101839      -0.03136352 </v>
   <v>       0.07301027      -0.13682912       0.03342900 </v>
   <v>      -0.13879015       0.09635390      -0.15333392 </v>
   <v>      -0.07751808      -0.20872839      -0.03510695 </v>
   <v>      -0.00766859       0.06283489       0.03043752 </v>
   <v>      -0.29156509      -0.15433000       0.09909850 </v>
   <v>       0.21004374       0.04796887       0.16897962 </v>
   <v>      -0.15230855      -0.10342383       0.31124771 </v>
   <v>      -0.02929923       0.27233724      -0.04098690 </v>
   <v>       0.32623310      -0.08965010      -0.11665261 </v>
   <v>      -0.10016475       0.26462166       0.15715213 </v>
   <v>       0.02228490      -0.22156005       0.10391465 </v>
   <v>       0.33524483       0.37562406       0.51453427 </v>
   <v>      -0.37780437      -0.32410000       0.50464444 </v>
   <v>       0.17849003      -0.72877228      -1.20035689 </v>
   <v>      -0.56429114       0.95957818      -0.54452537 </v>
   <v>       0.32421517       0.38209541      -0.28923607 </v>
   <v>      -0.30775765      -0.44086470      -0.30556779 </v>
   <v>      -0.30655454       0.38593782       0.29670178 </v>
   <v>       0.37756455      -0.33138965      -0.51323691 </v>
   <v>       1.11598278      -0.69613560      -0.12990308 </v>
   <v>      -0.56920928       4.46743090       0.55099165 </v>
   <v>      -1.04678947      -0.70673366       0.12740323 </v>
   <v>       0.26933160      -0.34783828       0.27660838 </v>
   <v>      -0.57495881      -1.01565852       0.51090990 </v>
   <v>      -0.27700249      -0.34006975      -0.26932943 </v>
   <v>      -0.29106004       0.39200336       0.25714450 </v>
   <v>       1.05147597       0.60297072       0.10981682 </v>
  </varray>
  <varray name="stress" >
   <v>       6.72482122       0.05153733      -0.87990011 </v>
   <v>       0.05153758       9.02342676       0.99668065 </v>
   <v>      -0.87990013       0.99668032       6.35529674 </v>
  </varray>
  <energy>
   <i name="e_fr_energy">   -306.57002157 </i>
   <i name="e_wo_entrp">   -306.57002157 </i>
   <i name="e_0_energy">      0.00000000 </i>
  </energy>
  <time name="totalsc">  764.70  770.54</time>
 </calculation>
 <calculation>
  <scstep>
   <time name="dav">   44.87   45.19</time>
   <time name="total">   45.37   45.72</time>
   <energy>
    <i name="alphaZ">   1080.75339124 </i>
    <i name="ewald"> -30738.99889315 </i>
    <i name="hartreedc"> -12891.38156008 </i>
    <i name="XCdc">   1346.89484723 </i>
    <i name="pawpsdc">  44101.50092963 </i>
    <i name="pawaedc"> -43498.70203389 </i>
    <i name="eentropy">      0.00000000 </i>
    <i name="bandstr">  -4101.48843541 </i>
    <i name="atom">  44408.54722957 </i>
    <i name="e_fr_energy">   -292.87452486 </i>
    <i name="e_wo_entrp">   -292.87452486 </i>
    <i name="e_0_energy">   -292.87452486 </i>
   </energy>
  </scstep>
  <scstep>
   <time name="dav">   44.18   44.88</time>
   <time name="total">   44.68   45.40</time>
   <energy>
    <i name="e_fr_energy">   -292.90507377 </i>
    <i name="e_wo_entrp">   -292.90507377 </i>
    <i name="e_0_energy">   -292.90507377 </i>
   </energy>
  </scstep>
  <scstep>
   <time name="dav">   55.17   55.84</time>
   <time name="total">   55.66   56.36</time>
   <energy>
    <i name="e_fr_energy">   -292.90294082 </i>
    <i name="e_wo_entrp">   -292.90294082 </i>
    <i name="e_0_energy">   -292.90294082 </i>
   </energy>
  </scstep>
  <scstep>
   <time name="dav">   55.12   55.62</time>
   <time name="total">   55.61   56.13</time>
   <energy>
    <i name="e_fr_energy">   -292.90154750 </i>
    <i name="e_wo_entrp">   -292.90154750 </i>
    <i name="e_0_energy">   -292.90154750 </i>
   </energy>
  </scstep>
  <scstep>
   <time name="dav">   48.40   48.85</time>
   <time name="total">   48.91   49.40</time>
   <energy>
    <i name="e_fr_energy">   -292.90145859 </i>
    <i name="e_wo_entrp">   -292.90145859 </i>
    <i name="e_0_energy">   -292.90145859 </i>
   </energy>
  </scstep>
  <scstep>
   <time name="dav">   59.48   60.01</time>
   <time name="total">   59.97   60.53</time>
   <energy>
    <i name="e_fr_energy">   -292.90142704 </i>
    <i name="e_wo_entrp">   -292.90142704 </i>
    <i name="e_0_energy">   -292.90142704 </i>
   </energy>
  </scstep>
  <scstep>
   <time name="dav">   46.38   46.93</time>
   <time name="total">   46.88   47.46</time>
   <energy>
    <i name="e_fr_energy">   -292.90140441 </i>
    <i name="e_wo_entrp">   -292.90140441 </i>
    <i name="e_0_energy">   -292.90140441 </i>
   </energy>
  </scstep>
  <scstep>
   <time name="dav">   56.10   56.97</time>
   <time name="total">   56.63   57.55</time>
   <energy>
    <i name="e_fr_energy">   -292.90139856 </i>
    <i name="e_wo_entrp">   -292.90139856 </i>
    <i name="e_0_energy">   -292.90139856 </i>
   </energy>
  </scstep>
  <scstep>
   <time name="dav">   41.50   41.86</time>
   <time name="total">   41.55   41.93</time>
   <energy>
    <i name="alphaZ">   1080.75339124 </i>
    <i name="ewald"> -30738.99889315 </i>
    <i name="hartreedc"> -12904.86676602 </i>
    <i name="XCdc">   1347.50163517 </i>
    <i name="pawpsdc">  44053.02199884 </i>
    <i name="pawaedc"> -43449.74043162 </i>
    <i name="eentropy">      0.00000000 </i>
    <i name="bandstr">  -4089.11956343 </i>
    <i name="atom">  44408.54722957 </i>
    <i name="e_fr_energy">   -292.90139939 </i>
    <i name="e_wo_entrp">   -292.90139939 </i>
    <i name="e_0_energy">   -292.90139939 </i>
   </energy>
  </scstep>
  <structure>
   <crystal>
    <varray name="basis" >
     <v>      11.14032381       0.00086375       0.00760969 </v>
     <v>       0.00073981       9.51073294      -0.00059401 </v>
     <v>       0.00761235      -0.00069376      11.15355544 </v>
    </varray>
    <i name="volume">   1181.74813340 </i>
    <varray name="rec_basis" >
     <v>       0.08976404      -0.00000699      -0.00006126 </v>
     <v>      -0.00000816       0.10514437       0.00000655 </v>
     <v>      -0.00006124       0.00000560       0.08965755 </v>
    </varray>
   </crystal>
   <varray name="positions" >
    <v>       0.12429591       0.99977283       0.19084451 </v>
    <v>       0.87936399       0.00011726       0.43715968 </v>
    <v>       0.62498160       0.99982056       0.18713312 </v>
    <v>       0.87583556      -0.00042276       0.18808057 </v>
    <v>       0.12778108       0.00002491       0.68315318 </v>
    <v>       0.87561837       0.00015046       0.93664933 </v>
    <v>       0.62126433       0.99979490       0.68662959 </v>
    <v>       0.87579788       0.00068378       0.68567059 </v>
    <v>       0.37264478       0.00106644       0.18888137 </v>
    <v>       0.62098946       0.00077444       0.43903514 </v>
    <v>       0.12975774       0.00077290       0.93505428 </v>
    <v>       0.62091638       0.99880593       0.93499947 </v>
    <v>       0.00087304       0.30003577       0.06350017 </v>
    <v>       0.25042518       0.70006304       0.06229745 </v>
    <v>       0.24916425       0.29101627       0.31574312 </v>
    <v>       0.49795814       0.70024602       0.31484154 </v>
    <v>       0.49864113       0.29980172       0.06191327 </v>
    <v>       0.75050818       0.69972618       0.06309438 </v>
    <v>       0.75070694       0.30008847       0.31363371 </v>
    <v>       0.00166543       0.70905974       0.31464565 </v>
    <v>       0.00227014       0.29092628       0.56203530 </v>
    <v>       0.25035445       0.71666497       0.56238411 </v>
    <v>       0.25119356       0.29101089       0.81072882 </v>
    <v>       0.49749687       0.70886768       0.81113392 </v>
    <v>       0.49729811       0.29100229       0.56337208 </v>
    <v>       0.75053300       0.69982488       0.56310801 </v>
    <v>       0.74990385       0.30014779       0.81136934 </v>
    <v>       0.00107195       0.69995960       0.81091444 </v>
    <v>       0.24996744       0.32729615       0.06285420 </v>
    <v>      -0.00043162       0.67291969       0.06205204 </v>
    <v>       0.50119417       0.32717488       0.31164795 </v>
    <v>       0.25089001       0.67270968       0.31063715 </v>
    <v>       0.74989887       0.32668679       0.06267696 </v>
    <v>       0.50075345       0.67315274       0.06349299 </v>
    <v>       0.99864046       0.32744819       0.31156953 </v>
    <v>       0.74916968       0.67292305       0.31242971 </v>
    <v>       0.25000676       0.32780969       0.56291361 </v>
    <v>      -0.00206759       0.67235241       0.56365092 </v>
    <v>       0.50151352       0.32714109       0.81425487 </v>
    <v>       0.24890052       0.67264408       0.81504843 </v>
    <v>       0.74993219       0.32750715       0.56265364 </v>
    <v>       0.50228676       0.67269739       0.56195523 </v>
    <v>       0.99885141       0.32747005       0.81425034 </v>
    <v>       0.75045695       0.67284533       0.81366364 </v>
    <v>       0.50301171       0.07443273       0.06526199 </v>
    <v>       0.24738722       0.92513271       0.06470478 </v>
    <v>       0.25233404       0.08090367       0.30500703 </v>
    <v>      -0.00320060       0.91889817       0.30916931 </v>
    <v>       0.00108061       0.07384196       0.06006455 </v>
    <v>       0.74809928       0.92678805       0.06064773 </v>
    <v>       0.74779007       0.07386367       0.31358940 </v>
    <v>       0.50347159       0.92527714       0.30897912 </v>
    <v>       0.50738935       0.08089471       0.56018192 </v>
    <v>       0.24786564       0.91177948       0.56447634 </v>
    <v>       0.24329105       0.08108792       0.81548358 </v>
    <v>       0.00069730       0.92570120       0.81546675 </v>
    <v>       0.99618987       0.08144328       0.56520272 </v>
    <v>       0.74817114       0.92579263       0.56051456 </v>
    <v>       0.74896930       0.07395660       0.81496432 </v>
    <v>       0.50739811       0.91935445       0.81512854 </v>
   </varray>
  </structure>
  <varray name="forces" >
   <v>      -0.12242347      -0.00960848       0.62208937 </v>
   <v>       0.55334223      -0.00720800       0.04841663 </v>
   <v>       0.15087626      -0.00066646       0.03158604 </v>
   <v>       0.11108369      -0.07807659       0.10982202 </v>
   <v>       0.58232891       0.02157029      -0.67272479 </v>
   <v>       0.02489632      -0.00176698      -0.01944444 </v>
   <v>      -0.50684607      -0.00899043      -0.02541878 </v>
   <v>       0.11964113       0.05983776      -0.11577791 </v>
   <v>       0.06258468      -0.01865218       0.04693463 </v>
   <v>      -0.41622651      -0.01638978      -0.05054994 </v>
   <v>       0.39735591      -0.04014108       0.10688341 </v>
   <v>      -0.41561548       0.01386127       0.13399959 </v>
   <v>       0.06180680      -0.04108123       0.00786323 </v>
   <v>       0.01084379      -0.16113269      -0.06887047 </v>
   <v>      -0.08830070       0.50904414       0.42991113 </v>
   <v>      -0.19158425      -0.11155409       0.22523082 </v>
   <v>      -0.15199918       0.04789713      -0.07860565 </v>
   <v>       0.06205533       0.12883960       0.02986222 </v>
   <v>       0.05957603      -0.03906436       0.09525017 </v>
   <v>       0.22133880      -0.57398727       0.23088581 </v>
   <v>       0.21969611       0.65878122      -0.07812577 </v>
   <v>       0.11969024      -2.83962026      -0.15683564 </v>
   <v>       0.21008851       0.56726779      -0.23933549 </v>
   <v>      -0.36821058      -0.44554343      -0.21916762 </v>
   <v>      -0.39229285       0.52308314       0.05608953 </v>
   <v>       0.05139027      -0.05647247       0.01790616 </v>
   <v>       0.07859169      -0.01414369      -0.15964881 </v>
   <v>       0.10912862      -0.03998199      -0.18417029 </v>
   <v>      -0.00215270       0.19267123      -0.00865069 </v>
   <v>      -0.05436500      -0.19687774      -0.09287307 </v>
   <v>       0.12091050       0.16928227      -0.13044233 </v>
   <v>       0.15678651      -0.09458426      -0.37492326 </v>
   <v>      -0.03036230       0.14355377      -0.03331779 </v>
   <v>       0.08558870      -0.12474900       0.04783243 </v>
   <v>      -0.16224441       0.10312068      -0.17429346 </v>
   <v>      -0.09126492      -0.19473324      -0.04360333 </v>
   <v>      -0.00715027       0.08292643       0.02738305 </v>
   <v>      -0.32504197      -0.16168555       0.11149077 </v>
   <v>       0.23245721       0.05246839       0.19144928 </v>
   <v>      -0.16596356      -0.10911602       0.34431619 </v>
   <v>      -0.02965412       0.26089153      -0.04255919 </v>
   <v>       0.35825355      -0.09540416      -0.13117718 </v>
   <v>      -0.12118831       0.25357834       0.18020338 </v>
   <v>       0.03362738      -0.20761872       0.11605727 </v>
   <v>       0.39195404       0.26392428       0.53984547 </v>
   <v>      -0.40853827      -0.22902070       0.51385636 </v>
   <v>       0.22997915      -0.56109814      -1.28419766 </v>
   <v>      -0.59377480       0.74373638      -0.57512085 </v>
   <v>       0.32385224       0.26107799      -0.32713310 </v>
   <v>      -0.32584396      -0.30433743      -0.32440106 </v>
   <v>      -0.34188348       0.26499416       0.29650390 </v>
   <v>       0.43624597      -0.23123816      -0.56072881 </v>
   <v>       1.21526691      -0.53498026      -0.19446100 </v>
   <v>      -0.54681209       3.27848807       0.53170206 </v>
   <v>      -1.13371709      -0.53496515       0.21385971 </v>
   <v>       0.25589828      -0.23902072       0.33525101 </v>
   <v>      -0.61350224      -0.77989590       0.53047521 </v>
   <v>      -0.29715877      -0.23156982      -0.29683457 </v>
   <v>      -0.29393600       0.27190669       0.30265827 </v>
   <v>       1.15091754       0.46217388       0.18777781 </v>
  </varray>
  <varray name="stress" >
   <v>       5.11820036       0.08387352      -0.60119074 </v>
   <v>       0.08387346       4.83150472       0.78965988 </v>
   <v>      -0.60119064       0.78966009       4.94073982 </v>
  </varray>
  <energy>
   <i name="e_fr_energy">   -306.60337614 </i>
   <i name="e_wo_entrp">   -306.60337614 </i>
   <i name="e_0_energy">      0.00000000 </i>
  </energy>
  <time name="totalsc">  532.47  538.39</time>
 </calculation>
 <calculation>
  <scstep>
   <time name="dav">   42.82   43.12</time>
   <time name="total">   43.32   43.62</time>
   <energy>
    <i name="alphaZ">   1078.38804435 </i>
    <i name="ewald"> -30815.35373642 </i>
    <i name="hartreedc"> -12801.52823169 </i>
    <i name="XCdc">   1345.61311204 </i>
    <i name="pawpsdc">  44052.98683779 </i>
    <i name="pawaedc"> -43449.70464053 </i>
    <i name="eentropy">      0.00000000 </i>
    <i name="bandstr">  -4110.62405658 </i>
    <i name="atom">  44408.54722957 </i>
    <i name="e_fr_energy">   -291.67544147 </i>
    <i name="e_wo_entrp">   -291.67544147 </i>
    <i name="e_0_energy">   -291.67544147 </i>
   </energy>
  </scstep>
  <scstep>
   <time name="dav">   48.73   49.23</time>
   <time name="total">   49.24   49.80</time>
   <energy>
    <i name="e_fr_energy">   -293.73853464 </i>
    <i name="e_wo_entrp">   -293.73853464 </i>
    <i name="e_0_energy">   -293.73853464 </i>
   </energy>
  </scstep>
  <scstep>
   <time name="dav">   60.02   60.12</time>
   <time name="total">   60.53   60.66</time>
   <energy>
    <i name="e_fr_energy">   -293.68566437 </i>
    <i name="e_wo_entrp">   -293.68566437 </i>
    <i name="e_0_energy">   -293.68566437 </i>
   </energy>
  </scstep>
  <scstep>
   <time name="dav">   48.06   48.95</time>
   <time name="total">   48.56   49.49</time>
   <energy>
    <i name="e_fr_energy">   -293.64905711 </i>
    <i name="e_wo_entrp">   -293.64905711 </i>
    <i name="e_0_energy">   -293.64905711 </i>
   </energy>
  </scstep>
  <scstep>
   <time name="dav">   50.43   50.84</time>
   <time name="total">   50.93   51.36</time>
   <energy>
    <i name="e_fr_energy">   -293.62238852 </i>
    <i name="e_wo_entrp">   -293.62238852 </i>
    <i name="e_0_energy">   -293.62238852 </i>
   </energy>
  </scstep>
  <scstep>
   <time name="dav">   49.22   49.67</time>
   <time name="total">   49.71   50.21</time>
   <energy>
    <i name="e_fr_energy">   -293.61779321 </i>
    <i name="e_wo_entrp">   -293.61779321 </i>
    <i name="e_0_energy">   -293.61779321 </i>
   </energy>
  </scstep>
  <scstep>
   <time name="dav">   45.22   45.54</time>
   <time name="total">   45.73   46.07</time>
   <energy>
    <i name="e_fr_energy">   -293.61818697 </i>
    <i name="e_wo_entrp">   -293.61818697 </i>
    <i name="e_0_energy">   -293.61818697 </i>
   </energy>
  </scstep>
  <scstep>
   <time name="dav">   66.29   66.83</time>
   <time name="total">   66.79   67.35</time>
   <energy>
    <i name="e_fr_energy">   -293.61805899 </i>
    <i name="e_wo_entrp">   -293.61805899 </i>
    <i name="e_0_energy">   -293.61805899 </i>
   </energy>
  </scstep>
  <scstep>
   <time name="dav">   50.71   51.03</time>
   <time name="total">   51.21   51.55</time>
   <energy>
    <i name="e_fr_energy">   -293.61796002 </i>
    <i name="e_wo_entrp">   -293.61796002 </i>
    <i name="e_0_energy">   -293.61796002 </i>
   </energy>
  </scstep>
  <scstep>
   <time name="dav">   51.14   51.31</time>
   <time name="total">   51.64   51.82</time>
   <energy>
    <i name="e_fr_energy">   -293.61798041 </i>
    <i name="e_wo_entrp">   -293.61798041 </i>
    <i name="e_0_energy">   -293.61798041 </i>
   </energy>
  </scstep>
  <scstep>
   <time name="dav">   52.52   53.39</time>
   <time name="total">   53.02   53.91</time>
   <energy>
    <i name="e_fr_energy">   -293.61798322 </i>
    <i name="e_wo_entrp">   -293.61798322 </i>
    <i name="e_0_energy">   -293.61798322 </i>
   </energy>
  </scstep>
  <scstep>
   <time name="dav">   40.88   41.25</time>
   <time name="total">   41.38   41.77</time>
   <energy>
    <i name="e_fr_energy">   -293.61798443 </i>
    <i name="e_wo_entrp">   -293.61798443 </i>
    <i name="e_0_energy">   -293.61798443 </i>
   </energy>
  </scstep>
  <scstep>
   <time name="dav">   42.63   43.10</time>
   <time name="total">   42.68   43.18</time>
   <energy>
    <i name="alphaZ">   1078.38804435 </i>
    <i name="ewald"> -30815.35373642 </i>
    <i name="hartreedc"> -12819.71822241 </i>
    <i name="XCdc">   1346.47926984 </i>
    <i name="pawpsdc">  43833.31816187 </i>
    <i name="pawaedc"> -43226.31711150 </i>
    <i name="eentropy">      0.00000000 </i>
    <i name="bandstr">  -4098.96162053 </i>
    <i name="atom">  44408.54722957 </i>
    <i name="e_fr_energy">   -293.61798523 </i>
    <i name="e_wo_entrp">   -293.61798523 </i>
    <i name="e_0_energy">   -293.61798523 </i>
   </energy>
  </scstep>
  <structure>
   <crystal>
    <varray name="basis" >
     <v>      11.15404230       0.00184679       0.00759595 </v>
     <v>       0.00157764       9.50510330       0.00346241 </v>
     <v>       0.00759569       0.00406551      11.17088574 </v>
    </varray>
    <i name="volume">   1184.34019132 </i>
    <varray name="rec_basis" >
     <v>       0.08965364      -0.00001486      -0.00006095 </v>
     <v>      -0.00001739       0.10520666      -0.00003828 </v>
     <v>      -0.00006096      -0.00003260       0.08951847 </v>
    </varray>
   </crystal>
   <varray name="positions" >
    <v>       0.12361336       0.99969112       0.19550654 </v>
    <v>       0.88373881       0.00005404       0.43750927 </v>
    <v>       0.62581053       0.99980723       0.18740053 </v>
    <v>       0.87693170      -0.00111428       0.18916246 </v>
    <v>       0.13187210       0.00022605       0.67840596 </v>
    <v>       0.87584070       0.00013164       0.93645424 </v>
    <v>       0.61740749       0.99972750       0.68640208 </v>
    <v>       0.87691254       0.00124406       0.68456755 </v>
    <v>       0.37190478       0.00143382       0.19010742 </v>
    <v>       0.61697661       0.00117284       0.43992951 </v>
    <v>       0.13367353       0.00105173       0.93457680 </v>
    <v>       0.61686991       0.99834472       0.93461457 </v>
    <v>       0.00151412       0.30231721       0.06388544 </v>
    <v>       0.25062260       0.69682863       0.06174401 </v>
    <v>       0.24842710       0.29140220       0.31905522 </v>
    <v>       0.49616826       0.69735191       0.31682781 </v>
    <v>       0.49723673       0.30240480       0.06112403 </v>
    <v>       0.75096430       0.69775811       0.06336547 </v>
    <v>       0.75138624       0.30240698       0.31445183 </v>
    <v>       0.00351929       0.70839079       0.31655333 </v>
    <v>       0.00429502       0.29200859       0.56130775 </v>
    <v>       0.25097735       0.70865274       0.56150218 </v>
    <v>       0.25276150       0.29168238       0.80864733 </v>
    <v>       0.49472547       0.70873783       0.80934771 </v>
    <v>       0.49418857       0.29145074       0.56389864 </v>
    <v>       0.75095671       0.69698776       0.56333544 </v>
    <v>       0.75025498       0.30262027       0.80995308 </v>
    <v>       0.00214998       0.69727320       0.80916133 </v>
    <v>       0.24991608       0.32852219       0.06281474 </v>
    <v>      -0.00090740       0.67178346       0.06124684 </v>
    <v>       0.50234299       0.32822245       0.31047641 </v>
    <v>       0.25203664       0.67197310       0.30791491 </v>
    <v>       0.74969313       0.32735654       0.06244271 </v>
    <v>       0.50147518       0.67249399       0.06401798 </v>
    <v>       0.99728485       0.32830781       0.31017420 </v>
    <v>       0.74838464       0.67179924       0.31202604 </v>
    <v>       0.24995421       0.32875450       0.56305694 </v>
    <v>      -0.00452735       0.67110020       0.56452821 </v>
    <v>       0.50329621       0.32759176       0.81577586 </v>
    <v>       0.24765929       0.67180236       0.81762356 </v>
    <v>       0.74974644       0.32917997       0.56236842 </v>
    <v>       0.50494836       0.67195042       0.56093626 </v>
    <v>       0.99777541       0.32908777       0.81572357 </v>
    <v>       0.75085790       0.67161770       0.81456466 </v>
    <v>       0.50627511       0.07392313       0.06897451 </v>
    <v>       0.24438523       0.92559316       0.06802748 </v>
    <v>       0.25444140       0.07961768       0.29576620 </v>
    <v>      -0.00741537       0.92098810       0.30505875 </v>
    <v>       0.00307330       0.07301488       0.05745583 </v>
    <v>       0.74581549       0.92772323       0.05835147 </v>
    <v>       0.74514466       0.07306794       0.31542257 </v>
    <v>       0.50703036       0.92579945       0.30482669 </v>
    <v>       0.51638206       0.07973364       0.55818950 </v>
    <v>       0.24452167       0.92279818       0.56775866 </v>
    <v>       0.23499130       0.08002802       0.81793808 </v>
    <v>       0.00206916       0.92640316       0.81841951 </v>
    <v>       0.99170756       0.07934983       0.56885089 </v>
    <v>       0.74604559       0.92657838       0.55826686 </v>
    <v>       0.74712904       0.07324281       0.81752483 </v>
    <v>       0.51598662       0.92028033       0.81727931 </v>
   </varray>
  </structure>
  <varray name="forces" >
   <v>      -0.13643246      -0.02181844       0.32297763 </v>
   <v>       0.22036726      -0.00715622       0.04807187 </v>
   <v>       0.21745862       0.00581667       0.01007821 </v>
   <v>      -0.03747273      -0.03618916      -0.03799769 </v>
   <v>       0.28748281       0.04410148      -0.32041341 </v>
   <v>       0.02279657      -0.00235795      -0.03177189 </v>
   <v>      -0.19499810      -0.01618100       0.00167918 </v>
   <v>      -0.02238254       0.01699363       0.03642447 </v>
   <v>       0.63523525      -0.29223423      -0.50796107 </v>
   <v>       0.44326112      -0.36666018      -0.79011658 </v>
   <v>      -0.45702944      -0.39979917       0.78452297 </v>
   <v>       0.43402729       0.37411396       0.82468143 </v>
   <v>      -0.03137515      -0.53835542      -0.20254018 </v>
   <v>      -0.05814401       0.32082855      -0.00190240 </v>
   <v>       0.05379404      -0.07436599      -0.18246675 </v>
   <v>       0.19339306       0.37205198      -0.15680837 </v>
   <v>       0.06399447      -0.37143581       0.11513727 </v>
   <v>       0.01368449       0.56071567      -0.04218995 </v>
   <v>      -0.13022993      -0.53517869       0.00932213 </v>
   <v>      -0.10558752       0.02675025      -0.07989565 </v>
   <v>      -0.30766921      -0.05043356       0.11444269 </v>
   <v>      -0.09472457       1.98300772       0.04825196 </v>
   <v>      -0.07074199       0.01428308       0.23521048 </v>
   <v>       0.03029174      -0.01261292       0.06239891 </v>
   <v>       0.22044961      -0.00340570      -0.07369353 </v>
   <v>       0.00530016       0.49471966      -0.02436528 </v>
   <v>       0.15981493      -0.52766455       0.03835485 </v>
   <v>      -0.14393610       0.56718610       0.17668567 </v>
   <v>       0.02161832       0.26849063      -0.02742692 </v>
   <v>       0.03511498      -0.26666723       0.03730783 </v>
   <v>      -0.11760599       0.23427101       0.09240063 </v>
   <v>       0.01414940      -0.11513117       0.01297280 </v>
   <v>      -0.02058914       0.20711139      -0.01004264 </v>
   <v>      -0.04050539      -0.18396125      -0.06518187 </v>
   <v>       0.07413933       0.09296687       0.05159161 </v>
   <v>       0.02286119      -0.26286695       0.03951953 </v>
   <v>      -0.01405019       0.05097682       0.03838988 </v>
   <v>       0.04614490      -0.17632501      -0.05352898 </v>
   <v>      -0.00884693       0.05646106      -0.03508603 </v>
   <v>      -0.00120318      -0.13500388      -0.01589103 </v>
   <v>      -0.01572505       0.34715609      -0.03540780 </v>
   <v>      -0.04700110      -0.11294261       0.00677955 </v>
   <v>       0.06356720       0.33479255      -0.03859829 </v>
   <v>      -0.04767667      -0.28286385       0.00399804 </v>
   <v>       0.03228986       0.70594237       0.31411802 </v>
   <v>      -0.14042350      -0.75955502       0.34026922 </v>
   <v>      -0.27592188       0.37524052      -0.36102424 </v>
   <v>      -0.32702400       0.07261468      -0.28146098 </v>
   <v>       0.21326903       0.75920561      -0.09861354 </v>
   <v>      -0.15880458      -0.74369815      -0.13940156 </v>
   <v>      -0.14121434       0.75654033       0.19441728 </v>
   <v>       0.07982444      -0.73355052      -0.23066247 </v>
   <v>       0.16346945       0.45659416       0.46192040 </v>
   <v>      -0.16198174      -1.74383442       0.15546432 </v>
   <v>      -0.14607571       0.48470618      -0.53882016 </v>
   <v>       0.15498592      -0.84067552       0.09423814 </v>
   <v>      -0.31016247       0.04614286       0.27730397 </v>
   <v>      -0.12528754      -0.82332041      -0.11829956 </v>
   <v>      -0.16476190       0.79423352       0.06966147 </v>
   <v>       0.13279961      -0.38777039      -0.51702361 </v>
  </varray>
  <varray name="stress" >
   <v>       8.88263565       0.33777523      -2.66461130 </v>
   <v>       0.33777533     -26.71297597       1.43790155 </v>
   <v>      -2.66461136       1.43790156       8.30278117 </v>
  </varray>
  <energy>
   <i name="e_fr_energy">   -307.32857365 </i>
   <i name="e_wo_entrp">   -307.32857365 </i>
   <i name="e_0_energy">      0.00000000 </i>
  </energy>
  <time name="totalsc">  731.94  738.74</time>
 </calculation>
 <calculation>
  <scstep>
   <time name="dav">   39.52   40.06</time>
   <time name="total">   40.02   40.57</time>
   <energy>
    <i name="alphaZ">   1078.78775761 </i>
    <i name="ewald"> -30804.12531217 </i>
    <i name="hartreedc"> -12835.50805693 </i>
    <i name="XCdc">   1346.76927674 </i>
    <i name="pawpsdc">  43833.13048784 </i>
    <i name="pawaedc"> -43226.12824456 </i>
    <i name="eentropy">      0.00000000 </i>
    <i name="bandstr">  -4095.07586024 </i>
    <i name="atom">  44408.54722957 </i>
    <i name="e_fr_energy">   -293.60272214 </i>
    <i name="e_wo_entrp">   -293.60272214 </i>
    <i name="e_0_energy">   -293.60272214 </i>
   </energy>
  </scstep>
  <scstep>
   <time name="dav">   46.27   46.63</time>
   <time name="total">   46.77   47.15</time>
   <energy>
    <i name="e_fr_energy">   -293.65080683 </i>
    <i name="e_wo_entrp">   -293.65080683 </i>
    <i name="e_0_energy">   -293.65080683 </i>
   </energy>
  </scstep>
  <scstep>
   <time name="dav">   57.76   58.20</time>
   <time name="total">   58.26   58.72</time>
   <energy>
    <i name="e_fr_energy">   -293.65011831 </i>
    <i name="e_wo_entrp">   -293.65011831 </i>
    <i name="e_0_energy">   -293.65011831 </i>
   </energy>
  </scstep>
  <scstep>
   <time name="dav">   49.14   49.75</time>
   <time name="total">   49.64   50.27</time>
   <energy>
    <i name="e_fr_energy">   -293.64863755 </i>
    <i name="e_wo_entrp">   -293.64863755 </i>
    <i name="e_0_energy">   -293.64863755 </i>
   </energy>
  </scstep>
  <scstep>
   <time name="dav">   50.01   50.22</time>
   <time name="total">   50.53   50.83</time>
   <energy>
    <i name="e_fr_energy">   -293.64817582 </i>
    <i name="e_wo_entrp">   -293.64817582 </i>
    <i name="e_0_energy">   -293.64817582 </i>
   </energy>
  </scstep>
  <scstep>
   <time name="dav">   49.06   49.46</time>
   <time name="total">   49.61   50.06</time>
   <energy>
    <i name="e_fr_energy">   -293.64817924 </i>
    <i name="e_wo_entrp">   -293.64817924 </i>
    <i name="e_0_energy">   -293.64817924 </i>
   </energy>
  </scstep>
  <scstep>
   <time name="dav">   52.46   52.83</time>
   <time name="total">   52.95   53.34</time>
   <energy>
    <i name="e_fr_energy">   -293.64817307 </i>
    <i name="e_wo_entrp">   -293.64817307 </i>
    <i name="e_0_energy">   -293.64817307 </i>
   </energy>
  </scstep>
  <scstep>
   <time name="dav">   43.87   44.19</time>
[...]
       <r>    8.6896    0.0000 </r>
       <r>    8.7641    0.0000 </r>
       <r>    8.7801    0.0000 </r>
       <r>    8.8151    0.0000 </r>
       <r>    8.8661    0.0000 </r>
       <r>    8.8834    0.0000 </r>
       <r>    8.9195    0.0000 </r>
      </set>
     </set>
    </set>
   </array>
  </eigenvalues>
  <separator name="orbital magnetization" >
   <v name="MAGDIPOLOUT">      0.00000000      0.00000000      0.00000000</v>
  </separator>
  <dos>
   <i name="efermi">      4.20929401 </i>
   <total>
    <array>
     <dimension dim="1">gridpoints</dimension>
     <dimension dim="2">spin</dimension>
     <field>energy</field>
     <field>total</field>
     <field>integrated</field>
     <set>
      <set comment="spin 1">
       <r>   -42.4874     0.0000     0.0000 </r>
       <r>   -42.3054     0.0000     0.0000 </r>
       <r>   -42.1233     0.0000     0.0000 </r>
       <r>   -41.9413     0.0000     0.0000 </r>
       <r>   -41.7592     0.0000     0.0000 </r>
       <r>   -41.5772     0.0000     0.0000 </r>
       <r>   -41.3951     0.0000     0.0000 </r>
       <r>   -41.2130     0.0000     0.0000 </r>
       <r>   -41.0310     0.0000     0.0000 </r>
       <r>   -40.8489     0.0000     0.0000 </r>
       <r>   -40.6669     0.0000     0.0000 </r>
       <r>   -40.4848     0.0000     0.0000 </r>
       <r>   -40.3028     0.0000     0.0000 </r>
       <r>   -40.1207     0.0000     0.0000 </r>
       <r>   -39.9387     0.0000     2.0000 </r>
       <r>   -39.7566     0.0000     4.0000 </r>
       <r>   -39.5746     0.0000    10.0000 </r>
       <r>   -39.3925     0.0000    14.0000 </r>
       <r>   -39.2105     0.0000    16.0000 </r>
       <r>   -39.0284     0.0000    16.0000 </r>
       <r>   -38.8463     0.0000    16.0000 </r>
       <r>   -38.6643     0.0000    16.0000 </r>
       <r>   -38.4822     0.0000    16.0000 </r>
       <r>   -38.3002     0.0000    16.0000 </r>
       <r>   -38.1181     0.0000    16.0000 </r>
       <r>   -37.9361     0.0000    16.0000 </r>
       <r>   -37.7540     0.0000    16.0000 </r>
       <r>   -37.5720     0.0000    16.0000 </r>
       <r>   -37.3899     0.0000    16.0000 </r>
       <r>   -37.2079     0.0000    16.0000 </r>
       <r>   -37.0258     0.0000    16.0000 </r>
       <r>   -36.8438     0.0000    16.0000 </r>
       <r>   -36.6617     0.0000    16.0000 </r>
       <r>   -36.4797     0.0000    16.0000 </r>
       <r>   -36.2976     0.0000    16.0000 </r>
       <r>   -36.1155     0.0000    16.0000 </r>
       <r>   -35.9335     0.0000    16.0000 </r>
       <r>   -35.7514     0.0000    16.0000 </r>
       <r>   -35.5694     0.0000    16.0000 </r>
       <r>   -35.3873     0.0000    16.0000 </r>
       <r>   -35.2053     0.0000    16.0000 </r>
       <r>   -35.0232     0.0000    16.0000 </r>
       <r>   -34.8412     0.0000    16.0000 </r>
       <r>   -34.6591     0.0000    16.0000 </r>
       <r>   -34.4771     0.0000    16.0000 </r>
       <r>   -34.2950     0.0000    16.0000 </r>
       <r>   -34.1130     0.0000    16.0000 </r>
       <r>   -33.9309     0.0000    16.0000 </r>
       <r>   -33.7489     0.0000    16.0000 </r>
       <r>   -33.5668     0.0000    16.0000 </r>
       <r>   -33.3847     0.0000    16.0000 </r>
       <r>   -33.2027     0.0000    16.0000 </r>
       <r>   -33.0206     0.0000    16.0000 </r>
       <r>   -32.8386     0.0000    16.0000 </r>
       <r>   -32.6565     0.0000    16.0000 </r>
       <r>   -32.4745     0.0000    16.0000 </r>
       <r>   -32.2924     0.0000    16.0000 </r>
       <r>   -32.1104     0.0000    16.0000 </r>
       <r>   -31.9283     0.0000    16.0000 </r>
       <r>   -31.7463     0.0000    16.0000 </r>
       <r>   -31.5642     0.0000    16.0000 </r>
       <r>   -31.3822     0.0000    16.0000 </r>
       <r>   -31.2001     0.0000    16.0000 </r>
       <r>   -31.0181     0.0000    16.0000 </r>
       <r>   -30.8360     0.0000    16.0000 </r>
       <r>   -30.6539     0.0000    16.0000 </r>
       <r>   -30.4719     0.0000    16.0000 </r>
       <r>   -30.2898     0.0000    16.0000 </r>
       <r>   -30.1078     0.0000    16.0000 </r>
       <r>   -29.9257     0.0000    16.0000 </r>
       <r>   -29.7437     0.0000    16.0000 </r>
       <r>   -29.5616     0.0000    16.0000 </r>
       <r>   -29.3796     0.0000    16.0000 </r>
       <r>   -29.1975     0.0000    16.0000 </r>
       <r>   -29.0155     0.0000    16.0000 </r>
       <r>   -28.8334     0.0000    16.0000 </r>
       <r>   -28.6514     0.0000    16.0000 </r>
       <r>   -28.4693     0.0000    16.0000 </r>
       <r>   -28.2872     0.0000    16.0000 </r>
       <r>   -28.1052     0.0000    16.0000 </r>
       <r>   -27.9231     0.0000    16.0000 </r>
       <r>   -27.7411     0.0000    16.0000 </r>
       <r>   -27.5590     0.0000    16.0000 </r>
       <r>   -27.3770     0.0000    16.0000 </r>
       <r>   -27.1949     0.0000    16.0000 </r>
       <r>   -27.0129     0.0000    16.0000 </r>
       <r>   -26.8308     0.0000    16.0000 </r>
       <r>   -26.6488     0.0000    16.0000 </r>
       <r>   -26.4667     0.0000    16.0000 </r>
       <r>   -26.2847     0.0000    16.0000 </r>
       <r>   -26.1026     0.0000    16.0000 </r>
       <r>   -25.9206     0.0000    16.0000 </r>
       <r>   -25.7385     0.0000    16.0000 </r>
       <r>   -25.5564     0.0000    16.0000 </r>
       <r>   -25.3744     0.0000    16.0000 </r>
       <r>   -25.1923     0.0000    16.0000 </r>
       <r>   -25.0103     0.0000    16.0000 </r>
       <r>   -24.8282     0.0000    16.0000 </r>
       <r>   -24.6462     0.0000    16.0000 </r>
       <r>   -24.4641     0.0000    16.0000 </r>
       <r>   -24.2821     0.0000    16.0000 </r>
       <r>   -24.1000     0.0000    16.0000 </r>
       <r>   -23.9180     0.0000    16.0000 </r>
       <r>   -23.7359     0.0000    16.0000 </r>
       <r>   -23.5539     0.0000    16.0000 </r>
       <r>   -23.3718     0.0000    16.0000 </r>
       <r>   -23.1898     0.0000    16.0000 </r>
       <r>   -23.0077     0.0000    16.0000 </r>
       <r>   -22.8256     0.0000    16.0000 </r>
       <r>   -22.6436     0.0000    16.0000 </r>
       <r>   -22.4615     0.0000    16.0000 </r>
       <r>   -22.2795     0.0000    16.0000 </r>
       <r>   -22.0974     0.0000    16.0000 </r>
       <r>   -21.9154     0.0000    16.0000 </r>
       <r>   -21.7333     0.0000    16.0000 </r>
       <r>   -21.5513     0.0000    16.0000 </r>
       <r>   -21.3692     0.0000    16.0000 </r>
       <r>   -21.1872     0.0000    16.0000 </r>
       <r>   -21.0051     0.0000    16.0000 </r>
       <r>   -20.8231     0.0000    16.0000 </r>
       <r>   -20.6410     0.0000    16.0000 </r>
       <r>   -20.4589     0.0000    16.0000 </r>
       <r>   -20.2769     0.0000    16.0000 </r>
       <r>   -20.0948     0.0000    16.0000 </r>
       <r>   -19.9128     0.0000    16.0000 </r>
       <r>   -19.7307     0.0000    16.0000 </r>
       <r>   -19.5487     0.0000    16.0000 </r>
       <r>   -19.3666     0.0000    16.0000 </r>
       <r>   -19.1846     0.0000    16.0000 </r>
       <r>   -19.0025     0.0000    16.0000 </r>
       <r>   -18.8205     0.0000    26.0000 </r>
       <r>   -18.6384     0.0000    98.0000 </r>
       <r>   -18.4564     0.0000   152.0000 </r>
       <r>   -18.2743     0.0000   172.0000 </r>
       <r>   -18.0923     0.0000   172.0000 </r>
       <r>   -17.9102     0.0000   176.0000 </r>
       <r>   -17.7281     0.0000   176.0000 </r>
       <r>   -17.5461     0.0000   176.0000 </r>
       <r>   -17.3640     0.0000   176.0000 </r>
       <r>   -17.1820     0.0000   176.0000 </r>
       <r>   -16.9999     0.0000   176.0000 </r>
       <r>   -16.8179     0.0000   176.0000 </r>
       <r>   -16.6358     0.0000   176.0000 </r>
       <r>   -16.4538     0.0000   176.0000 </r>
       <r>   -16.2717     0.0000   176.0000 </r>
       <r>   -16.0897     0.0000   176.0000 </r>
       <r>   -15.9076     0.0000   176.0000 </r>
       <r>   -15.7256     0.0000   176.0000 </r>
       <r>   -15.5435     0.0000   176.0000 </r>
       <r>   -15.3615     0.0000   176.0000 </r>
       <r>   -15.1794     0.0000   176.0000 </r>
       <r>   -14.9973     0.0000   176.0000 </r>
       <r>   -14.8153     0.0000   176.0000 </r>
       <r>   -14.6332     0.0000   176.0000 </r>
       <r>   -14.4512     0.0000   176.0000 </r>
       <r>   -14.2691     0.0000   176.0000 </r>
       <r>   -14.0871     0.0000   176.0000 </r>
       <r>   -13.9050     0.0000   176.0000 </r>
       <r>   -13.7230     0.0000   176.0000 </r>
       <r>   -13.5409     0.0000   176.0000 </r>
       <r>   -13.3589     0.0000   176.0000 </r>
       <r>   -13.1768     0.0000   178.0000 </r>
       <r>   -12.9948     0.0000   184.0000 </r>
       <r>   -12.8127     0.0000   190.0000 </r>
       <r>   -12.6307     0.0000   202.0000 </r>
       <r>   -12.4486     0.0000   206.0000 </r>
       <r>   -12.2665     0.0000   206.0000 </r>
       <r>   -12.0845     0.0000   206.0000 </r>
       <r>   -11.9024     0.0000   208.0000 </r>
       <r>   -11.7204     0.0000   208.0000 </r>
       <r>   -11.5383     0.0000   208.0000 </r>
       <r>   -11.3563     0.0000   208.0000 </r>
       <r>   -11.1742     0.0000   208.0000 </r>
       <r>   -10.9922     0.0000   208.0000 </r>
       <r>   -10.8101     0.0000   208.0000 </r>
       <r>   -10.6281     0.0000   208.0000 </r>
       <r>   -10.4460     0.0000   208.0000 </r>
       <r>   -10.2640     0.0000   208.0000 </r>
       <r>   -10.0819     0.0000   208.0000 </r>
       <r>    -9.8998     0.0000   208.0000 </r>
       <r>    -9.7178     0.0000   208.0000 </r>
       <r>    -9.5357     0.0000   208.0000 </r>
       <r>    -9.3537    12.8954   208.9795 </r>
       <r>    -9.1716     8.8143   210.1189 </r>
       <r>    -8.9896     4.3308   211.9523 </r>
       <r>    -8.8075    13.6900   213.1470 </r>
       <r>    -8.6255    17.0231   216.1784 </r>
       <r>    -8.4434    13.1696   220.4786 </r>
       <r>    -8.2614     6.7409   223.7981 </r>
       <r>    -8.0793    53.4681   226.4208 </r>
       <r>    -7.8973    24.6813   233.0179 </r>
       <r>    -7.7152     5.1906   236.0595 </r>
       <r>    -7.5332    13.2593   239.5544 </r>
       <r>    -7.3511     0.0000   240.0000 </r>
       <r>    -7.1690     0.0000   240.0000 </r>
       <r>    -6.9870     0.0000   240.0000 </r>
       <r>    -6.8049     0.0000   240.0000 </r>
       <r>    -6.6229     0.0000   240.0000 </r>
       <r>    -6.4408     0.0000   240.0000 </r>
       <r>    -6.2588    18.1261   241.1799 </r>
       <r>    -6.0767    15.3079   245.8310 </r>
       <r>    -5.8947    14.8657   249.0381 </r>
       <r>    -5.7126    32.0260   253.1359 </r>
       <r>    -5.5306    22.7936   257.6600 </r>
       <r>    -5.3485    14.3614   261.0344 </r>
       <r>    -5.1665     7.0251   263.3087 </r>
       <r>    -4.9844     4.7652   264.2881 </r>
       <r>    -4.8024    15.6814   266.3047 </r>
       <r>    -4.6203     8.3075   267.8155 </r>
       <r>    -4.4382     5.6023   268.9312 </r>
       <r>    -4.2562     9.6668   270.2944 </r>
       <r>    -4.0741     3.0792   271.4327 </r>
       <r>    -3.8921     1.5426   271.8451 </r>
       <r>    -3.7100     0.1656   271.9964 </r>
       <r>    -3.5280     0.0000   272.0000 </r>
       <r>    -3.3459     0.0000   272.0000 </r>
       <r>    -3.1639     0.0000   272.0000 </r>
       <r>    -2.9818     0.0000   272.0000 </r>
       <r>    -2.7998     0.0000   272.0000 </r>
       <r>    -2.6177     0.0000   272.0000 </r>
       <r>    -2.4357     0.0000   272.0000 </r>
       <r>    -2.2536     0.0000   272.0000 </r>
       <r>    -2.0716     0.0000   272.0000 </r>
       <r>    -1.8895     0.0000   272.0000 </r>
       <r>    -1.7074     0.0000   272.0000 </r>
       <r>    -1.5254     0.0000   272.0000 </r>
       <r>    -1.3433     2.8270   272.1086 </r>
       <r>    -1.1613     7.1923   273.2767 </r>
       <r>    -0.9792     6.6638   274.5850 </r>
       <r>    -0.7972    13.7895   276.3985 </r>
       <r>    -0.6151     9.3550   278.7075 </r>
       <r>    -0.4331    22.4160   281.0325 </r>
       <r>    -0.2510    25.0683   285.7853 </r>
       <r>    -0.0690    45.1480   292.1625 </r>
       <r>     0.1131    34.7746   299.2887 </r>
       <r>     0.2951    48.7293   306.4691 </r>
       <r>     0.4772    34.4778   312.8674 </r>
       <r>     0.6593    28.5054   320.0086 </r>
       <r>     0.8413    26.6818   326.8587 </r>
       <r>     1.0234    44.9197   334.2310 </r>
       <r>     1.2054    41.2468   341.6091 </r>
       <r>     1.3875    45.6435   349.3251 </r>
       <r>     1.5695    50.3442   358.0490 </r>
       <r>     1.7516    51.8303   366.9925 </r>
       <r>     1.9336    48.2182   375.4461 </r>
       <r>     2.1157    45.8928   383.4896 </r>
       <r>     2.2977    57.8542   392.8583 </r>
       <r>     2.4798    66.7032   404.0914 </r>
       <r>     2.6618    58.5559   415.6424 </r>
       <r>     2.8439    70.9677   426.0516 </r>
       <r>     3.0259    33.4608   437.2181 </r>
       <r>     3.2080    39.7055   445.6141 </r>
       <r>     3.3901    47.9637   451.7991 </r>
       <r>     3.5721    15.9540   457.8404 </r>
       <r>     3.7542    14.7205   461.3750 </r>
       <r>     3.9362     7.0155   463.3533 </r>
       <r>     4.1183     0.7264   463.9754 </r>
       <r>     4.3003     0.0000   464.0000 </r>
       <r>     4.4824     0.0000   464.0000 </r>
       <r>     4.6644     0.0000   464.0000 </r>
       <r>     4.8465     0.0000   464.0000 </r>
       <r>     5.0285     0.0000   464.0000 </r>
       <r>     5.2106     1.7725   464.0576 </r>
       <r>     5.3926     8.0926   464.9550 </r>
       <r>     5.5747    10.7204   466.8075 </r>
       <r>     5.7567    18.2973   469.3966 </r>
       <r>     5.9388    17.2605   473.0549 </r>
       <r>     6.1209    13.3489   475.6495 </r>
       <r>     6.3029    13.3559   478.0470 </r>
       <r>     6.4850    14.8735   480.6092 </r>
       <r>     6.6670    16.9603   483.4960 </r>
       <r>     6.8491    20.0152   486.8279 </r>
       <r>     7.0311    21.5869   490.7373 </r>
       <r>     7.2132    23.4571   494.7208 </r>
       <r>     7.3952    31.4187   499.7902 </r>
       <r>     7.5773    32.1790   505.4068 </r>
       <r>     7.7593    30.9495   511.0101 </r>
       <r>     7.9414    38.2261   517.2466 </r>
       <r>     8.1234    30.1910   523.5962 </r>
       <r>     8.3055    27.1561   528.6203 </r>
       <r>     8.4876    28.2617   533.6505 </r>
       <r>     8.6696    36.6568   539.6208 </r>
       <r>     8.8517    38.5649   546.3644 </r>
       <r>     9.0337    26.6883   551.9746 </r>
       <r>     9.2158    15.6746   555.9818 </r>
       <r>     9.3978    11.5063   558.1687 </r>
       <r>     9.5799    10.5893   559.6461 </r>
       <r>     9.7619     0.0000   560.0000 </r>
       <r>     9.9440     0.0000   560.0000 </r>
       <r>    10.1260     0.0000   560.0000 </r>
       <r>    10.3081     0.0000   560.0000 </r>
       <r>    10.4901     0.0000   560.0000 </r>
       <r>    10.6722     0.0000   560.0000 </r>
       <r>    10.8542     0.0000   560.0000 </r>
       <r>    11.0363     0.0000   560.0000 </r>
       <r>    11.2184     0.0000   560.0000 </r>
       <r>    11.4004     0.0000   560.0000 </r>
       <r>    11.5825     0.0000   560.0000 </r>
       <r>    11.7645     0.0000   560.0000 </r>
       <r>    11.9466     0.0000   560.0000 </r>
       <r>    12.1286     0.0000   560.0000 </r>
      </set>
     </set>
    </array>
   </total>
  </dos>
 </calculation>
 <structure name="finalpos" >
  <crystal>
   <varray name="basis" >
    <v>      11.18491823      -0.02000489       0.00417980 </v>
    <v>      -0.01631457       9.54952233       0.00561931 </v>
    <v>       0.00413422       0.00772375      11.23332408 </v>
   </varray>
   <i name="volume">   1199.83406391 </i>
   <varray name="rec_basis" >
    <v>       0.08940639       0.00015276      -0.00003301 </v>
    <v>       0.00018732       0.10471764      -0.00007207 </v>
    <v>      -0.00003336      -0.00005244       0.08902089 </v>
   </varray>
  </crystal>
  <varray name="positions" >
   <v>       0.12538978       0.99479309       0.22152347 </v>
   <v>       0.89679648      -0.02997217       0.47833824 </v>
   <v>       0.63752403       0.00028575       0.17478023 </v>
   <v>       0.87911714       0.01339779       0.20501409 </v>
   <v>       0.18537595       0.04180530       0.65909352 </v>
   <v>       0.87700773      -0.00015845       0.95917617 </v>
   <v>       0.57013350       0.96940114       0.65102736 </v>
   <v>       0.90897915       0.02798861       0.74245196 </v>
   <v>       0.38393840      -0.00622778       0.16905383 </v>
   <v>       0.62142195      -0.00220515       0.41056399 </v>
   <v>       0.12935790      -0.00214418       0.95260387 </v>
   <v>       0.62643718       0.00911483       0.93062473 </v>
   <v>       0.00111414       0.30622758       0.06556848 </v>
   <v>       0.24384616       0.68383061       0.06244912 </v>
   <v>       0.25163835       0.29822807       0.31344360 </v>
   <v>       0.49568658       0.68795388       0.30848505 </v>
   <v>       0.50069800       0.30893094       0.05859745 </v>
   <v>       0.74668690       0.69389928       0.05723939 </v>
   <v>       0.74865861       0.31053547       0.31133072 </v>
   <v>      -0.00427529       0.70116921       0.31558105 </v>
   <v>      -0.00446006       0.29522283       0.56777973 </v>
   <v>       0.24592384       0.71279442       0.56140714 </v>
   <v>       0.24571946       0.31089633       0.81358322 </v>
   <v>       0.50061952       0.69729287       0.80901562 </v>
   <v>       0.49859028       0.30032274       0.55759655 </v>
   <v>       0.74418987       0.68681949       0.55407261 </v>
   <v>       0.75175448       0.31308283       0.81379277 </v>
   <v>      -0.00156633       0.69703578       0.81622336 </v>
   <v>       0.24472366       0.35397702       0.06098752 </v>
   <v>      -0.00510335       0.64565799       0.06573870 </v>
   <v>       0.49632596       0.35634957       0.31029829 </v>
   <v>       0.24755450       0.65920050       0.31029015 </v>
   <v>       0.74381983       0.35694953       0.06141917 </v>
   <v>       0.49599345       0.65041505       0.06264886 </v>
   <v>       0.99538587       0.32349941       0.30973998 </v>
   <v>       0.74604526       0.64295631       0.31018315 </v>
   <v>       0.24592131       0.29267192       0.56391139 </v>
   <v>      -0.00966484       0.69382694       0.56449154 </v>
   <v>       0.50133367       0.29926482       0.81444826 </v>
   <v>       0.24442371       0.67167889       0.81678361 </v>
   <v>       0.74745097       0.34715968       0.55976308 </v>
   <v>       0.49629909       0.65656611       0.56407395 </v>
   <v>       0.99684042       0.36449767       0.81101262 </v>
   <v>       0.74573841       0.64798038       0.81532011 </v>
   <v>       0.51605598       0.08470918       0.06638970 </v>
   <v>       0.24143571       0.90818806       0.07418770 </v>
   <v>       0.26657115       0.09383009       0.26559762 </v>
   <v>      -0.01672823       0.91507327       0.30798682 </v>
   <v>       0.00492098       0.08417437       0.06694747 </v>
   <v>       0.74051852       0.91666514       0.05179923 </v>
   <v>       0.73530523       0.08965759       0.29608301 </v>
   <v>       0.51491416       0.90971118       0.28100488 </v>
   <v>       0.52943310       0.09337742       0.53190780 </v>
   <v>       0.25918063       0.91712443       0.56429390 </v>
   <v>       0.20773423       0.10198089       0.82465529 </v>
   <v>      -0.00535771       0.91168179       0.85576285 </v>
   <v>       0.97905978       0.08525414       0.59634877 </v>
   <v>       0.72868152       0.90252633       0.52691056 </v>
   <v>       0.76893867       0.09597695       0.84348369 </v>
   <v>       0.53916466       0.90682626       0.80771302 </v>
  </varray>
 </structure>
</modeling>
