<?xml version="1.0" encoding="ISO-8859-1"?>
<modeling>
 <generator>
  <i name="program" type="string">vasp </i>
  <i name="version" type="string">5.4.4.18Apr17-6-g9f103f2a35  </i>
  <i name="subversion" type="string">(build Jul 31 2017 11:33:29) complex            parallel </i>
  <i name="platform" type="string">LinuxIFC </i>
  <i name="date" type="string">2021 09 29 </i>
  <i name="time" type="string">02:20:44 </i>
 </generator>
 <incar>
  <i type="string" name="SYSTEM"> La2O2S</i>
  <i type="string" name="PREC">normal</i>
  <i type="int" name="NELMIN">     4</i>
  <i type="int" name="IBRION">     2</i>
  <i type="int" name="NFREE">    10</i>
  <i name="EDIFF">      0.00000100</i>
  <i name="EDIFFG">     -0.01000000</i>
  <i type="int" name="NSW">     1</i>
  <i type="int" name="ISIF">     2</i>
  <i name="ENCUT">    600.00000000</i>
  <i name="ENAUG">    900.00000000</i>
  <i type="int" name="ISMEAR">    -5</i>
  <i type="logical" name="LWAVE"> F  </i>
  <i type="logical" name="LCHARG"> F  </i>
  <v type="int" name="KPOINT_BSE">    -1     0     0     0</v>
 </incar>
 <structure name="primitive_cell" >
  <crystal>
   <varray name="basis" >
    <v>      11.17850000       0.00000000       0.00000000 </v>
    <v>       0.00000000       9.57460000       0.00000000 </v>
    <v>       0.00000000       0.00000000      11.18240000 </v>
   </varray>
   <i name="volume">   1196.84853820 </i>
   <varray name="rec_basis" >
    <v>       0.08945744       0.00000000       0.00000000 </v>
    <v>       0.00000000       0.10444301       0.00000000 </v>
    <v>       0.00000000       0.00000000       0.08942624 </v>
   </varray>
  </crystal>
  <varray name="positions" >
   <v>       0.37539000       0.00017000       0.43687000 </v>
   <v>      -0.49987000      -0.07798000       0.31246000 </v>
   <v>       0.25013000       0.07798000       0.31246000 </v>
   <v>       0.49987000       0.07798000      -0.43754000 </v>
   <v>       0.24987000      -0.07798000      -0.43754000 </v>
   <v>      -0.37461000      -0.00016000       0.43687000 </v>
   <v>       0.37461000       0.00017000       0.18687000 </v>
   <v>       0.37461000       0.00017000      -0.31313000 </v>
   <v>       0.49987000      -0.29519000       0.31282000 </v>
   <v>       0.24987000       0.29519000       0.31282000 </v>
   <v>      -0.49987000       0.29519000      -0.43719000 </v>
   <v>       0.25013000      -0.29519000      -0.43719000 </v>
   <v>       0.49995000       0.32677000       0.31286000 </v>
   <v>       0.24995000      -0.32677000       0.31286000 </v>
   <v>      -0.49995000      -0.32677000      -0.43714000 </v>
   <v>       0.25005000       0.32677000      -0.43714000 </v>
   <v>       0.12461000      -0.00016000       0.18687000 </v>
   <v>       0.12461000      -0.00016000      -0.31313000 </v>
   <v>       0.49987000       0.07798000       0.06246000 </v>
   <v>      -0.24987000       0.07798000       0.31246000 </v>
   <v>      -0.25013000      -0.07798000      -0.43754000 </v>
   <v>       0.24987000      -0.07798000       0.06246000 </v>
   <v>       0.00013000      -0.07798000       0.31246000 </v>
   <v>      -0.49987000      -0.07798000      -0.18754000 </v>
   <v>      -0.00013000       0.07798000      -0.43754000 </v>
   <v>       0.25013000       0.07798000      -0.18754000 </v>
   <v>      -0.49987000       0.29519000       0.06281000 </v>
   <v>      -0.25013000       0.29519000       0.31282000 </v>
   <v>       0.25013000      -0.29519000       0.06281000 </v>
   <v>      -0.24987000      -0.29519000      -0.43719000 </v>
   <v>      -0.00013000      -0.29519000       0.31282000 </v>
   <v>       0.00013000       0.29519000      -0.43719000 </v>
   <v>       0.49987000      -0.29519000      -0.18718000 </v>
   <v>       0.24987000       0.29519000      -0.18718000 </v>
   <v>      -0.49995000      -0.32677000       0.06286000 </v>
   <v>       0.25005000       0.32677000       0.06286000 </v>
   <v>      -0.25005000      -0.32677000       0.31286000 </v>
   <v>      -0.24995000       0.32677000      -0.43714000 </v>
   <v>      -0.00005000       0.32677000       0.31286000 </v>
   <v>       0.00005000      -0.32677000      -0.43714000 </v>
   <v>       0.49995000       0.32677000      -0.18714000 </v>
   <v>       0.24995000      -0.32677000      -0.18714000 </v>
   <v>      -0.12461000       0.00017000       0.43687000 </v>
   <v>       0.37539000       0.00017000      -0.06313000 </v>
   <v>      -0.25013000      -0.07798000       0.06246000 </v>
   <v>      -0.00013000       0.07798000       0.06246000 </v>
   <v>      -0.24987000       0.07798000      -0.18754000 </v>
   <v>       0.00013000      -0.07798000      -0.18754000 </v>
   <v>      -0.12539000       0.00017000       0.18687000 </v>
   <v>      -0.12539000       0.00017000      -0.31313000 </v>
   <v>       0.12539000      -0.00016000      -0.06313000 </v>
   <v>      -0.37461000      -0.00016000      -0.06313000 </v>
   <v>      -0.24987000      -0.29519000       0.06281000 </v>
   <v>       0.00013000       0.29519000       0.06281000 </v>
   <v>      -0.25013000       0.29519000      -0.18718000 </v>
   <v>      -0.00013000      -0.29519000      -0.18718000 </v>
   <v>      -0.24995000       0.32677000       0.06286000 </v>
   <v>       0.00005000      -0.32677000       0.06286000 </v>
   <v>      -0.25005000      -0.32677000      -0.18714000 </v>
   <v>      -0.00005000       0.32677000      -0.18714000 </v>
   <v>      -0.12461000       0.00017000      -0.06313000 </v>
  </varray>
 </structure>
 <varray name="primitive_index" >
  <v type="int" >        1 </v>
  <v type="int" >       53 </v>
  <v type="int" >       48 </v>
  <v type="int" >       54 </v>
  <v type="int" >       55 </v>
  <v type="int" >       11 </v>
  <v type="int" >        3 </v>
  <v type="int" >       12 </v>
  <v type="int" >       17 </v>
  <v type="int" >       16 </v>
  <v type="int" >       26 </v>
  <v type="int" >       23 </v>
  <v type="int" >       32 </v>
  <v type="int" >       33 </v>
  <v type="int" >       43 </v>
  <v type="int" >       38 </v>
  <v type="int" >        2 </v>
  <v type="int" >        8 </v>
  <v type="int" >       46 </v>
  <v type="int" >       52 </v>
  <v type="int" >       59 </v>
  <v type="int" >       47 </v>
  <v type="int" >       49 </v>
  <v type="int" >       61 </v>
  <v type="int" >       58 </v>
  <v type="int" >       56 </v>
  <v type="int" >       18 </v>
  <v type="int" >       20 </v>
  <v type="int" >       15 </v>
  <v type="int" >       27 </v>
  <v type="int" >       21 </v>
  <v type="int" >       22 </v>
  <v type="int" >       25 </v>
  <v type="int" >       24 </v>
  <v type="int" >       35 </v>
  <v type="int" >       30 </v>
  <v type="int" >       37 </v>
  <v type="int" >       42 </v>
  <v type="int" >       36 </v>
  <v type="int" >       39 </v>
  <v type="int" >       40 </v>
  <v type="int" >       41 </v>
  <v type="int" >        4 </v>
  <v type="int" >        7 </v>
  <v type="int" >       51 </v>
  <v type="int" >       50 </v>
  <v type="int" >       60 </v>
  <v type="int" >       57 </v>
  <v type="int" >        5 </v>
  <v type="int" >       10 </v>
  <v type="int" >        6 </v>
  <v type="int" >       13 </v>
  <v type="int" >       19 </v>
  <v type="int" >       14 </v>
  <v type="int" >       28 </v>
  <v type="int" >       29 </v>
  <v type="int" >       34 </v>
  <v type="int" >       31 </v>
  <v type="int" >       45 </v>
  <v type="int" >       44 </v>
  <v type="int" >        9 </v>
 </varray>
 <kpoints>
  <generation param="Gamma">
   <v type="int" name="divisions">       2        2        2 </v>
   <v name="usershift">      0.00000000       0.00000000       0.00000000 </v>
   <v name="genvec1">      0.50000000       0.00000000       0.00000000 </v>
   <v name="genvec2">      0.00000000       0.50000000       0.00000000 </v>
   <v name="genvec3">      0.00000000       0.00000000       0.50000000 </v>
   <v name="shift">      0.00000000       0.00000000       0.00000000 </v>
  </generation>
  <varray name="kpointlist" >
   <v>       0.00000000       0.00000000       0.00000000 </v>
   <v>       0.50000000       0.00000000       0.00000000 </v>
   <v>       0.00000000       0.50000000       0.00000000 </v>
   <v>       0.50000000       0.50000000       0.00000000 </v>
   <v>       0.00000000       0.00000000       0.50000000 </v>
   <v>       0.50000000       0.00000000       0.50000000 </v>
   <v>       0.00000000       0.50000000       0.50000000 </v>
   <v>       0.50000000       0.50000000       0.50000000 </v>
  </varray>
  <varray name="weights" >
   <v>       0.12500000 </v>
   <v>       0.12500000 </v>
   <v>       0.12500000 </v>
   <v>       0.12500000 </v>
   <v>       0.12500000 </v>
   <v>       0.12500000 </v>
   <v>       0.12500000 </v>
   <v>       0.12500000 </v>
  </varray>
  <varray name="tetrahedronlist"  type="int" >
   <v type="int" >        2        1        2        4        5 </v>
   <v type="int" >        2        1        3        4        5 </v>
   <v type="int" >        2        3        4        5        7 </v>
   <v type="int" >        2        2        4        5        6 </v>
   <v type="int" >        2        4        5        6        8 </v>
   <v type="int" >        2        4        5        7        8 </v>
   <v type="int" >        2        1        2        3        6 </v>
   <v type="int" >        2        2        3        4        6 </v>
   <v type="int" >        2        3        4        6        8 </v>
   <v type="int" >        2        1        3        5        6 </v>
   <v type="int" >        2        3        5        6        7 </v>
   <v type="int" >        2        3        6        7        8 </v>
   <v type="int" >        2        2        3        4        7 </v>
   <v type="int" >        2        1        2        3        7 </v>
   <v type="int" >        2        1        2        5        7 </v>
   <v type="int" >        2        2        4        7        8 </v>
   <v type="int" >        2        2        6        7        8 </v>
   <v type="int" >        2        2        5        6        7 </v>
   <v type="int" >        2        1        3        4        8 </v>
   <v type="int" >        2        1        2        4        8 </v>
   <v type="int" >        2        1        2        6        8 </v>
   <v type="int" >        2        1        3        7        8 </v>
   <v type="int" >        2        1        5        7        8 </v>
   <v type="int" >        2        1        5        6        8 </v>
  </varray>
  <i name="volumeweight">      0.02083333 </i>
 </kpoints>
 <parameters>
  <separator name="general" >
   <i type="string" name="SYSTEM">La2O2S</i>
   <i type="logical" name="LCOMPAT"> F  </i>
  </separator>
  <separator name="electronic" >
   <i type="string" name="PREC">normal</i>
   <i name="ENMAX">    600.00000000</i>
   <i name="ENAUG">    900.00000000</i>
   <i name="EDIFF">      0.00000100</i>
   <i type="int" name="IALGO">    38</i>
   <i type="int" name="IWAVPR">    11</i>
   <i type="int" name="NBANDS">   280</i>
   <i name="NELECT">    468.00000000</i>
   <i type="int" name="TURBO">     0</i>
   <i type="int" name="IRESTART">     0</i>
   <i type="int" name="NREBOOT">     0</i>
   <i type="int" name="NMIN">     0</i>
   <i name="EREF">      0.00000000</i>
   <separator name="electronic smearing" >
    <i type="int" name="ISMEAR">    -5</i>
    <i name="SIGMA">      0.20000000</i>
    <i name="KSPACING">      0.50000000</i>
    <i type="logical" name="KGAMMA"> T  </i>
   </separator>
   <separator name="electronic projectors" >
    <i type="logical" name="LREAL"> F  </i>
    <v name="ROPT">      0.00000000      0.00000000      0.00000000      0.00000000      0.00000000</v>
    <i type="int" name="LMAXPAW">  -100</i>
    <i type="int" name="LMAXMIX">     2</i>
    <i type="logical" name="NLSPLINE"> F  </i>
   </separator>
   <separator name="electronic startup" >
    <i type="int" name="ISTART">     0</i>
    <i type="int" name="ICHARG">     2</i>
    <i type="int" name="INIWAV">     1</i>
   </separator>
   <separator name="electronic spin" >
    <i type="int" name="ISPIN">     1</i>
    <i type="logical" name="LNONCOLLINEAR"> F  </i>
    <v name="MAGMOM">      1.00000000      1.00000000      1.00000000      1.00000000      1.00000000      1.00000000      1.00000000      1.00000000      1.00000000      1.00000000      1.00000000      1.00000000      1.00000000      1.00000000      1.00000000      1.00000000      1.00000000      1.00000000      1.00000000      1.00000000
      1.00000000      1.00000000      1.00000000      1.00000000      1.00000000      1.00000000      1.00000000      1.00000000      1.00000000      1.00000000      1.00000000      1.00000000      1.00000000      1.00000000      1.00000000      1.00000000      1.00000000      1.00000000      1.00000000      1.00000000
      1.00000000      1.00000000      1.00000000      1.00000000      1.00000000      1.00000000      1.00000000      1.00000000      1.00000000      1.00000000      1.00000000      1.00000000      1.00000000      1.00000000      1.00000000      1.00000000      1.00000000      1.00000000      1.00000000      1.00000000
      1.00000000</v>
    <i name="NUPDOWN">     -1.00000000</i>
    <i type="logical" name="LSORBIT"> F  </i>
    <v name="SAXIS">      0.00000000      0.00000000      1.00000000</v>
    <i type="logical" name="LSPIRAL"> F  </i>
    <v name="QSPIRAL">      0.00000000      0.00000000      0.00000000</v>
    <i type="logical" name="LZEROZ"> F  </i>
   </separator>
   <separator name="electronic exchange-correlation" >
    <i type="logical" name="LASPH"> F  </i>
    <i type="logical" name="LMETAGGA"> F  </i>
   </separator>
   <separator name="electronic convergence" >
    <i type="int" name="NELM">    60</i>
    <i type="int" name="NELMDL">    -5</i>
    <i type="int" name="NELMIN">     4</i>
    <i name="ENINI">    600.00000000</i>
    <separator name="electronic convergence detail" >
     <i type="logical" name="LDIAG"> T  </i>
     <i type="logical" name="LSUBROT"> F  </i>
     <i name="WEIMIN">      0.00100000</i>
     <i name="EBREAK">      0.00000000</i>
     <i name="DEPER">      0.30000000</i>
     <i type="int" name="NRMM">     4</i>
     <i name="TIME">      0.40000000</i>
    </separator>
   </separator>
   <separator name="electronic mixer" >
    <i name="AMIX">      0.40000000</i>
    <i name="BMIX">      1.00000000</i>
    <i name="AMIN">      0.10000000</i>
    <i name="AMIX_MAG">      1.60000000</i>
    <i name="BMIX_MAG">      1.00000000</i>
    <separator name="electronic mixer details" >
     <i type="int" name="IMIX">     4</i>
     <i type="logical" name="MIXFIRST"> F  </i>
     <i type="int" name="MAXMIX">   -45</i>
     <i name="WC">    100.00000000</i>
     <i type="int" name="INIMIX">     1</i>
     <i type="int" name="MIXPRE">     1</i>
     <i type="int" name="MREMOVE">     5</i>
    </separator>
   </separator>
   <separator name="electronic dipolcorrection" >
    <i type="logical" name="LDIPOL"> F  </i>
    <i type="logical" name="LMONO"> F  </i>
    <i type="int" name="IDIPOL">     0</i>
    <i name="EPSILON">      1.00000000</i>
    <v name="DIPOL">   -100.00000000   -100.00000000   -100.00000000</v>
    <i name="EFIELD">      0.00000000</i>
   </separator>
  </separator>
  <separator name="grids" >
   <i type="int" name="NGX">    70</i>
   <i type="int" name="NGY">    60</i>
   <i type="int" name="NGZ">    70</i>
   <i type="int" name="NGXF">   140</i>
   <i type="int" name="NGYF">   120</i>
   <i type="int" name="NGZF">   140</i>
   <i type="logical" name="ADDGRID"> F  </i>
  </separator>
  <separator name="ionic" >
   <i type="int" name="NSW">     1</i>
   <i type="int" name="IBRION">     2</i>
   <i type="int" name="MDALGO">     0</i>
   <i type="int" name="ISIF">     2</i>
   <i name="PSTRESS">      0.00000000</i>
   <i name="EDIFFG">     -0.01000000</i>
   <i type="int" name="NFREE">    10</i>
   <i name="POTIM">      0.50000000</i>
   <i name="SMASS">     -3.00000000</i>
   <i name="SCALEE">      1.00000000</i>
  </separator>
  <separator name="ionic md" >
   <i name="TEBEG">      0.00010000</i>
   <i name="TEEND">      0.00010000</i>
   <i type="int" name="NBLOCK">     1</i>
   <i type="int" name="KBLOCK">     1</i>
   <i type="int" name="NPACO">   256</i>
   <i name="APACO">     16.00000000</i>
  </separator>
  <separator name="symmetry" >
   <i type="int" name="ISYM">     2</i>
   <i name="SYMPREC">      0.00001000</i>
  </separator>
  <separator name="dos" >
   <i type="int" name="LORBIT">     0</i>
   <v name="RWIGS">     -1.00000000     -1.00000000     -1.00000000     -1.00000000     -1.00000000</v>
   <i type="int" name="NEDOS">   301</i>
   <i name="EMIN">     10.00000000</i>
   <i name="EMAX">    -10.00000000</i>
   <i name="EFERMI">      0.00000000</i>
  </separator>
  <separator name="writing" >
   <i type="int" name="NWRITE">     2</i>
   <i type="logical" name="LWAVE"> F  </i>
   <i type="logical" name="LDOWNSAMPLE"> F  </i>
   <i type="logical" name="LCHARG"> F  </i>
   <i type="logical" name="LPARD"> F  </i>
   <i type="logical" name="LVTOT"> F  </i>
   <i type="logical" name="LVHAR"> F  </i>
   <i type="logical" name="LELF"> F  </i>
   <i type="logical" name="LOPTICS"> F  </i>
   <v name="STM">      0.00000000      0.00000000      0.00000000      0.00000000      0.00000000      0.00000000      0.00000000</v>
  </separator>
  <separator name="performance" >
   <i type="int" name="NPAR">    28</i>
   <i type="int" name="NSIM">     4</i>
   <i type="int" name="NBLK">    -1</i>
   <i type="logical" name="LPLANE"> T  </i>
   <i type="logical" name="LSCALAPACK"> T  </i>
   <i type="logical" name="LSCAAWARE"> F  </i>
   <i type="logical" name="LSCALU"> F  </i>
   <i type="logical" name="LASYNC"> F  </i>
   <i type="logical" name="LORBITALREAL"> F  </i>
  </separator>
  <separator name="miscellaneous" >
   <i type="int" name="IDIOT">     3</i>
   <i type="int" name="ISPECIAL">     0</i>
   <i type="logical" name="LMUSIC"> F  </i>
   <v name="POMASS">      7.01000000     24.30500000    208.98000000     32.06600000     16.00000000</v>
   <v name="DARWINR">      0.00000000      0.00000000      0.00000000      0.00000000      0.00000000</v>
   <v name="DARWINV">      1.00000000      1.00000000      1.00000000      1.00000000      1.00000000</v>
   <i type="logical" name="LCORR"> T  </i>
  </separator>
  <i type="logical" name="GGA_COMPAT"> T  </i>
  <i type="logical" name="LBERRY"> F  </i>
  <i type="int" name="ICORELEVEL">     0</i>
  <i type="logical" name="LDAU"> F  </i>
  <i type="int" name="I_CONSTRAINED_M">     0</i>
  <separator name="electronic exchange-correlation" >
   <i type="string" name="GGA">--</i>
   <i type="int" name="VOSKOWN">     0</i>
   <i type="logical" name="LHFCALC"> F  </i>
   <i type="string" name="PRECFOCK"></i>
   <i type="logical" name="LSYMGRAD"> F  </i>
   <i type="logical" name="LHFONE"> F  </i>
   <i type="logical" name="LRHFCALC"> F  </i>
   <i type="logical" name="LTHOMAS"> F  </i>
   <i type="logical" name="LMODELHF"> F  </i>
   <i name="ENCUT4O">     -1.00000000</i>
   <i type="int" name="EXXOEP">     0</i>
   <i type="int" name="FOURORBIT">     0</i>
   <i name="AEXX">      0.00000000</i>
   <i name="HFALPHA">      0.00000000</i>
   <i name="MCALPHA">      0.00000000</i>
   <i name="ALDAX">      1.00000000</i>
   <i name="AGGAX">      1.00000000</i>
   <i name="ALDAC">      1.00000000</i>
   <i name="AGGAC">      1.00000000</i>
   <i type="int" name="NKREDX">     1</i>
   <i type="int" name="NKREDY">     1</i>
   <i type="int" name="NKREDZ">     1</i>
   <i type="logical" name="SHIFTRED"> F  </i>
   <i type="logical" name="ODDONLY"> F  </i>
   <i type="logical" name="EVENONLY"> F  </i>
   <i type="int" name="LMAXFOCK">     0</i>
   <i type="int" name="NMAXFOCKAE">     0</i>
   <i type="logical" name="LFOCKAEDFT"> F  </i>
   <i name="HFSCREEN">      0.00000000</i>
   <i name="HFSCREENC">      0.00000000</i>
   <i type="int" name="NBANDSGWLOW">     0</i>
  </separator>
  <separator name="vdW DFT" >
   <i type="logical" name="LUSE_VDW"> F  </i>
   <i name="Zab_VDW">     -0.84910000</i>
   <i name="PARAM1">      0.12340000</i>
   <i name="PARAM2">      1.00000000</i>
   <i name="PARAM3">      0.00000000</i>
  </separator>
  <separator name="model GW" >
   <i type="int" name="MODEL_GW">     0</i>
   <i name="MODEL_EPS0">     11.77228070</i>
   <i name="MODEL_ALPHA">      1.00000000</i>
  </separator>
  <separator name="linear response parameters" >
   <i type="logical" name="LEPSILON"> F  </i>
   <i type="logical" name="LRPA"> F  </i>
   <i type="logical" name="LNABLA"> F  </i>
   <i type="logical" name="LVEL"> F  </i>
   <i type="int" name="KINTER">     0</i>
   <i name="CSHIFT">      0.10000000</i>
   <i name="OMEGAMAX">     -1.00000000</i>
   <i name="DEG_THRESHOLD">      0.00200000</i>
   <i name="RTIME">     -0.10000000</i>
   <i name="WPLASMAI">      0.00000000</i>
   <v name="DFIELD">      0.00000000      0.00000000      0.00000000</v>
   <v name="WPLASMA">      0.00000000      0.00000000      0.00000000      0.00000000      0.00000000      0.00000000      0.00000000      0.00000000      0.00000000</v>
  </separator>
  <separator name="orbital magnetization" >
   <i type="logical" name="NUCIND"> F  </i>
   <v name="MAGPOS">      0.00000000      0.00000000      0.00000000</v>
   <i type="logical" name="LNICSALL"> T  </i>
   <i type="logical" name="ORBITALMAG"> F  </i>
   <i type="logical" name="LMAGBLOCH"> F  </i>
   <i type="logical" name="LCHIMAG"> F  </i>
   <i type="logical" name="LGAUGE"> T  </i>
   <i type="int" name="MAGATOM">     0</i>
   <v name="MAGDIPOL">      0.00000000      0.00000000      0.00000000</v>
   <v name="AVECCONST">      0.00000000      0.00000000      0.00000000</v>
  </separator>
  <separator name="response functions" >
   <i type="logical" name="LADDER"> F  </i>
   <i type="logical" name="LRPAFORCE"> F  </i>
   <i type="logical" name="LFXC"> F  </i>
   <i type="logical" name="LHARTREE"> T  </i>
   <i type="int" name="IBSE">     0</i>
   <v type="int" name="KPOINT">    -1     0     0     0</v>
   <i type="logical" name="LTCTE"> F  </i>
   <i type="logical" name="LTETE"> F  </i>
   <i type="logical" name="LTRIPLET"> F  </i>
   <i type="logical" name="LFXCEPS"> F  </i>
   <i type="logical" name="LFXHEG"> F  </i>
   <i type="int" name="NATURALO">     2</i>
   <i type="logical" name="L2ORDER"> F  </i>
   <i type="logical" name="LMP2LT"> F  </i>
   <i type="logical" name="LUSEW"> F  </i>
   <i name="ENCUTGW">     -2.00000000</i>
   <i name="ENCUTGWSOFT">     -2.00000000</i>
   <i name="ENCUTLF">     -1.00000000</i>
   <i type="int" name="LMAXMP2">    -1</i>
   <i name="SCISSOR">      0.00000000</i>
   <i type="int" name="NOMEGA">     0</i>
   <i type="int" name="NOMEGAR">     0</i>
   <i type="int" name="NBANDSGW">    -1</i>
   <i type="int" name="NBANDSO">    -1</i>
   <i type="int" name="NBANDSV">    -1</i>
   <i type="int" name="NELM">     1</i>
   <i type="int" name="NELMHF">     1</i>
   <i type="int" name="DIM">     3</i>
   <i type="int" name="ANTIRES">     0</i>
   <i name="OMEGAMAX">    -30.00000000</i>
   <i name="OMEGAMIN">    -30.00000000</i>
   <i name="OMEGATL">   -200.00000000</i>
   <i type="int" name="OMEGAGRID">   140</i>
   <i name="CSHIFT">     -0.10000000</i>
   <i type="logical" name="SELFENERGY"> F  </i>
   <i type="logical" name="LSPECTRAL"> F  </i>
   <i type="logical" name="LSPECTRALGW"> F  </i>
   <i type="logical" name="LSINGLES"> F  </i>
   <i type="logical" name="LFERMIGW"> F  </i>
   <i type="logical" name="ODDONLYGW"> F  </i>
   <i type="logical" name="EVENONLYGW"> F  </i>
   <i type="int" name="NKREDLFX">     1</i>
   <i type="int" name="NKREDLFY">     1</i>
   <i type="int" name="NKREDLFZ">     1</i>
   <i type="int" name="MAXMEM">  2800</i>
   <i type="int" name="TELESCOPE">     0</i>
   <i type="int" name="TAUPAR">     1</i>
   <i type="int" name="OMEGAPAR">    -1</i>
   <i name="LAMBDA">      1.00000000</i>
  </separator>
  <separator name="External order field" >
   <i name="OFIELD_KAPPA">      0.00000000</i>
   <v name="OFIELD_K">      0.00000000      0.00000000      0.00000000</v>
   <i name="OFIELD_Q6_NEAR">      0.00000000</i>
   <i name="OFIELD_Q6_FAR">      0.00000000</i>
   <i name="OFIELD_A">      0.00000000</i>
  </separator>
 </parameters>
 <atominfo>
  <atoms>      61 </atoms>
  <types>       5 </types>
  <array name="atoms" >
   <dimension dim="1">ion</dimension>
   <field type="string">element</field>
   <field type="int">atomtype</field>
   <set>
    <rc><c>Li</c><c>   1</c></rc>
    <rc><c>Li</c><c>   1</c></rc>
    <rc><c>Li</c><c>   1</c></rc>
    <rc><c>Li</c><c>   1</c></rc>
    <rc><c>Li</c><c>   1</c></rc>
    <rc><c>Li</c><c>   1</c></rc>
    <rc><c>Li</c><c>   1</c></rc>
    <rc><c>Li</c><c>   1</c></rc>
    <rc><c>Li</c><c>   1</c></rc>
    <rc><c>Li</c><c>   1</c></rc>
    <rc><c>Mg</c><c>   2</c></rc>
    <rc><c>Mg</c><c>   2</c></rc>
    <rc><c>Mg</c><c>   2</c></rc>
    <rc><c>Bi</c><c>   3</c></rc>
    <rc><c>Bi</c><c>   3</c></rc>
    <rc><c>Bi</c><c>   3</c></rc>
    <rc><c>Bi</c><c>   3</c></rc>
    <rc><c>Bi</c><c>   3</c></rc>
    <rc><c>Bi</c><c>   3</c></rc>
    <rc><c>Bi</c><c>   3</c></rc>
    <rc><c>Bi</c><c>   3</c></rc>
    <rc><c>Bi</c><c>   3</c></rc>
    <rc><c>Bi</c><c>   3</c></rc>
    <rc><c>Bi</c><c>   3</c></rc>
    <rc><c>Bi</c><c>   3</c></rc>
    <rc><c>Bi</c><c>   3</c></rc>
    <rc><c>Bi</c><c>   3</c></rc>
    <rc><c>Bi</c><c>   3</c></rc>
    <rc><c>Bi</c><c>   3</c></rc>
    <rc><c>S </c><c>   4</c></rc>
    <rc><c>S </c><c>   4</c></rc>
    <rc><c>S </c><c>   4</c></rc>
    <rc><c>S </c><c>   4</c></rc>
    <rc><c>S </c><c>   4</c></rc>
    <rc><c>S </c><c>   4</c></rc>
    <rc><c>S </c><c>   4</c></rc>
    <rc><c>S </c><c>   4</c></rc>
    <rc><c>S </c><c>   4</c></rc>
    <rc><c>S </c><c>   4</c></rc>
    <rc><c>S </c><c>   4</c></rc>
    <rc><c>S </c><c>   4</c></rc>
    <rc><c>S </c><c>   4</c></rc>
    <rc><c>S </c><c>   4</c></rc>
    <rc><c>S </c><c>   4</c></rc>
    <rc><c>S </c><c>   4</c></rc>
    <rc><c>O </c><c>   5</c></rc>
    <rc><c>O </c><c>   5</c></rc>
    <rc><c>O </c><c>   5</c></rc>
    <rc><c>O </c><c>   5</c></rc>
    <rc><c>O </c><c>   5</c></rc>
    <rc><c>O </c><c>   5</c></rc>
    <rc><c>O </c><c>   5</c></rc>
    <rc><c>O </c><c>   5</c></rc>
    <rc><c>O </c><c>   5</c></rc>
    <rc><c>O </c><c>   5</c></rc>
    <rc><c>O </c><c>   5</c></rc>
    <rc><c>O </c><c>   5</c></rc>
    <rc><c>O </c><c>   5</c></rc>
    <rc><c>O </c><c>   5</c></rc>
    <rc><c>O </c><c>   5</c></rc>
    <rc><c>O </c><c>   5</c></rc>
   </set>
  </array>
  <array name="atomtypes" >
   <dimension dim="1">type</dimension>
   <field type="int">atomspertype</field>
   <field type="string">element</field>
   <field>mass</field>
   <field>valence</field>
   <field type="string">pseudopotential</field>
   <set>
    <rc><c>  10</c><c>Li</c><c>      7.01000000</c><c>      3.00000000</c><c>  PAW_PBE Li_sv 10Sep2004               </c></rc>
    <rc><c>   3</c><c>Mg</c><c>     24.30500000</c><c>      2.00000000</c><c>  PAW_PBE Mg 13Apr2007                  </c></rc>
    <rc><c>  16</c><c>Bi</c><c>    208.98000000</c><c>     15.00000000</c><c>  PAW_PBE Bi_d 06Sep2000                </c></rc>
    <rc><c>  16</c><c>S </c><c>     32.06600000</c><c>      6.00000000</c><c>  PAW_PBE S 06Sep2000                   </c></rc>
    <rc><c>  16</c><c>O </c><c>     16.00000000</c><c>      6.00000000</c><c>  PAW_PBE O 08Apr2002                   </c></rc>
   </set>
  </array>
 </atominfo>
 <structure name="initialpos" >
  <crystal>
   <varray name="basis" >
    <v>      11.17850000       0.00000000       0.00000000 </v>
    <v>       0.00000000       9.57460000       0.00000000 </v>
    <v>       0.00000000       0.00000000      11.18240000 </v>
   </varray>
   <i name="volume">   1196.84853820 </i>
   <varray name="rec_basis" >
    <v>       0.08945744       0.00000000       0.00000000 </v>
    <v>       0.00000000       0.10444301       0.00000000 </v>
    <v>       0.00000000       0.00000000       0.08942624 </v>
   </varray>
  </crystal>
  <varray name="positions" >
   <v>       0.37539000       0.00017000       0.43687000 </v>
   <v>       0.12461000       0.99984000       0.18687000 </v>
   <v>       0.37461000       0.00017000       0.18687000 </v>
   <v>       0.87539000       0.00017000       0.43687000 </v>
   <v>       0.87461000       0.00017000       0.18687000 </v>
   <v>       0.12539000       0.99984000       0.93687000 </v>
   <v>       0.37539000       0.00017000       0.93687000 </v>
   <v>       0.12461000       0.99984000       0.68687000 </v>
   <v>       0.87539000       0.00017000       0.93687000 </v>
   <v>       0.87461000       0.00017000       0.68687000 </v>
   <v>       0.62539000       0.99984000       0.43687000 </v>
   <v>       0.37461000       0.00017000       0.68687000 </v>
   <v>       0.62539000       0.99984000       0.93687000 </v>
   <v>       0.00013000       0.29519000       0.06281000 </v>
   <v>       0.25013000       0.70481000       0.06281000 </v>
   <v>       0.24987000       0.29519000       0.31282000 </v>
   <v>       0.49987000       0.70481000       0.31282000 </v>
   <v>       0.50013000       0.29519000       0.06281000 </v>
   <v>       0.75013000       0.70481000       0.06281000 </v>
   <v>       0.74987000       0.29519000       0.31282000 </v>
   <v>       0.99987000       0.70481000       0.31282000 </v>
   <v>       0.00013000       0.29519000       0.56281000 </v>
   <v>       0.25013000       0.70481000       0.56281000 </v>
   <v>       0.24987000       0.29519000       0.81282000 </v>
   <v>       0.49987000       0.70481000       0.81282000 </v>
   <v>       0.50013000       0.29519000       0.56281000 </v>
   <v>       0.75013000       0.70481000       0.56281000 </v>
   <v>       0.74987000       0.29519000       0.81282000 </v>
   <v>       0.99987000       0.70481000       0.81282000 </v>
   <v>       0.25005000       0.32677000       0.06286000 </v>
   <v>       0.00005000       0.67323000       0.06286000 </v>
   <v>       0.49995000       0.32677000       0.31286000 </v>
   <v>       0.24995000       0.67323000       0.31286000 </v>
   <v>       0.75005000       0.32677000       0.06286000 </v>
   <v>       0.50005000       0.67323000       0.06286000 </v>
   <v>       0.99995000       0.32677000       0.31286000 </v>
   <v>       0.74995000       0.67323000       0.31286000 </v>
   <v>       0.25005000       0.32677000       0.56286000 </v>
   <v>       0.00005000       0.67323000       0.56286000 </v>
   <v>       0.49995000       0.32677000       0.81286000 </v>
   <v>       0.24995000       0.67323000       0.81286000 </v>
   <v>       0.75005000       0.32677000       0.56286000 </v>
   <v>       0.50005000       0.67323000       0.56286000 </v>
   <v>       0.99995000       0.32677000       0.81286000 </v>
   <v>       0.74995000       0.67323000       0.81286000 </v>
   <v>       0.49987000       0.07798000       0.06246000 </v>
   <v>       0.24987000       0.92202000       0.06246000 </v>
   <v>       0.25013000       0.07798000       0.31246000 </v>
   <v>       0.00013000       0.92202000       0.31246000 </v>
   <v>       0.99987000       0.07798000       0.06246000 </v>
   <v>       0.74987000       0.92202000       0.06246000 </v>
   <v>       0.75013000       0.07798000       0.31246000 </v>
   <v>       0.50013000       0.92202000       0.31246000 </v>
   <v>       0.49987000       0.07798000       0.56246000 </v>
   <v>       0.24987000       0.92202000       0.56246000 </v>
   <v>       0.25013000       0.07798000       0.81246000 </v>
   <v>       0.00013000       0.92202000       0.81246000 </v>
   <v>       0.99987000       0.07798000       0.56246000 </v>
   <v>       0.74987000       0.92202000       0.56246000 </v>
   <v>       0.75013000       0.07798000       0.81246000 </v>
   <v>       0.50013000       0.92202000       0.81246000 </v>
  </varray>
 </structure>
 <calculation>
  <scstep>
   <time name="dav">   59.92   60.06</time>
   <time name="total">   60.01   60.14</time>
   <energy>
    <i name="alphaZ">   1073.51873187 </i>
    <i name="ewald"> -30882.74574115 </i>
    <i name="hartreedc"> -12706.64731900 </i>
    <i name="XCdc">   1394.96426545 </i>
    <i name="pawpsdc">  36823.70205594 </i>
    <i name="pawaedc"> -36326.52930246 </i>
    <i name="eentropy">      0.00000000 </i>
    <i name="bandstr">   1808.11395113 </i>
    <i name="atom">  44791.06186932 </i>
    <i name="e_fr_energy">   5975.43851111 </i>
    <i name="e_wo_entrp">   5975.43851111 </i>
    <i name="e_0_energy">   5975.43851111 </i>
   </energy>
  </scstep>
  <scstep>
   <time name="dav">   60.84   61.08</time>
   <time name="total">   60.85   61.09</time>
   <energy>
    <i name="e_fr_energy">    794.48748764 </i>
    <i name="e_wo_entrp">    794.48748764 </i>
    <i name="e_0_energy">    794.48748764 </i>
   </energy>
  </scstep>
  <scstep>
   <time name="dav">   70.73   70.82</time>
   <time name="total">   70.73   70.82</time>
   <energy>
    <i name="e_fr_energy">   -246.91793780 </i>
    <i name="e_wo_entrp">   -246.91793780 </i>
    <i name="e_0_energy">   -246.91793780 </i>
   </energy>
  </scstep>
  <scstep>
   <time name="dav">   73.08   73.17</time>
   <time name="total">   73.08   73.17</time>
   <energy>
    <i name="e_fr_energy">   -346.41321672 </i>
    <i name="e_wo_entrp">   -346.41321672 </i>
    <i name="e_0_energy">   -346.41321672 </i>
   </energy>
  </scstep>
  <scstep>
   <time name="dav">   98.11   98.33</time>
   <time name="total">   98.83   99.05</time>
   <energy>
    <i name="e_fr_energy">   -355.27422870 </i>
    <i name="e_wo_entrp">   -355.27422870 </i>
    <i name="e_0_energy">   -355.27422870 </i>
   </energy>
  </scstep>
  <scstep>
   <time name="dav">   84.59   85.26</time>
   <time name="total">   85.38   86.05</time>
   <energy>
    <i name="e_fr_energy">   -296.47899400 </i>
    <i name="e_wo_entrp">   -296.47899400 </i>
    <i name="e_0_energy">   -296.47899400 </i>
   </energy>
  </scstep>
  <scstep>
   <time name="dav">   65.83   65.92</time>
   <time name="total">   66.62   66.72</time>
   <energy>
    <i name="e_fr_energy">   -299.26630173 </i>
    <i name="e_wo_entrp">   -299.26630173 </i>
    <i name="e_0_energy">   -299.26630173 </i>
   </energy>
  </scstep>
  <scstep>
   <time name="dav">   79.03   79.24</time>
   <time name="total">   79.81   80.03</time>
   <energy>
    <i name="e_fr_energy">   -297.99276398 </i>
    <i name="e_wo_entrp">   -297.99276398 </i>
    <i name="e_0_energy">   -297.99276398 </i>
   </energy>
  </scstep>
  <scstep>
   <time name="dav">   78.68   78.77</time>
   <time name="total">   79.47   79.56</time>
   <energy>
    <i name="e_fr_energy">   -297.33244851 </i>
    <i name="e_wo_entrp">   -297.33244851 </i>
    <i name="e_0_energy">   -297.33244851 </i>
   </energy>
  </scstep>
  <scstep>
   <time name="dav">   73.24   73.34</time>
   <time name="total">   74.03   74.13</time>
   <energy>
    <i name="e_fr_energy">   -297.33392551 </i>
    <i name="e_wo_entrp">   -297.33392551 </i>
    <i name="e_0_energy">   -297.33392551 </i>
   </energy>
  </scstep>
  <scstep>
   <time name="dav">   78.27   78.34</time>
   <time name="total">   79.07   79.13</time>
   <energy>
    <i name="e_fr_energy">   -297.34439699 </i>
    <i name="e_wo_entrp">   -297.34439699 </i>
    <i name="e_0_energy">   -297.34439699 </i>
   </energy>
  </scstep>
  <scstep>
   <time name="dav">   77.37   77.48</time>
   <time name="total">   78.16   78.27</time>
   <energy>
    <i name="e_fr_energy">   -297.34835884 </i>
    <i name="e_wo_entrp">   -297.34835884 </i>
    <i name="e_0_energy">   -297.34835884 </i>
   </energy>
  </scstep>
  <scstep>
   <time name="dav">   74.86   74.92</time>
   <time name="total">   75.65   75.72</time>
   <energy>
    <i name="e_fr_energy">   -297.34929708 </i>
    <i name="e_wo_entrp">   -297.34929708 </i>
    <i name="e_0_energy">   -297.34929708 </i>
   </energy>
  </scstep>
  <scstep>
   <time name="dav">   72.55   72.63</time>
   <time name="total">   73.34   73.43</time>
   <energy>
    <i name="e_fr_energy">   -297.34957194 </i>
    <i name="e_wo_entrp">   -297.34957194 </i>
    <i name="e_0_energy">   -297.34957194 </i>
   </energy>
  </scstep>
  <scstep>
   <time name="dav">   81.25   81.35</time>
   <time name="total">   82.04   82.14</time>
   <energy>
    <i name="e_fr_energy">   -297.34962845 </i>
    <i name="e_wo_entrp">   -297.34962845 </i>
    <i name="e_0_energy">   -297.34962845 </i>
   </energy>
  </scstep>
  <scstep>
   <time name="dav">   67.60   67.66</time>
   <time name="total">   68.39   68.45</time>
   <energy>
    <i name="e_fr_energy">   -297.34965008 </i>
    <i name="e_wo_entrp">   -297.34965008 </i>
    <i name="e_0_energy">   -297.34965008 </i>
   </energy>
  </scstep>
  <scstep>
   <time name="dav">   72.26   72.76</time>
   <time name="total">   73.05   73.55</time>
   <energy>
    <i name="e_fr_energy">   -297.34965264 </i>
    <i name="e_wo_entrp">   -297.34965264 </i>
    <i name="e_0_energy">   -297.34965264 </i>
   </energy>
  </scstep>
  <scstep>
   <time name="dav">   57.39   57.73</time>
   <time name="total">   57.46   57.81</time>
   <energy>
    <i name="alphaZ">   1073.51873187 </i>
    <i name="ewald"> -30882.74574115 </i>
    <i name="hartreedc"> -12944.75132894 </i>
    <i name="XCdc">   1418.54407015 </i>
    <i name="pawpsdc">  43849.62822831 </i>
    <i name="pawaedc"> -43327.13726341 </i>
    <i name="eentropy">      0.00000000 </i>
    <i name="bandstr">  -4275.46821919 </i>
    <i name="atom">  44791.06186932 </i>
    <i name="e_fr_energy">   -297.34965305 </i>
    <i name="e_wo_entrp">   -297.34965305 </i>
    <i name="e_0_energy">   -297.34965305 </i>
   </energy>
  </scstep>
  <structure>
   <crystal>
    <varray name="basis" >
     <v>      11.17850000       0.00000000       0.00000000 </v>
     <v>       0.00000000       9.57460000       0.00000000 </v>
     <v>       0.00000000       0.00000000      11.18240000 </v>
    </varray>
    <i name="volume">   1196.84853820 </i>
    <varray name="rec_basis" >
     <v>       0.08945744       0.00000000       0.00000000 </v>
     <v>       0.00000000       0.10444301       0.00000000 </v>
     <v>       0.00000000       0.00000000       0.08942624 </v>
    </varray>
   </crystal>
   <varray name="positions" >
    <v>       0.37539000       0.00017000       0.43687000 </v>
    <v>       0.12461000       0.99984000       0.18687000 </v>
    <v>       0.37461000       0.00017000       0.18687000 </v>
    <v>       0.87539000       0.00017000       0.43687000 </v>
    <v>       0.87461000       0.00017000       0.18687000 </v>
    <v>       0.12539000       0.99984000       0.93687000 </v>
    <v>       0.37539000       0.00017000       0.93687000 </v>
    <v>       0.12461000       0.99984000       0.68687000 </v>
    <v>       0.87539000       0.00017000       0.93687000 </v>
    <v>       0.87461000       0.00017000       0.68687000 </v>
    <v>       0.62539000       0.99984000       0.43687000 </v>
    <v>       0.37461000       0.00017000       0.68687000 </v>
    <v>       0.62539000       0.99984000       0.93687000 </v>
    <v>       0.00013000       0.29519000       0.06281000 </v>
    <v>       0.25013000       0.70481000       0.06281000 </v>
    <v>       0.24987000       0.29519000       0.31282000 </v>
    <v>       0.49987000       0.70481000       0.31282000 </v>
    <v>       0.50013000       0.29519000       0.06281000 </v>
    <v>       0.75013000       0.70481000       0.06281000 </v>
    <v>       0.74987000       0.29519000       0.31282000 </v>
    <v>       0.99987000       0.70481000       0.31282000 </v>
    <v>       0.00013000       0.29519000       0.56281000 </v>
    <v>       0.25013000       0.70481000       0.56281000 </v>
    <v>       0.24987000       0.29519000       0.81282000 </v>
    <v>       0.49987000       0.70481000       0.81282000 </v>
    <v>       0.50013000       0.29519000       0.56281000 </v>
    <v>       0.75013000       0.70481000       0.56281000 </v>
    <v>       0.74987000       0.29519000       0.81282000 </v>
    <v>       0.99987000       0.70481000       0.81282000 </v>
    <v>       0.25005000       0.32677000       0.06286000 </v>
    <v>       0.00005000       0.67323000       0.06286000 </v>
    <v>       0.49995000       0.32677000       0.31286000 </v>
    <v>       0.24995000       0.67323000       0.31286000 </v>
    <v>       0.75005000       0.32677000       0.06286000 </v>
    <v>       0.50005000       0.67323000       0.06286000 </v>
    <v>       0.99995000       0.32677000       0.31286000 </v>
    <v>       0.74995000       0.67323000       0.31286000 </v>
    <v>       0.25005000       0.32677000       0.56286000 </v>
    <v>       0.00005000       0.67323000       0.56286000 </v>
    <v>       0.49995000       0.32677000       0.81286000 </v>
    <v>       0.24995000       0.67323000       0.81286000 </v>
    <v>       0.75005000       0.32677000       0.56286000 </v>
    <v>       0.50005000       0.67323000       0.56286000 </v>
    <v>       0.99995000       0.32677000       0.81286000 </v>
    <v>       0.74995000       0.67323000       0.81286000 </v>
    <v>       0.49987000       0.07798000       0.06246000 </v>
    <v>       0.24987000       0.92202000       0.06246000 </v>
    <v>       0.25013000       0.07798000       0.31246000 </v>
    <v>       0.00013000       0.92202000       0.31246000 </v>
    <v>       0.99987000       0.07798000       0.06246000 </v>
    <v>       0.74987000       0.92202000       0.06246000 </v>
    <v>       0.75013000       0.07798000       0.31246000 </v>
    <v>       0.50013000       0.92202000       0.31246000 </v>
    <v>       0.49987000       0.07798000       0.56246000 </v>
    <v>       0.24987000       0.92202000       0.56246000 </v>
    <v>       0.25013000       0.07798000       0.81246000 </v>
    <v>       0.00013000       0.92202000       0.81246000 </v>
    <v>       0.99987000       0.07798000       0.56246000 </v>
    <v>       0.74987000       0.92202000       0.56246000 </v>
    <v>       0.75013000       0.07798000       0.81246000 </v>
    <v>       0.50013000       0.92202000       0.81246000 </v>
   </varray>
  </structure>
  <varray name="forces" >
   <v>      -0.68494562       0.00312247      -0.50886741 </v>
   <v>      -0.03221375       0.00227836       0.53335289 </v>
   <v>       0.14464170       0.06172722       0.20344809 </v>
   <v>       0.67017770      -0.00107410      -0.03224430 </v>
   <v>      -0.13277238      -0.06101765       0.19788249 </v>
   <v>      -0.13460699      -0.06748396       0.12926619 </v>
   <v>      -0.18141636      -0.00190173       0.52821537 </v>
   <v>      -0.51546777      -0.00070081      -0.52740383 </v>
   <v>       0.17443092       0.00051053       0.04606151 </v>
   <v>      -0.13476134       0.06026860      -0.18759700 </v>
   <v>       0.23370310      -0.11392707      -0.22208284 </v>
   <v>       0.38252978      -0.11287828      -0.25956839 </v>
   <v>       0.23419691       0.12466025       0.28385160 </v>
   <v>       0.01150793       0.00297828       0.18069761 </v>
   <v>      -0.17331287      -0.02369210       0.24016555 </v>
   <v>      -0.30881495      -1.02084642       0.08690264 </v>
   <v>      -0.01307495      -0.01666116      -0.25031626 </v>
   <v>       0.01401753       0.00500796       0.38468921 </v>
   <v>       0.12357288       0.02093299       0.32846789 </v>
   <v>       0.18138801      -0.00758488      -0.18866019 </v>
   <v>       0.17291073       1.04467712       0.14660851 </v>
   <v>       0.09368787      -1.00486028      -0.30601971 </v>
   <v>      -0.46334192      -0.06661234      -0.45333125 </v>
   <v>      -0.30098787       1.06512007       0.10830011 </v>
   <v>       0.16543555      -0.98810375      -0.06334959 </v>
   <v>       0.12433929       0.97335792      -0.09313570 </v>
   <v>       0.22007119       0.01643011       0.03373093 </v>
   <v>       0.19647822       0.01947700      -0.19361356 </v>
   <v>      -0.04316462      -0.03583319      -0.03422475 </v>
   <v>       0.06434313       0.19285916      -0.26286135 </v>
   <v>       0.01362029      -0.22601264      -0.17945765 </v>
   <v>       0.12922537       0.13745097       0.14708143 </v>
   <v>       0.18390688      -0.19838329      -0.01711535 </v>
   <v>      -0.10259542       0.13788081      -0.13696847 </v>
   <v>       0.02295072      -0.09448186      -0.22129072 </v>
   <v>      -0.11133250       0.22657943      -0.12124161 </v>
   <v>      -0.20516709      -0.17801516       0.06437729 </v>
   <v>       0.30248386       0.09853753       0.32187398 </v>
   <v>      -0.00239730      -0.19755370       0.19228092 </v>
   <v>      -0.10038656       0.02017029      -0.06093941 </v>
   <v>       0.18907845      -0.10568861      -0.04524504 </v>
   <v>      -0.27679820       0.14743314       0.01291800 </v>
   <v>      -0.02801979      -0.07158507       0.13890857 </v>
   <v>       0.09571956       0.19295681       0.10070406 </v>
   <v>      -0.17867214      -0.10320422       0.06119003 </v>
   <v>      -0.11656512      -0.04073405      -1.28577284 </v>
   <v>       0.08818715       0.02415626      -0.24180557 </v>
   <v>       0.72568934       0.83147031      -0.59003318 </v>
   <v>      -0.66409849      -0.88128156      -0.65690897 </v>
   <v>       0.00870010       0.02981620      -0.16240461 </v>
   <v>       0.05672290      -0.04507314      -1.19287778 </v>
   <v>      -0.01776456       0.09595999       1.11225344 </v>
   <v>      -0.06823490      -0.02073545       1.19758735 </v>
   <v>      -0.63047953      -0.67521018      -0.47611082 </v>
   <v>       1.26130281       0.14828831       1.26694103 </v>
   <v>       0.64150478      -0.85737355      -0.48011150 </v>
   <v>       0.07737452       0.02940849       0.07364817 </v>
   <v>      -0.58107538       0.82441357       0.73711741 </v>
   <v>      -0.06216195      -0.05947032      -1.04039133 </v>
   <v>      -0.00269135      -0.00876621       1.10474535 </v>
   <v>      -0.73657748       0.74881656       0.52868335 </v>
  </varray>
  <varray name="stress" >
   <v>      -6.62413622       0.19204013      -0.26505514 </v>
   <v>       0.19204020     -14.16782105       0.19569729 </v>
   <v>      -0.26505510       0.19569705     -11.64346434 </v>
  </varray>
  <energy>
   <i name="e_fr_energy">   -311.96050657 </i>
   <i name="e_wo_entrp">   -311.96050657 </i>
   <i name="e_0_energy">      0.00000000 </i>
  </energy>
  <time name="totalsc"> 1443.34 1446.71</time>
  <eigenvalues>
   <array>
    <dimension dim="1">band</dimension>
    <dimension dim="2">kpoint</dimension>
    <dimension dim="3">spin</dimension>
    <field>eigene</field>
    <field>occ</field>
    <set>
     <set comment="spin 1">
      <set comment="kpoint 1">
       <r>  -40.3051    1.0000 </r>
       <r>  -39.9680    1.0000 </r>
       <r>  -39.8581    1.0000 </r>
       <r>  -39.8387    1.0000 </r>
       <r>  -39.8260    1.0000 </r>
       <r>  -39.6030    1.0000 </r>
       <r>  -39.6006    1.0000 </r>
       <r>  -39.5164    1.0000 </r>
       <r>  -39.4013    1.0000 </r>
       <r>  -39.3618    1.0000 </r>
       <r>  -18.9910    1.0000 </r>
       <r>  -18.9260    1.0000 </r>
       <r>  -18.9187    1.0000 </r>
       <r>  -18.9106    1.0000 </r>
       <r>  -18.9071    1.0000 </r>
       <r>  -18.8562    1.0000 </r>
       <r>  -18.8491    1.0000 </r>
       <r>  -18.8366    1.0000 </r>
       <r>  -18.8283    1.0000 </r>
       <r>  -18.8188    1.0000 </r>
       <r>  -18.8011    1.0000 </r>
       <r>  -18.7507    1.0000 </r>
       <r>  -18.7394    1.0000 </r>
       <r>  -18.7366    1.0000 </r>
       <r>  -18.7174    1.0000 </r>
       <r>  -18.7124    1.0000 </r>
       <r>  -18.7045    1.0000 </r>
       <r>  -18.6984    1.0000 </r>
       <r>  -18.6903    1.0000 </r>
       <r>  -18.6866    1.0000 </r>
       <r>  -18.6824    1.0000 </r>
       <r>  -18.6680    1.0000 </r>
       <r>  -18.6621    1.0000 </r>
       <r>  -18.6547    1.0000 </r>
       <r>  -18.6509    1.0000 </r>
       <r>  -18.6479    1.0000 </r>
       <r>  -18.6393    1.0000 </r>
       <r>  -18.6370    1.0000 </r>
       <r>  -18.6353    1.0000 </r>
       <r>  -18.6304    1.0000 </r>
       <r>  -18.6291    1.0000 </r>
       <r>  -18.6254    1.0000 </r>
       <r>  -18.6250    1.0000 </r>
       <r>  -18.6220    1.0000 </r>
       <r>  -18.6211    1.0000 </r>
       <r>  -18.6191    1.0000 </r>
       <r>  -18.6070    1.0000 </r>
       <r>  -18.5993    1.0000 </r>
       <r>  -18.5981    1.0000 </r>
       <r>  -18.5692    1.0000 </r>
       <r>  -18.5602    1.0000 </r>
       <r>  -18.5550    1.0000 </r>
       <r>  -18.5541    1.0000 </r>
       <r>  -18.5481    1.0000 </r>
       <r>  -18.5432    1.0000 </r>
       <r>  -18.5412    1.0000 </r>
       <r>  -18.5353    1.0000 </r>
       <r>  -18.5335    1.0000 </r>
       <r>  -18.5306    1.0000 </r>
       <r>  -18.5055    1.0000 </r>
       <r>  -18.5036    1.0000 </r>
       <r>  -18.4856    1.0000 </r>
       <r>  -18.4820    1.0000 </r>
       <r>  -18.4794    1.0000 </r>
       <r>  -18.4773    1.0000 </r>
       <r>  -18.4751    1.0000 </r>
       <r>  -18.4731    1.0000 </r>
       <r>  -18.4682    1.0000 </r>
       <r>  -18.4657    1.0000 </r>
       <r>  -18.4572    1.0000 </r>
       <r>  -18.4536    1.0000 </r>
       <r>  -18.4064    1.0000 </r>
       <r>  -18.3981    1.0000 </r>
       <r>  -18.3957    1.0000 </r>
       <r>  -18.3881    1.0000 </r>
       <r>  -18.3863    1.0000 </r>
       <r>  -18.3847    1.0000 </r>
       <r>  -18.3840    1.0000 </r>
       <r>  -18.3707    1.0000 </r>
       <r>  -18.3228    1.0000 </r>
       <r>  -18.3104    1.0000 </r>
       <r>  -18.3044    1.0000 </r>
       <r>  -18.2953    1.0000 </r>
       <r>  -18.2277    1.0000 </r>
       <r>  -18.1857    1.0000 </r>
       <r>  -18.1833    1.0000 </r>
       <r>  -18.1737    1.0000 </r>
       <r>  -18.1683    1.0000 </r>
       <r>  -18.1106    1.0000 </r>
       <r>  -18.1020    1.0000 </r>
       <r>  -13.6371    1.0000 </r>
       <r>  -13.4881    1.0000 </r>
       <r>  -13.4640    1.0000 </r>
       <r>  -12.8782    1.0000 </r>
       <r>  -12.8048    1.0000 </r>
       <r>  -12.7890    1.0000 </r>
       <r>  -12.7459    1.0000 </r>
       <r>  -12.6888    1.0000 </r>
       <r>  -12.6774    1.0000 </r>
       <r>  -12.6665    1.0000 </r>
       <r>  -12.6354    1.0000 </r>
       <r>  -12.5869    1.0000 </r>
       <r>  -12.5376    1.0000 </r>
       <r>  -11.9729    1.0000 </r>
       <r>  -11.9177    1.0000 </r>
       <r>  -11.8364    1.0000 </r>
       <r>   -9.3308    1.0000 </r>
       <r>   -9.0380    1.0000 </r>
       <r>   -8.5198    1.0000 </r>
       <r>   -8.5152    1.0000 </r>
       <r>   -8.4649    1.0000 </r>
       <r>   -8.4524    1.0000 </r>
       <r>   -8.2973    1.0000 </r>
       <r>   -8.2926    1.0000 </r>
       <r>   -8.2467    1.0000 </r>
       <r>   -8.2276    1.0000 </r>
       <r>   -8.0175    1.0000 </r>
       <r>   -7.9893    1.0000 </r>
       <r>   -7.9874    1.0000 </r>
       <r>   -7.9522    1.0000 </r>
       <r>   -7.3449    1.0000 </r>
       <r>   -7.3411    1.0000 </r>
       <r>   -6.3716    1.0000 </r>
       <r>   -6.3611    1.0000 </r>
       <r>   -6.3532    1.0000 </r>
       <r>   -6.3407    1.0000 </r>
       <r>   -5.5361    1.0000 </r>
       <r>   -5.5329    1.0000 </r>
       <r>   -5.3678    1.0000 </r>
       <r>   -5.3368    1.0000 </r>
       <r>   -5.2700    1.0000 </r>
       <r>   -5.2621    1.0000 </r>
       <r>   -5.1807    1.0000 </r>
       <r>   -5.1467    1.0000 </r>
       <r>   -5.0712    1.0000 </r>
       <r>   -5.0426    1.0000 </r>
       <r>   -3.7896    1.0000 </r>
       <r>   -3.6353    1.0000 </r>
       <r>   -1.4629    1.0000 </r>
       <r>   -1.3192    1.0000 </r>
       <r>   -1.0979    1.0000 </r>
       <r>   -1.0110    1.0000 </r>
       <r>   -0.5561    1.0000 </r>
       <r>   -0.5305    1.0000 </r>
       <r>   -0.4914    1.0000 </r>
       <r>   -0.4451    1.0000 </r>
       <r>   -0.1839    1.0000 </r>
       <r>   -0.1777    1.0000 </r>
       <r>   -0.1445    1.0000 </r>
       <r>   -0.1306    1.0000 </r>
       <r>   -0.0116    1.0000 </r>
       <r>    0.0780    1.0000 </r>
       <r>    0.2126    1.0000 </r>
       <r>    0.2801    1.0000 </r>
       <r>    0.3935    1.0000 </r>
       <r>    0.5083    1.0000 </r>
       <r>    0.5775    1.0000 </r>
       <r>    0.6049    1.0000 </r>
       <r>    0.7051    1.0000 </r>
       <r>    0.7244    1.0000 </r>
       <r>    0.7510    1.0000 </r>
       <r>    0.7710    1.0000 </r>
       <r>    0.8249    1.0000 </r>
       <r>    0.8623    1.0000 </r>
       <r>    0.8816    1.0000 </r>
       <r>    0.9915    1.0000 </r>
       <r>    0.9999    1.0000 </r>
       <r>    1.0294    1.0000 </r>
       <r>    1.0570    1.0000 </r>
       <r>    1.0884    1.0000 </r>
       <r>    1.1190    1.0000 </r>
       <r>    1.2006    1.0000 </r>
       <r>    1.2555    1.0000 </r>
       <r>    1.3044    1.0000 </r>
       <r>    1.3174    1.0000 </r>
       <r>    1.3997    1.0000 </r>
       <r>    1.4728    1.0000 </r>
       <r>    1.4904    1.0000 </r>
       <r>    1.5080    1.0000 </r>
       <r>    1.5454    1.0000 </r>
       <r>    1.5619    1.0000 </r>
       <r>    1.6099    1.0000 </r>
       <r>    1.7440    1.0000 </r>
       <r>    1.7764    1.0000 </r>
       <r>    1.7911    1.0000 </r>
       <r>    1.8487    1.0000 </r>
       <r>    1.8918    1.0000 </r>
       <r>    1.9223    1.0000 </r>
       <r>    1.9809    1.0000 </r>
       <r>    2.0081    1.0000 </r>
       <r>    2.0643    1.0000 </r>
       <r>    2.1651    1.0000 </r>
       <r>    2.2444    1.0000 </r>
       <r>    2.3019    1.0000 </r>
       <r>    2.3452    1.0000 </r>
       <r>    2.4086    1.0000 </r>
       <r>    2.5007    1.0000 </r>
       <r>    2.5501    1.0000 </r>
       <r>    2.5737    1.0000 </r>
       <r>    2.5756    1.0000 </r>
       <r>    2.5937    1.0000 </r>
       <r>    2.5969    1.0000 </r>
       <r>    2.6100    1.0000 </r>
       <r>    2.6332    1.0000 </r>
       <r>    2.6640    1.0000 </r>
       <r>    2.7410    1.0000 </r>
       <r>    2.7718    1.0000 </r>
       <r>    2.7910    1.0000 </r>
       <r>    2.8168    1.0000 </r>
       <r>    2.8333    1.0000 </r>
       <r>    2.8690    1.0000 </r>
       <r>    2.8804    1.0000 </r>
       <r>    2.9123    1.0000 </r>
       <r>    2.9892    1.0000 </r>
       <r>    3.0230    1.0000 </r>
       <r>    3.0451    1.0000 </r>
       <r>    3.1017    1.0000 </r>
       <r>    3.1550    1.0000 </r>
       <r>    3.1649    1.0000 </r>
       <r>    3.1779    1.0000 </r>
       <r>    3.2038    1.0000 </r>
       <r>    3.2377    1.0000 </r>
       <r>    3.2435    1.0000 </r>
       <r>    3.2782    1.0000 </r>
       <r>    3.3632    1.0000 </r>
       <r>    3.3814    1.0000 </r>
       <r>    3.4276    1.0000 </r>
       <r>    3.4421    1.0000 </r>
       <r>    3.5154    1.0000 </r>
       <r>    3.6311    1.0000 </r>
       <r>    4.2000    1.0000 </r>
       <r>    4.2226    1.0000 </r>
       <r>    4.2393    1.0000 </r>
       <r>    4.2459    1.0000 </r>
       <r>    5.0665    0.0000 </r>
       <r>    5.0792    0.0000 </r>
       <r>    5.1485    0.0000 </r>
       <r>    5.1685    0.0000 </r>
       <r>    5.7440    0.0000 </r>
       <r>    5.7501    0.0000 </r>
       <r>    5.7963    0.0000 </r>
       <r>    5.8179    0.0000 </r>
       <r>    6.1215    0.0000 </r>
       <r>    6.1280    0.0000 </r>
       <r>    6.1517    0.0000 </r>
       <r>    6.1636    0.0000 </r>
       <r>    6.2586    0.0000 </r>
       <r>    6.2630    0.0000 </r>
       <r>    6.2822    0.0000 </r>
       <r>    6.2954    0.0000 </r>
       <r>    7.0797    0.0000 </r>
       <r>    7.0913    0.0000 </r>
       <r>    7.2732    0.0000 </r>
       <r>    7.3071    0.0000 </r>
       <r>    7.8185    0.0000 </r>
       <r>    7.8445    0.0000 </r>
       <r>    7.9062    0.0000 </r>
       <r>    7.9608    0.0000 </r>
       <r>    8.0030    0.0000 </r>
       <r>    8.0338    0.0000 </r>
       <r>    8.1177    0.0000 </r>
       <r>    8.2080    0.0000 </r>
       <r>    8.4386    0.0000 </r>
       <r>    8.6279    0.0000 </r>
       <r>    8.7177    0.0000 </r>
       <r>    8.8090    0.0000 </r>
       <r>    8.8261    0.0000 </r>
       <r>    8.8384    0.0000 </r>
       <r>    8.9095    0.0000 </r>
       <r>    8.9648    0.0000 </r>
       <r>    9.0119    0.0000 </r>
       <r>    9.0762    0.0000 </r>
       <r>    9.0814    0.0000 </r>
       <r>    9.1375    0.0000 </r>
       <r>    9.1461    0.0000 </r>
       <r>    9.1735    0.0000 </r>
       <r>    9.2277    0.0000 </r>
       <r>    9.2701    0.0000 </r>
       <r>    9.4009    0.0000 </r>
       <r>    9.5799    0.0000 </r>
      </set>
      <set comment="kpoint 2">
       <r>  -40.3051    1.0000 </r>
       <r>  -39.9680    1.0000 </r>
       <r>  -39.8581    1.0000 </r>
       <r>  -39.8387    1.0000 </r>
       <r>  -39.8260    1.0000 </r>
       <r>  -39.6030    1.0000 </r>
       <r>  -39.6006    1.0000 </r>
       <r>  -39.5164    1.0000 </r>
       <r>  -39.4013    1.0000 </r>
       <r>  -39.3618    1.0000 </r>
       <r>  -18.9910    1.0000 </r>
       <r>  -18.9259    1.0000 </r>
       <r>  -18.9187    1.0000 </r>
       <r>  -18.9106    1.0000 </r>
       <r>  -18.9071    1.0000 </r>
       <r>  -18.8560    1.0000 </r>
       <r>  -18.8490    1.0000 </r>
       <r>  -18.8367    1.0000 </r>
       <r>  -18.8284    1.0000 </r>
       <r>  -18.8188    1.0000 </r>
       <r>  -18.8011    1.0000 </r>
       <r>  -18.7507    1.0000 </r>
       <r>  -18.7394    1.0000 </r>
       <r>  -18.7366    1.0000 </r>
       <r>  -18.7174    1.0000 </r>
       <r>  -18.7125    1.0000 </r>
       <r>  -18.7045    1.0000 </r>
       <r>  -18.6984    1.0000 </r>
       <r>  -18.6903    1.0000 </r>
       <r>  -18.6867    1.0000 </r>
       <r>  -18.6825    1.0000 </r>
       <r>  -18.6663    1.0000 </r>
       <r>  -18.6610    1.0000 </r>
       <r>  -18.6542    1.0000 </r>
       <r>  -18.6521    1.0000 </r>
       <r>  -18.6459    1.0000 </r>
       <r>  -18.6431    1.0000 </r>
       <r>  -18.6405    1.0000 </r>
       <r>  -18.6358    1.0000 </r>
       <r>  -18.6356    1.0000 </r>
       <r>  -18.6278    1.0000 </r>
       <r>  -18.6252    1.0000 </r>
       <r>  -18.6236    1.0000 </r>
       <r>  -18.6225    1.0000 </r>
       <r>  -18.6193    1.0000 </r>
       <r>  -18.6086    1.0000 </r>
       <r>  -18.6069    1.0000 </r>
       <r>  -18.6035    1.0000 </r>
       <r>  -18.5999    1.0000 </r>
       <r>  -18.5692    1.0000 </r>
       <r>  -18.5602    1.0000 </r>
       <r>  -18.5550    1.0000 </r>
       <r>  -18.5541    1.0000 </r>
       <r>  -18.5481    1.0000 </r>
       <r>  -18.5432    1.0000 </r>
       <r>  -18.5411    1.0000 </r>
       <r>  -18.5353    1.0000 </r>
       <r>  -18.5335    1.0000 </r>
       <r>  -18.5307    1.0000 </r>
       <r>  -18.5055    1.0000 </r>
       <r>  -18.5036    1.0000 </r>
       <r>  -18.4853    1.0000 </r>
       <r>  -18.4820    1.0000 </r>
       <r>  -18.4806    1.0000 </r>
       <r>  -18.4760    1.0000 </r>
       <r>  -18.4750    1.0000 </r>
       <r>  -18.4739    1.0000 </r>
       <r>  -18.4679    1.0000 </r>
       <r>  -18.4657    1.0000 </r>
       <r>  -18.4572    1.0000 </r>
       <r>  -18.4536    1.0000 </r>
       <r>  -18.4064    1.0000 </r>
       <r>  -18.3982    1.0000 </r>
       <r>  -18.3957    1.0000 </r>
       <r>  -18.3881    1.0000 </r>
       <r>  -18.3863    1.0000 </r>
       <r>  -18.3847    1.0000 </r>
       <r>  -18.3840    1.0000 </r>
       <r>  -18.3707    1.0000 </r>
       <r>  -18.3228    1.0000 </r>
       <r>  -18.3104    1.0000 </r>
       <r>  -18.3044    1.0000 </r>
       <r>  -18.2953    1.0000 </r>
       <r>  -18.2277    1.0000 </r>
       <r>  -18.1857    1.0000 </r>
       <r>  -18.1833    1.0000 </r>
       <r>  -18.1737    1.0000 </r>
       <r>  -18.1683    1.0000 </r>
       <r>  -18.1106    1.0000 </r>
       <r>  -18.1020    1.0000 </r>
       <r>  -13.6365    1.0000 </r>
       <r>  -13.4885    1.0000 </r>
       <r>  -13.4641    1.0000 </r>
       <r>  -12.8753    1.0000 </r>
       <r>  -12.8069    1.0000 </r>
       <r>  -12.7892    1.0000 </r>
       <r>  -12.7476    1.0000 </r>
       <r>  -12.6977    1.0000 </r>
       <r>  -12.6720    1.0000 </r>
       <r>  -12.6570    1.0000 </r>
       <r>  -12.6410    1.0000 </r>
       <r>  -12.5858    1.0000 </r>
       <r>  -12.5381    1.0000 </r>
       <r>  -11.9727    1.0000 </r>
       <r>  -11.9181    1.0000 </r>
       <r>  -11.8362    1.0000 </r>
       <r>   -9.1875    1.0000 </r>
       <r>   -9.0278    1.0000 </r>
       <r>   -8.9140    1.0000 </r>
       <r>   -8.7522    1.0000 </r>
       <r>   -8.3942    1.0000 </r>
       <r>   -8.3752    1.0000 </r>
       <r>   -8.2523    1.0000 </r>
       <r>   -8.2438    1.0000 </r>
       <r>   -8.1925    1.0000 </r>
       <r>   -8.1763    1.0000 </r>
       <r>   -8.0531    1.0000 </r>
       <r>   -8.0432    1.0000 </r>
       <r>   -7.7358    1.0000 </r>
       <r>   -7.6280    1.0000 </r>
       <r>   -7.6174    1.0000 </r>
       <r>   -7.5092    1.0000 </r>
       <r>   -6.0367    1.0000 </r>
       <r>   -6.0069    1.0000 </r>
       <r>   -5.9304    1.0000 </r>
       <r>   -5.8343    1.0000 </r>
       <r>   -5.8274    1.0000 </r>
       <r>   -5.7891    1.0000 </r>
       <r>   -5.7038    1.0000 </r>
       <r>   -5.6731    1.0000 </r>
       <r>   -5.6328    1.0000 </r>
       <r>   -5.6043    1.0000 </r>
       <r>   -5.4686    1.0000 </r>
       <r>   -5.4149    1.0000 </r>
       <r>   -4.4900    1.0000 </r>
       <r>   -4.3343    1.0000 </r>
       <r>   -4.3218    1.0000 </r>
       <r>   -4.1513    1.0000 </r>
       <r>   -1.2656    1.0000 </r>
       <r>   -1.0247    1.0000 </r>
       <r>   -0.8948    1.0000 </r>
       <r>   -0.7149    1.0000 </r>
       <r>   -0.5432    1.0000 </r>
       <r>   -0.2815    1.0000 </r>
       <r>   -0.1281    1.0000 </r>
       <r>   -0.0112    1.0000 </r>
       <r>    0.0364    1.0000 </r>
       <r>    0.0459    1.0000 </r>
       <r>    0.1130    1.0000 </r>
       <r>    0.1345    1.0000 </r>
       <r>    0.1894    1.0000 </r>
       <r>    0.2590    1.0000 </r>
       <r>    0.3562    1.0000 </r>
       <r>    0.3728    1.0000 </r>
       <r>    0.4734    1.0000 </r>
       <r>    0.5115    1.0000 </r>
       <r>    0.5453    1.0000 </r>
       <r>    0.5633    1.0000 </r>
       <r>    0.6210    1.0000 </r>
       <r>    0.6528    1.0000 </r>
       <r>    0.6750    1.0000 </r>
       <r>    0.6944    1.0000 </r>
       <r>    0.7367    1.0000 </r>
       <r>    0.7696    1.0000 </r>
       <r>    0.8844    1.0000 </r>
       <r>    0.9094    1.0000 </r>
       <r>    0.9621    1.0000 </r>
       <r>    0.9887    1.0000 </r>
       <r>    1.0545    1.0000 </r>
       <r>    1.1122    1.0000 </r>
       <r>    1.1651    1.0000 </r>
       <r>    1.2193    1.0000 </r>
       <r>    1.2681    1.0000 </r>
       <r>    1.2774    1.0000 </r>
       <r>    1.3172    1.0000 </r>
       <r>    1.3377    1.0000 </r>
       <r>    1.3542    1.0000 </r>
       <r>    1.4998    1.0000 </r>
       <r>    1.5014    1.0000 </r>
       <r>    1.5184    1.0000 </r>
       <r>    1.5581    1.0000 </r>
       <r>    1.5599    1.0000 </r>
       <r>    1.6263    1.0000 </r>
       <r>    1.6968    1.0000 </r>
       <r>    1.7512    1.0000 </r>
       <r>    1.8065    1.0000 </r>
       <r>    1.8389    1.0000 </r>
       <r>    1.9035    1.0000 </r>
       <r>    1.9256    1.0000 </r>
       <r>    1.9477    1.0000 </r>
       <r>    1.9672    1.0000 </r>
       <r>    2.0006    1.0000 </r>
       <r>    2.0825    1.0000 </r>
       <r>    2.1184    1.0000 </r>
       <r>    2.1659    1.0000 </r>
       <r>    2.2129    1.0000 </r>
       <r>    2.2357    1.0000 </r>
       <r>    2.2476    1.0000 </r>
       <r>    2.3157    1.0000 </r>
       <r>    2.3576    1.0000 </r>
       <r>    2.3986    1.0000 </r>
       <r>    2.4880    1.0000 </r>
       <r>    2.5113    1.0000 </r>
       <r>    2.5321    1.0000 </r>
       <r>    2.5793    1.0000 </r>
       <r>    2.5907    1.0000 </r>
       <r>    2.6338    1.0000 </r>
       <r>    2.6900    1.0000 </r>
       <r>    2.7319    1.0000 </r>
       <r>    2.7633    1.0000 </r>
       <r>    2.7864    1.0000 </r>
       <r>    2.8069    1.0000 </r>
       <r>    2.8442    1.0000 </r>
       <r>    2.8623    1.0000 </r>
       <r>    2.8927    1.0000 </r>
       <r>    2.9270    1.0000 </r>
       <r>    2.9876    1.0000 </r>
       <r>    3.0438    1.0000 </r>
       <r>    3.0794    1.0000 </r>
       <r>    3.1006    1.0000 </r>
       <r>    3.1565    1.0000 </r>
       <r>    3.1770    1.0000 </r>
       <r>    3.2239    1.0000 </r>
       <r>    3.2675    1.0000 </r>
       <r>    3.2980    1.0000 </r>
       <r>    3.3569    1.0000 </r>
       <r>    3.4861    1.0000 </r>
       <r>    3.5092    1.0000 </r>
       <r>    3.5515    1.0000 </r>
       <r>    3.5621    1.0000 </r>
       <r>    3.6385    1.0000 </r>
       <r>    3.6807    1.0000 </r>
       <r>    3.7031    1.0000 </r>
       <r>    3.8115    1.0000 </r>
       <r>    5.5684    0.0000 </r>
       <r>    5.5801    0.0000 </r>
       <r>    5.7166    0.0000 </r>
       <r>    5.7267    0.0000 </r>
       <r>    5.7551    0.0000 </r>
       <r>    5.7691    0.0000 </r>
       <r>    5.9079    0.0000 </r>
       <r>    5.9205    0.0000 </r>
       <r>    7.1515    0.0000 </r>
       <r>    7.1743    0.0000 </r>
       <r>    7.2377    0.0000 </r>
       <r>    7.3166    0.0000 </r>
       <r>    7.3723    0.0000 </r>
       <r>    7.4056    0.0000 </r>
       <r>    7.4540    0.0000 </r>
       <r>    7.4736    0.0000 </r>
       <r>    7.4993    0.0000 </r>
       <r>    7.5160    0.0000 </r>
       <r>    7.5774    0.0000 </r>
       <r>    7.6046    0.0000 </r>
       <r>    7.8001    0.0000 </r>
       <r>    7.8384    0.0000 </r>
       <r>    7.8563    0.0000 </r>
       <r>    7.8678    0.0000 </r>
       <r>    7.9157    0.0000 </r>
       <r>    7.9451    0.0000 </r>
       <r>    7.9737    0.0000 </r>
       <r>    7.9791    0.0000 </r>
       <r>    8.0071    0.0000 </r>
       <r>    8.0172    0.0000 </r>
       <r>    8.0553    0.0000 </r>
       <r>    8.1143    0.0000 </r>
       <r>    8.2395    0.0000 </r>
       <r>    8.3308    0.0000 </r>
       <r>    8.4763    0.0000 </r>
       <r>    8.6530    0.0000 </r>
       <r>    8.6743    0.0000 </r>
       <r>    8.7414    0.0000 </r>
       <r>    8.7550    0.0000 </r>
       <r>    8.7742    0.0000 </r>
       <r>    8.7917    0.0000 </r>
       <r>    8.8930    0.0000 </r>
       <r>    8.9511    0.0000 </r>
       <r>    8.9550    0.0000 </r>
       <r>    9.1074    0.0000 </r>
       <r>    9.2492    0.0000 </r>
      </set>
      <set comment="kpoint 3">
       <r>  -40.3051    1.0000 </r>
       <r>  -39.9680    1.0000 </r>
       <r>  -39.8581    1.0000 </r>
       <r>  -39.8387    1.0000 </r>
       <r>  -39.8260    1.0000 </r>
       <r>  -39.6030    1.0000 </r>
       <r>  -39.6006    1.0000 </r>
       <r>  -39.5164    1.0000 </r>
       <r>  -39.4013    1.0000 </r>
       <r>  -39.3618    1.0000 </r>
       <r>  -18.9911    1.0000 </r>
       <r>  -18.9259    1.0000 </r>
       <r>  -18.9187    1.0000 </r>
       <r>  -18.9106    1.0000 </r>
       <r>  -18.9071    1.0000 </r>
       <r>  -18.8562    1.0000 </r>
       <r>  -18.8491    1.0000 </r>
       <r>  -18.8366    1.0000 </r>
       <r>  -18.8283    1.0000 </r>
       <r>  -18.8188    1.0000 </r>
       <r>  -18.8010    1.0000 </r>
       <r>  -18.7507    1.0000 </r>
       <r>  -18.7394    1.0000 </r>
       <r>  -18.7366    1.0000 </r>
       <r>  -18.7174    1.0000 </r>
       <r>  -18.7124    1.0000 </r>
       <r>  -18.7045    1.0000 </r>
       <r>  -18.6984    1.0000 </r>
       <r>  -18.6903    1.0000 </r>
       <r>  -18.6866    1.0000 </r>
       <r>  -18.6824    1.0000 </r>
       <r>  -18.6680    1.0000 </r>
       <r>  -18.6621    1.0000 </r>
       <r>  -18.6547    1.0000 </r>
       <r>  -18.6509    1.0000 </r>
       <r>  -18.6479    1.0000 </r>
       <r>  -18.6393    1.0000 </r>
       <r>  -18.6370    1.0000 </r>
       <r>  -18.6353    1.0000 </r>
       <r>  -18.6304    1.0000 </r>
       <r>  -18.6291    1.0000 </r>
       <r>  -18.6254    1.0000 </r>
       <r>  -18.6250    1.0000 </r>
       <r>  -18.6220    1.0000 </r>
       <r>  -18.6211    1.0000 </r>
       <r>  -18.6191    1.0000 </r>
       <r>  -18.6070    1.0000 </r>
       <r>  -18.5993    1.0000 </r>
       <r>  -18.5981    1.0000 </r>
       <r>  -18.5692    1.0000 </r>
       <r>  -18.5602    1.0000 </r>
       <r>  -18.5550    1.0000 </r>
       <r>  -18.5541    1.0000 </r>
       <r>  -18.5481    1.0000 </r>
       <r>  -18.5432    1.0000 </r>
       <r>  -18.5412    1.0000 </r>
       <r>  -18.5353    1.0000 </r>
       <r>  -18.5335    1.0000 </r>
       <r>  -18.5307    1.0000 </r>
       <r>  -18.5055    1.0000 </r>
       <r>  -18.5036    1.0000 </r>
       <r>  -18.4856    1.0000 </r>
       <r>  -18.4820    1.0000 </r>
       <r>  -18.4794    1.0000 </r>
       <r>  -18.4773    1.0000 </r>
       <r>  -18.4751    1.0000 </r>
       <r>  -18.4731    1.0000 </r>
       <r>  -18.4682    1.0000 </r>
       <r>  -18.4657    1.0000 </r>
       <r>  -18.4572    1.0000 </r>
       <r>  -18.4536    1.0000 </r>
       <r>  -18.4064    1.0000 </r>
       <r>  -18.3981    1.0000 </r>
       <r>  -18.3957    1.0000 </r>
       <r>  -18.3881    1.0000 </r>
       <r>  -18.3863    1.0000 </r>
       <r>  -18.3847    1.0000 </r>
       <r>  -18.3840    1.0000 </r>
       <r>  -18.3707    1.0000 </r>
       <r>  -18.3228    1.0000 </r>
       <r>  -18.3104    1.0000 </r>
       <r>  -18.3044    1.0000 </r>
       <r>  -18.2953    1.0000 </r>
       <r>  -18.2277    1.0000 </r>
       <r>  -18.1857    1.0000 </r>
       <r>  -18.1833    1.0000 </r>
       <r>  -18.1737    1.0000 </r>
       <r>  -18.1683    1.0000 </r>
       <r>  -18.1106    1.0000 </r>
       <r>  -18.1020    1.0000 </r>
       <r>  -13.6368    1.0000 </r>
       <r>  -13.4882    1.0000 </r>
       <r>  -13.4640    1.0000 </r>
       <r>  -12.8770    1.0000 </r>
       <r>  -12.8050    1.0000 </r>
       <r>  -12.7887    1.0000 </r>
       <r>  -12.7460    1.0000 </r>
       <r>  -12.6890    1.0000 </r>
       <r>  -12.6773    1.0000 </r>
       <r>  -12.6667    1.0000 </r>
       <r>  -12.6355    1.0000 </r>
       <r>  -12.5880    1.0000 </r>
       <r>  -12.5382    1.0000 </r>
       <r>  -11.9725    1.0000 </r>
       <r>  -11.9178    1.0000 </r>
       <r>  -11.8377    1.0000 </r>
       <r>   -9.3217    1.0000 </r>
       <r>   -9.0440    1.0000 </r>
       <r>   -8.5378    1.0000 </r>
       <r>   -8.5335    1.0000 </r>
       <r>   -8.4819    1.0000 </r>
       <r>   -8.4700    1.0000 </r>
       <r>   -8.2777    1.0000 </r>
       <r>   -8.2723    1.0000 </r>
       <r>   -8.2286    1.0000 </r>
       <r>   -8.2080    1.0000 </r>
       <r>   -8.0215    1.0000 </r>
       <r>   -7.9921    1.0000 </r>
       <r>   -7.9905    1.0000 </r>
       <r>   -7.9546    1.0000 </r>
       <r>   -7.3477    1.0000 </r>
       <r>   -7.3439    1.0000 </r>
       <r>   -6.3624    1.0000 </r>
       <r>   -6.3515    1.0000 </r>
       <r>   -6.3436    1.0000 </r>
       <r>   -6.3307    1.0000 </r>
       <r>   -5.5387    1.0000 </r>
       <r>   -5.5381    1.0000 </r>
       <r>   -5.4043    1.0000 </r>
       <r>   -5.3782    1.0000 </r>
       <r>   -5.2912    1.0000 </r>
       <r>   -5.2847    1.0000 </r>
       <r>   -5.1245    1.0000 </r>
       <r>   -5.1073    1.0000 </r>
       <r>   -5.0213    1.0000 </r>
       <r>   -5.0023    1.0000 </r>
       <r>   -3.8616    1.0000 </r>
       <r>   -3.5519    1.0000 </r>
       <r>   -1.3523    1.0000 </r>
       <r>   -1.2783    1.0000 </r>
       <r>   -1.2524    1.0000 </r>
       <r>   -1.0652    1.0000 </r>
       <r>   -0.4391    1.0000 </r>
       <r>   -0.4320    1.0000 </r>
       <r>   -0.4150    1.0000 </r>
       <r>   -0.3775    1.0000 </r>
       <r>   -0.3607    1.0000 </r>
       <r>   -0.3411    1.0000 </r>
       <r>   -0.2955    1.0000 </r>
       <r>   -0.2269    1.0000 </r>
       <r>   -0.1930    1.0000 </r>
       <r>   -0.0418    1.0000 </r>
       <r>    0.0349    1.0000 </r>
       <r>    0.1219    1.0000 </r>
       <r>    0.2730    1.0000 </r>
       <r>    0.3093    1.0000 </r>
       <r>    0.3497    1.0000 </r>
       <r>    0.4525    1.0000 </r>
       <r>    0.5415    1.0000 </r>
       <r>    0.6012    1.0000 </r>
       <r>    0.6804    1.0000 </r>
       <r>    0.7623    1.0000 </r>
       <r>    0.7948    1.0000 </r>
       <r>    0.8238    1.0000 </r>
       <r>    0.8541    1.0000 </r>
       <r>    0.8900    1.0000 </r>
       <r>    0.9691    1.0000 </r>
       <r>    1.0410    1.0000 </r>
       <r>    1.0716    1.0000 </r>
       <r>    1.1989    1.0000 </r>
       <r>    1.2680    1.0000 </r>
       <r>    1.3050    1.0000 </r>
       <r>    1.3321    1.0000 </r>
       <r>    1.3748    1.0000 </r>
       <r>    1.4730    1.0000 </r>
       <r>    1.5434    1.0000 </r>
       <r>    1.5641    1.0000 </r>
       <r>    1.6228    1.0000 </r>
       <r>    1.6351    1.0000 </r>
       <r>    1.7114    1.0000 </r>
       <r>    1.7870    1.0000 </r>
       <r>    1.7927    1.0000 </r>
       <r>    1.8566    1.0000 </r>
       <r>    1.8813    1.0000 </r>
       <r>    1.9121    1.0000 </r>
       <r>    1.9255    1.0000 </r>
       <r>    1.9991    1.0000 </r>
       <r>    2.0297    1.0000 </r>
       <r>    2.0935    1.0000 </r>
       <r>    2.1201    1.0000 </r>
       <r>    2.1809    1.0000 </r>
       <r>    2.1896    1.0000 </r>
       <r>    2.2860    1.0000 </r>
       <r>    2.3954    1.0000 </r>
       <r>    2.4280    1.0000 </r>
       <r>    2.4808    1.0000 </r>
       <r>    2.4936    1.0000 </r>
       <r>    2.5187    1.0000 </r>
       <r>    2.5252    1.0000 </r>
       <r>    2.5783    1.0000 </r>
       <r>    2.5844    1.0000 </r>
       <r>    2.5930    1.0000 </r>
       <r>    2.6020    1.0000 </r>
       <r>    2.6288    1.0000 </r>
       <r>    2.6638    1.0000 </r>
       <r>    2.6775    1.0000 </r>
       <r>    2.7401    1.0000 </r>
       <r>    2.7678    1.0000 </r>
       <r>    2.8119    1.0000 </r>
       <r>    2.8333    1.0000 </r>
       <r>    2.8477    1.0000 </r>
       <r>    2.8944    1.0000 </r>
       <r>    2.9300    1.0000 </r>
       <r>    2.9732    1.0000 </r>
       <r>    2.9825    1.0000 </r>
       <r>    3.0137    1.0000 </r>
       <r>    3.0455    1.0000 </r>
       <r>    3.0883    1.0000 </r>
       <r>    3.1125    1.0000 </r>
       <r>    3.1248    1.0000 </r>
       <r>    3.2992    1.0000 </r>
       <r>    3.3167    1.0000 </r>
       <r>    3.3766    1.0000 </r>
       <r>    3.4091    1.0000 </r>
       <r>    3.4309    1.0000 </r>
       <r>    3.4677    1.0000 </r>
       <r>    3.4849    1.0000 </r>
       <r>    3.5034    1.0000 </r>
       <r>    3.5450    1.0000 </r>
       <r>    3.6174    1.0000 </r>
       <r>    4.2478    1.0000 </r>
       <r>    4.2739    1.0000 </r>
       <r>    4.2906    1.0000 </r>
       <r>    4.2983    1.0000 </r>
       <r>    5.1410    0.0000 </r>
       <r>    5.1520    0.0000 </r>
       <r>    5.2153    0.0000 </r>
       <r>    5.2262    0.0000 </r>
       <r>    5.7533    0.0000 </r>
       <r>    5.7595    0.0000 </r>
       <r>    5.8042    0.0000 </r>
       <r>    5.8250    0.0000 </r>
       <r>    6.1808    0.0000 </r>
       <r>    6.1845    0.0000 </r>
       <r>    6.2012    0.0000 </r>
       <r>    6.2078    0.0000 </r>
       <r>    6.2677    0.0000 </r>
       <r>    6.2750    0.0000 </r>
       <r>    6.2958    0.0000 </r>
       <r>    6.3110    0.0000 </r>
       <r>    6.7078    0.0000 </r>
       <r>    6.7813    0.0000 </r>
       <r>    6.9837    0.0000 </r>
       <r>    7.0483    0.0000 </r>
       <r>    7.2514    0.0000 </r>
       <r>    7.3480    0.0000 </r>
       <r>    7.4572    0.0000 </r>
       <r>    7.5534    0.0000 </r>
       <r>    7.8425    0.0000 </r>
       <r>    7.8730    0.0000 </r>
       <r>    7.8860    0.0000 </r>
       <r>    7.9993    0.0000 </r>
       <r>    8.0234    0.0000 </r>
       <r>    8.3585    0.0000 </r>
       <r>    8.3792    0.0000 </r>
       <r>    8.4584    0.0000 </r>
       <r>    8.6782    0.0000 </r>
       <r>    8.7503    0.0000 </r>
       <r>    8.9193    0.0000 </r>
       <r>    8.9788    0.0000 </r>
       <r>    9.0033    0.0000 </r>
       <r>    9.0372    0.0000 </r>
       <r>    9.0769    0.0000 </r>
       <r>    9.1067    0.0000 </r>
       <r>    9.1136    0.0000 </r>
       <r>    9.1662    0.0000 </r>
       <r>    9.1845    0.0000 </r>
       <r>    9.2256    0.0000 </r>
       <r>    9.4959    0.0000 </r>
       <r>    9.5161    0.0000 </r>
      </set>
      <set comment="kpoint 4">
       <r>  -40.3051    1.0000 </r>
       <r>  -39.9680    1.0000 </r>
       <r>  -39.8581    1.0000 </r>
       <r>  -39.8387    1.0000 </r>
       <r>  -39.8260    1.0000 </r>
       <r>  -39.6030    1.0000 </r>
       <r>  -39.6006    1.0000 </r>
       <r>  -39.5164    1.0000 </r>
       <r>  -39.4013    1.0000 </r>
       <r>  -39.3618    1.0000 </r>
       <r>  -18.9911    1.0000 </r>
       <r>  -18.9259    1.0000 </r>
       <r>  -18.9187    1.0000 </r>
       <r>  -18.9106    1.0000 </r>
       <r>  -18.9071    1.0000 </r>
       <r>  -18.8560    1.0000 </r>
       <r>  -18.8490    1.0000 </r>
       <r>  -18.8367    1.0000 </r>
       <r>  -18.8284    1.0000 </r>
       <r>  -18.8188    1.0000 </r>
       <r>  -18.8010    1.0000 </r>
       <r>  -18.7507    1.0000 </r>
       <r>  -18.7394    1.0000 </r>
       <r>  -18.7366    1.0000 </r>
       <r>  -18.7174    1.0000 </r>
       <r>  -18.7125    1.0000 </r>
       <r>  -18.7045    1.0000 </r>
       <r>  -18.6984    1.0000 </r>
       <r>  -18.6903    1.0000 </r>
       <r>  -18.6867    1.0000 </r>
       <r>  -18.6825    1.0000 </r>
       <r>  -18.6663    1.0000 </r>
       <r>  -18.6610    1.0000 </r>
       <r>  -18.6542    1.0000 </r>
       <r>  -18.6520    1.0000 </r>
       <r>  -18.6459    1.0000 </r>
       <r>  -18.6431    1.0000 </r>
       <r>  -18.6405    1.0000 </r>
       <r>  -18.6358    1.0000 </r>
       <r>  -18.6356    1.0000 </r>
       <r>  -18.6278    1.0000 </r>
       <r>  -18.6252    1.0000 </r>
       <r>  -18.6236    1.0000 </r>
       <r>  -18.6225    1.0000 </r>
       <r>  -18.6193    1.0000 </r>
       <r>  -18.6086    1.0000 </r>
       <r>  -18.6069    1.0000 </r>
       <r>  -18.6035    1.0000 </r>
       <r>  -18.5999    1.0000 </r>
       <r>  -18.5692    1.0000 </r>
       <r>  -18.5602    1.0000 </r>
       <r>  -18.5550    1.0000 </r>
       <r>  -18.5541    1.0000 </r>
       <r>  -18.5481    1.0000 </r>
       <r>  -18.5432    1.0000 </r>
       <r>  -18.5411    1.0000 </r>
       <r>  -18.5353    1.0000 </r>
       <r>  -18.5335    1.0000 </r>
       <r>  -18.5307    1.0000 </r>
       <r>  -18.5055    1.0000 </r>
       <r>  -18.5036    1.0000 </r>
       <r>  -18.4853    1.0000 </r>
       <r>  -18.4820    1.0000 </r>
       <r>  -18.4806    1.0000 </r>
       <r>  -18.4760    1.0000 </r>
       <r>  -18.4750    1.0000 </r>
       <r>  -18.4739    1.0000 </r>
       <r>  -18.4679    1.0000 </r>
       <r>  -18.4657    1.0000 </r>
       <r>  -18.4572    1.0000 </r>
[...]
       <r>    8.8745    0.0000 </r>
       <r>    8.8887    0.0000 </r>
       <r>    8.9147    0.0000 </r>
       <r>    8.9312    0.0000 </r>
       <r>    8.9512    0.0000 </r>
      </set>
     </set>
    </set>
   </array>
  </eigenvalues>
  <separator name="orbital magnetization" >
   <v name="MAGDIPOLOUT">      0.00000000      0.00000000      0.00000000</v>
  </separator>
  <dos>
   <i name="efermi">      4.30041964 </i>
   <total>
    <array>
     <dimension dim="1">gridpoints</dimension>
     <dimension dim="2">spin</dimension>
     <field>energy</field>
     <field>total</field>
     <field>integrated</field>
     <set>
      <set comment="spin 1">
       <r>   -42.7994     0.0000     0.0000 </r>
       <r>   -42.6165     0.0000     0.0000 </r>
       <r>   -42.4335     0.0000     0.0000 </r>
       <r>   -42.2506     0.0000     0.0000 </r>
       <r>   -42.0677     0.0000     0.0000 </r>
       <r>   -41.8848     0.0000     0.0000 </r>
       <r>   -41.7019     0.0000     0.0000 </r>
       <r>   -41.5190     0.0000     0.0000 </r>
       <r>   -41.3361     0.0000     0.0000 </r>
       <r>   -41.1532     0.0000     0.0000 </r>
       <r>   -40.9702     0.0000     0.0000 </r>
       <r>   -40.7873     0.0000     0.0000 </r>
       <r>   -40.6044     0.0000     0.0000 </r>
       <r>   -40.4215     0.0000     0.0000 </r>
       <r>   -40.2386     0.0000     2.0000 </r>
       <r>   -40.0557     0.0000     2.0000 </r>
       <r>   -39.8728     0.0000     4.0000 </r>
       <r>   -39.6899     0.0000    10.0000 </r>
       <r>   -39.5070     0.0000    16.0000 </r>
       <r>   -39.3240     0.0000    20.0000 </r>
       <r>   -39.1411     0.0000    20.0000 </r>
       <r>   -38.9582     0.0000    20.0000 </r>
       <r>   -38.7753     0.0000    20.0000 </r>
       <r>   -38.5924     0.0000    20.0000 </r>
       <r>   -38.4095     0.0000    20.0000 </r>
       <r>   -38.2266     0.0000    20.0000 </r>
       <r>   -38.0437     0.0000    20.0000 </r>
       <r>   -37.8607     0.0000    20.0000 </r>
       <r>   -37.6778     0.0000    20.0000 </r>
       <r>   -37.4949     0.0000    20.0000 </r>
       <r>   -37.3120     0.0000    20.0000 </r>
       <r>   -37.1291     0.0000    20.0000 </r>
       <r>   -36.9462     0.0000    20.0000 </r>
       <r>   -36.7633     0.0000    20.0000 </r>
       <r>   -36.5804     0.0000    20.0000 </r>
       <r>   -36.3975     0.0000    20.0000 </r>
       <r>   -36.2145     0.0000    20.0000 </r>
       <r>   -36.0316     0.0000    20.0000 </r>
       <r>   -35.8487     0.0000    20.0000 </r>
       <r>   -35.6658     0.0000    20.0000 </r>
       <r>   -35.4829     0.0000    20.0000 </r>
       <r>   -35.3000     0.0000    20.0000 </r>
       <r>   -35.1171     0.0000    20.0000 </r>
       <r>   -34.9342     0.0000    20.0000 </r>
       <r>   -34.7512     0.0000    20.0000 </r>
       <r>   -34.5683     0.0000    20.0000 </r>
       <r>   -34.3854     0.0000    20.0000 </r>
       <r>   -34.2025     0.0000    20.0000 </r>
       <r>   -34.0196     0.0000    20.0000 </r>
       <r>   -33.8367     0.0000    20.0000 </r>
       <r>   -33.6538     0.0000    20.0000 </r>
       <r>   -33.4709     0.0000    20.0000 </r>
       <r>   -33.2880     0.0000    20.0000 </r>
       <r>   -33.1050     0.0000    20.0000 </r>
       <r>   -32.9221     0.0000    20.0000 </r>
       <r>   -32.7392     0.0000    20.0000 </r>
       <r>   -32.5563     0.0000    20.0000 </r>
       <r>   -32.3734     0.0000    20.0000 </r>
       <r>   -32.1905     0.0000    20.0000 </r>
       <r>   -32.0076     0.0000    20.0000 </r>
       <r>   -31.8247     0.0000    20.0000 </r>
       <r>   -31.6417     0.0000    20.0000 </r>
       <r>   -31.4588     0.0000    20.0000 </r>
       <r>   -31.2759     0.0000    20.0000 </r>
       <r>   -31.0930     0.0000    20.0000 </r>
       <r>   -30.9101     0.0000    20.0000 </r>
       <r>   -30.7272     0.0000    20.0000 </r>
       <r>   -30.5443     0.0000    20.0000 </r>
       <r>   -30.3614     0.0000    20.0000 </r>
       <r>   -30.1785     0.0000    20.0000 </r>
       <r>   -29.9955     0.0000    20.0000 </r>
       <r>   -29.8126     0.0000    20.0000 </r>
       <r>   -29.6297     0.0000    20.0000 </r>
       <r>   -29.4468     0.0000    20.0000 </r>
       <r>   -29.2639     0.0000    20.0000 </r>
       <r>   -29.0810     0.0000    20.0000 </r>
       <r>   -28.8981     0.0000    20.0000 </r>
       <r>   -28.7152     0.0000    20.0000 </r>
       <r>   -28.5322     0.0000    20.0000 </r>
       <r>   -28.3493     0.0000    20.0000 </r>
       <r>   -28.1664     0.0000    20.0000 </r>
       <r>   -27.9835     0.0000    20.0000 </r>
       <r>   -27.8006     0.0000    20.0000 </r>
       <r>   -27.6177     0.0000    20.0000 </r>
       <r>   -27.4348     0.0000    20.0000 </r>
       <r>   -27.2519     0.0000    20.0000 </r>
       <r>   -27.0689     0.0000    20.0000 </r>
       <r>   -26.8860     0.0000    20.0000 </r>
       <r>   -26.7031     0.0000    20.0000 </r>
       <r>   -26.5202     0.0000    20.0000 </r>
       <r>   -26.3373     0.0000    20.0000 </r>
       <r>   -26.1544     0.0000    20.0000 </r>
       <r>   -25.9715     0.0000    20.0000 </r>
       <r>   -25.7886     0.0000    20.0000 </r>
       <r>   -25.6057     0.0000    20.0000 </r>
       <r>   -25.4227     0.0000    20.0000 </r>
       <r>   -25.2398     0.0000    20.0000 </r>
       <r>   -25.0569     0.0000    20.0000 </r>
       <r>   -24.8740     0.0000    20.0000 </r>
       <r>   -24.6911     0.0000    20.0000 </r>
       <r>   -24.5082     0.0000    20.0000 </r>
       <r>   -24.3253     0.0000    20.0000 </r>
       <r>   -24.1424     0.0000    20.0000 </r>
       <r>   -23.9594     0.0000    20.0000 </r>
       <r>   -23.7765     0.0000    20.0000 </r>
       <r>   -23.5936     0.0000    20.0000 </r>
       <r>   -23.4107     0.0000    20.0000 </r>
       <r>   -23.2278     0.0000    20.0000 </r>
       <r>   -23.0449     0.0000    20.0000 </r>
       <r>   -22.8620     0.0000    20.0000 </r>
       <r>   -22.6791     0.0000    20.0000 </r>
       <r>   -22.4962     0.0000    20.0000 </r>
       <r>   -22.3132     0.0000    20.0000 </r>
       <r>   -22.1303     0.0000    20.0000 </r>
       <r>   -21.9474     0.0000    20.0000 </r>
       <r>   -21.7645     0.0000    20.0000 </r>
       <r>   -21.5816     0.0000    20.0000 </r>
       <r>   -21.3987     0.0000    20.0000 </r>
       <r>   -21.2158     0.0000    20.0000 </r>
       <r>   -21.0329     0.0000    20.0000 </r>
       <r>   -20.8499     0.0000    20.0000 </r>
       <r>   -20.6670     0.0000    20.0000 </r>
       <r>   -20.4841     0.0000    20.0000 </r>
       <r>   -20.3012     0.0000    20.0000 </r>
       <r>   -20.1183     0.0000    20.0000 </r>
       <r>   -19.9354     0.0000    20.0000 </r>
       <r>   -19.7525     0.0000    20.0000 </r>
       <r>   -19.5696     0.0000    20.0000 </r>
       <r>   -19.3867     0.0000    20.0000 </r>
       <r>   -19.2037     0.0000    20.0000 </r>
       <r>   -19.0208     0.0000    20.0000 </r>
       <r>   -18.8379     0.0000    34.0000 </r>
       <r>   -18.6550     0.0000    66.0000 </r>
       <r>   -18.4721     0.0000   134.0000 </r>
       <r>   -18.2892     0.0000   166.0000 </r>
       <r>   -18.1063     0.0000   178.0000 </r>
       <r>   -17.9234     0.0000   180.0000 </r>
       <r>   -17.7404     0.0000   180.0000 </r>
       <r>   -17.5575     0.0000   180.0000 </r>
       <r>   -17.3746     0.0000   180.0000 </r>
       <r>   -17.1917     0.0000   180.0000 </r>
       <r>   -17.0088     0.0000   180.0000 </r>
       <r>   -16.8259     0.0000   180.0000 </r>
       <r>   -16.6430     0.0000   180.0000 </r>
       <r>   -16.4601     0.0000   180.0000 </r>
       <r>   -16.2772     0.0000   180.0000 </r>
       <r>   -16.0942     0.0000   180.0000 </r>
       <r>   -15.9113     0.0000   180.0000 </r>
       <r>   -15.7284     0.0000   180.0000 </r>
       <r>   -15.5455     0.0000   180.0000 </r>
       <r>   -15.3626     0.0000   180.0000 </r>
       <r>   -15.1797     0.0000   180.0000 </r>
       <r>   -14.9968     0.0000   180.0000 </r>
       <r>   -14.8139     0.0000   180.0000 </r>
       <r>   -14.6309     0.0000   180.0000 </r>
       <r>   -14.4480     0.0000   180.0000 </r>
       <r>   -14.2651     0.0000   180.0000 </r>
       <r>   -14.0822     0.0000   180.0000 </r>
       <r>   -13.8993     0.0000   180.0000 </r>
       <r>   -13.7164     0.0000   180.0000 </r>
       <r>   -13.5335     0.0000   182.0000 </r>
       <r>   -13.3506     0.0000   186.0000 </r>
       <r>   -13.1677     0.0000   186.0000 </r>
       <r>   -12.9847     0.0000   186.0000 </r>
       <r>   -12.8018    18.7355   190.0062 </r>
       <r>   -12.6189     0.0000   202.0000 </r>
       <r>   -12.4360     0.0000   206.0000 </r>
       <r>   -12.2531     0.0000   206.0000 </r>
       <r>   -12.0702     0.0000   206.0000 </r>
       <r>   -11.8873     0.0000   210.0000 </r>
       <r>   -11.7044     0.0000   212.0000 </r>
       <r>   -11.5214     0.0000   212.0000 </r>
       <r>   -11.3385     0.0000   212.0000 </r>
       <r>   -11.1556     0.0000   212.0000 </r>
       <r>   -10.9727     0.0000   212.0000 </r>
       <r>   -10.7898     0.0000   212.0000 </r>
       <r>   -10.6069     0.0000   212.0000 </r>
       <r>   -10.4240     0.0000   212.0000 </r>
       <r>   -10.2411     0.0000   212.0000 </r>
       <r>   -10.0582     0.0000   212.0000 </r>
       <r>    -9.8752     0.0000   212.0000 </r>
       <r>    -9.6923     0.0000   212.0000 </r>
       <r>    -9.5094     0.0000   212.0000 </r>
       <r>    -9.3265     0.1061   212.0002 </r>
       <r>    -9.1436     9.8901   213.5531 </r>
       <r>    -8.9607    10.2647   215.6729 </r>
       <r>    -8.7778    13.9996   217.3917 </r>
       <r>    -8.5949    12.5949   220.2022 </r>
       <r>    -8.4119    39.7913   224.0896 </r>
       <r>    -8.2290     3.4081   228.0201 </r>
       <r>    -8.0461    21.9998   230.9670 </r>
       <r>    -7.8632    19.5594   235.7942 </r>
       <r>    -7.6803    11.3334   239.3280 </r>
       <r>    -7.4974    20.3627   242.4358 </r>
       <r>    -7.3145     0.0000   244.0000 </r>
       <r>    -7.1316     0.0000   244.0000 </r>
       <r>    -6.9487     0.0000   244.0000 </r>
       <r>    -6.7657     0.0000   244.0000 </r>
       <r>    -6.5828     0.0000   244.0000 </r>
       <r>    -6.3999     0.0000   244.0000 </r>
       <r>    -6.2170    16.4454   245.1508 </r>
       <r>    -6.0341    19.2776   249.5472 </r>
       <r>    -5.8512    21.4913   252.8128 </r>
       <r>    -5.6683    29.5517   257.0377 </r>
       <r>    -5.4854    16.2334   260.8990 </r>
       <r>    -5.3024    21.1839   264.5621 </r>
       <r>    -5.1195    10.1817   267.4159 </r>
       <r>    -4.9366     4.5415   268.2355 </r>
       <r>    -4.7537     8.2963   269.5202 </r>
       <r>    -4.5708    10.4656   271.2076 </r>
       <r>    -4.3879     8.8391   272.7753 </r>
       <r>    -4.2050     6.7584   274.0170 </r>
       <r>    -4.0221     4.9588   275.1465 </r>
       <r>    -3.8392     1.9513   275.7751 </r>
       <r>    -3.6562     0.4573   275.9836 </r>
       <r>    -3.4733     0.0000   276.0000 </r>
       <r>    -3.2904     0.0000   276.0000 </r>
       <r>    -3.1075     0.0000   276.0000 </r>
       <r>    -2.9246     0.0000   276.0000 </r>
       <r>    -2.7417     0.0000   276.0000 </r>
       <r>    -2.5588     0.0000   276.0000 </r>
       <r>    -2.3759     0.0000   276.0000 </r>
       <r>    -2.1929     0.0000   276.0000 </r>
       <r>    -2.0100     0.0000   276.0000 </r>
       <r>    -1.8271     0.0000   276.0000 </r>
       <r>    -1.6442     0.0000   276.0000 </r>
       <r>    -1.4613     0.0004   276.0000 </r>
       <r>    -1.2784     5.4191   276.3439 </r>
       <r>    -1.0955    10.9780   277.8817 </r>
       <r>    -0.9126    12.0593   280.0824 </r>
       <r>    -0.7297     8.9201   282.0867 </r>
       <r>    -0.5467     7.1476   283.3199 </r>
       <r>    -0.3638    20.4975   286.1336 </r>
       <r>    -0.1809    28.3302   290.1513 </r>
       <r>     0.0020    40.8251   297.3167 </r>
       <r>     0.1849    28.6227   303.0176 </r>
       <r>     0.3678    34.7675   309.6782 </r>
       <r>     0.5507    44.2835   316.1630 </r>
       <r>     0.7336    31.4594   323.5120 </r>
       <r>     0.9166    33.9596   330.3429 </r>
       <r>     1.0995    47.7782   338.1220 </r>
       <r>     1.2824    49.2189   345.4980 </r>
       <r>     1.4653    38.9750   353.8326 </r>
       <r>     1.6482    41.8424   363.1589 </r>
       <r>     1.8311    46.5252   371.5951 </r>
       <r>     2.0140    46.3726   379.8323 </r>
       <r>     2.1969    42.1107   387.9497 </r>
       <r>     2.3798    48.6644   396.3470 </r>
       <r>     2.5628    70.4957   407.0907 </r>
       <r>     2.7457    69.8680   417.8905 </r>
       <r>     2.9286    59.5569   429.7160 </r>
       <r>     3.1115    56.5062   440.8639 </r>
       <r>     3.2944    40.5700   449.2573 </r>
       <r>     3.4773    44.0773   456.1604 </r>
       <r>     3.6602    16.0672   461.6442 </r>
       <r>     3.8431    14.5620   464.9874 </r>
       <r>     4.0261     8.1066   467.0607 </r>
       <r>     4.2090     1.6465   467.9523 </r>
       <r>     4.3919     0.0000   468.0000 </r>
       <r>     4.5748     0.0000   468.0000 </r>
       <r>     4.7577     0.0000   468.0000 </r>
       <r>     4.9406     0.0000   468.0000 </r>
       <r>     5.1235     0.2306   468.0040 </r>
       <r>     5.3064     3.7722   468.3281 </r>
       <r>     5.4893     8.0550   469.4096 </r>
       <r>     5.6723     8.6647   471.0462 </r>
       <r>     5.8552    17.8719   473.9965 </r>
       <r>     6.0381    13.2156   477.2888 </r>
       <r>     6.2210    11.5757   479.5085 </r>
       <r>     6.4039    13.0013   481.7198 </r>
       <r>     6.5868    15.0187   484.2828 </r>
       <r>     6.7697    16.8829   487.2039 </r>
       <r>     6.9526    19.3415   490.4983 </r>
       <r>     7.1356    25.0880   494.4624 </r>
       <r>     7.3185    34.3892   500.0067 </r>
       <r>     7.5014    33.5944   506.9331 </r>
       <r>     7.6843    29.7135   511.8315 </r>
       <r>     7.8672    49.9369   519.3459 </r>
       <r>     8.0501    34.2608   527.7284 </r>
       <r>     8.2330    21.1038   532.4587 </r>
       <r>     8.4159    19.1703   535.9753 </r>
       <r>     8.5988    23.7931   539.8294 </r>
       <r>     8.7818    27.2221   544.7651 </r>
       <r>     8.9647    40.1260   552.6405 </r>
       <r>     9.1476    14.8697   557.5820 </r>
       <r>     9.3305     6.3082   559.3927 </r>
       <r>     9.5134     0.7250   559.9839 </r>
       <r>     9.6963     0.0000   560.0000 </r>
       <r>     9.8792     0.0000   560.0000 </r>
       <r>    10.0621     0.0000   560.0000 </r>
       <r>    10.2451     0.0000   560.0000 </r>
       <r>    10.4280     0.0000   560.0000 </r>
       <r>    10.6109     0.0000   560.0000 </r>
       <r>    10.7938     0.0000   560.0000 </r>
       <r>    10.9767     0.0000   560.0000 </r>
       <r>    11.1596     0.0000   560.0000 </r>
       <r>    11.3425     0.0000   560.0000 </r>
       <r>    11.5254     0.0000   560.0000 </r>
       <r>    11.7083     0.0000   560.0000 </r>
       <r>    11.8913     0.0000   560.0000 </r>
       <r>    12.0742     0.0000   560.0000 </r>
      </set>
     </set>
    </array>
   </total>
  </dos>
 </calculation>
 <structure name="finalpos" >
  <crystal>
   <varray name="basis" >
    <v>      11.17850000       0.00000000       0.00000000 </v>
    <v>       0.00000000       9.57460000       0.00000000 </v>
    <v>       0.00000000       0.00000000      11.18240000 </v>
   </varray>
   <i name="volume">   1196.84853820 </i>
   <varray name="rec_basis" >
    <v>       0.08945744       0.00000000       0.00000000 </v>
    <v>       0.00000000       0.10444301       0.00000000 </v>
    <v>       0.00000000       0.00000000       0.08942624 </v>
   </varray>
  </crystal>
  <varray name="positions" >
   <v>       0.37539000       0.00017000       0.43687000 </v>
   <v>       0.12461000       0.99984000       0.18687000 </v>
   <v>       0.37461000       0.00017000       0.18687000 </v>
   <v>       0.87539000       0.00017000       0.43687000 </v>
   <v>       0.87461000       0.00017000       0.18687000 </v>
   <v>       0.12539000       0.99984000       0.93687000 </v>
   <v>       0.37539000       0.00017000       0.93687000 </v>
   <v>       0.12461000       0.99984000       0.68687000 </v>
   <v>       0.87539000       0.00017000       0.93687000 </v>
   <v>       0.87461000       0.00017000       0.68687000 </v>
   <v>       0.62539000       0.99984000       0.43687000 </v>
   <v>       0.37461000       0.00017000       0.68687000 </v>
   <v>       0.62539000       0.99984000       0.93687000 </v>
   <v>       0.00013000       0.29519000       0.06281000 </v>
   <v>       0.25013000       0.70481000       0.06281000 </v>
   <v>       0.24987000       0.29519000       0.31282000 </v>
   <v>       0.49987000       0.70481000       0.31282000 </v>
   <v>       0.50013000       0.29519000       0.06281000 </v>
   <v>       0.75013000       0.70481000       0.06281000 </v>
   <v>       0.74987000       0.29519000       0.31282000 </v>
   <v>       0.99987000       0.70481000       0.31282000 </v>
   <v>       0.00013000       0.29519000       0.56281000 </v>
   <v>       0.25013000       0.70481000       0.56281000 </v>
   <v>       0.24987000       0.29519000       0.81282000 </v>
   <v>       0.49987000       0.70481000       0.81282000 </v>
   <v>       0.50013000       0.29519000       0.56281000 </v>
   <v>       0.75013000       0.70481000       0.56281000 </v>
   <v>       0.74987000       0.29519000       0.81282000 </v>
   <v>       0.99987000       0.70481000       0.81282000 </v>
   <v>       0.25005000       0.32677000       0.06286000 </v>
   <v>       0.00005000       0.67323000       0.06286000 </v>
   <v>       0.49995000       0.32677000       0.31286000 </v>
   <v>       0.24995000       0.67323000       0.31286000 </v>
   <v>       0.75005000       0.32677000       0.06286000 </v>
   <v>       0.50005000       0.67323000       0.06286000 </v>
   <v>       0.99995000       0.32677000       0.31286000 </v>
   <v>       0.74995000       0.67323000       0.31286000 </v>
   <v>       0.25005000       0.32677000       0.56286000 </v>
   <v>       0.00005000       0.67323000       0.56286000 </v>
   <v>       0.49995000       0.32677000       0.81286000 </v>
   <v>       0.24995000       0.67323000       0.81286000 </v>
   <v>       0.75005000       0.32677000       0.56286000 </v>
   <v>       0.50005000       0.67323000       0.56286000 </v>
   <v>       0.99995000       0.32677000       0.81286000 </v>
   <v>       0.74995000       0.67323000       0.81286000 </v>
   <v>       0.49987000       0.07798000       0.06246000 </v>
   <v>       0.24987000       0.92202000       0.06246000 </v>
   <v>       0.25013000       0.07798000       0.31246000 </v>
   <v>       0.00013000       0.92202000       0.31246000 </v>
   <v>       0.99987000       0.07798000       0.06246000 </v>
   <v>       0.74987000       0.92202000       0.06246000 </v>
   <v>       0.75013000       0.07798000       0.31246000 </v>
   <v>       0.50013000       0.92202000       0.31246000 </v>
   <v>       0.49987000       0.07798000       0.56246000 </v>
   <v>       0.24987000       0.92202000       0.56246000 </v>
   <v>       0.25013000       0.07798000       0.81246000 </v>
   <v>       0.00013000       0.92202000       0.81246000 </v>
   <v>       0.99987000       0.07798000       0.56246000 </v>
   <v>       0.74987000       0.92202000       0.56246000 </v>
   <v>       0.75013000       0.07798000       0.81246000 </v>
   <v>       0.50013000       0.92202000       0.81246000 </v>
  </varray>
 </structure>
</modeling>
