<?xml version="1.0" encoding="ISO-8859-1"?>
<modeling>
 <generator>
  <i name="program" type="string">vasp </i>
  <i name="version" type="string">5.4.4.18Apr17-6-g9f103f2a35  </i>
  <i name="subversion" type="string">(build Jul 31 2017 11:33:29) complex            parallel </i>
  <i name="platform" type="string">LinuxIFC </i>
  <i name="date" type="string">2021 09 29 </i>
  <i name="time" type="string">02:28:39 </i>
 </generator>
 <incar>
  <i type="string" name="SYSTEM"> La2O2S</i>
  <i type="string" name="PREC">normal</i>
  <i type="int" name="NELMIN">     4</i>
  <i type="int" name="IBRION">     2</i>
  <i type="int" name="NFREE">    10</i>
  <i name="EDIFF">      0.00000100</i>
  <i name="EDIFFG">     -0.01000000</i>
  <i type="int" name="NSW">     1</i>
  <i type="int" name="ISIF">     2</i>
  <i name="ENCUT">    600.00000000</i>
  <i name="ENAUG">    900.00000000</i>
  <i type="int" name="ISMEAR">    -5</i>
  <i type="logical" name="LWAVE"> F  </i>
  <i type="logical" name="LCHARG"> F  </i>
  <v type="int" name="KPOINT_BSE">    -1     0     0     0</v>
 </incar>
 <structure name="primitive_cell" >
  <crystal>
   <varray name="basis" >
    <v>      11.17850000       0.00000000       0.00000000 </v>
    <v>       0.00000000       9.57460000       0.00000000 </v>
    <v>       0.00000000       0.00000000      11.18240000 </v>
   </varray>
   <i name="volume">   1196.84853820 </i>
   <varray name="rec_basis" >
    <v>       0.08945744       0.00000000       0.00000000 </v>
    <v>       0.00000000       0.10444301       0.00000000 </v>
    <v>       0.00000000       0.00000000       0.08942624 </v>
   </varray>
  </crystal>
  <varray name="positions" >
   <v>       0.37539000       0.00017000       0.43687000 </v>
   <v>      -0.49987000      -0.07798000       0.31246000 </v>
   <v>       0.25013000       0.07798000       0.31246000 </v>
   <v>       0.49987000       0.07798000      -0.43754000 </v>
   <v>       0.24987000      -0.07798000      -0.43754000 </v>
   <v>      -0.37461000      -0.00016000       0.43687000 </v>
   <v>       0.37461000       0.00017000      -0.31313000 </v>
   <v>       0.37461000       0.00017000       0.18687000 </v>
   <v>       0.49987000      -0.29519000       0.31282000 </v>
   <v>       0.24987000       0.29519000       0.31282000 </v>
   <v>      -0.49987000       0.29519000      -0.43719000 </v>
   <v>       0.25013000      -0.29519000      -0.43719000 </v>
   <v>       0.49995000       0.32677000       0.31286000 </v>
   <v>       0.24995000      -0.32677000       0.31286000 </v>
   <v>      -0.49995000      -0.32677000      -0.43714000 </v>
   <v>       0.25005000       0.32677000      -0.43714000 </v>
   <v>      -0.37539000      -0.00016000      -0.31313000 </v>
   <v>       0.12461000      -0.00016000       0.18687000 </v>
   <v>       0.12461000      -0.00016000      -0.31313000 </v>
   <v>       0.49987000       0.07798000       0.06246000 </v>
   <v>      -0.24987000       0.07798000       0.31246000 </v>
   <v>      -0.25013000      -0.07798000      -0.43754000 </v>
   <v>       0.24987000      -0.07798000       0.06246000 </v>
   <v>       0.00013000      -0.07798000       0.31246000 </v>
   <v>      -0.49987000      -0.07798000      -0.18754000 </v>
   <v>      -0.00013000       0.07798000      -0.43754000 </v>
   <v>       0.25013000       0.07798000      -0.18754000 </v>
   <v>      -0.49987000       0.29519000       0.06281000 </v>
   <v>      -0.25013000       0.29519000       0.31282000 </v>
   <v>       0.25013000      -0.29519000       0.06281000 </v>
   <v>      -0.24987000      -0.29519000      -0.43719000 </v>
   <v>      -0.00013000      -0.29519000       0.31282000 </v>
   <v>       0.00013000       0.29519000      -0.43719000 </v>
   <v>       0.49987000      -0.29519000      -0.18718000 </v>
   <v>       0.24987000       0.29519000      -0.18718000 </v>
   <v>      -0.49995000      -0.32677000       0.06286000 </v>
   <v>       0.25005000       0.32677000       0.06286000 </v>
   <v>      -0.25005000      -0.32677000       0.31286000 </v>
   <v>      -0.24995000       0.32677000      -0.43714000 </v>
   <v>      -0.00005000       0.32677000       0.31286000 </v>
   <v>       0.00005000      -0.32677000      -0.43714000 </v>
   <v>       0.49995000       0.32677000      -0.18714000 </v>
   <v>       0.24995000      -0.32677000      -0.18714000 </v>
   <v>      -0.12461000       0.00017000       0.43687000 </v>
   <v>       0.37539000       0.00017000      -0.06313000 </v>
   <v>      -0.25013000      -0.07798000       0.06246000 </v>
   <v>      -0.00013000       0.07798000       0.06246000 </v>
   <v>      -0.24987000       0.07798000      -0.18754000 </v>
   <v>       0.00013000      -0.07798000      -0.18754000 </v>
   <v>      -0.12539000       0.00017000       0.18687000 </v>
   <v>      -0.12539000       0.00017000      -0.31313000 </v>
   <v>      -0.37461000      -0.00016000      -0.06313000 </v>
   <v>      -0.24987000      -0.29519000       0.06281000 </v>
   <v>       0.00013000       0.29519000       0.06281000 </v>
   <v>      -0.25013000       0.29519000      -0.18718000 </v>
   <v>      -0.00013000      -0.29519000      -0.18718000 </v>
   <v>      -0.24995000       0.32677000       0.06286000 </v>
   <v>       0.00005000      -0.32677000       0.06286000 </v>
   <v>      -0.25005000      -0.32677000      -0.18714000 </v>
   <v>      -0.00005000       0.32677000      -0.18714000 </v>
   <v>      -0.12461000       0.00017000      -0.06313000 </v>
  </varray>
 </structure>
 <varray name="primitive_index" >
  <v type="int" >        1 </v>
  <v type="int" >       53 </v>
  <v type="int" >       48 </v>
  <v type="int" >       54 </v>
  <v type="int" >       55 </v>
  <v type="int" >        3 </v>
  <v type="int" >        7 </v>
  <v type="int" >       11 </v>
  <v type="int" >       17 </v>
  <v type="int" >       16 </v>
  <v type="int" >       26 </v>
  <v type="int" >       23 </v>
  <v type="int" >       32 </v>
  <v type="int" >       33 </v>
  <v type="int" >       43 </v>
  <v type="int" >       38 </v>
  <v type="int" >        9 </v>
  <v type="int" >        2 </v>
  <v type="int" >       12 </v>
  <v type="int" >       46 </v>
  <v type="int" >       52 </v>
  <v type="int" >       59 </v>
  <v type="int" >       47 </v>
  <v type="int" >       49 </v>
  <v type="int" >       61 </v>
  <v type="int" >       58 </v>
  <v type="int" >       56 </v>
  <v type="int" >       18 </v>
  <v type="int" >       20 </v>
  <v type="int" >       15 </v>
  <v type="int" >       27 </v>
  <v type="int" >       21 </v>
  <v type="int" >       22 </v>
  <v type="int" >       25 </v>
  <v type="int" >       24 </v>
  <v type="int" >       35 </v>
  <v type="int" >       30 </v>
  <v type="int" >       37 </v>
  <v type="int" >       42 </v>
  <v type="int" >       36 </v>
  <v type="int" >       39 </v>
  <v type="int" >       40 </v>
  <v type="int" >       41 </v>
  <v type="int" >        4 </v>
  <v type="int" >        6 </v>
  <v type="int" >       51 </v>
  <v type="int" >       50 </v>
  <v type="int" >       60 </v>
  <v type="int" >       57 </v>
  <v type="int" >        5 </v>
  <v type="int" >       10 </v>
  <v type="int" >        8 </v>
  <v type="int" >       19 </v>
  <v type="int" >       14 </v>
  <v type="int" >       28 </v>
  <v type="int" >       29 </v>
  <v type="int" >       34 </v>
  <v type="int" >       31 </v>
  <v type="int" >       45 </v>
  <v type="int" >       44 </v>
  <v type="int" >       13 </v>
 </varray>
 <kpoints>
  <generation param="Gamma">
   <v type="int" name="divisions">       2        2        2 </v>
   <v name="usershift">      0.00000000       0.00000000       0.00000000 </v>
   <v name="genvec1">      0.50000000       0.00000000       0.00000000 </v>
   <v name="genvec2">      0.00000000       0.50000000       0.00000000 </v>
   <v name="genvec3">      0.00000000       0.00000000       0.50000000 </v>
   <v name="shift">      0.00000000       0.00000000       0.00000000 </v>
  </generation>
  <varray name="kpointlist" >
   <v>       0.00000000       0.00000000       0.00000000 </v>
   <v>       0.50000000       0.00000000       0.00000000 </v>
   <v>       0.00000000       0.50000000       0.00000000 </v>
   <v>       0.50000000       0.50000000       0.00000000 </v>
   <v>       0.00000000       0.00000000       0.50000000 </v>
   <v>       0.50000000       0.00000000       0.50000000 </v>
   <v>       0.00000000       0.50000000       0.50000000 </v>
   <v>       0.50000000       0.50000000       0.50000000 </v>
  </varray>
  <varray name="weights" >
   <v>       0.12500000 </v>
   <v>       0.12500000 </v>
   <v>       0.12500000 </v>
   <v>       0.12500000 </v>
   <v>       0.12500000 </v>
   <v>       0.12500000 </v>
   <v>       0.12500000 </v>
   <v>       0.12500000 </v>
  </varray>
  <varray name="tetrahedronlist"  type="int" >
   <v type="int" >        2        1        2        4        5 </v>
   <v type="int" >        2        1        3        4        5 </v>
   <v type="int" >        2        3        4        5        7 </v>
   <v type="int" >        2        2        4        5        6 </v>
   <v type="int" >        2        4        5        6        8 </v>
   <v type="int" >        2        4        5        7        8 </v>
   <v type="int" >        2        1        2        3        6 </v>
   <v type="int" >        2        2        3        4        6 </v>
   <v type="int" >        2        3        4        6        8 </v>
   <v type="int" >        2        1        3        5        6 </v>
   <v type="int" >        2        3        5        6        7 </v>
   <v type="int" >        2        3        6        7        8 </v>
   <v type="int" >        2        2        3        4        7 </v>
   <v type="int" >        2        1        2        3        7 </v>
   <v type="int" >        2        1        2        5        7 </v>
   <v type="int" >        2        2        4        7        8 </v>
   <v type="int" >        2        2        6        7        8 </v>
   <v type="int" >        2        2        5        6        7 </v>
   <v type="int" >        2        1        3        4        8 </v>
   <v type="int" >        2        1        2        4        8 </v>
   <v type="int" >        2        1        2        6        8 </v>
   <v type="int" >        2        1        3        7        8 </v>
   <v type="int" >        2        1        5        7        8 </v>
   <v type="int" >        2        1        5        6        8 </v>
  </varray>
  <i name="volumeweight">      0.02083333 </i>
 </kpoints>
 <parameters>
  <separator name="general" >
   <i type="string" name="SYSTEM">La2O2S</i>
   <i type="logical" name="LCOMPAT"> F  </i>
  </separator>
  <separator name="electronic" >
   <i type="string" name="PREC">normal</i>
   <i name="ENMAX">    600.00000000</i>
   <i name="ENAUG">    900.00000000</i>
   <i name="EDIFF">      0.00000100</i>
   <i type="int" name="IALGO">    38</i>
   <i type="int" name="IWAVPR">    11</i>
   <i type="int" name="NBANDS">   280</i>
   <i name="NELECT">    468.00000000</i>
   <i type="int" name="TURBO">     0</i>
   <i type="int" name="IRESTART">     0</i>
   <i type="int" name="NREBOOT">     0</i>
   <i type="int" name="NMIN">     0</i>
   <i name="EREF">      0.00000000</i>
   <separator name="electronic smearing" >
    <i type="int" name="ISMEAR">    -5</i>
    <i name="SIGMA">      0.20000000</i>
    <i name="KSPACING">      0.50000000</i>
    <i type="logical" name="KGAMMA"> T  </i>
   </separator>
   <separator name="electronic projectors" >
    <i type="logical" name="LREAL"> F  </i>
    <v name="ROPT">      0.00000000      0.00000000      0.00000000      0.00000000      0.00000000</v>
    <i type="int" name="LMAXPAW">  -100</i>
    <i type="int" name="LMAXMIX">     2</i>
    <i type="logical" name="NLSPLINE"> F  </i>
   </separator>
   <separator name="electronic startup" >
    <i type="int" name="ISTART">     0</i>
    <i type="int" name="ICHARG">     2</i>
    <i type="int" name="INIWAV">     1</i>
   </separator>
   <separator name="electronic spin" >
    <i type="int" name="ISPIN">     1</i>
    <i type="logical" name="LNONCOLLINEAR"> F  </i>
    <v name="MAGMOM">      1.00000000      1.00000000      1.00000000      1.00000000      1.00000000      1.00000000      1.00000000      1.00000000      1.00000000      1.00000000      1.00000000      1.00000000      1.00000000      1.00000000      1.00000000      1.00000000      1.00000000      1.00000000      1.00000000      1.00000000
      1.00000000      1.00000000      1.00000000      1.00000000      1.00000000      1.00000000      1.00000000      1.00000000      1.00000000      1.00000000      1.00000000      1.00000000      1.00000000      1.00000000      1.00000000      1.00000000      1.00000000      1.00000000      1.00000000      1.00000000
      1.00000000      1.00000000      1.00000000      1.00000000      1.00000000      1.00000000      1.00000000      1.00000000      1.00000000      1.00000000      1.00000000      1.00000000      1.00000000      1.00000000      1.00000000      1.00000000      1.00000000      1.00000000      1.00000000      1.00000000
      1.00000000</v>
    <i name="NUPDOWN">     -1.00000000</i>
    <i type="logical" name="LSORBIT"> F  </i>
    <v name="SAXIS">      0.00000000      0.00000000      1.00000000</v>
    <i type="logical" name="LSPIRAL"> F  </i>
    <v name="QSPIRAL">      0.00000000      0.00000000      0.00000000</v>
    <i type="logical" name="LZEROZ"> F  </i>
   </separator>
   <separator name="electronic exchange-correlation" >
    <i type="logical" name="LASPH"> F  </i>
    <i type="logical" name="LMETAGGA"> F  </i>
   </separator>
   <separator name="electronic convergence" >
    <i type="int" name="NELM">    60</i>
    <i type="int" name="NELMDL">    -5</i>
    <i type="int" name="NELMIN">     4</i>
    <i name="ENINI">    600.00000000</i>
    <separator name="electronic convergence detail" >
     <i type="logical" name="LDIAG"> T  </i>
     <i type="logical" name="LSUBROT"> F  </i>
     <i name="WEIMIN">      0.00100000</i>
     <i name="EBREAK">      0.00000000</i>
     <i name="DEPER">      0.30000000</i>
     <i type="int" name="NRMM">     4</i>
     <i name="TIME">      0.40000000</i>
    </separator>
   </separator>
   <separator name="electronic mixer" >
    <i name="AMIX">      0.40000000</i>
    <i name="BMIX">      1.00000000</i>
    <i name="AMIN">      0.10000000</i>
    <i name="AMIX_MAG">      1.60000000</i>
    <i name="BMIX_MAG">      1.00000000</i>
    <separator name="electronic mixer details" >
     <i type="int" name="IMIX">     4</i>
     <i type="logical" name="MIXFIRST"> F  </i>
     <i type="int" name="MAXMIX">   -45</i>
     <i name="WC">    100.00000000</i>
     <i type="int" name="INIMIX">     1</i>
     <i type="int" name="MIXPRE">     1</i>
     <i type="int" name="MREMOVE">     5</i>
    </separator>
   </separator>
   <separator name="electronic dipolcorrection" >
    <i type="logical" name="LDIPOL"> F  </i>
    <i type="logical" name="LMONO"> F  </i>
    <i type="int" name="IDIPOL">     0</i>
    <i name="EPSILON">      1.00000000</i>
    <v name="DIPOL">   -100.00000000   -100.00000000   -100.00000000</v>
    <i name="EFIELD">      0.00000000</i>
   </separator>
  </separator>
  <separator name="grids" >
   <i type="int" name="NGX">    70</i>
   <i type="int" name="NGY">    60</i>
   <i type="int" name="NGZ">    70</i>
   <i type="int" name="NGXF">   140</i>
   <i type="int" name="NGYF">   120</i>
   <i type="int" name="NGZF">   140</i>
   <i type="logical" name="ADDGRID"> F  </i>
  </separator>
  <separator name="ionic" >
   <i type="int" name="NSW">     1</i>
   <i type="int" name="IBRION">     2</i>
   <i type="int" name="MDALGO">     0</i>
   <i type="int" name="ISIF">     2</i>
   <i name="PSTRESS">      0.00000000</i>
   <i name="EDIFFG">     -0.01000000</i>
   <i type="int" name="NFREE">    10</i>
   <i name="POTIM">      0.50000000</i>
   <i name="SMASS">     -3.00000000</i>
   <i name="SCALEE">      1.00000000</i>
  </separator>
  <separator name="ionic md" >
   <i name="TEBEG">      0.00010000</i>
   <i name="TEEND">      0.00010000</i>
   <i type="int" name="NBLOCK">     1</i>
   <i type="int" name="KBLOCK">     1</i>
   <i type="int" name="NPACO">   256</i>
   <i name="APACO">     16.00000000</i>
  </separator>
  <separator name="symmetry" >
   <i type="int" name="ISYM">     2</i>
   <i name="SYMPREC">      0.00001000</i>
  </separator>
  <separator name="dos" >
   <i type="int" name="LORBIT">     0</i>
   <v name="RWIGS">     -1.00000000     -1.00000000     -1.00000000     -1.00000000     -1.00000000</v>
   <i type="int" name="NEDOS">   301</i>
   <i name="EMIN">     10.00000000</i>
   <i name="EMAX">    -10.00000000</i>
   <i name="EFERMI">      0.00000000</i>
  </separator>
  <separator name="writing" >
   <i type="int" name="NWRITE">     2</i>
   <i type="logical" name="LWAVE"> F  </i>
   <i type="logical" name="LDOWNSAMPLE"> F  </i>
   <i type="logical" name="LCHARG"> F  </i>
   <i type="logical" name="LPARD"> F  </i>
   <i type="logical" name="LVTOT"> F  </i>
   <i type="logical" name="LVHAR"> F  </i>
   <i type="logical" name="LELF"> F  </i>
   <i type="logical" name="LOPTICS"> F  </i>
   <v name="STM">      0.00000000      0.00000000      0.00000000      0.00000000      0.00000000      0.00000000      0.00000000</v>
  </separator>
  <separator name="performance" >
   <i type="int" name="NPAR">    28</i>
   <i type="int" name="NSIM">     4</i>
   <i type="int" name="NBLK">    -1</i>
   <i type="logical" name="LPLANE"> T  </i>
   <i type="logical" name="LSCALAPACK"> T  </i>
   <i type="logical" name="LSCAAWARE"> F  </i>
   <i type="logical" name="LSCALU"> F  </i>
   <i type="logical" name="LASYNC"> F  </i>
   <i type="logical" name="LORBITALREAL"> F  </i>
  </separator>
  <separator name="miscellaneous" >
   <i type="int" name="IDIOT">     3</i>
   <i type="int" name="ISPECIAL">     0</i>
   <i type="logical" name="LMUSIC"> F  </i>
   <v name="POMASS">      7.01000000     24.30500000    208.98000000     32.06600000     16.00000000</v>
   <v name="DARWINR">      0.00000000      0.00000000      0.00000000      0.00000000      0.00000000</v>
   <v name="DARWINV">      1.00000000      1.00000000      1.00000000      1.00000000      1.00000000</v>
   <i type="logical" name="LCORR"> T  </i>
  </separator>
  <i type="logical" name="GGA_COMPAT"> T  </i>
  <i type="logical" name="LBERRY"> F  </i>
  <i type="int" name="ICORELEVEL">     0</i>
  <i type="logical" name="LDAU"> F  </i>
  <i type="int" name="I_CONSTRAINED_M">     0</i>
  <separator name="electronic exchange-correlation" >
   <i type="string" name="GGA">--</i>
   <i type="int" name="VOSKOWN">     0</i>
   <i type="logical" name="LHFCALC"> F  </i>
   <i type="string" name="PRECFOCK"></i>
   <i type="logical" name="LSYMGRAD"> F  </i>
   <i type="logical" name="LHFONE"> F  </i>
   <i type="logical" name="LRHFCALC"> F  </i>
   <i type="logical" name="LTHOMAS"> F  </i>
   <i type="logical" name="LMODELHF"> F  </i>
   <i name="ENCUT4O">     -1.00000000</i>
   <i type="int" name="EXXOEP">     0</i>
   <i type="int" name="FOURORBIT">     0</i>
   <i name="AEXX">      0.00000000</i>
   <i name="HFALPHA">      0.00000000</i>
   <i name="MCALPHA">      0.00000000</i>
   <i name="ALDAX">      1.00000000</i>
   <i name="AGGAX">      1.00000000</i>
   <i name="ALDAC">      1.00000000</i>
   <i name="AGGAC">      1.00000000</i>
   <i type="int" name="NKREDX">     1</i>
   <i type="int" name="NKREDY">     1</i>
   <i type="int" name="NKREDZ">     1</i>
   <i type="logical" name="SHIFTRED"> F  </i>
   <i type="logical" name="ODDONLY"> F  </i>
   <i type="logical" name="EVENONLY"> F  </i>
   <i type="int" name="LMAXFOCK">     0</i>
   <i type="int" name="NMAXFOCKAE">     0</i>
   <i type="logical" name="LFOCKAEDFT"> F  </i>
   <i name="HFSCREEN">      0.00000000</i>
   <i name="HFSCREENC">      0.00000000</i>
   <i type="int" name="NBANDSGWLOW">     0</i>
  </separator>
  <separator name="vdW DFT" >
   <i type="logical" name="LUSE_VDW"> F  </i>
   <i name="Zab_VDW">     -0.84910000</i>
   <i name="PARAM1">      0.12340000</i>
   <i name="PARAM2">      1.00000000</i>
   <i name="PARAM3">      0.00000000</i>
  </separator>
  <separator name="model GW" >
   <i type="int" name="MODEL_GW">     0</i>
   <i name="MODEL_EPS0">     11.77228070</i>
   <i name="MODEL_ALPHA">      1.00000000</i>
  </separator>
  <separator name="linear response parameters" >
   <i type="logical" name="LEPSILON"> F  </i>
   <i type="logical" name="LRPA"> F  </i>
   <i type="logical" name="LNABLA"> F  </i>
   <i type="logical" name="LVEL"> F  </i>
   <i type="int" name="KINTER">     0</i>
   <i name="CSHIFT">      0.10000000</i>
   <i name="OMEGAMAX">     -1.00000000</i>
   <i name="DEG_THRESHOLD">      0.00200000</i>
   <i name="RTIME">     -0.10000000</i>
   <i name="WPLASMAI">      0.00000000</i>
   <v name="DFIELD">      0.00000000      0.00000000      0.00000000</v>
   <v name="WPLASMA">      0.00000000      0.00000000      0.00000000      0.00000000      0.00000000      0.00000000      0.00000000      0.00000000      0.00000000</v>
  </separator>
  <separator name="orbital magnetization" >
   <i type="logical" name="NUCIND"> F  </i>
   <v name="MAGPOS">      0.00000000      0.00000000      0.00000000</v>
   <i type="logical" name="LNICSALL"> T  </i>
   <i type="logical" name="ORBITALMAG"> F  </i>
   <i type="logical" name="LMAGBLOCH"> F  </i>
   <i type="logical" name="LCHIMAG"> F  </i>
   <i type="logical" name="LGAUGE"> T  </i>
   <i type="int" name="MAGATOM">     0</i>
   <v name="MAGDIPOL">      0.00000000      0.00000000      0.00000000</v>
   <v name="AVECCONST">      0.00000000      0.00000000      0.00000000</v>
  </separator>
  <separator name="response functions" >
   <i type="logical" name="LADDER"> F  </i>
   <i type="logical" name="LRPAFORCE"> F  </i>
   <i type="logical" name="LFXC"> F  </i>
   <i type="logical" name="LHARTREE"> T  </i>
   <i type="int" name="IBSE">     0</i>
   <v type="int" name="KPOINT">    -1     0     0     0</v>
   <i type="logical" name="LTCTE"> F  </i>
   <i type="logical" name="LTETE"> F  </i>
   <i type="logical" name="LTRIPLET"> F  </i>
   <i type="logical" name="LFXCEPS"> F  </i>
   <i type="logical" name="LFXHEG"> F  </i>
   <i type="int" name="NATURALO">     2</i>
   <i type="logical" name="L2ORDER"> F  </i>
   <i type="logical" name="LMP2LT"> F  </i>
   <i type="logical" name="LUSEW"> F  </i>
   <i name="ENCUTGW">     -2.00000000</i>
   <i name="ENCUTGWSOFT">     -2.00000000</i>
   <i name="ENCUTLF">     -1.00000000</i>
   <i type="int" name="LMAXMP2">    -1</i>
   <i name="SCISSOR">      0.00000000</i>
   <i type="int" name="NOMEGA">     0</i>
   <i type="int" name="NOMEGAR">     0</i>
   <i type="int" name="NBANDSGW">    -1</i>
   <i type="int" name="NBANDSO">    -1</i>
   <i type="int" name="NBANDSV">    -1</i>
   <i type="int" name="NELM">     1</i>
   <i type="int" name="NELMHF">     1</i>
   <i type="int" name="DIM">     3</i>
   <i type="int" name="ANTIRES">     0</i>
   <i name="OMEGAMAX">    -30.00000000</i>
   <i name="OMEGAMIN">    -30.00000000</i>
   <i name="OMEGATL">   -200.00000000</i>
   <i type="int" name="OMEGAGRID">   140</i>
   <i name="CSHIFT">     -0.10000000</i>
   <i type="logical" name="SELFENERGY"> F  </i>
   <i type="logical" name="LSPECTRAL"> F  </i>
   <i type="logical" name="LSPECTRALGW"> F  </i>
   <i type="logical" name="LSINGLES"> F  </i>
   <i type="logical" name="LFERMIGW"> F  </i>
   <i type="logical" name="ODDONLYGW"> F  </i>
   <i type="logical" name="EVENONLYGW"> F  </i>
   <i type="int" name="NKREDLFX">     1</i>
   <i type="int" name="NKREDLFY">     1</i>
   <i type="int" name="NKREDLFZ">     1</i>
   <i type="int" name="MAXMEM">  2800</i>
   <i type="int" name="TELESCOPE">     0</i>
   <i type="int" name="TAUPAR">     1</i>
   <i type="int" name="OMEGAPAR">    -1</i>
   <i name="LAMBDA">      1.00000000</i>
  </separator>
  <separator name="External order field" >
   <i name="OFIELD_KAPPA">      0.00000000</i>
   <v name="OFIELD_K">      0.00000000      0.00000000      0.00000000</v>
   <i name="OFIELD_Q6_NEAR">      0.00000000</i>
   <i name="OFIELD_Q6_FAR">      0.00000000</i>
   <i name="OFIELD_A">      0.00000000</i>
  </separator>
 </parameters>
 <atominfo>
  <atoms>      61 </atoms>
  <types>       5 </types>
  <array name="atoms" >
   <dimension dim="1">ion</dimension>
   <field type="string">element</field>
   <field type="int">atomtype</field>
   <set>
    <rc><c>Li</c><c>   1</c></rc>
    <rc><c>Li</c><c>   1</c></rc>
    <rc><c>Li</c><c>   1</c></rc>
    <rc><c>Li</c><c>   1</c></rc>
    <rc><c>Li</c><c>   1</c></rc>
    <rc><c>Li</c><c>   1</c></rc>
    <rc><c>Li</c><c>   1</c></rc>
    <rc><c>Li</c><c>   1</c></rc>
    <rc><c>Li</c><c>   1</c></rc>
    <rc><c>Li</c><c>   1</c></rc>
    <rc><c>Mg</c><c>   2</c></rc>
    <rc><c>Mg</c><c>   2</c></rc>
    <rc><c>Mg</c><c>   2</c></rc>
    <rc><c>Bi</c><c>   3</c></rc>
    <rc><c>Bi</c><c>   3</c></rc>
    <rc><c>Bi</c><c>   3</c></rc>
    <rc><c>Bi</c><c>   3</c></rc>
    <rc><c>Bi</c><c>   3</c></rc>
    <rc><c>Bi</c><c>   3</c></rc>
    <rc><c>Bi</c><c>   3</c></rc>
    <rc><c>Bi</c><c>   3</c></rc>
    <rc><c>Bi</c><c>   3</c></rc>
    <rc><c>Bi</c><c>   3</c></rc>
    <rc><c>Bi</c><c>   3</c></rc>
    <rc><c>Bi</c><c>   3</c></rc>
    <rc><c>Bi</c><c>   3</c></rc>
    <rc><c>Bi</c><c>   3</c></rc>
    <rc><c>Bi</c><c>   3</c></rc>
    <rc><c>Bi</c><c>   3</c></rc>
    <rc><c>S </c><c>   4</c></rc>
    <rc><c>S </c><c>   4</c></rc>
    <rc><c>S </c><c>   4</c></rc>
    <rc><c>S </c><c>   4</c></rc>
    <rc><c>S </c><c>   4</c></rc>
    <rc><c>S </c><c>   4</c></rc>
    <rc><c>S </c><c>   4</c></rc>
    <rc><c>S </c><c>   4</c></rc>
    <rc><c>S </c><c>   4</c></rc>
    <rc><c>S </c><c>   4</c></rc>
    <rc><c>S </c><c>   4</c></rc>
    <rc><c>S </c><c>   4</c></rc>
    <rc><c>S </c><c>   4</c></rc>
    <rc><c>S </c><c>   4</c></rc>
    <rc><c>S </c><c>   4</c></rc>
    <rc><c>S </c><c>   4</c></rc>
    <rc><c>O </c><c>   5</c></rc>
    <rc><c>O </c><c>   5</c></rc>
    <rc><c>O </c><c>   5</c></rc>
    <rc><c>O </c><c>   5</c></rc>
    <rc><c>O </c><c>   5</c></rc>
    <rc><c>O </c><c>   5</c></rc>
    <rc><c>O </c><c>   5</c></rc>
    <rc><c>O </c><c>   5</c></rc>
    <rc><c>O </c><c>   5</c></rc>
    <rc><c>O </c><c>   5</c></rc>
    <rc><c>O </c><c>   5</c></rc>
    <rc><c>O </c><c>   5</c></rc>
    <rc><c>O </c><c>   5</c></rc>
    <rc><c>O </c><c>   5</c></rc>
    <rc><c>O </c><c>   5</c></rc>
    <rc><c>O </c><c>   5</c></rc>
   </set>
  </array>
  <array name="atomtypes" >
   <dimension dim="1">type</dimension>
   <field type="int">atomspertype</field>
   <field type="string">element</field>
   <field>mass</field>
   <field>valence</field>
   <field type="string">pseudopotential</field>
   <set>
    <rc><c>  10</c><c>Li</c><c>      7.01000000</c><c>      3.00000000</c><c>  PAW_PBE Li_sv 10Sep2004               </c></rc>
    <rc><c>   3</c><c>Mg</c><c>     24.30500000</c><c>      2.00000000</c><c>  PAW_PBE Mg 13Apr2007                  </c></rc>
    <rc><c>  16</c><c>Bi</c><c>    208.98000000</c><c>     15.00000000</c><c>  PAW_PBE Bi_d 06Sep2000                </c></rc>
    <rc><c>  16</c><c>S </c><c>     32.06600000</c><c>      6.00000000</c><c>  PAW_PBE S 06Sep2000                   </c></rc>
    <rc><c>  16</c><c>O </c><c>     16.00000000</c><c>      6.00000000</c><c>  PAW_PBE O 08Apr2002                   </c></rc>
   </set>
  </array>
 </atominfo>
 <structure name="initialpos" >
  <crystal>
   <varray name="basis" >
    <v>      11.17850000       0.00000000       0.00000000 </v>
    <v>       0.00000000       9.57460000       0.00000000 </v>
    <v>       0.00000000       0.00000000      11.18240000 </v>
   </varray>
   <i name="volume">   1196.84853820 </i>
   <varray name="rec_basis" >
    <v>       0.08945744       0.00000000       0.00000000 </v>
    <v>       0.00000000       0.10444301       0.00000000 </v>
    <v>       0.00000000       0.00000000       0.08942624 </v>
   </varray>
  </crystal>
  <varray name="positions" >
   <v>       0.37539000       0.00017000       0.43687000 </v>
   <v>       0.12461000       0.99984000       0.18687000 </v>
   <v>       0.62539000       0.99984000       0.43687000 </v>
   <v>       0.87539000       0.00017000       0.43687000 </v>
   <v>       0.87461000       0.00017000       0.18687000 </v>
   <v>       0.37539000       0.00017000       0.93687000 </v>
   <v>       0.37461000       0.00017000       0.68687000 </v>
   <v>       0.62539000       0.99984000       0.93687000 </v>
   <v>       0.62461000       0.99984000       0.68687000 </v>
   <v>       0.87461000       0.00017000       0.68687000 </v>
   <v>       0.37461000       0.00017000       0.18687000 </v>
   <v>       0.12461000       0.99984000       0.68687000 </v>
   <v>       0.87539000       0.00017000       0.93687000 </v>
   <v>       0.00013000       0.29519000       0.06281000 </v>
   <v>       0.25013000       0.70481000       0.06281000 </v>
   <v>       0.24987000       0.29519000       0.31282000 </v>
   <v>       0.49987000       0.70481000       0.31282000 </v>
   <v>       0.50013000       0.29519000       0.06281000 </v>
   <v>       0.75013000       0.70481000       0.06281000 </v>
   <v>       0.74987000       0.29519000       0.31282000 </v>
   <v>       0.99987000       0.70481000       0.31282000 </v>
   <v>       0.00013000       0.29519000       0.56281000 </v>
   <v>       0.25013000       0.70481000       0.56281000 </v>
   <v>       0.24987000       0.29519000       0.81282000 </v>
   <v>       0.49987000       0.70481000       0.81282000 </v>
   <v>       0.50013000       0.29519000       0.56281000 </v>
   <v>       0.75013000       0.70481000       0.56281000 </v>
   <v>       0.74987000       0.29519000       0.81282000 </v>
   <v>       0.99987000       0.70481000       0.81282000 </v>
   <v>       0.25005000       0.32677000       0.06286000 </v>
   <v>       0.00005000       0.67323000       0.06286000 </v>
   <v>       0.49995000       0.32677000       0.31286000 </v>
   <v>       0.24995000       0.67323000       0.31286000 </v>
   <v>       0.75005000       0.32677000       0.06286000 </v>
   <v>       0.50005000       0.67323000       0.06286000 </v>
   <v>       0.99995000       0.32677000       0.31286000 </v>
   <v>       0.74995000       0.67323000       0.31286000 </v>
   <v>       0.25005000       0.32677000       0.56286000 </v>
   <v>       0.00005000       0.67323000       0.56286000 </v>
   <v>       0.49995000       0.32677000       0.81286000 </v>
   <v>       0.24995000       0.67323000       0.81286000 </v>
   <v>       0.75005000       0.32677000       0.56286000 </v>
   <v>       0.50005000       0.67323000       0.56286000 </v>
   <v>       0.99995000       0.32677000       0.81286000 </v>
   <v>       0.74995000       0.67323000       0.81286000 </v>
   <v>       0.49987000       0.07798000       0.06246000 </v>
   <v>       0.24987000       0.92202000       0.06246000 </v>
   <v>       0.25013000       0.07798000       0.31246000 </v>
   <v>       0.00013000       0.92202000       0.31246000 </v>
   <v>       0.99987000       0.07798000       0.06246000 </v>
   <v>       0.74987000       0.92202000       0.06246000 </v>
   <v>       0.75013000       0.07798000       0.31246000 </v>
   <v>       0.50013000       0.92202000       0.31246000 </v>
   <v>       0.49987000       0.07798000       0.56246000 </v>
   <v>       0.24987000       0.92202000       0.56246000 </v>
   <v>       0.25013000       0.07798000       0.81246000 </v>
   <v>       0.00013000       0.92202000       0.81246000 </v>
   <v>       0.99987000       0.07798000       0.56246000 </v>
   <v>       0.74987000       0.92202000       0.56246000 </v>
   <v>       0.75013000       0.07798000       0.81246000 </v>
   <v>       0.50013000       0.92202000       0.81246000 </v>
  </varray>
 </structure>
 <calculation>
  <scstep>
   <time name="dav">   59.84   59.88</time>
   <time name="total">   59.92   59.96</time>
   <energy>
    <i name="alphaZ">   1073.51873187 </i>
    <i name="ewald"> -30886.70975403 </i>
    <i name="hartreedc"> -12702.83613256 </i>
    <i name="XCdc">   1394.96881543 </i>
    <i name="pawpsdc">  36823.70205594 </i>
    <i name="pawaedc"> -36326.52930246 </i>
    <i name="eentropy">      0.00000000 </i>
    <i name="bandstr">   1803.66234313 </i>
    <i name="atom">  44791.06186932 </i>
    <i name="e_fr_energy">   5970.83862664 </i>
    <i name="e_wo_entrp">   5970.83862664 </i>
    <i name="e_0_energy">   5970.83862664 </i>
   </energy>
  </scstep>
  <scstep>
   <time name="dav">   60.88   60.90</time>
   <time name="total">   60.89   60.91</time>
   <energy>
    <i name="e_fr_energy">    793.12212392 </i>
    <i name="e_wo_entrp">    793.12212392 </i>
    <i name="e_0_energy">    793.12212392 </i>
   </energy>
  </scstep>
  <scstep>
   <time name="dav">   69.53   69.56</time>
   <time name="total">   69.53   69.56</time>
   <energy>
    <i name="e_fr_energy">   -245.32497319 </i>
    <i name="e_wo_entrp">   -245.32497319 </i>
    <i name="e_0_energy">   -245.32497319 </i>
   </energy>
  </scstep>
  <scstep>
   <time name="dav">   73.74   73.78</time>
   <time name="total">   73.75   73.78</time>
   <energy>
    <i name="e_fr_energy">   -346.15119332 </i>
    <i name="e_wo_entrp">   -346.15119332 </i>
    <i name="e_0_energy">   -346.15119332 </i>
   </energy>
  </scstep>
  <scstep>
   <time name="dav">   97.75   97.78</time>
   <time name="total">   98.49   98.52</time>
   <energy>
    <i name="e_fr_energy">   -355.04964765 </i>
    <i name="e_wo_entrp">   -355.04964765 </i>
    <i name="e_0_energy">   -355.04964765 </i>
   </energy>
  </scstep>
  <scstep>
   <time name="dav">   85.08   85.11</time>
   <time name="total">   85.89   85.92</time>
   <energy>
    <i name="e_fr_energy">   -296.45957093 </i>
    <i name="e_wo_entrp">   -296.45957093 </i>
    <i name="e_0_energy">   -296.45957093 </i>
   </energy>
  </scstep>
  <scstep>
   <time name="dav">   65.86   65.93</time>
   <time name="total">   66.68   66.75</time>
   <energy>
    <i name="e_fr_energy">   -299.30731562 </i>
    <i name="e_wo_entrp">   -299.30731562 </i>
    <i name="e_0_energy">   -299.30731562 </i>
   </energy>
  </scstep>
  <scstep>
   <time name="dav">   80.59   80.77</time>
   <time name="total">   81.40   81.58</time>
   <energy>
    <i name="e_fr_energy">   -298.06561642 </i>
    <i name="e_wo_entrp">   -298.06561642 </i>
    <i name="e_0_energy">   -298.06561642 </i>
   </energy>
  </scstep>
  <scstep>
   <time name="dav">   80.31   80.50</time>
   <time name="total">   81.12   81.31</time>
   <energy>
    <i name="e_fr_energy">   -297.41421337 </i>
    <i name="e_wo_entrp">   -297.41421337 </i>
    <i name="e_0_energy">   -297.41421337 </i>
   </energy>
  </scstep>
  <scstep>
   <time name="dav">   71.66   71.73</time>
   <time name="total">   72.47   72.54</time>
   <energy>
    <i name="e_fr_energy">   -297.42033507 </i>
    <i name="e_wo_entrp">   -297.42033507 </i>
    <i name="e_0_energy">   -297.42033507 </i>
   </energy>
  </scstep>
  <scstep>
   <time name="dav">   77.30   77.34</time>
   <time name="total">   78.11   78.15</time>
   <energy>
    <i name="e_fr_energy">   -297.43182468 </i>
    <i name="e_wo_entrp">   -297.43182468 </i>
    <i name="e_0_energy">   -297.43182468 </i>
   </energy>
  </scstep>
  <scstep>
   <time name="dav">   79.66   79.68</time>
   <time name="total">   80.46   80.49</time>
   <energy>
    <i name="e_fr_energy">   -297.43545946 </i>
    <i name="e_wo_entrp">   -297.43545946 </i>
    <i name="e_0_energy">   -297.43545946 </i>
   </energy>
  </scstep>
  <scstep>
   <time name="dav">   74.74   74.78</time>
   <time name="total">   75.54   75.59</time>
   <energy>
    <i name="e_fr_energy">   -297.43660871 </i>
    <i name="e_wo_entrp">   -297.43660871 </i>
    <i name="e_0_energy">   -297.43660871 </i>
   </energy>
  </scstep>
  <scstep>
   <time name="dav">   71.25   71.27</time>
   <time name="total">   72.06   72.08</time>
   <energy>
    <i name="e_fr_energy">   -297.43686498 </i>
    <i name="e_wo_entrp">   -297.43686498 </i>
    <i name="e_0_energy">   -297.43686498 </i>
   </energy>
  </scstep>
  <scstep>
   <time name="dav">   77.27   77.38</time>
   <time name="total">   78.09   78.21</time>
   <energy>
    <i name="e_fr_energy">   -297.43691101 </i>
    <i name="e_wo_entrp">   -297.43691101 </i>
    <i name="e_0_energy">   -297.43691101 </i>
   </energy>
  </scstep>
  <scstep>
   <time name="dav">   63.72   63.83</time>
   <time name="total">   64.52   64.64</time>
   <energy>
    <i name="e_fr_energy">   -297.43692865 </i>
    <i name="e_wo_entrp">   -297.43692865 </i>
    <i name="e_0_energy">   -297.43692865 </i>
   </energy>
  </scstep>
  <scstep>
   <time name="dav">   68.20   68.24</time>
   <time name="total">   69.01   69.05</time>
   <energy>
    <i name="e_fr_energy">   -297.43693078 </i>
    <i name="e_wo_entrp">   -297.43693078 </i>
    <i name="e_0_energy">   -297.43693078 </i>
   </energy>
  </scstep>
  <scstep>
   <time name="dav">   57.34   57.45</time>
   <time name="total">   57.42   57.53</time>
   <energy>
    <i name="alphaZ">   1073.51873187 </i>
    <i name="ewald"> -30886.70975403 </i>
    <i name="hartreedc"> -12939.22405640 </i>
    <i name="XCdc">   1418.53899154 </i>
    <i name="pawpsdc">  43844.83256574 </i>
    <i name="pawaedc"> -43322.21961014 </i>
    <i name="eentropy">      0.00000000 </i>
    <i name="bandstr">  -4277.23566926 </i>
    <i name="atom">  44791.06186932 </i>
    <i name="e_fr_energy">   -297.43693137 </i>
    <i name="e_wo_entrp">   -297.43693137 </i>
    <i name="e_0_energy">   -297.43693137 </i>
   </energy>
  </scstep>
  <structure>
   <crystal>
    <varray name="basis" >
     <v>      11.17850000       0.00000000       0.00000000 </v>
     <v>       0.00000000       9.57460000       0.00000000 </v>
     <v>       0.00000000       0.00000000      11.18240000 </v>
    </varray>
    <i name="volume">   1196.84853820 </i>
    <varray name="rec_basis" >
     <v>       0.08945744       0.00000000       0.00000000 </v>
     <v>       0.00000000       0.10444301       0.00000000 </v>
     <v>       0.00000000       0.00000000       0.08942624 </v>
    </varray>
   </crystal>
   <varray name="positions" >
    <v>       0.37539000       0.00017000       0.43687000 </v>
    <v>       0.12461000       0.99984000       0.18687000 </v>
    <v>       0.62539000       0.99984000       0.43687000 </v>
    <v>       0.87539000       0.00017000       0.43687000 </v>
    <v>       0.87461000       0.00017000       0.18687000 </v>
    <v>       0.37539000       0.00017000       0.93687000 </v>
    <v>       0.37461000       0.00017000       0.68687000 </v>
    <v>       0.62539000       0.99984000       0.93687000 </v>
    <v>       0.62461000       0.99984000       0.68687000 </v>
    <v>       0.87461000       0.00017000       0.68687000 </v>
    <v>       0.37461000       0.00017000       0.18687000 </v>
    <v>       0.12461000       0.99984000       0.68687000 </v>
    <v>       0.87539000       0.00017000       0.93687000 </v>
    <v>       0.00013000       0.29519000       0.06281000 </v>
    <v>       0.25013000       0.70481000       0.06281000 </v>
    <v>       0.24987000       0.29519000       0.31282000 </v>
    <v>       0.49987000       0.70481000       0.31282000 </v>
    <v>       0.50013000       0.29519000       0.06281000 </v>
    <v>       0.75013000       0.70481000       0.06281000 </v>
    <v>       0.74987000       0.29519000       0.31282000 </v>
    <v>       0.99987000       0.70481000       0.31282000 </v>
    <v>       0.00013000       0.29519000       0.56281000 </v>
    <v>       0.25013000       0.70481000       0.56281000 </v>
    <v>       0.24987000       0.29519000       0.81282000 </v>
    <v>       0.49987000       0.70481000       0.81282000 </v>
    <v>       0.50013000       0.29519000       0.56281000 </v>
    <v>       0.75013000       0.70481000       0.56281000 </v>
    <v>       0.74987000       0.29519000       0.81282000 </v>
    <v>       0.99987000       0.70481000       0.81282000 </v>
    <v>       0.25005000       0.32677000       0.06286000 </v>
    <v>       0.00005000       0.67323000       0.06286000 </v>
    <v>       0.49995000       0.32677000       0.31286000 </v>
    <v>       0.24995000       0.67323000       0.31286000 </v>
    <v>       0.75005000       0.32677000       0.06286000 </v>
    <v>       0.50005000       0.67323000       0.06286000 </v>
    <v>       0.99995000       0.32677000       0.31286000 </v>
    <v>       0.74995000       0.67323000       0.31286000 </v>
    <v>       0.25005000       0.32677000       0.56286000 </v>
    <v>       0.00005000       0.67323000       0.56286000 </v>
    <v>       0.49995000       0.32677000       0.81286000 </v>
    <v>       0.24995000       0.67323000       0.81286000 </v>
    <v>       0.75005000       0.32677000       0.56286000 </v>
    <v>       0.50005000       0.67323000       0.56286000 </v>
    <v>       0.99995000       0.32677000       0.81286000 </v>
    <v>       0.74995000       0.67323000       0.81286000 </v>
    <v>       0.49987000       0.07798000       0.06246000 </v>
    <v>       0.24987000       0.92202000       0.06246000 </v>
    <v>       0.25013000       0.07798000       0.31246000 </v>
    <v>       0.00013000       0.92202000       0.31246000 </v>
    <v>       0.99987000       0.07798000       0.06246000 </v>
    <v>       0.74987000       0.92202000       0.06246000 </v>
    <v>       0.75013000       0.07798000       0.31246000 </v>
    <v>       0.50013000       0.92202000       0.31246000 </v>
    <v>       0.49987000       0.07798000       0.56246000 </v>
    <v>       0.24987000       0.92202000       0.56246000 </v>
    <v>       0.25013000       0.07798000       0.81246000 </v>
    <v>       0.00013000       0.92202000       0.81246000 </v>
    <v>       0.99987000       0.07798000       0.56246000 </v>
    <v>       0.74987000       0.92202000       0.56246000 </v>
    <v>       0.75013000       0.07798000       0.81246000 </v>
    <v>       0.50013000       0.92202000       0.81246000 </v>
   </varray>
  </structure>
  <varray name="forces" >
   <v>      -0.25470106       0.00024138       0.19360741 </v>
   <v>      -0.38071681      -0.06590127       0.11965845 </v>
   <v>       0.06258802       0.06368273      -0.45592747 </v>
   <v>       0.24217160      -0.00569561      -0.26760749 </v>
   <v>      -0.17124062       0.00037247       0.51282801 </v>
   <v>      -0.25739736      -0.00172471      -0.18545802 </v>
   <v>       0.14405884       0.00122014      -0.03070477 </v>
   <v>      -0.41749560      -0.06597285       0.47309783 </v>
   <v>      -0.07664074      -0.06728777      -0.11731745 </v>
   <v>      -0.13790454      -0.00513171      -0.51159301 </v>
   <v>       0.57600812      -0.00635859       0.10247821 </v>
   <v>       0.21865700       0.12062756      -0.21646580 </v>
   <v>       0.58174568      -0.00648363       0.50953996 </v>
   <v>       0.17018024       0.00171728       0.21995164 </v>
   <v>      -0.18701657      -0.01163125      -0.04577039 </v>
   <v>      -0.23528935      -0.00770572       0.18357679 </v>
   <v>       0.25064740       0.05556671      -0.04206166 </v>
   <v>       0.17875978      -0.03939740       0.18249283 </v>
   <v>      -0.18626561      -0.01870258       0.44687349 </v>
   <v>      -0.04246303      -1.01794470      -0.10168697 </v>
   <v>       0.05073289       1.01349242       0.10156472 </v>
   <v>       0.00792910       0.01105190      -0.46593414 </v>
   <v>      -0.02166750       0.01341804      -0.33882072 </v>
   <v>       0.04805014      -0.01170829       0.18300420 </v>
   <v>      -0.04611125      -0.04890038      -0.02956444 </v>
   <v>       0.00904495       0.01614369      -0.12747125 </v>
   <v>      -0.02125789      -0.02534042      -0.25352335 </v>
   <v>      -0.15117442       1.06061454      -0.10851709 </v>
   <v>       0.16934049      -0.97186735       0.12574763 </v>
   <v>       0.05347376       0.15022288      -0.01510578 </v>
   <v>      -0.06446449      -0.14800035      -0.28415887 </v>
   <v>      -0.14728618       0.16913437      -0.01828750 </v>
   <v>       0.14678632      -0.17752261      -0.06092386 </v>
   <v>       0.05979246       0.12219982      -0.32217598 </v>
   <v>      -0.05324686      -0.14229439      -0.05957198 </v>
   <v>       0.08883934       0.21392794      -0.01644229 </v>
   <v>      -0.08625154      -0.21026723       0.02593764 </v>
   <v>      -0.03161648       0.13783992       0.13174831 </v>
   <v>       0.02824446      -0.11743359       0.30989770 </v>
   <v>       0.09310558       0.15673137      -0.00951612 </v>
   <v>      -0.09740040      -0.10783568      -0.05908351 </v>
   <v>      -0.00708033       0.19081390       0.26226175 </v>
   <v>       0.00943254      -0.19044411       0.08526253 </v>
   <v>      -0.10293047       0.05365595      -0.01262085 </v>
   <v>       0.11125740      -0.10859278       0.03691336 </v>
   <v>      -1.06340279       0.06407099      -0.23238483 </v>
   <v>       1.06771590       0.01649817       0.97621703 </v>
   <v>       1.10199700       0.01013293      -1.06207265 </v>
   <v>      -0.54722501      -0.85582995      -0.61176365 </v>
   <v>      -1.11687823       0.04681243      -0.09503865 </v>
   <v>       1.07472429       0.09243693      -1.30689121 </v>
   <v>       0.53053225       0.85688619       0.61912910 </v>
   <v>      -1.14914462      -0.09429026       0.13476586 </v>
   <v>       0.00737933      -0.01775395       0.09060232 </v>
   <v>       0.12618750      -0.04227357       1.17476114 </v>
   <v>       0.05520264      -0.00203419      -1.11247067 </v>
   <v>      -0.71792194       0.69681026      -0.62790538 </v>
   <v>      -0.12947920      -0.00581105       1.31801870 </v>
   <v>       0.00888340       0.02762578       0.24018390 </v>
   <v>       0.55200325      -0.84494333       0.45316780 </v>
   <v>       0.07619922       0.07913254      -0.00845053 </v>
  </varray>
  <varray name="stress" >
   <v>      -8.11568456      -0.04531413      -0.15950847 </v>
   <v>      -0.04531412     -14.31656607       0.04470401 </v>
   <v>      -0.15950837       0.04470399      -9.21661730 </v>
  </varray>
  <energy>
   <i name="e_fr_energy">   -312.08268299 </i>
   <i name="e_wo_entrp">   -312.08268299 </i>
   <i name="e_0_energy">      0.00000000 </i>
  </energy>
  <time name="totalsc"> 1432.96 1434.49</time>
  <eigenvalues>
   <array>
    <dimension dim="1">band</dimension>
    <dimension dim="2">kpoint</dimension>
    <dimension dim="3">spin</dimension>
    <field>eigene</field>
    <field>occ</field>
    <set>
     <set comment="spin 1">
      <set comment="kpoint 1">
       <r>  -40.2642    1.0000 </r>
       <r>  -40.0230    1.0000 </r>
       <r>  -40.0093    1.0000 </r>
       <r>  -39.8834    1.0000 </r>
       <r>  -39.8412    1.0000 </r>
       <r>  -39.7554    1.0000 </r>
       <r>  -39.5633    1.0000 </r>
       <r>  -39.5567    1.0000 </r>
       <r>  -39.4509    1.0000 </r>
       <r>  -39.4052    1.0000 </r>
       <r>  -18.9268    1.0000 </r>
       <r>  -18.9176    1.0000 </r>
       <r>  -18.8561    1.0000 </r>
       <r>  -18.8491    1.0000 </r>
       <r>  -18.8482    1.0000 </r>
       <r>  -18.8410    1.0000 </r>
       <r>  -18.7526    1.0000 </r>
       <r>  -18.7477    1.0000 </r>
       <r>  -18.7400    1.0000 </r>
       <r>  -18.7266    1.0000 </r>
       <r>  -18.7097    1.0000 </r>
       <r>  -18.7091    1.0000 </r>
       <r>  -18.6998    1.0000 </r>
       <r>  -18.6994    1.0000 </r>
       <r>  -18.6918    1.0000 </r>
       <r>  -18.6905    1.0000 </r>
       <r>  -18.6496    1.0000 </r>
       <r>  -18.6491    1.0000 </r>
       <r>  -18.6440    1.0000 </r>
       <r>  -18.6427    1.0000 </r>
       <r>  -18.6413    1.0000 </r>
       <r>  -18.6400    1.0000 </r>
       <r>  -18.6391    1.0000 </r>
       <r>  -18.6386    1.0000 </r>
       <r>  -18.6383    1.0000 </r>
       <r>  -18.6378    1.0000 </r>
       <r>  -18.6358    1.0000 </r>
       <r>  -18.6341    1.0000 </r>
       <r>  -18.6333    1.0000 </r>
       <r>  -18.6327    1.0000 </r>
       <r>  -18.6325    1.0000 </r>
       <r>  -18.6311    1.0000 </r>
       <r>  -18.6291    1.0000 </r>
       <r>  -18.6288    1.0000 </r>
       <r>  -18.6268    1.0000 </r>
       <r>  -18.6247    1.0000 </r>
       <r>  -18.6234    1.0000 </r>
       <r>  -18.6207    1.0000 </r>
       <r>  -18.6192    1.0000 </r>
       <r>  -18.6168    1.0000 </r>
       <r>  -18.5696    1.0000 </r>
       <r>  -18.5597    1.0000 </r>
       <r>  -18.5554    1.0000 </r>
       <r>  -18.5518    1.0000 </r>
       <r>  -18.5492    1.0000 </r>
       <r>  -18.5475    1.0000 </r>
       <r>  -18.5463    1.0000 </r>
       <r>  -18.5379    1.0000 </r>
       <r>  -18.5355    1.0000 </r>
       <r>  -18.5348    1.0000 </r>
       <r>  -18.4942    1.0000 </r>
       <r>  -18.4894    1.0000 </r>
       <r>  -18.4883    1.0000 </r>
       <r>  -18.4860    1.0000 </r>
       <r>  -18.4847    1.0000 </r>
       <r>  -18.4816    1.0000 </r>
       <r>  -18.4811    1.0000 </r>
       <r>  -18.4801    1.0000 </r>
       <r>  -18.4781    1.0000 </r>
       <r>  -18.4758    1.0000 </r>
       <r>  -18.4753    1.0000 </r>
       <r>  -18.4740    1.0000 </r>
       <r>  -18.4732    1.0000 </r>
       <r>  -18.4716    1.0000 </r>
       <r>  -18.4704    1.0000 </r>
       <r>  -18.4645    1.0000 </r>
       <r>  -18.4108    1.0000 </r>
       <r>  -18.4016    1.0000 </r>
       <r>  -18.3992    1.0000 </r>
       <r>  -18.3918    1.0000 </r>
       <r>  -18.3880    1.0000 </r>
       <r>  -18.3840    1.0000 </r>
       <r>  -18.3788    1.0000 </r>
       <r>  -18.3750    1.0000 </r>
       <r>  -18.2995    1.0000 </r>
       <r>  -18.2953    1.0000 </r>
       <r>  -18.1843    1.0000 </r>
       <r>  -18.1805    1.0000 </r>
       <r>  -18.1712    1.0000 </r>
       <r>  -18.1667    1.0000 </r>
       <r>  -13.5619    1.0000 </r>
       <r>  -13.4546    1.0000 </r>
       <r>  -12.8883    1.0000 </r>
       <r>  -12.8116    1.0000 </r>
       <r>  -12.7624    1.0000 </r>
       <r>  -12.7562    1.0000 </r>
       <r>  -12.7474    1.0000 </r>
       <r>  -12.6939    1.0000 </r>
       <r>  -12.6845    1.0000 </r>
       <r>  -12.6693    1.0000 </r>
       <r>  -12.6500    1.0000 </r>
       <r>  -12.6222    1.0000 </r>
       <r>  -12.6092    1.0000 </r>
       <r>  -12.5554    1.0000 </r>
       <r>  -11.9611    1.0000 </r>
       <r>  -11.8974    1.0000 </r>
       <r>   -9.3203    1.0000 </r>
       <r>   -9.0257    1.0000 </r>
       <r>   -8.5297    1.0000 </r>
       <r>   -8.4909    1.0000 </r>
       <r>   -8.4793    1.0000 </r>
       <r>   -8.4350    1.0000 </r>
       <r>   -8.3061    1.0000 </r>
       <r>   -8.2719    1.0000 </r>
       <r>   -8.2529    1.0000 </r>
       <r>   -8.2108    1.0000 </r>
       <r>   -8.0211    1.0000 </r>
       <r>   -8.0202    1.0000 </r>
       <r>   -7.9860    1.0000 </r>
       <r>   -7.9838    1.0000 </r>
       <r>   -7.3493    1.0000 </r>
       <r>   -7.3477    1.0000 </r>
       <r>   -6.3638    1.0000 </r>
       <r>   -6.3563    1.0000 </r>
       <r>   -6.3405    1.0000 </r>
       <r>   -6.3366    1.0000 </r>
       <r>   -5.5197    1.0000 </r>
       <r>   -5.4851    1.0000 </r>
       <r>   -5.3549    1.0000 </r>
       <r>   -5.3382    1.0000 </r>
       <r>   -5.3324    1.0000 </r>
       <r>   -5.2438    1.0000 </r>
       <r>   -5.2052    1.0000 </r>
       <r>   -5.1647    1.0000 </r>
       <r>   -5.1179    1.0000 </r>
       <r>   -5.0460    1.0000 </r>
       <r>   -3.8006    1.0000 </r>
       <r>   -3.6479    1.0000 </r>
       <r>   -1.4102    1.0000 </r>
       <r>   -1.3369    1.0000 </r>
       <r>   -1.0688    1.0000 </r>
       <r>   -1.0218    1.0000 </r>
       <r>   -0.5390    1.0000 </r>
       <r>   -0.5100    1.0000 </r>
       <r>   -0.4728    1.0000 </r>
       <r>   -0.4450    1.0000 </r>
       <r>   -0.1811    1.0000 </r>
       <r>   -0.1551    1.0000 </r>
       <r>   -0.1442    1.0000 </r>
       <r>   -0.1324    1.0000 </r>
       <r>    0.0539    1.0000 </r>
       <r>    0.1799    1.0000 </r>
       <r>    0.3422    1.0000 </r>
       <r>    0.4323    1.0000 </r>
       <r>    0.4871    1.0000 </r>
       <r>    0.5497    1.0000 </r>
       <r>    0.6065    1.0000 </r>
       <r>    0.6556    1.0000 </r>
       <r>    0.7210    1.0000 </r>
       <r>    0.7406    1.0000 </r>
       <r>    0.7437    1.0000 </r>
       <r>    0.7983    1.0000 </r>
       <r>    0.8446    1.0000 </r>
       <r>    0.8777    1.0000 </r>
       <r>    0.9631    1.0000 </r>
       <r>    0.9758    1.0000 </r>
       <r>    0.9896    1.0000 </r>
       <r>    1.0155    1.0000 </r>
       <r>    1.0519    1.0000 </r>
       <r>    1.1160    1.0000 </r>
       <r>    1.1702    1.0000 </r>
       <r>    1.2354    1.0000 </r>
       <r>    1.2729    1.0000 </r>
       <r>    1.3055    1.0000 </r>
       <r>    1.3370    1.0000 </r>
       <r>    1.4027    1.0000 </r>
       <r>    1.4352    1.0000 </r>
       <r>    1.4932    1.0000 </r>
       <r>    1.5060    1.0000 </r>
       <r>    1.5438    1.0000 </r>
       <r>    1.5812    1.0000 </r>
       <r>    1.6607    1.0000 </r>
       <r>    1.6779    1.0000 </r>
       <r>    1.7046    1.0000 </r>
       <r>    1.8290    1.0000 </r>
       <r>    1.8374    1.0000 </r>
       <r>    1.8836    1.0000 </r>
       <r>    1.9023    1.0000 </r>
       <r>    1.9212    1.0000 </r>
       <r>    2.0255    1.0000 </r>
       <r>    2.1071    1.0000 </r>
       <r>    2.1444    1.0000 </r>
       <r>    2.1668    1.0000 </r>
       <r>    2.2682    1.0000 </r>
       <r>    2.3308    1.0000 </r>
       <r>    2.3940    1.0000 </r>
       <r>    2.5296    1.0000 </r>
       <r>    2.5808    1.0000 </r>
       <r>    2.5830    1.0000 </r>
       <r>    2.5915    1.0000 </r>
       <r>    2.5954    1.0000 </r>
       <r>    2.6070    1.0000 </r>
       <r>    2.6268    1.0000 </r>
       <r>    2.6544    1.0000 </r>
       <r>    2.6882    1.0000 </r>
       <r>    2.6975    1.0000 </r>
       <r>    2.7272    1.0000 </r>
       <r>    2.7739    1.0000 </r>
       <r>    2.7916    1.0000 </r>
       <r>    2.8219    1.0000 </r>
       <r>    2.8713    1.0000 </r>
       <r>    2.9076    1.0000 </r>
       <r>    2.9195    1.0000 </r>
       <r>    2.9326    1.0000 </r>
       <r>    2.9647    1.0000 </r>
       <r>    2.9738    1.0000 </r>
       <r>    3.0774    1.0000 </r>
       <r>    3.1091    1.0000 </r>
       <r>    3.1347    1.0000 </r>
       <r>    3.1465    1.0000 </r>
       <r>    3.1570    1.0000 </r>
       <r>    3.1837    1.0000 </r>
       <r>    3.1871    1.0000 </r>
       <r>    3.2281    1.0000 </r>
       <r>    3.2514    1.0000 </r>
       <r>    3.3286    1.0000 </r>
       <r>    3.4353    1.0000 </r>
       <r>    3.4404    1.0000 </r>
       <r>    3.5107    1.0000 </r>
       <r>    3.5419    1.0000 </r>
       <r>    4.1990    1.0000 </r>
       <r>    4.2049    1.0000 </r>
       <r>    4.2220    1.0000 </r>
       <r>    4.2348    1.0000 </r>
       <r>    5.0921    0.0000 </r>
       <r>    5.1004    0.0000 </r>
       <r>    5.1314    0.0000 </r>
       <r>    5.1466    0.0000 </r>
       <r>    5.7638    0.0000 </r>
       <r>    5.7682    0.0000 </r>
       <r>    5.8046    0.0000 </r>
       <r>    5.8092    0.0000 </r>
       <r>    6.1086    0.0000 </r>
       <r>    6.1223    0.0000 </r>
       <r>    6.1346    0.0000 </r>
       <r>    6.1607    0.0000 </r>
       <r>    6.2387    0.0000 </r>
       <r>    6.2493    0.0000 </r>
       <r>    6.2740    0.0000 </r>
       <r>    6.2799    0.0000 </r>
       <r>    7.1482    0.0000 </r>
       <r>    7.1707    0.0000 </r>
       <r>    7.2727    0.0000 </r>
       <r>    7.2991    0.0000 </r>
       <r>    7.8112    0.0000 </r>
       <r>    7.8788    0.0000 </r>
       <r>    7.9297    0.0000 </r>
       <r>    7.9532    0.0000 </r>
       <r>    7.9965    0.0000 </r>
       <r>    8.0626    0.0000 </r>
       <r>    8.1438    0.0000 </r>
       <r>    8.1957    0.0000 </r>
       <r>    8.4577    0.0000 </r>
       <r>    8.5445    0.0000 </r>
       <r>    8.6806    0.0000 </r>
       <r>    8.7817    0.0000 </r>
       <r>    8.7958    0.0000 </r>
       <r>    8.9007    0.0000 </r>
       <r>    8.9403    0.0000 </r>
       <r>    8.9829    0.0000 </r>
       <r>    9.0166    0.0000 </r>
       <r>    9.0704    0.0000 </r>
       <r>    9.0883    0.0000 </r>
       <r>    9.1244    0.0000 </r>
       <r>    9.1277    0.0000 </r>
       <r>    9.1952    0.0000 </r>
       <r>    9.2160    0.0000 </r>
       <r>    9.2603    0.0000 </r>
       <r>    9.4430    0.0000 </r>
       <r>    9.5513    0.0000 </r>
      </set>
      <set comment="kpoint 2">
       <r>  -40.2642    1.0000 </r>
       <r>  -40.0230    1.0000 </r>
       <r>  -40.0093    1.0000 </r>
       <r>  -39.8834    1.0000 </r>
       <r>  -39.8412    1.0000 </r>
       <r>  -39.7554    1.0000 </r>
       <r>  -39.5633    1.0000 </r>
       <r>  -39.5567    1.0000 </r>
       <r>  -39.4509    1.0000 </r>
       <r>  -39.4052    1.0000 </r>
       <r>  -18.9268    1.0000 </r>
       <r>  -18.9176    1.0000 </r>
       <r>  -18.8560    1.0000 </r>
       <r>  -18.8491    1.0000 </r>
       <r>  -18.8481    1.0000 </r>
       <r>  -18.8410    1.0000 </r>
       <r>  -18.7526    1.0000 </r>
       <r>  -18.7477    1.0000 </r>
       <r>  -18.7400    1.0000 </r>
       <r>  -18.7266    1.0000 </r>
       <r>  -18.7098    1.0000 </r>
       <r>  -18.7092    1.0000 </r>
       <r>  -18.6998    1.0000 </r>
       <r>  -18.6994    1.0000 </r>
       <r>  -18.6917    1.0000 </r>
       <r>  -18.6904    1.0000 </r>
       <r>  -18.6492    1.0000 </r>
       <r>  -18.6488    1.0000 </r>
       <r>  -18.6440    1.0000 </r>
       <r>  -18.6412    1.0000 </r>
       <r>  -18.6405    1.0000 </r>
       <r>  -18.6403    1.0000 </r>
       <r>  -18.6397    1.0000 </r>
       <r>  -18.6393    1.0000 </r>
       <r>  -18.6388    1.0000 </r>
       <r>  -18.6382    1.0000 </r>
       <r>  -18.6363    1.0000 </r>
       <r>  -18.6347    1.0000 </r>
       <r>  -18.6332    1.0000 </r>
       <r>  -18.6331    1.0000 </r>
       <r>  -18.6327    1.0000 </r>
       <r>  -18.6319    1.0000 </r>
       <r>  -18.6292    1.0000 </r>
       <r>  -18.6281    1.0000 </r>
       <r>  -18.6266    1.0000 </r>
       <r>  -18.6243    1.0000 </r>
       <r>  -18.6232    1.0000 </r>
       <r>  -18.6205    1.0000 </r>
       <r>  -18.6191    1.0000 </r>
       <r>  -18.6166    1.0000 </r>
       <r>  -18.5695    1.0000 </r>
       <r>  -18.5596    1.0000 </r>
       <r>  -18.5554    1.0000 </r>
       <r>  -18.5518    1.0000 </r>
       <r>  -18.5492    1.0000 </r>
       <r>  -18.5475    1.0000 </r>
       <r>  -18.5463    1.0000 </r>
       <r>  -18.5379    1.0000 </r>
       <r>  -18.5355    1.0000 </r>
       <r>  -18.5348    1.0000 </r>
       <r>  -18.4942    1.0000 </r>
       <r>  -18.4894    1.0000 </r>
       <r>  -18.4883    1.0000 </r>
       <r>  -18.4860    1.0000 </r>
       <r>  -18.4847    1.0000 </r>
       <r>  -18.4816    1.0000 </r>
       <r>  -18.4811    1.0000 </r>
       <r>  -18.4801    1.0000 </r>
       <r>  -18.4781    1.0000 </r>
       <r>  -18.4757    1.0000 </r>
       <r>  -18.4753    1.0000 </r>
       <r>  -18.4740    1.0000 </r>
       <r>  -18.4732    1.0000 </r>
       <r>  -18.4716    1.0000 </r>
       <r>  -18.4704    1.0000 </r>
       <r>  -18.4645    1.0000 </r>
       <r>  -18.4108    1.0000 </r>
       <r>  -18.4016    1.0000 </r>
       <r>  -18.3992    1.0000 </r>
       <r>  -18.3918    1.0000 </r>
       <r>  -18.3880    1.0000 </r>
       <r>  -18.3840    1.0000 </r>
       <r>  -18.3788    1.0000 </r>
       <r>  -18.3750    1.0000 </r>
       <r>  -18.2995    1.0000 </r>
       <r>  -18.2953    1.0000 </r>
       <r>  -18.1843    1.0000 </r>
       <r>  -18.1805    1.0000 </r>
       <r>  -18.1712    1.0000 </r>
       <r>  -18.1667    1.0000 </r>
       <r>  -13.5611    1.0000 </r>
       <r>  -13.4555    1.0000 </r>
       <r>  -12.8826    1.0000 </r>
       <r>  -12.8045    1.0000 </r>
       <r>  -12.7890    1.0000 </r>
       <r>  -12.7614    1.0000 </r>
       <r>  -12.7265    1.0000 </r>
       <r>  -12.7128    1.0000 </r>
       <r>  -12.6741    1.0000 </r>
       <r>  -12.6570    1.0000 </r>
       <r>  -12.6505    1.0000 </r>
       <r>  -12.6233    1.0000 </r>
       <r>  -12.6120    1.0000 </r>
       <r>  -12.5566    1.0000 </r>
       <r>  -11.9614    1.0000 </r>
       <r>  -11.8972    1.0000 </r>
       <r>   -9.1163    1.0000 </r>
       <r>   -9.0984    1.0000 </r>
       <r>   -8.8424    1.0000 </r>
       <r>   -8.8220    1.0000 </r>
       <r>   -8.3190    1.0000 </r>
       <r>   -8.3144    1.0000 </r>
       <r>   -8.3073    1.0000 </r>
       <r>   -8.2998    1.0000 </r>
       <r>   -8.1305    1.0000 </r>
       <r>   -8.1267    1.0000 </r>
       <r>   -8.1211    1.0000 </r>
       <r>   -8.1146    1.0000 </r>
       <r>   -7.6824    1.0000 </r>
       <r>   -7.6804    1.0000 </r>
       <r>   -7.5719    1.0000 </r>
       <r>   -7.5709    1.0000 </r>
       <r>   -5.9719    1.0000 </r>
       <r>   -5.9333    1.0000 </r>
       <r>   -5.8871    1.0000 </r>
       <r>   -5.8816    1.0000 </r>
       <r>   -5.8401    1.0000 </r>
       <r>   -5.7642    1.0000 </r>
       <r>   -5.7379    1.0000 </r>
       <r>   -5.7311    1.0000 </r>
       <r>   -5.6346    1.0000 </r>
       <r>   -5.5846    1.0000 </r>
       <r>   -5.4959    1.0000 </r>
       <r>   -5.4806    1.0000 </r>
       <r>   -4.4229    1.0000 </r>
       <r>   -4.4094    1.0000 </r>
       <r>   -4.2559    1.0000 </r>
       <r>   -4.2403    1.0000 </r>
       <r>   -1.1538    1.0000 </r>
       <r>   -1.1090    1.0000 </r>
       <r>   -0.8063    1.0000 </r>
       <r>   -0.7913    1.0000 </r>
       <r>   -0.4655    1.0000 </r>
       <r>   -0.3194    1.0000 </r>
       <r>    0.0074    1.0000 </r>
       <r>    0.0475    1.0000 </r>
       <r>    0.0895    1.0000 </r>
       <r>    0.0969    1.0000 </r>
       <r>    0.1662    1.0000 </r>
       <r>    0.2156    1.0000 </r>
       <r>    0.2594    1.0000 </r>
       <r>    0.3065    1.0000 </r>
       <r>    0.3239    1.0000 </r>
       <r>    0.3407    1.0000 </r>
       <r>    0.5153    1.0000 </r>
       <r>    0.5573    1.0000 </r>
       <r>    0.5731    1.0000 </r>
       <r>    0.5837    1.0000 </r>
       <r>    0.6154    1.0000 </r>
       <r>    0.6435    1.0000 </r>
       <r>    0.6960    1.0000 </r>
       <r>    0.7339    1.0000 </r>
       <r>    0.7425    1.0000 </r>
       <r>    0.7914    1.0000 </r>
       <r>    0.9102    1.0000 </r>
       <r>    0.9197    1.0000 </r>
       <r>    0.9810    1.0000 </r>
       <r>    1.0117    1.0000 </r>
       <r>    1.0951    1.0000 </r>
       <r>    1.1395    1.0000 </r>
       <r>    1.1853    1.0000 </r>
       <r>    1.2501    1.0000 </r>
       <r>    1.2708    1.0000 </r>
       <r>    1.3018    1.0000 </r>
       <r>    1.3192    1.0000 </r>
       <r>    1.3596    1.0000 </r>
       <r>    1.4359    1.0000 </r>
       <r>    1.4422    1.0000 </r>
       <r>    1.4641    1.0000 </r>
       <r>    1.5043    1.0000 </r>
       <r>    1.5748    1.0000 </r>
       <r>    1.6076    1.0000 </r>
       <r>    1.6494    1.0000 </r>
       <r>    1.6983    1.0000 </r>
       <r>    1.7332    1.0000 </r>
       <r>    1.7918    1.0000 </r>
       <r>    1.8214    1.0000 </r>
       <r>    1.8572    1.0000 </r>
       <r>    1.9119    1.0000 </r>
       <r>    1.9235    1.0000 </r>
       <r>    2.0053    1.0000 </r>
       <r>    2.0286    1.0000 </r>
       <r>    2.0537    1.0000 </r>
       <r>    2.0978    1.0000 </r>
       <r>    2.1310    1.0000 </r>
       <r>    2.1733    1.0000 </r>
       <r>    2.1912    1.0000 </r>
       <r>    2.2714    1.0000 </r>
       <r>    2.3202    1.0000 </r>
       <r>    2.3360    1.0000 </r>
       <r>    2.3950    1.0000 </r>
       <r>    2.4475    1.0000 </r>
       <r>    2.5346    1.0000 </r>
       <r>    2.5471    1.0000 </r>
       <r>    2.6217    1.0000 </r>
       <r>    2.6273    1.0000 </r>
       <r>    2.6509    1.0000 </r>
       <r>    2.6770    1.0000 </r>
       <r>    2.6989    1.0000 </r>
       <r>    2.7328    1.0000 </r>
       <r>    2.7667    1.0000 </r>
       <r>    2.7787    1.0000 </r>
       <r>    2.8358    1.0000 </r>
       <r>    2.8684    1.0000 </r>
       <r>    2.8929    1.0000 </r>
       <r>    2.9108    1.0000 </r>
       <r>    2.9218    1.0000 </r>
       <r>    2.9406    1.0000 </r>
       <r>    3.0753    1.0000 </r>
       <r>    3.0882    1.0000 </r>
       <r>    3.1061    1.0000 </r>
       <r>    3.1249    1.0000 </r>
       <r>    3.1448    1.0000 </r>
       <r>    3.2011    1.0000 </r>
       <r>    3.2263    1.0000 </r>
       <r>    3.3345    1.0000 </r>
       <r>    3.4992    1.0000 </r>
       <r>    3.5185    1.0000 </r>
       <r>    3.5416    1.0000 </r>
       <r>    3.5579    1.0000 </r>
       <r>    3.5668    1.0000 </r>
       <r>    3.5851    1.0000 </r>
       <r>    3.6785    1.0000 </r>
       <r>    3.7498    1.0000 </r>
       <r>    5.6823    0.0000 </r>
       <r>    5.6904    0.0000 </r>
       <r>    5.6984    0.0000 </r>
       <r>    5.7040    0.0000 </r>
       <r>    5.7645    0.0000 </r>
       <r>    5.7704    0.0000 </r>
       <r>    5.7984    0.0000 </r>
       <r>    5.8048    0.0000 </r>
       <r>    7.2276    0.0000 </r>
       <r>    7.2462    0.0000 </r>
       <r>    7.3087    0.0000 </r>
       <r>    7.3396    0.0000 </r>
       <r>    7.4230    0.0000 </r>
       <r>    7.4257    0.0000 </r>
       <r>    7.4534    0.0000 </r>
       <r>    7.4733    0.0000 </r>
       <r>    7.4833    0.0000 </r>
       <r>    7.4880    0.0000 </r>
       <r>    7.5052    0.0000 </r>
       <r>    7.5227    0.0000 </r>
       <r>    7.8377    0.0000 </r>
       <r>    7.8602    0.0000 </r>
       <r>    7.8636    0.0000 </r>
       <r>    7.8735    0.0000 </r>
       <r>    7.8830    0.0000 </r>
       <r>    7.9024    0.0000 </r>
       <r>    7.9504    0.0000 </r>
       <r>    7.9818    0.0000 </r>
       <r>    8.0075    0.0000 </r>
       <r>    8.0259    0.0000 </r>
       <r>    8.1156    0.0000 </r>
       <r>    8.1224    0.0000 </r>
       <r>    8.3170    0.0000 </r>
       <r>    8.3607    0.0000 </r>
       <r>    8.4525    0.0000 </r>
       <r>    8.5508    0.0000 </r>
       <r>    8.6675    0.0000 </r>
       <r>    8.6851    0.0000 </r>
       <r>    8.7685    0.0000 </r>
       <r>    8.7742    0.0000 </r>
       <r>    8.8319    0.0000 </r>
       <r>    8.8424    0.0000 </r>
       <r>    8.9357    0.0000 </r>
       <r>    8.9408    0.0000 </r>
       <r>    9.2101    0.0000 </r>
       <r>    9.2226    0.0000 </r>
      </set>
      <set comment="kpoint 3">
       <r>  -40.2642    1.0000 </r>
       <r>  -40.0230    1.0000 </r>
       <r>  -40.0093    1.0000 </r>
       <r>  -39.8834    1.0000 </r>
       <r>  -39.8412    1.0000 </r>
       <r>  -39.7554    1.0000 </r>
       <r>  -39.5633    1.0000 </r>
       <r>  -39.5567    1.0000 </r>
       <r>  -39.4509    1.0000 </r>
       <r>  -39.4052    1.0000 </r>
       <r>  -18.9269    1.0000 </r>
       <r>  -18.9175    1.0000 </r>
       <r>  -18.8561    1.0000 </r>
       <r>  -18.8491    1.0000 </r>
       <r>  -18.8482    1.0000 </r>
       <r>  -18.8410    1.0000 </r>
       <r>  -18.7526    1.0000 </r>
       <r>  -18.7477    1.0000 </r>
       <r>  -18.7400    1.0000 </r>
       <r>  -18.7266    1.0000 </r>
       <r>  -18.7096    1.0000 </r>
       <r>  -18.7091    1.0000 </r>
       <r>  -18.6998    1.0000 </r>
       <r>  -18.6994    1.0000 </r>
       <r>  -18.6917    1.0000 </r>
       <r>  -18.6906    1.0000 </r>
       <r>  -18.6496    1.0000 </r>
       <r>  -18.6490    1.0000 </r>
       <r>  -18.6440    1.0000 </r>
       <r>  -18.6427    1.0000 </r>
       <r>  -18.6413    1.0000 </r>
       <r>  -18.6400    1.0000 </r>
       <r>  -18.6392    1.0000 </r>
       <r>  -18.6386    1.0000 </r>
       <r>  -18.6383    1.0000 </r>
       <r>  -18.6378    1.0000 </r>
       <r>  -18.6358    1.0000 </r>
       <r>  -18.6341    1.0000 </r>
       <r>  -18.6333    1.0000 </r>
       <r>  -18.6327    1.0000 </r>
       <r>  -18.6325    1.0000 </r>
       <r>  -18.6311    1.0000 </r>
       <r>  -18.6291    1.0000 </r>
       <r>  -18.6288    1.0000 </r>
       <r>  -18.6268    1.0000 </r>
       <r>  -18.6247    1.0000 </r>
       <r>  -18.6234    1.0000 </r>
       <r>  -18.6207    1.0000 </r>
       <r>  -18.6191    1.0000 </r>
       <r>  -18.6168    1.0000 </r>
       <r>  -18.5695    1.0000 </r>
       <r>  -18.5597    1.0000 </r>
       <r>  -18.5554    1.0000 </r>
       <r>  -18.5517    1.0000 </r>
       <r>  -18.5493    1.0000 </r>
       <r>  -18.5475    1.0000 </r>
       <r>  -18.5463    1.0000 </r>
       <r>  -18.5379    1.0000 </r>
       <r>  -18.5355    1.0000 </r>
       <r>  -18.5348    1.0000 </r>
       <r>  -18.4941    1.0000 </r>
       <r>  -18.4894    1.0000 </r>
       <r>  -18.4883    1.0000 </r>
       <r>  -18.4860    1.0000 </r>
       <r>  -18.4847    1.0000 </r>
       <r>  -18.4816    1.0000 </r>
       <r>  -18.4811    1.0000 </r>
       <r>  -18.4801    1.0000 </r>
       <r>  -18.4781    1.0000 </r>
       <r>  -18.4757    1.0000 </r>
       <r>  -18.4753    1.0000 </r>
       <r>  -18.4740    1.0000 </r>
       <r>  -18.4732    1.0000 </r>
       <r>  -18.4716    1.0000 </r>
       <r>  -18.4704    1.0000 </r>
       <r>  -18.4645    1.0000 </r>
       <r>  -18.4108    1.0000 </r>
       <r>  -18.4016    1.0000 </r>
       <r>  -18.3992    1.0000 </r>
       <r>  -18.3918    1.0000 </r>
       <r>  -18.3880    1.0000 </r>
       <r>  -18.3840    1.0000 </r>
       <r>  -18.3788    1.0000 </r>
       <r>  -18.3750    1.0000 </r>
       <r>  -18.2996    1.0000 </r>
       <r>  -18.2952    1.0000 </r>
       <r>  -18.1843    1.0000 </r>
       <r>  -18.1805    1.0000 </r>
       <r>  -18.1712    1.0000 </r>
       <r>  -18.1667    1.0000 </r>
       <r>  -13.5616    1.0000 </r>
       <r>  -13.4548    1.0000 </r>
       <r>  -12.8865    1.0000 </r>
       <r>  -12.8113    1.0000 </r>
       <r>  -12.7622    1.0000 </r>
       <r>  -12.7561    1.0000 </r>
       <r>  -12.7472    1.0000 </r>
       <r>  -12.6940    1.0000 </r>
       <r>  -12.6845    1.0000 </r>
       <r>  -12.6694    1.0000 </r>
       <r>  -12.6515    1.0000 </r>
       <r>  -12.6228    1.0000 </r>
       <r>  -12.6096    1.0000 </r>
       <r>  -12.5563    1.0000 </r>
       <r>  -11.9601    1.0000 </r>
       <r>  -11.8990    1.0000 </r>
       <r>   -9.3105    1.0000 </r>
       <r>   -9.0324    1.0000 </r>
       <r>   -8.5471    1.0000 </r>
       <r>   -8.5099    1.0000 </r>
       <r>   -8.4974    1.0000 </r>
       <r>   -8.4518    1.0000 </r>
       <r>   -8.2866    1.0000 </r>
       <r>   -8.2512    1.0000 </r>
       <r>   -8.2324    1.0000 </r>
       <r>   -8.1919    1.0000 </r>
       <r>   -8.0255    1.0000 </r>
       <r>   -8.0238    1.0000 </r>
       <r>   -7.9889    1.0000 </r>
       <r>   -7.9867    1.0000 </r>
       <r>   -7.3520    1.0000 </r>
       <r>   -7.3506    1.0000 </r>
       <r>   -6.3548    1.0000 </r>
       <r>   -6.3461    1.0000 </r>
       <r>   -6.3326    1.0000 </r>
       <r>   -6.3249    1.0000 </r>
       <r>   -5.5359    1.0000 </r>
       <r>   -5.4704    1.0000 </r>
       <r>   -5.3940    1.0000 </r>
       <r>   -5.3827    1.0000 </r>
       <r>   -5.3744    1.0000 </r>
       <r>   -5.2629    1.0000 </r>
       <r>   -5.1463    1.0000 </r>
       <r>   -5.1076    1.0000 </r>
       <r>   -5.0800    1.0000 </r>
       <r>   -4.9982    1.0000 </r>
       <r>   -3.8739    1.0000 </r>
       <r>   -3.5629    1.0000 </r>
       <r>   -1.3280    1.0000 </r>
       <r>   -1.2877    1.0000 </r>
       <r>   -1.1839    1.0000 </r>
       <r>   -1.0874    1.0000 </r>
       <r>   -0.4255    1.0000 </r>
       <r>   -0.4112    1.0000 </r>
       <r>   -0.3952    1.0000 </r>
       <r>   -0.3796    1.0000 </r>
       <r>   -0.3476    1.0000 </r>
       <r>   -0.3109    1.0000 </r>
       <r>   -0.2696    1.0000 </r>
       <r>   -0.2210    1.0000 </r>
       <r>   -0.0986    1.0000 </r>
       <r>   -0.0197    1.0000 </r>
       <r>    0.1637    1.0000 </r>
       <r>    0.2499    1.0000 </r>
       <r>    0.2701    1.0000 </r>
       <r>    0.3051    1.0000 </r>
       <r>    0.4090    1.0000 </r>
       <r>    0.4348    1.0000 </r>
       <r>    0.5376    1.0000 </r>
       <r>    0.6240    1.0000 </r>
       <r>    0.7289    1.0000 </r>
       <r>    0.7615    1.0000 </r>
       <r>    0.7716    1.0000 </r>
       <r>    0.8181    1.0000 </r>
       <r>    0.8244    1.0000 </r>
       <r>    0.8984    1.0000 </r>
       <r>    1.0088    1.0000 </r>
       <r>    1.1060    1.0000 </r>
       <r>    1.1421    1.0000 </r>
       <r>    1.2066    1.0000 </r>
       <r>    1.2744    1.0000 </r>
       <r>    1.3269    1.0000 </r>
       <r>    1.4033    1.0000 </r>
       <r>    1.5064    1.0000 </r>
       <r>    1.5349    1.0000 </r>
       <r>    1.6043    1.0000 </r>
       <r>    1.6277    1.0000 </r>
       <r>    1.6467    1.0000 </r>
       <r>    1.6835    1.0000 </r>
       <r>    1.7337    1.0000 </r>
       <r>    1.7775    1.0000 </r>
       <r>    1.7935    1.0000 </r>
       <r>    1.7992    1.0000 </r>
       <r>    1.8121    1.0000 </r>
       <r>    1.8842    1.0000 </r>
       <r>    1.9266    1.0000 </r>
       <r>    1.9461    1.0000 </r>
       <r>    1.9881    1.0000 </r>
       <r>    2.0321    1.0000 </r>
       <r>    2.1055    1.0000 </r>
       <r>    2.1465    1.0000 </r>
       <r>    2.1739    1.0000 </r>
       <r>    2.2392    1.0000 </r>
       <r>    2.3250    1.0000 </r>
       <r>    2.4608    1.0000 </r>
       <r>    2.5098    1.0000 </r>
       <r>    2.5216    1.0000 </r>
       <r>    2.5391    1.0000 </r>
       <r>    2.5632    1.0000 </r>
       <r>    2.5810    1.0000 </r>
       <r>    2.5870    1.0000 </r>
       <r>    2.5900    1.0000 </r>
       <r>    2.5947    1.0000 </r>
       <r>    2.6223    1.0000 </r>
       <r>    2.6433    1.0000 </r>
       <r>    2.6735    1.0000 </r>
       <r>    2.7482    1.0000 </r>
       <r>    2.7547    1.0000 </r>
       <r>    2.7986    1.0000 </r>
       <r>    2.8154    1.0000 </r>
       <r>    2.8368    1.0000 </r>
       <r>    2.8581    1.0000 </r>
       <r>    2.8816    1.0000 </r>
       <r>    2.9234    1.0000 </r>
       <r>    2.9591    1.0000 </r>
       <r>    2.9718    1.0000 </r>
       <r>    3.0012    1.0000 </r>
       <r>    3.0267    1.0000 </r>
       <r>    3.0715    1.0000 </r>
       <r>    3.0928    1.0000 </r>
       <r>    3.1317    1.0000 </r>
       <r>    3.2941    1.0000 </r>
       <r>    3.3336    1.0000 </r>
       <r>    3.3800    1.0000 </r>
       <r>    3.4107    1.0000 </r>
       <r>    3.4262    1.0000 </r>
       <r>    3.4724    1.0000 </r>
       <r>    3.4964    1.0000 </r>
       <r>    3.5228    1.0000 </r>
       <r>    3.5775    1.0000 </r>
       <r>    4.2477    1.0000 </r>
       <r>    4.2524    1.0000 </r>
       <r>    4.2749    1.0000 </r>
       <r>    4.2847    1.0000 </r>
       <r>    5.1648    0.0000 </r>
       <r>    5.1669    0.0000 </r>
       <r>    5.2036    0.0000 </r>
       <r>    5.2056    0.0000 </r>
       <r>    5.7706    0.0000 </r>
       <r>    5.7791    0.0000 </r>
       <r>    5.8119    0.0000 </r>
       <r>    5.8164    0.0000 </r>
       <r>    6.1631    0.0000 </r>
       <r>    6.1780    0.0000 </r>
       <r>    6.1930    0.0000 </r>
       <r>    6.2016    0.0000 </r>
       <r>    6.2527    0.0000 </r>
       <r>    6.2588    0.0000 </r>
       <r>    6.2825    0.0000 </r>
       <r>    6.2983    0.0000 </r>
       <r>    6.7880    0.0000 </r>
       <r>    6.8811    0.0000 </r>
       <r>    6.9868    0.0000 </r>
       <r>    7.0695    0.0000 </r>
       <r>    7.2399    0.0000 </r>
       <r>    7.4044    0.0000 </r>
       <r>    7.4461    0.0000 </r>
       <r>    7.5278    0.0000 </r>
       <r>    7.7511    0.0000 </r>
       <r>    7.8438    0.0000 </r>
       <r>    7.9400    0.0000 </r>
       <r>    7.9651    0.0000 </r>
       <r>    8.0312    0.0000 </r>
       <r>    8.3093    0.0000 </r>
       <r>    8.3429    0.0000 </r>
       <r>    8.4773    0.0000 </r>
       <r>    8.7156    0.0000 </r>
       <r>    8.7682    0.0000 </r>
       <r>    8.9474    0.0000 </r>
       <r>    8.9562    0.0000 </r>
       <r>    9.0237    0.0000 </r>
       <r>    9.0400    0.0000 </r>
       <r>    9.0463    0.0000 </r>
       <r>    9.1092    0.0000 </r>
       <r>    9.1452    0.0000 </r>
       <r>    9.1492    0.0000 </r>
       <r>    9.1764    0.0000 </r>
       <r>    9.2075    0.0000 </r>
       <r>    9.5054    0.0000 </r>
       <r>    9.7746    0.0000 </r>
      </set>
      <set comment="kpoint 4">
       <r>  -40.2642    1.0000 </r>
       <r>  -40.0230    1.0000 </r>
       <r>  -40.0093    1.0000 </r>
       <r>  -39.8834    1.0000 </r>
       <r>  -39.8412    1.0000 </r>
       <r>  -39.7554    1.0000 </r>
       <r>  -39.5633    1.0000 </r>
       <r>  -39.5567    1.0000 </r>
       <r>  -39.4509    1.0000 </r>
       <r>  -39.4052    1.0000 </r>
       <r>  -18.9269    1.0000 </r>
       <r>  -18.9175    1.0000 </r>
       <r>  -18.8560    1.0000 </r>
       <r>  -18.8491    1.0000 </r>
       <r>  -18.8481    1.0000 </r>
       <r>  -18.8410    1.0000 </r>
       <r>  -18.7526    1.0000 </r>
       <r>  -18.7477    1.0000 </r>
       <r>  -18.7400    1.0000 </r>
       <r>  -18.7266    1.0000 </r>
       <r>  -18.7098    1.0000 </r>
       <r>  -18.7092    1.0000 </r>
       <r>  -18.6998    1.0000 </r>
       <r>  -18.6994    1.0000 </r>
       <r>  -18.6916    1.0000 </r>
       <r>  -18.6905    1.0000 </r>
       <r>  -18.6492    1.0000 </r>
       <r>  -18.6488    1.0000 </r>
       <r>  -18.6440    1.0000 </r>
       <r>  -18.6411    1.0000 </r>
       <r>  -18.6405    1.0000 </r>
       <r>  -18.6403    1.0000 </r>
       <r>  -18.6397    1.0000 </r>
       <r>  -18.6392    1.0000 </r>
       <r>  -18.6388    1.0000 </r>
       <r>  -18.6382    1.0000 </r>
       <r>  -18.6364    1.0000 </r>
       <r>  -18.6347    1.0000 </r>
       <r>  -18.6333    1.0000 </r>
       <r>  -18.6330    1.0000 </r>
       <r>  -18.6327    1.0000 </r>
       <r>  -18.6319    1.0000 </r>
       <r>  -18.6292    1.0000 </r>
       <r>  -18.6282    1.0000 </r>
       <r>  -18.6266    1.0000 </r>
       <r>  -18.6244    1.0000 </r>
       <r>  -18.6231    1.0000 </r>
       <r>  -18.6206    1.0000 </r>
       <r>  -18.6190    1.0000 </r>
       <r>  -18.6166    1.0000 </r>
       <r>  -18.5695    1.0000 </r>
       <r>  -18.5596    1.0000 </r>
       <r>  -18.5554    1.0000 </r>
       <r>  -18.5517    1.0000 </r>
       <r>  -18.5493    1.0000 </r>
       <r>  -18.5475    1.0000 </r>
       <r>  -18.5463    1.0000 </r>
       <r>  -18.5378    1.0000 </r>
       <r>  -18.5355    1.0000 </r>
       <r>  -18.5348    1.0000 </r>
       <r>  -18.4941    1.0000 </r>
       <r>  -18.4894    1.0000 </r>
       <r>  -18.4883    1.0000 </r>
       <r>  -18.4860    1.0000 </r>
       <r>  -18.4847    1.0000 </r>
       <r>  -18.4816    1.0000 </r>
       <r>  -18.4811    1.0000 </r>
       <r>  -18.4801    1.0000 </r>
       <r>  -18.4781    1.0000 </r>
       <r>  -18.4757    1.0000 </r>
[...]
       <r>    8.8720    0.0000 </r>
       <r>    8.8910    0.0000 </r>
       <r>    8.9018    0.0000 </r>
       <r>    8.9105    0.0000 </r>
       <r>    8.9227    0.0000 </r>
      </set>
     </set>
    </set>
   </array>
  </eigenvalues>
  <separator name="orbital magnetization" >
   <v name="MAGDIPOLOUT">      0.00000000      0.00000000      0.00000000</v>
  </separator>
  <dos>
   <i name="efermi">      4.29533919 </i>
   <total>
    <array>
     <dimension dim="1">gridpoints</dimension>
     <dimension dim="2">spin</dimension>
     <field>energy</field>
     <field>total</field>
     <field>integrated</field>
     <set>
      <set comment="spin 1">
       <r>   -42.7662     0.0000     0.0000 </r>
       <r>   -42.5827     0.0000     0.0000 </r>
       <r>   -42.3992     0.0000     0.0000 </r>
       <r>   -42.2157     0.0000     0.0000 </r>
       <r>   -42.0323     0.0000     0.0000 </r>
       <r>   -41.8488     0.0000     0.0000 </r>
       <r>   -41.6653     0.0000     0.0000 </r>
       <r>   -41.4818     0.0000     0.0000 </r>
       <r>   -41.2984     0.0000     0.0000 </r>
       <r>   -41.1149     0.0000     0.0000 </r>
       <r>   -40.9314     0.0000     0.0000 </r>
       <r>   -40.7479     0.0000     0.0000 </r>
       <r>   -40.5645     0.0000     0.0000 </r>
       <r>   -40.3810     0.0000     0.0000 </r>
       <r>   -40.1975     0.0000     2.0000 </r>
       <r>   -40.0140     0.0000     4.0000 </r>
       <r>   -39.8306     0.0000    10.0000 </r>
       <r>   -39.6471     0.0000    12.0000 </r>
       <r>   -39.4636     0.0000    16.0000 </r>
       <r>   -39.2801     0.0000    20.0000 </r>
       <r>   -39.0967     0.0000    20.0000 </r>
       <r>   -38.9132     0.0000    20.0000 </r>
       <r>   -38.7297     0.0000    20.0000 </r>
       <r>   -38.5462     0.0000    20.0000 </r>
       <r>   -38.3627     0.0000    20.0000 </r>
       <r>   -38.1793     0.0000    20.0000 </r>
       <r>   -37.9958     0.0000    20.0000 </r>
       <r>   -37.8123     0.0000    20.0000 </r>
       <r>   -37.6288     0.0000    20.0000 </r>
       <r>   -37.4454     0.0000    20.0000 </r>
       <r>   -37.2619     0.0000    20.0000 </r>
       <r>   -37.0784     0.0000    20.0000 </r>
       <r>   -36.8949     0.0000    20.0000 </r>
       <r>   -36.7115     0.0000    20.0000 </r>
       <r>   -36.5280     0.0000    20.0000 </r>
       <r>   -36.3445     0.0000    20.0000 </r>
       <r>   -36.1610     0.0000    20.0000 </r>
       <r>   -35.9776     0.0000    20.0000 </r>
       <r>   -35.7941     0.0000    20.0000 </r>
       <r>   -35.6106     0.0000    20.0000 </r>
       <r>   -35.4271     0.0000    20.0000 </r>
       <r>   -35.2437     0.0000    20.0000 </r>
       <r>   -35.0602     0.0000    20.0000 </r>
       <r>   -34.8767     0.0000    20.0000 </r>
       <r>   -34.6932     0.0000    20.0000 </r>
       <r>   -34.5098     0.0000    20.0000 </r>
       <r>   -34.3263     0.0000    20.0000 </r>
       <r>   -34.1428     0.0000    20.0000 </r>
       <r>   -33.9593     0.0000    20.0000 </r>
       <r>   -33.7759     0.0000    20.0000 </r>
       <r>   -33.5924     0.0000    20.0000 </r>
       <r>   -33.4089     0.0000    20.0000 </r>
       <r>   -33.2254     0.0000    20.0000 </r>
       <r>   -33.0420     0.0000    20.0000 </r>
       <r>   -32.8585     0.0000    20.0000 </r>
       <r>   -32.6750     0.0000    20.0000 </r>
       <r>   -32.4915     0.0000    20.0000 </r>
       <r>   -32.3081     0.0000    20.0000 </r>
       <r>   -32.1246     0.0000    20.0000 </r>
       <r>   -31.9411     0.0000    20.0000 </r>
       <r>   -31.7576     0.0000    20.0000 </r>
       <r>   -31.5742     0.0000    20.0000 </r>
       <r>   -31.3907     0.0000    20.0000 </r>
       <r>   -31.2072     0.0000    20.0000 </r>
       <r>   -31.0237     0.0000    20.0000 </r>
       <r>   -30.8402     0.0000    20.0000 </r>
       <r>   -30.6568     0.0000    20.0000 </r>
       <r>   -30.4733     0.0000    20.0000 </r>
       <r>   -30.2898     0.0000    20.0000 </r>
       <r>   -30.1063     0.0000    20.0000 </r>
       <r>   -29.9229     0.0000    20.0000 </r>
       <r>   -29.7394     0.0000    20.0000 </r>
       <r>   -29.5559     0.0000    20.0000 </r>
       <r>   -29.3724     0.0000    20.0000 </r>
       <r>   -29.1890     0.0000    20.0000 </r>
       <r>   -29.0055     0.0000    20.0000 </r>
       <r>   -28.8220     0.0000    20.0000 </r>
       <r>   -28.6385     0.0000    20.0000 </r>
       <r>   -28.4551     0.0000    20.0000 </r>
       <r>   -28.2716     0.0000    20.0000 </r>
       <r>   -28.0881     0.0000    20.0000 </r>
       <r>   -27.9046     0.0000    20.0000 </r>
       <r>   -27.7212     0.0000    20.0000 </r>
       <r>   -27.5377     0.0000    20.0000 </r>
       <r>   -27.3542     0.0000    20.0000 </r>
       <r>   -27.1707     0.0000    20.0000 </r>
       <r>   -26.9873     0.0000    20.0000 </r>
       <r>   -26.8038     0.0000    20.0000 </r>
       <r>   -26.6203     0.0000    20.0000 </r>
       <r>   -26.4368     0.0000    20.0000 </r>
       <r>   -26.2534     0.0000    20.0000 </r>
       <r>   -26.0699     0.0000    20.0000 </r>
       <r>   -25.8864     0.0000    20.0000 </r>
       <r>   -25.7029     0.0000    20.0000 </r>
       <r>   -25.5195     0.0000    20.0000 </r>
       <r>   -25.3360     0.0000    20.0000 </r>
       <r>   -25.1525     0.0000    20.0000 </r>
       <r>   -24.9690     0.0000    20.0000 </r>
       <r>   -24.7856     0.0000    20.0000 </r>
       <r>   -24.6021     0.0000    20.0000 </r>
       <r>   -24.4186     0.0000    20.0000 </r>
       <r>   -24.2351     0.0000    20.0000 </r>
       <r>   -24.0516     0.0000    20.0000 </r>
       <r>   -23.8682     0.0000    20.0000 </r>
       <r>   -23.6847     0.0000    20.0000 </r>
       <r>   -23.5012     0.0000    20.0000 </r>
       <r>   -23.3177     0.0000    20.0000 </r>
       <r>   -23.1343     0.0000    20.0000 </r>
       <r>   -22.9508     0.0000    20.0000 </r>
       <r>   -22.7673     0.0000    20.0000 </r>
       <r>   -22.5838     0.0000    20.0000 </r>
       <r>   -22.4004     0.0000    20.0000 </r>
       <r>   -22.2169     0.0000    20.0000 </r>
       <r>   -22.0334     0.0000    20.0000 </r>
       <r>   -21.8499     0.0000    20.0000 </r>
       <r>   -21.6665     0.0000    20.0000 </r>
       <r>   -21.4830     0.0000    20.0000 </r>
       <r>   -21.2995     0.0000    20.0000 </r>
       <r>   -21.1160     0.0000    20.0000 </r>
       <r>   -20.9326     0.0000    20.0000 </r>
       <r>   -20.7491     0.0000    20.0000 </r>
       <r>   -20.5656     0.0000    20.0000 </r>
       <r>   -20.3821     0.0000    20.0000 </r>
       <r>   -20.1987     0.0000    20.0000 </r>
       <r>   -20.0152     0.0000    20.0000 </r>
       <r>   -19.8317     0.0000    20.0000 </r>
       <r>   -19.6482     0.0000    20.0000 </r>
       <r>   -19.4648     0.0000    20.0000 </r>
       <r>   -19.2813     0.0000    20.0000 </r>
       <r>   -19.0978     0.0000    20.0000 </r>
       <r>   -18.9143     0.0000    24.0000 </r>
       <r>   -18.7309     0.0000    38.0000 </r>
       <r>   -18.5474     0.0000   112.0000 </r>
       <r>   -18.3639     0.0000   168.0000 </r>
       <r>   -18.1804     0.0000   176.0000 </r>
       <r>   -17.9970     0.0000   180.0000 </r>
       <r>   -17.8135     0.0000   180.0000 </r>
       <r>   -17.6300     0.0000   180.0000 </r>
       <r>   -17.4465     0.0000   180.0000 </r>
       <r>   -17.2630     0.0000   180.0000 </r>
       <r>   -17.0796     0.0000   180.0000 </r>
       <r>   -16.8961     0.0000   180.0000 </r>
       <r>   -16.7126     0.0000   180.0000 </r>
       <r>   -16.5291     0.0000   180.0000 </r>
       <r>   -16.3457     0.0000   180.0000 </r>
       <r>   -16.1622     0.0000   180.0000 </r>
       <r>   -15.9787     0.0000   180.0000 </r>
       <r>   -15.7952     0.0000   180.0000 </r>
       <r>   -15.6118     0.0000   180.0000 </r>
       <r>   -15.4283     0.0000   180.0000 </r>
       <r>   -15.2448     0.0000   180.0000 </r>
       <r>   -15.0613     0.0000   180.0000 </r>
       <r>   -14.8779     0.0000   180.0000 </r>
       <r>   -14.6944     0.0000   180.0000 </r>
       <r>   -14.5109     0.0000   180.0000 </r>
       <r>   -14.3274     0.0000   180.0000 </r>
       <r>   -14.1440     0.0000   180.0000 </r>
       <r>   -13.9605     0.0000   180.0000 </r>
       <r>   -13.7770     0.0000   180.0000 </r>
       <r>   -13.5935     0.0000   180.0000 </r>
       <r>   -13.4101     0.0000   184.0000 </r>
       <r>   -13.2266     0.0000   184.0000 </r>
       <r>   -13.0431     0.0000   184.0000 </r>
       <r>   -12.8596     0.0000   186.0000 </r>
       <r>   -12.6762   205.1856   197.5470 </r>
       <r>   -12.4927     0.0000   208.0000 </r>
       <r>   -12.3092     0.0000   208.0000 </r>
       <r>   -12.1257     0.0000   208.0000 </r>
       <r>   -11.9423     0.0000   210.0000 </r>
       <r>   -11.7588     0.0000   212.0000 </r>
       <r>   -11.5753     0.0000   212.0000 </r>
       <r>   -11.3918     0.0000   212.0000 </r>
       <r>   -11.2084     0.0000   212.0000 </r>
       <r>   -11.0249     0.0000   212.0000 </r>
       <r>   -10.8414     0.0000   212.0000 </r>
       <r>   -10.6579     0.0000   212.0000 </r>
       <r>   -10.4745     0.0000   212.0000 </r>
       <r>   -10.2910     0.0000   212.0000 </r>
       <r>   -10.1075     0.0000   212.0000 </r>
       <r>    -9.9240     0.0000   212.0000 </r>
       <r>    -9.7405     0.0000   212.0000 </r>
       <r>    -9.5571     0.0000   212.0000 </r>
       <r>    -9.3736     0.0000   212.0000 </r>
       <r>    -9.1901     9.4611   212.5926 </r>
       <r>    -9.0066    20.3648   215.3670 </r>
       <r>    -8.8232     8.3185   216.8166 </r>
       <r>    -8.6397    12.3744   219.6369 </r>
       <r>    -8.4562    24.5484   222.4473 </r>
       <r>    -8.2727    27.0763   227.6907 </r>
       <r>    -8.0893    21.4525   230.2191 </r>
       <r>    -7.9058    20.5139   235.1876 </r>
       <r>    -7.7223    20.6284   238.4314 </r>
       <r>    -7.5388    20.8028   241.9829 </r>
       <r>    -7.3554     0.6353   243.9982 </r>
       <r>    -7.1719     0.0000   244.0000 </r>
       <r>    -6.9884     0.0000   244.0000 </r>
       <r>    -6.8049     0.0000   244.0000 </r>
       <r>    -6.6215     0.0000   244.0000 </r>
       <r>    -6.4380     0.0000   244.0000 </r>
       <r>    -6.2545     9.2603   244.4373 </r>
       <r>    -6.0710    26.8587   247.7949 </r>
       <r>    -5.8876    21.6161   251.8890 </r>
       <r>    -5.7041    27.9557   256.2391 </r>
       <r>    -5.5206    19.0037   260.4411 </r>
       <r>    -5.3371    19.4417   264.2888 </r>
       <r>    -5.1537    10.3884   267.1747 </r>
       <r>    -4.9702     3.9573   268.1973 </r>
       <r>    -4.7867     7.6175   269.4123 </r>
       <r>    -4.6032     9.7221   270.9587 </r>
       <r>    -4.4198     7.3393   272.6832 </r>
       <r>    -4.2363     7.2673   273.8766 </r>
       <r>    -4.0528     5.2597   275.0939 </r>
       <r>    -3.8693     2.0599   275.7643 </r>
       <r>    -3.6859     0.5213   275.9771 </r>
       <r>    -3.5024     0.0000   276.0000 </r>
       <r>    -3.3189     0.0000   276.0000 </r>
       <r>    -3.1354     0.0000   276.0000 </r>
       <r>    -2.9519     0.0000   276.0000 </r>
       <r>    -2.7685     0.0000   276.0000 </r>
       <r>    -2.5850     0.0000   276.0000 </r>
       <r>    -2.4015     0.0000   276.0000 </r>
       <r>    -2.2180     0.0000   276.0000 </r>
       <r>    -2.0346     0.0000   276.0000 </r>
       <r>    -1.8511     0.0000   276.0000 </r>
       <r>    -1.6676     0.0000   276.0000 </r>
       <r>    -1.4841     0.0000   276.0000 </r>
       <r>    -1.3007     2.5971   276.0917 </r>
       <r>    -1.1172     9.3534   277.3455 </r>
       <r>    -0.9337    13.2810   279.3910 </r>
       <r>    -0.7502     9.9508   281.6361 </r>
       <r>    -0.5668     5.5257   283.0378 </r>
       <r>    -0.3833    16.7448   284.9671 </r>
       <r>    -0.1998    24.7980   288.8429 </r>
       <r>    -0.0163    40.4179   295.0166 </r>
       <r>     0.1671    29.2778   301.5905 </r>
       <r>     0.3506    45.6349   308.0623 </r>
       <r>     0.5341    35.2844   315.2711 </r>
       <r>     0.7176    37.1259   322.3450 </r>
       <r>     0.9010    36.5145   328.1678 </r>
       <r>     1.0845    48.0122   335.8621 </r>
       <r>     1.2680    45.5734   344.1447 </r>
       <r>     1.4515    48.5860   352.3760 </r>
       <r>     1.6349    48.1456   362.1261 </r>
       <r>     1.8184    52.0241   371.3219 </r>
       <r>     2.0019    34.9403   380.1302 </r>
       <r>     2.1854    41.6091   388.2803 </r>
       <r>     2.3688    47.1053   395.5257 </r>
       <r>     2.5523    73.3641   406.1738 </r>
       <r>     2.7358    67.7463   418.3600 </r>
       <r>     2.9193    75.8029   430.5702 </r>
       <r>     3.1027    64.9105   442.8283 </r>
       <r>     3.2862    31.8486   450.8427 </r>
       <r>     3.4697    45.5297   456.7958 </r>
       <r>     3.6532    16.6460   462.5510 </r>
       <r>     3.8367    12.0832   465.5395 </r>
       <r>     4.0201     6.6275   467.2561 </r>
       <r>     4.2036     1.1646   467.9709 </r>
       <r>     4.3871     0.0000   468.0000 </r>
       <r>     4.5706     0.0000   468.0000 </r>
       <r>     4.7540     0.0000   468.0000 </r>
       <r>     4.9375     0.0000   468.0000 </r>
       <r>     5.1210     0.0523   468.0005 </r>
       <r>     5.3045     3.3511   468.2679 </r>
       <r>     5.4879     7.3333   469.2479 </r>
       <r>     5.6714     9.2915   470.8820 </r>
       <r>     5.8549    23.9567   474.2965 </r>
       <r>     6.0384    13.0105   477.2390 </r>
       <r>     6.2218    11.5010   479.4425 </r>
       <r>     6.4053    12.8013   481.6434 </r>
       <r>     6.5888    14.5167   484.1498 </r>
       <r>     6.7723    16.2233   486.9694 </r>
       <r>     6.9557    18.3785   490.1236 </r>
       <r>     7.1392    24.5255   493.9272 </r>
       <r>     7.3227    37.8863   499.6327 </r>
       <r>     7.5062    33.9421   507.4303 </r>
       <r>     7.6896    30.4627   512.1752 </r>
       <r>     7.8731    42.2710   520.0227 </r>
       <r>     8.0566    33.9570   528.2538 </r>
       <r>     8.2401    20.3059   532.8352 </r>
       <r>     8.4235    19.1164   536.3028 </r>
       <r>     8.6070    25.3475   540.3108 </r>
       <r>     8.7905    31.5349   545.2124 </r>
       <r>     8.9740    35.7418   553.2341 </r>
       <r>     9.1574    13.7906   557.7386 </r>
       <r>     9.3409     5.5190   559.3200 </r>
       <r>     9.5244     1.3238   559.8888 </r>
       <r>     9.7079     0.0949   559.9979 </r>
       <r>     9.8913     0.0000   560.0000 </r>
       <r>    10.0748     0.0000   560.0000 </r>
       <r>    10.2583     0.0000   560.0000 </r>
       <r>    10.4418     0.0000   560.0000 </r>
       <r>    10.6252     0.0000   560.0000 </r>
       <r>    10.8087     0.0000   560.0000 </r>
       <r>    10.9922     0.0000   560.0000 </r>
       <r>    11.1757     0.0000   560.0000 </r>
       <r>    11.3592     0.0000   560.0000 </r>
       <r>    11.5426     0.0000   560.0000 </r>
       <r>    11.7261     0.0000   560.0000 </r>
       <r>    11.9096     0.0000   560.0000 </r>
       <r>    12.0931     0.0000   560.0000 </r>
       <r>    12.2765     0.0000   560.0000 </r>
      </set>
     </set>
    </array>
   </total>
  </dos>
 </calculation>
 <structure name="finalpos" >
  <crystal>
   <varray name="basis" >
    <v>      11.17850000       0.00000000       0.00000000 </v>
    <v>       0.00000000       9.57460000       0.00000000 </v>
    <v>       0.00000000       0.00000000      11.18240000 </v>
   </varray>
   <i name="volume">   1196.84853820 </i>
   <varray name="rec_basis" >
    <v>       0.08945744       0.00000000       0.00000000 </v>
    <v>       0.00000000       0.10444301       0.00000000 </v>
    <v>       0.00000000       0.00000000       0.08942624 </v>
   </varray>
  </crystal>
  <varray name="positions" >
   <v>       0.37539000       0.00017000       0.43687000 </v>
   <v>       0.12461000       0.99984000       0.18687000 </v>
   <v>       0.62539000       0.99984000       0.43687000 </v>
   <v>       0.87539000       0.00017000       0.43687000 </v>
   <v>       0.87461000       0.00017000       0.18687000 </v>
   <v>       0.37539000       0.00017000       0.93687000 </v>
   <v>       0.37461000       0.00017000       0.68687000 </v>
   <v>       0.62539000       0.99984000       0.93687000 </v>
   <v>       0.62461000       0.99984000       0.68687000 </v>
   <v>       0.87461000       0.00017000       0.68687000 </v>
   <v>       0.37461000       0.00017000       0.18687000 </v>
   <v>       0.12461000       0.99984000       0.68687000 </v>
   <v>       0.87539000       0.00017000       0.93687000 </v>
   <v>       0.00013000       0.29519000       0.06281000 </v>
   <v>       0.25013000       0.70481000       0.06281000 </v>
   <v>       0.24987000       0.29519000       0.31282000 </v>
   <v>       0.49987000       0.70481000       0.31282000 </v>
   <v>       0.50013000       0.29519000       0.06281000 </v>
   <v>       0.75013000       0.70481000       0.06281000 </v>
   <v>       0.74987000       0.29519000       0.31282000 </v>
   <v>       0.99987000       0.70481000       0.31282000 </v>
   <v>       0.00013000       0.29519000       0.56281000 </v>
   <v>       0.25013000       0.70481000       0.56281000 </v>
   <v>       0.24987000       0.29519000       0.81282000 </v>
   <v>       0.49987000       0.70481000       0.81282000 </v>
   <v>       0.50013000       0.29519000       0.56281000 </v>
   <v>       0.75013000       0.70481000       0.56281000 </v>
   <v>       0.74987000       0.29519000       0.81282000 </v>
   <v>       0.99987000       0.70481000       0.81282000 </v>
   <v>       0.25005000       0.32677000       0.06286000 </v>
   <v>       0.00005000       0.67323000       0.06286000 </v>
   <v>       0.49995000       0.32677000       0.31286000 </v>
   <v>       0.24995000       0.67323000       0.31286000 </v>
   <v>       0.75005000       0.32677000       0.06286000 </v>
   <v>       0.50005000       0.67323000       0.06286000 </v>
   <v>       0.99995000       0.32677000       0.31286000 </v>
   <v>       0.74995000       0.67323000       0.31286000 </v>
   <v>       0.25005000       0.32677000       0.56286000 </v>
   <v>       0.00005000       0.67323000       0.56286000 </v>
   <v>       0.49995000       0.32677000       0.81286000 </v>
   <v>       0.24995000       0.67323000       0.81286000 </v>
   <v>       0.75005000       0.32677000       0.56286000 </v>
   <v>       0.50005000       0.67323000       0.56286000 </v>
   <v>       0.99995000       0.32677000       0.81286000 </v>
   <v>       0.74995000       0.67323000       0.81286000 </v>
   <v>       0.49987000       0.07798000       0.06246000 </v>
   <v>       0.24987000       0.92202000       0.06246000 </v>
   <v>       0.25013000       0.07798000       0.31246000 </v>
   <v>       0.00013000       0.92202000       0.31246000 </v>
   <v>       0.99987000       0.07798000       0.06246000 </v>
   <v>       0.74987000       0.92202000       0.06246000 </v>
   <v>       0.75013000       0.07798000       0.31246000 </v>
   <v>       0.50013000       0.92202000       0.31246000 </v>
   <v>       0.49987000       0.07798000       0.56246000 </v>
   <v>       0.24987000       0.92202000       0.56246000 </v>
   <v>       0.25013000       0.07798000       0.81246000 </v>
   <v>       0.00013000       0.92202000       0.81246000 </v>
   <v>       0.99987000       0.07798000       0.56246000 </v>
   <v>       0.74987000       0.92202000       0.56246000 </v>
   <v>       0.75013000       0.07798000       0.81246000 </v>
   <v>       0.50013000       0.92202000       0.81246000 </v>
  </varray>
 </structure>
</modeling>
