<?xml version="1.0" encoding="ISO-8859-1"?>
<modeling>
 <generator>
  <i name="program" type="string">vasp </i>
  <i name="version" type="string">5.4.4.18Apr17-6-g9f103f2a35  </i>
  <i name="subversion" type="string">(build Jul 31 2017 11:33:29) complex            parallel </i>
  <i name="platform" type="string">LinuxIFC </i>
  <i name="date" type="string">2021 09 29 </i>
  <i name="time" type="string">02:02:38 </i>
 </generator>
 <incar>
  <i type="string" name="SYSTEM"> La2O2S</i>
  <i type="string" name="PREC">normal</i>
  <i type="int" name="NELMIN">     4</i>
  <i type="int" name="IBRION">     2</i>
  <i type="int" name="NFREE">    10</i>
  <i name="EDIFF">      0.00000100</i>
  <i name="EDIFFG">     -0.01000000</i>
  <i type="int" name="NSW">     1</i>
  <i type="int" name="ISIF">     2</i>
  <i name="ENCUT">    600.00000000</i>
  <i name="ENAUG">    900.00000000</i>
  <i type="int" name="ISMEAR">    -5</i>
  <i type="logical" name="LWAVE"> F  </i>
  <i type="logical" name="LCHARG"> F  </i>
  <v type="int" name="KPOINT_BSE">    -1     0     0     0</v>
 </incar>
 <structure name="primitive_cell" >
  <crystal>
   <varray name="basis" >
    <v>      11.17850000       0.00000000       0.00000000 </v>
    <v>       0.00000000       9.57460000       0.00000000 </v>
    <v>       0.00000000       0.00000000      11.18240000 </v>
   </varray>
   <i name="volume">   1196.84853820 </i>
   <varray name="rec_basis" >
    <v>       0.08945744       0.00000000       0.00000000 </v>
    <v>       0.00000000       0.10444301       0.00000000 </v>
    <v>       0.00000000       0.00000000       0.08942624 </v>
   </varray>
  </crystal>
  <varray name="positions" >
   <v>       0.37539000       0.00017000       0.43687000 </v>
   <v>      -0.49987000      -0.07798000       0.31246000 </v>
   <v>       0.25013000       0.07798000       0.31246000 </v>
   <v>       0.49987000       0.07798000      -0.43754000 </v>
   <v>       0.24987000      -0.07798000      -0.43754000 </v>
   <v>      -0.37461000      -0.00016000       0.43687000 </v>
   <v>       0.37461000       0.00017000       0.18687000 </v>
   <v>       0.37461000       0.00017000      -0.31313000 </v>
   <v>       0.49987000      -0.29519000       0.31282000 </v>
   <v>       0.24987000       0.29519000       0.31282000 </v>
   <v>      -0.49987000       0.29519000      -0.43719000 </v>
   <v>       0.25013000      -0.29519000      -0.43719000 </v>
   <v>       0.49995000       0.32677000       0.31286000 </v>
   <v>       0.24995000      -0.32677000       0.31286000 </v>
   <v>      -0.49995000      -0.32677000      -0.43714000 </v>
   <v>       0.25005000       0.32677000      -0.43714000 </v>
   <v>      -0.37539000      -0.00016000       0.18687000 </v>
   <v>      -0.37539000      -0.00016000      -0.31313000 </v>
   <v>       0.12461000      -0.00016000       0.18687000 </v>
   <v>       0.12461000      -0.00016000      -0.31313000 </v>
   <v>       0.49987000       0.07798000       0.06246000 </v>
   <v>      -0.24987000       0.07798000       0.31246000 </v>
   <v>      -0.25013000      -0.07798000      -0.43754000 </v>
   <v>       0.24987000      -0.07798000       0.06246000 </v>
   <v>       0.00013000      -0.07798000       0.31246000 </v>
   <v>      -0.49987000      -0.07798000      -0.18754000 </v>
   <v>      -0.00013000       0.07798000      -0.43754000 </v>
   <v>       0.25013000       0.07798000      -0.18754000 </v>
   <v>      -0.49987000       0.29519000       0.06281000 </v>
   <v>      -0.25013000       0.29519000       0.31282000 </v>
   <v>       0.25013000      -0.29519000       0.06281000 </v>
   <v>      -0.24987000      -0.29519000      -0.43719000 </v>
   <v>      -0.00013000      -0.29519000       0.31282000 </v>
   <v>       0.00013000       0.29519000      -0.43719000 </v>
   <v>       0.49987000      -0.29519000      -0.18718000 </v>
   <v>       0.24987000       0.29519000      -0.18718000 </v>
   <v>      -0.49995000      -0.32677000       0.06286000 </v>
   <v>       0.25005000       0.32677000       0.06286000 </v>
   <v>      -0.25005000      -0.32677000       0.31286000 </v>
   <v>      -0.24995000       0.32677000      -0.43714000 </v>
   <v>      -0.00005000       0.32677000       0.31286000 </v>
   <v>       0.00005000      -0.32677000      -0.43714000 </v>
   <v>       0.49995000       0.32677000      -0.18714000 </v>
   <v>       0.24995000      -0.32677000      -0.18714000 </v>
   <v>      -0.12461000       0.00017000       0.43687000 </v>
   <v>      -0.25013000      -0.07798000       0.06246000 </v>
   <v>      -0.00013000       0.07798000       0.06246000 </v>
   <v>      -0.24987000       0.07798000      -0.18754000 </v>
   <v>       0.00013000      -0.07798000      -0.18754000 </v>
   <v>      -0.12539000       0.00017000       0.18687000 </v>
   <v>       0.12539000      -0.00016000      -0.06313000 </v>
   <v>      -0.37461000      -0.00016000      -0.06313000 </v>
   <v>      -0.24987000      -0.29519000       0.06281000 </v>
   <v>       0.00013000       0.29519000       0.06281000 </v>
   <v>      -0.25013000       0.29519000      -0.18718000 </v>
   <v>      -0.00013000      -0.29519000      -0.18718000 </v>
   <v>      -0.24995000       0.32677000       0.06286000 </v>
   <v>       0.00005000      -0.32677000       0.06286000 </v>
   <v>      -0.25005000      -0.32677000      -0.18714000 </v>
   <v>      -0.00005000       0.32677000      -0.18714000 </v>
   <v>      -0.12461000       0.00017000      -0.06313000 </v>
  </varray>
 </structure>
 <varray name="primitive_index" >
  <v type="int" >        1 </v>
  <v type="int" >       53 </v>
  <v type="int" >       48 </v>
  <v type="int" >       54 </v>
  <v type="int" >       55 </v>
  <v type="int" >        4 </v>
  <v type="int" >        3 </v>
  <v type="int" >        8 </v>
  <v type="int" >       17 </v>
  <v type="int" >       16 </v>
  <v type="int" >       26 </v>
  <v type="int" >       23 </v>
  <v type="int" >       32 </v>
  <v type="int" >       33 </v>
  <v type="int" >       43 </v>
  <v type="int" >       38 </v>
  <v type="int" >        5 </v>
  <v type="int" >       10 </v>
  <v type="int" >        2 </v>
  <v type="int" >       12 </v>
  <v type="int" >       46 </v>
  <v type="int" >       52 </v>
  <v type="int" >       59 </v>
  <v type="int" >       47 </v>
  <v type="int" >       49 </v>
  <v type="int" >       61 </v>
  <v type="int" >       58 </v>
  <v type="int" >       56 </v>
  <v type="int" >       18 </v>
  <v type="int" >       20 </v>
  <v type="int" >       15 </v>
  <v type="int" >       27 </v>
  <v type="int" >       21 </v>
  <v type="int" >       22 </v>
  <v type="int" >       25 </v>
  <v type="int" >       24 </v>
  <v type="int" >       35 </v>
  <v type="int" >       30 </v>
  <v type="int" >       37 </v>
  <v type="int" >       42 </v>
  <v type="int" >       36 </v>
  <v type="int" >       39 </v>
  <v type="int" >       40 </v>
  <v type="int" >       41 </v>
  <v type="int" >       11 </v>
  <v type="int" >       51 </v>
  <v type="int" >       50 </v>
  <v type="int" >       60 </v>
  <v type="int" >       57 </v>
  <v type="int" >        6 </v>
  <v type="int" >        7 </v>
  <v type="int" >       13 </v>
  <v type="int" >       19 </v>
  <v type="int" >       14 </v>
  <v type="int" >       28 </v>
  <v type="int" >       29 </v>
  <v type="int" >       34 </v>
  <v type="int" >       31 </v>
  <v type="int" >       45 </v>
  <v type="int" >       44 </v>
  <v type="int" >        9 </v>
 </varray>
 <kpoints>
  <generation param="Gamma">
   <v type="int" name="divisions">       2        2        2 </v>
   <v name="usershift">      0.00000000       0.00000000       0.00000000 </v>
   <v name="genvec1">      0.50000000       0.00000000       0.00000000 </v>
   <v name="genvec2">      0.00000000       0.50000000       0.00000000 </v>
   <v name="genvec3">      0.00000000       0.00000000       0.50000000 </v>
   <v name="shift">      0.00000000       0.00000000       0.00000000 </v>
  </generation>
  <varray name="kpointlist" >
   <v>       0.00000000       0.00000000       0.00000000 </v>
   <v>       0.50000000       0.00000000       0.00000000 </v>
   <v>       0.00000000       0.50000000       0.00000000 </v>
   <v>       0.50000000       0.50000000       0.00000000 </v>
   <v>       0.00000000       0.00000000       0.50000000 </v>
   <v>       0.50000000       0.00000000       0.50000000 </v>
   <v>       0.00000000       0.50000000       0.50000000 </v>
   <v>       0.50000000       0.50000000       0.50000000 </v>
  </varray>
  <varray name="weights" >
   <v>       0.12500000 </v>
   <v>       0.12500000 </v>
   <v>       0.12500000 </v>
   <v>       0.12500000 </v>
   <v>       0.12500000 </v>
   <v>       0.12500000 </v>
   <v>       0.12500000 </v>
   <v>       0.12500000 </v>
  </varray>
  <varray name="tetrahedronlist"  type="int" >
   <v type="int" >        2        1        2        4        5 </v>
   <v type="int" >        2        1        3        4        5 </v>
   <v type="int" >        2        3        4        5        7 </v>
   <v type="int" >        2        2        4        5        6 </v>
   <v type="int" >        2        4        5        6        8 </v>
   <v type="int" >        2        4        5        7        8 </v>
   <v type="int" >        2        1        2        3        6 </v>
   <v type="int" >        2        2        3        4        6 </v>
   <v type="int" >        2        3        4        6        8 </v>
   <v type="int" >        2        1        3        5        6 </v>
   <v type="int" >        2        3        5        6        7 </v>
   <v type="int" >        2        3        6        7        8 </v>
   <v type="int" >        2        2        3        4        7 </v>
   <v type="int" >        2        1        2        3        7 </v>
   <v type="int" >        2        1        2        5        7 </v>
   <v type="int" >        2        2        4        7        8 </v>
   <v type="int" >        2        2        6        7        8 </v>
   <v type="int" >        2        2        5        6        7 </v>
   <v type="int" >        2        1        3        4        8 </v>
   <v type="int" >        2        1        2        4        8 </v>
   <v type="int" >        2        1        2        6        8 </v>
   <v type="int" >        2        1        3        7        8 </v>
   <v type="int" >        2        1        5        7        8 </v>
   <v type="int" >        2        1        5        6        8 </v>
  </varray>
  <i name="volumeweight">      0.02083333 </i>
 </kpoints>
 <parameters>
  <separator name="general" >
   <i type="string" name="SYSTEM">La2O2S</i>
   <i type="logical" name="LCOMPAT"> F  </i>
  </separator>
  <separator name="electronic" >
   <i type="string" name="PREC">normal</i>
   <i name="ENMAX">    600.00000000</i>
   <i name="ENAUG">    900.00000000</i>
   <i name="EDIFF">      0.00000100</i>
   <i type="int" name="IALGO">    38</i>
   <i type="int" name="IWAVPR">    11</i>
   <i type="int" name="NBANDS">   280</i>
   <i name="NELECT">    468.00000000</i>
   <i type="int" name="TURBO">     0</i>
   <i type="int" name="IRESTART">     0</i>
   <i type="int" name="NREBOOT">     0</i>
   <i type="int" name="NMIN">     0</i>
   <i name="EREF">      0.00000000</i>
   <separator name="electronic smearing" >
    <i type="int" name="ISMEAR">    -5</i>
    <i name="SIGMA">      0.20000000</i>
    <i name="KSPACING">      0.50000000</i>
    <i type="logical" name="KGAMMA"> T  </i>
   </separator>
   <separator name="electronic projectors" >
    <i type="logical" name="LREAL"> F  </i>
    <v name="ROPT">      0.00000000      0.00000000      0.00000000      0.00000000      0.00000000</v>
    <i type="int" name="LMAXPAW">  -100</i>
    <i type="int" name="LMAXMIX">     2</i>
    <i type="logical" name="NLSPLINE"> F  </i>
   </separator>
   <separator name="electronic startup" >
    <i type="int" name="ISTART">     0</i>
    <i type="int" name="ICHARG">     2</i>
    <i type="int" name="INIWAV">     1</i>
   </separator>
   <separator name="electronic spin" >
    <i type="int" name="ISPIN">     1</i>
    <i type="logical" name="LNONCOLLINEAR"> F  </i>
    <v name="MAGMOM">      1.00000000      1.00000000      1.00000000      1.00000000      1.00000000      1.00000000      1.00000000      1.00000000      1.00000000      1.00000000      1.00000000      1.00000000      1.00000000      1.00000000      1.00000000      1.00000000      1.00000000      1.00000000      1.00000000      1.00000000
      1.00000000      1.00000000      1.00000000      1.00000000      1.00000000      1.00000000      1.00000000      1.00000000      1.00000000      1.00000000      1.00000000      1.00000000      1.00000000      1.00000000      1.00000000      1.00000000      1.00000000      1.00000000      1.00000000      1.00000000
      1.00000000      1.00000000      1.00000000      1.00000000      1.00000000      1.00000000      1.00000000      1.00000000      1.00000000      1.00000000      1.00000000      1.00000000      1.00000000      1.00000000      1.00000000      1.00000000      1.00000000      1.00000000      1.00000000      1.00000000
      1.00000000</v>
    <i name="NUPDOWN">     -1.00000000</i>
    <i type="logical" name="LSORBIT"> F  </i>
    <v name="SAXIS">      0.00000000      0.00000000      1.00000000</v>
    <i type="logical" name="LSPIRAL"> F  </i>
    <v name="QSPIRAL">      0.00000000      0.00000000      0.00000000</v>
    <i type="logical" name="LZEROZ"> F  </i>
   </separator>
   <separator name="electronic exchange-correlation" >
    <i type="logical" name="LASPH"> F  </i>
    <i type="logical" name="LMETAGGA"> F  </i>
   </separator>
   <separator name="electronic convergence" >
    <i type="int" name="NELM">    60</i>
    <i type="int" name="NELMDL">    -5</i>
    <i type="int" name="NELMIN">     4</i>
    <i name="ENINI">    600.00000000</i>
    <separator name="electronic convergence detail" >
     <i type="logical" name="LDIAG"> T  </i>
     <i type="logical" name="LSUBROT"> F  </i>
     <i name="WEIMIN">      0.00100000</i>
     <i name="EBREAK">      0.00000000</i>
     <i name="DEPER">      0.30000000</i>
     <i type="int" name="NRMM">     4</i>
     <i name="TIME">      0.40000000</i>
    </separator>
   </separator>
   <separator name="electronic mixer" >
    <i name="AMIX">      0.40000000</i>
    <i name="BMIX">      1.00000000</i>
    <i name="AMIN">      0.10000000</i>
    <i name="AMIX_MAG">      1.60000000</i>
    <i name="BMIX_MAG">      1.00000000</i>
    <separator name="electronic mixer details" >
     <i type="int" name="IMIX">     4</i>
     <i type="logical" name="MIXFIRST"> F  </i>
     <i type="int" name="MAXMIX">   -45</i>
     <i name="WC">    100.00000000</i>
     <i type="int" name="INIMIX">     1</i>
     <i type="int" name="MIXPRE">     1</i>
     <i type="int" name="MREMOVE">     5</i>
    </separator>
   </separator>
   <separator name="electronic dipolcorrection" >
    <i type="logical" name="LDIPOL"> F  </i>
    <i type="logical" name="LMONO"> F  </i>
    <i type="int" name="IDIPOL">     0</i>
    <i name="EPSILON">      1.00000000</i>
    <v name="DIPOL">   -100.00000000   -100.00000000   -100.00000000</v>
    <i name="EFIELD">      0.00000000</i>
   </separator>
  </separator>
  <separator name="grids" >
   <i type="int" name="NGX">    70</i>
   <i type="int" name="NGY">    60</i>
   <i type="int" name="NGZ">    70</i>
   <i type="int" name="NGXF">   140</i>
   <i type="int" name="NGYF">   120</i>
   <i type="int" name="NGZF">   140</i>
   <i type="logical" name="ADDGRID"> F  </i>
  </separator>
  <separator name="ionic" >
   <i type="int" name="NSW">     1</i>
   <i type="int" name="IBRION">     2</i>
   <i type="int" name="MDALGO">     0</i>
   <i type="int" name="ISIF">     2</i>
   <i name="PSTRESS">      0.00000000</i>
   <i name="EDIFFG">     -0.01000000</i>
   <i type="int" name="NFREE">    10</i>
   <i name="POTIM">      0.50000000</i>
   <i name="SMASS">     -3.00000000</i>
   <i name="SCALEE">      1.00000000</i>
  </separator>
  <separator name="ionic md" >
   <i name="TEBEG">      0.00010000</i>
   <i name="TEEND">      0.00010000</i>
   <i type="int" name="NBLOCK">     1</i>
   <i type="int" name="KBLOCK">     1</i>
   <i type="int" name="NPACO">   256</i>
   <i name="APACO">     16.00000000</i>
  </separator>
  <separator name="symmetry" >
   <i type="int" name="ISYM">     2</i>
   <i name="SYMPREC">      0.00001000</i>
  </separator>
  <separator name="dos" >
   <i type="int" name="LORBIT">     0</i>
   <v name="RWIGS">     -1.00000000     -1.00000000     -1.00000000     -1.00000000     -1.00000000</v>
   <i type="int" name="NEDOS">   301</i>
   <i name="EMIN">     10.00000000</i>
   <i name="EMAX">    -10.00000000</i>
   <i name="EFERMI">      0.00000000</i>
  </separator>
  <separator name="writing" >
   <i type="int" name="NWRITE">     2</i>
   <i type="logical" name="LWAVE"> F  </i>
   <i type="logical" name="LDOWNSAMPLE"> F  </i>
   <i type="logical" name="LCHARG"> F  </i>
   <i type="logical" name="LPARD"> F  </i>
   <i type="logical" name="LVTOT"> F  </i>
   <i type="logical" name="LVHAR"> F  </i>
   <i type="logical" name="LELF"> F  </i>
   <i type="logical" name="LOPTICS"> F  </i>
   <v name="STM">      0.00000000      0.00000000      0.00000000      0.00000000      0.00000000      0.00000000      0.00000000</v>
  </separator>
  <separator name="performance" >
   <i type="int" name="NPAR">    28</i>
   <i type="int" name="NSIM">     4</i>
   <i type="int" name="NBLK">    -1</i>
   <i type="logical" name="LPLANE"> T  </i>
   <i type="logical" name="LSCALAPACK"> T  </i>
   <i type="logical" name="LSCAAWARE"> F  </i>
   <i type="logical" name="LSCALU"> F  </i>
   <i type="logical" name="LASYNC"> F  </i>
   <i type="logical" name="LORBITALREAL"> F  </i>
  </separator>
  <separator name="miscellaneous" >
   <i type="int" name="IDIOT">     3</i>
   <i type="int" name="ISPECIAL">     0</i>
   <i type="logical" name="LMUSIC"> F  </i>
   <v name="POMASS">      7.01000000     24.30500000    208.98000000     32.06600000     16.00000000</v>
   <v name="DARWINR">      0.00000000      0.00000000      0.00000000      0.00000000      0.00000000</v>
   <v name="DARWINV">      1.00000000      1.00000000      1.00000000      1.00000000      1.00000000</v>
   <i type="logical" name="LCORR"> T  </i>
  </separator>
  <i type="logical" name="GGA_COMPAT"> T  </i>
  <i type="logical" name="LBERRY"> F  </i>
  <i type="int" name="ICORELEVEL">     0</i>
  <i type="logical" name="LDAU"> F  </i>
  <i type="int" name="I_CONSTRAINED_M">     0</i>
  <separator name="electronic exchange-correlation" >
   <i type="string" name="GGA">--</i>
   <i type="int" name="VOSKOWN">     0</i>
   <i type="logical" name="LHFCALC"> F  </i>
   <i type="string" name="PRECFOCK"></i>
   <i type="logical" name="LSYMGRAD"> F  </i>
   <i type="logical" name="LHFONE"> F  </i>
   <i type="logical" name="LRHFCALC"> F  </i>
   <i type="logical" name="LTHOMAS"> F  </i>
   <i type="logical" name="LMODELHF"> F  </i>
   <i name="ENCUT4O">     -1.00000000</i>
   <i type="int" name="EXXOEP">     0</i>
   <i type="int" name="FOURORBIT">     0</i>
   <i name="AEXX">      0.00000000</i>
   <i name="HFALPHA">      0.00000000</i>
   <i name="MCALPHA">      0.00000000</i>
   <i name="ALDAX">      1.00000000</i>
   <i name="AGGAX">      1.00000000</i>
   <i name="ALDAC">      1.00000000</i>
   <i name="AGGAC">      1.00000000</i>
   <i type="int" name="NKREDX">     1</i>
   <i type="int" name="NKREDY">     1</i>
   <i type="int" name="NKREDZ">     1</i>
   <i type="logical" name="SHIFTRED"> F  </i>
   <i type="logical" name="ODDONLY"> F  </i>
   <i type="logical" name="EVENONLY"> F  </i>
   <i type="int" name="LMAXFOCK">     0</i>
   <i type="int" name="NMAXFOCKAE">     0</i>
   <i type="logical" name="LFOCKAEDFT"> F  </i>
   <i name="HFSCREEN">      0.00000000</i>
   <i name="HFSCREENC">      0.00000000</i>
   <i type="int" name="NBANDSGWLOW">     0</i>
  </separator>
  <separator name="vdW DFT" >
   <i type="logical" name="LUSE_VDW"> F  </i>
   <i name="Zab_VDW">     -0.84910000</i>
   <i name="PARAM1">      0.12340000</i>
   <i name="PARAM2">      1.00000000</i>
   <i name="PARAM3">      0.00000000</i>
  </separator>
  <separator name="model GW" >
   <i type="int" name="MODEL_GW">     0</i>
   <i name="MODEL_EPS0">     11.77228070</i>
   <i name="MODEL_ALPHA">      1.00000000</i>
  </separator>
  <separator name="linear response parameters" >
   <i type="logical" name="LEPSILON"> F  </i>
   <i type="logical" name="LRPA"> F  </i>
   <i type="logical" name="LNABLA"> F  </i>
   <i type="logical" name="LVEL"> F  </i>
   <i type="int" name="KINTER">     0</i>
   <i name="CSHIFT">      0.10000000</i>
   <i name="OMEGAMAX">     -1.00000000</i>
   <i name="DEG_THRESHOLD">      0.00200000</i>
   <i name="RTIME">     -0.10000000</i>
   <i name="WPLASMAI">      0.00000000</i>
   <v name="DFIELD">      0.00000000      0.00000000      0.00000000</v>
   <v name="WPLASMA">      0.00000000      0.00000000      0.00000000      0.00000000      0.00000000      0.00000000      0.00000000      0.00000000      0.00000000</v>
  </separator>
  <separator name="orbital magnetization" >
   <i type="logical" name="NUCIND"> F  </i>
   <v name="MAGPOS">      0.00000000      0.00000000      0.00000000</v>
   <i type="logical" name="LNICSALL"> T  </i>
   <i type="logical" name="ORBITALMAG"> F  </i>
   <i type="logical" name="LMAGBLOCH"> F  </i>
   <i type="logical" name="LCHIMAG"> F  </i>
   <i type="logical" name="LGAUGE"> T  </i>
   <i type="int" name="MAGATOM">     0</i>
   <v name="MAGDIPOL">      0.00000000      0.00000000      0.00000000</v>
   <v name="AVECCONST">      0.00000000      0.00000000      0.00000000</v>
  </separator>
  <separator name="response functions" >
   <i type="logical" name="LADDER"> F  </i>
   <i type="logical" name="LRPAFORCE"> F  </i>
   <i type="logical" name="LFXC"> F  </i>
   <i type="logical" name="LHARTREE"> T  </i>
   <i type="int" name="IBSE">     0</i>
   <v type="int" name="KPOINT">    -1     0     0     0</v>
   <i type="logical" name="LTCTE"> F  </i>
   <i type="logical" name="LTETE"> F  </i>
   <i type="logical" name="LTRIPLET"> F  </i>
   <i type="logical" name="LFXCEPS"> F  </i>
   <i type="logical" name="LFXHEG"> F  </i>
   <i type="int" name="NATURALO">     2</i>
   <i type="logical" name="L2ORDER"> F  </i>
   <i type="logical" name="LMP2LT"> F  </i>
   <i type="logical" name="LUSEW"> F  </i>
   <i name="ENCUTGW">     -2.00000000</i>
   <i name="ENCUTGWSOFT">     -2.00000000</i>
   <i name="ENCUTLF">     -1.00000000</i>
   <i type="int" name="LMAXMP2">    -1</i>
   <i name="SCISSOR">      0.00000000</i>
   <i type="int" name="NOMEGA">     0</i>
   <i type="int" name="NOMEGAR">     0</i>
   <i type="int" name="NBANDSGW">    -1</i>
   <i type="int" name="NBANDSO">    -1</i>
   <i type="int" name="NBANDSV">    -1</i>
   <i type="int" name="NELM">     1</i>
   <i type="int" name="NELMHF">     1</i>
   <i type="int" name="DIM">     3</i>
   <i type="int" name="ANTIRES">     0</i>
   <i name="OMEGAMAX">    -30.00000000</i>
   <i name="OMEGAMIN">    -30.00000000</i>
   <i name="OMEGATL">   -200.00000000</i>
   <i type="int" name="OMEGAGRID">   140</i>
   <i name="CSHIFT">     -0.10000000</i>
   <i type="logical" name="SELFENERGY"> F  </i>
   <i type="logical" name="LSPECTRAL"> F  </i>
   <i type="logical" name="LSPECTRALGW"> F  </i>
   <i type="logical" name="LSINGLES"> F  </i>
   <i type="logical" name="LFERMIGW"> F  </i>
   <i type="logical" name="ODDONLYGW"> F  </i>
   <i type="logical" name="EVENONLYGW"> F  </i>
   <i type="int" name="NKREDLFX">     1</i>
   <i type="int" name="NKREDLFY">     1</i>
   <i type="int" name="NKREDLFZ">     1</i>
   <i type="int" name="MAXMEM">  2800</i>
   <i type="int" name="TELESCOPE">     0</i>
   <i type="int" name="TAUPAR">     1</i>
   <i type="int" name="OMEGAPAR">    -1</i>
   <i name="LAMBDA">      1.00000000</i>
  </separator>
  <separator name="External order field" >
   <i name="OFIELD_KAPPA">      0.00000000</i>
   <v name="OFIELD_K">      0.00000000      0.00000000      0.00000000</v>
   <i name="OFIELD_Q6_NEAR">      0.00000000</i>
   <i name="OFIELD_Q6_FAR">      0.00000000</i>
   <i name="OFIELD_A">      0.00000000</i>
  </separator>
 </parameters>
 <atominfo>
  <atoms>      61 </atoms>
  <types>       5 </types>
  <array name="atoms" >
   <dimension dim="1">ion</dimension>
   <field type="string">element</field>
   <field type="int">atomtype</field>
   <set>
    <rc><c>Li</c><c>   1</c></rc>
    <rc><c>Li</c><c>   1</c></rc>
    <rc><c>Li</c><c>   1</c></rc>
    <rc><c>Li</c><c>   1</c></rc>
    <rc><c>Li</c><c>   1</c></rc>
    <rc><c>Li</c><c>   1</c></rc>
    <rc><c>Li</c><c>   1</c></rc>
    <rc><c>Li</c><c>   1</c></rc>
    <rc><c>Li</c><c>   1</c></rc>
    <rc><c>Li</c><c>   1</c></rc>
    <rc><c>Mg</c><c>   2</c></rc>
    <rc><c>Mg</c><c>   2</c></rc>
    <rc><c>Mg</c><c>   2</c></rc>
    <rc><c>Bi</c><c>   3</c></rc>
    <rc><c>Bi</c><c>   3</c></rc>
    <rc><c>Bi</c><c>   3</c></rc>
    <rc><c>Bi</c><c>   3</c></rc>
    <rc><c>Bi</c><c>   3</c></rc>
    <rc><c>Bi</c><c>   3</c></rc>
    <rc><c>Bi</c><c>   3</c></rc>
    <rc><c>Bi</c><c>   3</c></rc>
    <rc><c>Bi</c><c>   3</c></rc>
    <rc><c>Bi</c><c>   3</c></rc>
    <rc><c>Bi</c><c>   3</c></rc>
    <rc><c>Bi</c><c>   3</c></rc>
    <rc><c>Bi</c><c>   3</c></rc>
    <rc><c>Bi</c><c>   3</c></rc>
    <rc><c>Bi</c><c>   3</c></rc>
    <rc><c>Bi</c><c>   3</c></rc>
    <rc><c>S </c><c>   4</c></rc>
    <rc><c>S </c><c>   4</c></rc>
    <rc><c>S </c><c>   4</c></rc>
    <rc><c>S </c><c>   4</c></rc>
    <rc><c>S </c><c>   4</c></rc>
    <rc><c>S </c><c>   4</c></rc>
    <rc><c>S </c><c>   4</c></rc>
    <rc><c>S </c><c>   4</c></rc>
    <rc><c>S </c><c>   4</c></rc>
    <rc><c>S </c><c>   4</c></rc>
    <rc><c>S </c><c>   4</c></rc>
    <rc><c>S </c><c>   4</c></rc>
    <rc><c>S </c><c>   4</c></rc>
    <rc><c>S </c><c>   4</c></rc>
    <rc><c>S </c><c>   4</c></rc>
    <rc><c>S </c><c>   4</c></rc>
    <rc><c>O </c><c>   5</c></rc>
    <rc><c>O </c><c>   5</c></rc>
    <rc><c>O </c><c>   5</c></rc>
    <rc><c>O </c><c>   5</c></rc>
    <rc><c>O </c><c>   5</c></rc>
    <rc><c>O </c><c>   5</c></rc>
    <rc><c>O </c><c>   5</c></rc>
    <rc><c>O </c><c>   5</c></rc>
    <rc><c>O </c><c>   5</c></rc>
    <rc><c>O </c><c>   5</c></rc>
    <rc><c>O </c><c>   5</c></rc>
    <rc><c>O </c><c>   5</c></rc>
    <rc><c>O </c><c>   5</c></rc>
    <rc><c>O </c><c>   5</c></rc>
    <rc><c>O </c><c>   5</c></rc>
    <rc><c>O </c><c>   5</c></rc>
   </set>
  </array>
  <array name="atomtypes" >
   <dimension dim="1">type</dimension>
   <field type="int">atomspertype</field>
   <field type="string">element</field>
   <field>mass</field>
   <field>valence</field>
   <field type="string">pseudopotential</field>
   <set>
    <rc><c>  10</c><c>Li</c><c>      7.01000000</c><c>      3.00000000</c><c>  PAW_PBE Li_sv 10Sep2004               </c></rc>
    <rc><c>   3</c><c>Mg</c><c>     24.30500000</c><c>      2.00000000</c><c>  PAW_PBE Mg 13Apr2007                  </c></rc>
    <rc><c>  16</c><c>Bi</c><c>    208.98000000</c><c>     15.00000000</c><c>  PAW_PBE Bi_d 06Sep2000                </c></rc>
    <rc><c>  16</c><c>S </c><c>     32.06600000</c><c>      6.00000000</c><c>  PAW_PBE S 06Sep2000                   </c></rc>
    <rc><c>  16</c><c>O </c><c>     16.00000000</c><c>      6.00000000</c><c>  PAW_PBE O 08Apr2002                   </c></rc>
   </set>
  </array>
 </atominfo>
 <structure name="initialpos" >
  <crystal>
   <varray name="basis" >
    <v>      11.17850000       0.00000000       0.00000000 </v>
    <v>       0.00000000       9.57460000       0.00000000 </v>
    <v>       0.00000000       0.00000000      11.18240000 </v>
   </varray>
   <i name="volume">   1196.84853820 </i>
   <varray name="rec_basis" >
    <v>       0.08945744       0.00000000       0.00000000 </v>
    <v>       0.00000000       0.10444301       0.00000000 </v>
    <v>       0.00000000       0.00000000       0.08942624 </v>
   </varray>
  </crystal>
  <varray name="positions" >
   <v>       0.37539000       0.00017000       0.43687000 </v>
   <v>       0.12461000       0.99984000       0.18687000 </v>
   <v>       0.37461000       0.00017000       0.18687000 </v>
   <v>       0.62539000       0.99984000       0.43687000 </v>
   <v>       0.62461000       0.99984000       0.18687000 </v>
   <v>       0.87461000       0.00017000       0.18687000 </v>
   <v>       0.12539000       0.99984000       0.93687000 </v>
   <v>       0.37461000       0.00017000       0.68687000 </v>
   <v>       0.87539000       0.00017000       0.93687000 </v>
   <v>       0.62461000       0.99984000       0.68687000 </v>
   <v>       0.87539000       0.00017000       0.43687000 </v>
   <v>       0.12461000       0.99984000       0.68687000 </v>
   <v>       0.62539000       0.99984000       0.93687000 </v>
   <v>       0.00013000       0.29519000       0.06281000 </v>
   <v>       0.25013000       0.70481000       0.06281000 </v>
   <v>       0.24987000       0.29519000       0.31282000 </v>
   <v>       0.49987000       0.70481000       0.31282000 </v>
   <v>       0.50013000       0.29519000       0.06281000 </v>
   <v>       0.75013000       0.70481000       0.06281000 </v>
   <v>       0.74987000       0.29519000       0.31282000 </v>
   <v>       0.99987000       0.70481000       0.31282000 </v>
   <v>       0.00013000       0.29519000       0.56281000 </v>
   <v>       0.25013000       0.70481000       0.56281000 </v>
   <v>       0.24987000       0.29519000       0.81282000 </v>
   <v>       0.49987000       0.70481000       0.81282000 </v>
   <v>       0.50013000       0.29519000       0.56281000 </v>
   <v>       0.75013000       0.70481000       0.56281000 </v>
   <v>       0.74987000       0.29519000       0.81282000 </v>
   <v>       0.99987000       0.70481000       0.81282000 </v>
   <v>       0.25005000       0.32677000       0.06286000 </v>
   <v>       0.00005000       0.67323000       0.06286000 </v>
   <v>       0.49995000       0.32677000       0.31286000 </v>
   <v>       0.24995000       0.67323000       0.31286000 </v>
   <v>       0.75005000       0.32677000       0.06286000 </v>
   <v>       0.50005000       0.67323000       0.06286000 </v>
   <v>       0.99995000       0.32677000       0.31286000 </v>
   <v>       0.74995000       0.67323000       0.31286000 </v>
   <v>       0.25005000       0.32677000       0.56286000 </v>
   <v>       0.00005000       0.67323000       0.56286000 </v>
   <v>       0.49995000       0.32677000       0.81286000 </v>
   <v>       0.24995000       0.67323000       0.81286000 </v>
   <v>       0.75005000       0.32677000       0.56286000 </v>
   <v>       0.50005000       0.67323000       0.56286000 </v>
   <v>       0.99995000       0.32677000       0.81286000 </v>
   <v>       0.74995000       0.67323000       0.81286000 </v>
   <v>       0.49987000       0.07798000       0.06246000 </v>
   <v>       0.24987000       0.92202000       0.06246000 </v>
   <v>       0.25013000       0.07798000       0.31246000 </v>
   <v>       0.00013000       0.92202000       0.31246000 </v>
   <v>       0.99987000       0.07798000       0.06246000 </v>
   <v>       0.74987000       0.92202000       0.06246000 </v>
   <v>       0.75013000       0.07798000       0.31246000 </v>
   <v>       0.50013000       0.92202000       0.31246000 </v>
   <v>       0.49987000       0.07798000       0.56246000 </v>
   <v>       0.24987000       0.92202000       0.56246000 </v>
   <v>       0.25013000       0.07798000       0.81246000 </v>
   <v>       0.00013000       0.92202000       0.81246000 </v>
   <v>       0.99987000       0.07798000       0.56246000 </v>
   <v>       0.74987000       0.92202000       0.56246000 </v>
   <v>       0.75013000       0.07798000       0.81246000 </v>
   <v>       0.50013000       0.92202000       0.81246000 </v>
  </varray>
 </structure>
 <calculation>
  <scstep>
   <time name="dav">   60.07   60.19</time>
   <time name="total">   60.15   60.28</time>
   <energy>
    <i name="alphaZ">   1073.51873187 </i>
    <i name="ewald"> -30879.60997269 </i>
    <i name="hartreedc"> -12709.59393717 </i>
    <i name="XCdc">   1394.96906823 </i>
    <i name="pawpsdc">  36823.70205594 </i>
    <i name="pawaedc"> -36326.52930246 </i>
    <i name="eentropy">      0.00000000 </i>
    <i name="bandstr">   1804.02561928 </i>
    <i name="atom">  44791.06186932 </i>
    <i name="e_fr_energy">   5971.54413233 </i>
    <i name="e_wo_entrp">   5971.54413233 </i>
    <i name="e_0_energy">   5971.54413233 </i>
   </energy>
  </scstep>
  <scstep>
   <time name="dav">   60.45   60.50</time>
   <time name="total">   60.46   60.51</time>
   <energy>
    <i name="e_fr_energy">    809.65586916 </i>
    <i name="e_wo_entrp">    809.65586916 </i>
    <i name="e_0_energy">    809.65586916 </i>
   </energy>
  </scstep>
  <scstep>
   <time name="dav">   69.07   69.17</time>
   <time name="total">   69.07   69.17</time>
   <energy>
    <i name="e_fr_energy">   -239.75880904 </i>
    <i name="e_wo_entrp">   -239.75880904 </i>
    <i name="e_0_energy">   -239.75880904 </i>
   </energy>
  </scstep>
  <scstep>
   <time name="dav">   73.03   73.16</time>
   <time name="total">   73.03   73.16</time>
   <energy>
    <i name="e_fr_energy">   -346.96780873 </i>
    <i name="e_wo_entrp">   -346.96780873 </i>
    <i name="e_0_energy">   -346.96780873 </i>
   </energy>
  </scstep>
  <scstep>
   <time name="dav">   95.69   96.26</time>
   <time name="total">   96.42   97.00</time>
   <energy>
    <i name="e_fr_energy">   -355.33114975 </i>
    <i name="e_wo_entrp">   -355.33114975 </i>
    <i name="e_0_energy">   -355.33114975 </i>
   </energy>
  </scstep>
  <scstep>
   <time name="dav">   85.78   85.89</time>
   <time name="total">   86.58   86.70</time>
   <energy>
    <i name="e_fr_energy">   -296.59110204 </i>
    <i name="e_wo_entrp">   -296.59110204 </i>
    <i name="e_0_energy">   -296.59110204 </i>
   </energy>
  </scstep>
  <scstep>
   <time name="dav">   65.53   65.60</time>
   <time name="total">   66.33   66.41</time>
   <energy>
    <i name="e_fr_energy">   -299.40074719 </i>
    <i name="e_wo_entrp">   -299.40074719 </i>
    <i name="e_0_energy">   -299.40074719 </i>
   </energy>
  </scstep>
  <scstep>
   <time name="dav">   79.53   79.75</time>
   <time name="total">   80.35   80.58</time>
   <energy>
    <i name="e_fr_energy">   -298.15604933 </i>
    <i name="e_wo_entrp">   -298.15604933 </i>
    <i name="e_0_energy">   -298.15604933 </i>
   </energy>
  </scstep>
  <scstep>
   <time name="dav">   78.75   78.82</time>
   <time name="total">   79.57   79.63</time>
   <energy>
    <i name="e_fr_energy">   -297.51179946 </i>
    <i name="e_wo_entrp">   -297.51179946 </i>
    <i name="e_0_energy">   -297.51179946 </i>
   </energy>
  </scstep>
  <scstep>
   <time name="dav">   74.99   75.09</time>
   <time name="total">   75.79   75.90</time>
   <energy>
    <i name="e_fr_energy">   -297.52449634 </i>
    <i name="e_wo_entrp">   -297.52449634 </i>
    <i name="e_0_energy">   -297.52449634 </i>
   </energy>
  </scstep>
  <scstep>
   <time name="dav">   77.88   78.03</time>
   <time name="total">   78.68   78.84</time>
   <energy>
    <i name="e_fr_energy">   -297.53489113 </i>
    <i name="e_wo_entrp">   -297.53489113 </i>
    <i name="e_0_energy">   -297.53489113 </i>
   </energy>
  </scstep>
  <scstep>
   <time name="dav">   82.24   82.41</time>
   <time name="total">   83.04   83.22</time>
   <energy>
    <i name="e_fr_energy">   -297.53823522 </i>
    <i name="e_wo_entrp">   -297.53823522 </i>
    <i name="e_0_energy">   -297.53823522 </i>
   </energy>
  </scstep>
  <scstep>
   <time name="dav">   71.73   71.80</time>
   <time name="total">   72.55   72.61</time>
   <energy>
    <i name="e_fr_energy">   -297.53959684 </i>
    <i name="e_wo_entrp">   -297.53959684 </i>
    <i name="e_0_energy">   -297.53959684 </i>
   </energy>
  </scstep>
  <scstep>
   <time name="dav">   78.83   78.98</time>
   <time name="total">   79.64   79.79</time>
   <energy>
    <i name="e_fr_energy">   -297.53981956 </i>
    <i name="e_wo_entrp">   -297.53981956 </i>
    <i name="e_0_energy">   -297.53981956 </i>
   </energy>
  </scstep>
  <scstep>
   <time name="dav">   74.02   74.27</time>
   <time name="total">   74.83   75.07</time>
   <energy>
    <i name="e_fr_energy">   -297.53986484 </i>
    <i name="e_wo_entrp">   -297.53986484 </i>
    <i name="e_0_energy">   -297.53986484 </i>
   </energy>
  </scstep>
  <scstep>
   <time name="dav">   64.20   64.70</time>
   <time name="total">   65.00   65.52</time>
   <energy>
    <i name="e_fr_energy">   -297.53988031 </i>
    <i name="e_wo_entrp">   -297.53988031 </i>
    <i name="e_0_energy">   -297.53988031 </i>
   </energy>
  </scstep>
  <scstep>
   <time name="dav">   63.70   63.78</time>
   <time name="total">   64.50   64.59</time>
   <energy>
    <i name="e_fr_energy">   -297.53988326 </i>
    <i name="e_wo_entrp">   -297.53988326 </i>
    <i name="e_0_energy">   -297.53988326 </i>
   </energy>
  </scstep>
  <scstep>
   <time name="dav">   60.86   60.97</time>
   <time name="total">   61.67   61.79</time>
   <energy>
    <i name="e_fr_energy">   -297.53988437 </i>
    <i name="e_wo_entrp">   -297.53988437 </i>
    <i name="e_0_energy">   -297.53988437 </i>
   </energy>
  </scstep>
  <scstep>
   <time name="dav">   47.90   48.02</time>
   <time name="total">   47.97   48.10</time>
   <energy>
    <i name="alphaZ">   1073.51873187 </i>
    <i name="ewald"> -30879.60997269 </i>
    <i name="hartreedc"> -12946.68590775 </i>
    <i name="XCdc">   1418.55561588 </i>
    <i name="pawpsdc">  43848.21223646 </i>
    <i name="pawaedc"> -43325.66959224 </i>
    <i name="eentropy">      0.00000000 </i>
    <i name="bandstr">  -4276.92286459 </i>
    <i name="atom">  44791.06186932 </i>
    <i name="e_fr_energy">   -297.53988374 </i>
    <i name="e_wo_entrp">   -297.53988374 </i>
    <i name="e_0_energy">   -297.53988374 </i>
   </energy>
  </scstep>
  <structure>
   <crystal>
    <varray name="basis" >
     <v>      11.17850000       0.00000000       0.00000000 </v>
     <v>       0.00000000       9.57460000       0.00000000 </v>
     <v>       0.00000000       0.00000000      11.18240000 </v>
    </varray>
    <i name="volume">   1196.84853820 </i>
    <varray name="rec_basis" >
     <v>       0.08945744       0.00000000       0.00000000 </v>
     <v>       0.00000000       0.10444301       0.00000000 </v>
     <v>       0.00000000       0.00000000       0.08942624 </v>
    </varray>
   </crystal>
   <varray name="positions" >
    <v>       0.37539000       0.00017000       0.43687000 </v>
    <v>       0.12461000       0.99984000       0.18687000 </v>
    <v>       0.37461000       0.00017000       0.18687000 </v>
    <v>       0.62539000       0.99984000       0.43687000 </v>
    <v>       0.62461000       0.99984000       0.18687000 </v>
    <v>       0.87461000       0.00017000       0.18687000 </v>
    <v>       0.12539000       0.99984000       0.93687000 </v>
    <v>       0.37461000       0.00017000       0.68687000 </v>
    <v>       0.87539000       0.00017000       0.93687000 </v>
    <v>       0.62461000       0.99984000       0.68687000 </v>
    <v>       0.87539000       0.00017000       0.43687000 </v>
    <v>       0.12461000       0.99984000       0.68687000 </v>
    <v>       0.62539000       0.99984000       0.93687000 </v>
    <v>       0.00013000       0.29519000       0.06281000 </v>
    <v>       0.25013000       0.70481000       0.06281000 </v>
    <v>       0.24987000       0.29519000       0.31282000 </v>
    <v>       0.49987000       0.70481000       0.31282000 </v>
    <v>       0.50013000       0.29519000       0.06281000 </v>
    <v>       0.75013000       0.70481000       0.06281000 </v>
    <v>       0.74987000       0.29519000       0.31282000 </v>
    <v>       0.99987000       0.70481000       0.31282000 </v>
    <v>       0.00013000       0.29519000       0.56281000 </v>
    <v>       0.25013000       0.70481000       0.56281000 </v>
    <v>       0.24987000       0.29519000       0.81282000 </v>
    <v>       0.49987000       0.70481000       0.81282000 </v>
    <v>       0.50013000       0.29519000       0.56281000 </v>
    <v>       0.75013000       0.70481000       0.56281000 </v>
    <v>       0.74987000       0.29519000       0.81282000 </v>
    <v>       0.99987000       0.70481000       0.81282000 </v>
    <v>       0.25005000       0.32677000       0.06286000 </v>
    <v>       0.00005000       0.67323000       0.06286000 </v>
    <v>       0.49995000       0.32677000       0.31286000 </v>
    <v>       0.24995000       0.67323000       0.31286000 </v>
    <v>       0.75005000       0.32677000       0.06286000 </v>
    <v>       0.50005000       0.67323000       0.06286000 </v>
    <v>       0.99995000       0.32677000       0.31286000 </v>
    <v>       0.74995000       0.67323000       0.31286000 </v>
    <v>       0.25005000       0.32677000       0.56286000 </v>
    <v>       0.00005000       0.67323000       0.56286000 </v>
    <v>       0.49995000       0.32677000       0.81286000 </v>
    <v>       0.24995000       0.67323000       0.81286000 </v>
    <v>       0.75005000       0.32677000       0.56286000 </v>
    <v>       0.50005000       0.67323000       0.56286000 </v>
    <v>       0.99995000       0.32677000       0.81286000 </v>
    <v>       0.74995000       0.67323000       0.81286000 </v>
    <v>       0.49987000       0.07798000       0.06246000 </v>
    <v>       0.24987000       0.92202000       0.06246000 </v>
    <v>       0.25013000       0.07798000       0.31246000 </v>
    <v>       0.00013000       0.92202000       0.31246000 </v>
    <v>       0.99987000       0.07798000       0.06246000 </v>
    <v>       0.74987000       0.92202000       0.06246000 </v>
    <v>       0.75013000       0.07798000       0.31246000 </v>
    <v>       0.50013000       0.92202000       0.31246000 </v>
    <v>       0.49987000       0.07798000       0.56246000 </v>
    <v>       0.24987000       0.92202000       0.56246000 </v>
    <v>       0.25013000       0.07798000       0.81246000 </v>
    <v>       0.00013000       0.92202000       0.81246000 </v>
    <v>       0.99987000       0.07798000       0.56246000 </v>
    <v>       0.74987000       0.92202000       0.56246000 </v>
    <v>       0.75013000       0.07798000       0.81246000 </v>
    <v>       0.50013000       0.92202000       0.81246000 </v>
   </varray>
  </structure>
  <varray name="forces" >
   <v>      -0.46733779       0.06404495      -0.08087181 </v>
   <v>       0.29329428       0.00416830       0.26576035 </v>
   <v>      -0.26539051      -0.00298043      -0.25176383 </v>
   <v>      -0.35469045      -0.06618731       0.17253109 </v>
   <v>      -0.29185123      -0.00171044       0.22932883 </v>
   <v>       0.28814349       0.00155592      -0.22611103 </v>
   <v>       0.37052889      -0.06262197       0.31587146 </v>
   <v>       0.20167943       0.00157347       0.26569638 </v>
   <v>       0.42530051       0.06550161      -0.42206121 </v>
   <v>       0.22650275       0.00160202      -0.21688115 </v>
   <v>       0.86807524      -0.12283405       0.85626703 </v>
   <v>      -0.50250735       0.00491858      -0.56224721 </v>
   <v>      -0.87332623       0.12125009      -0.19324522 </v>
   <v>       0.25026630       0.04165736      -0.00002017 </v>
   <v>       0.08543163       1.01763943      -0.05488863 </v>
   <v>      -0.08471178      -1.02785782       0.04294679 </v>
   <v>      -0.23990125      -0.02441093       0.00702380 </v>
   <v>      -0.44342644      -0.03074174      -0.02656161 </v>
   <v>       0.08576181      -1.04922974       0.03841544 </v>
   <v>      -0.10750064       1.05855410      -0.04463345 </v>
   <v>       0.45649506      -0.00249754      -0.00330900 </v>
   <v>       0.14194286      -0.11970697      -0.00587383 </v>
   <v>      -0.01718952       0.01984525      -0.26282693 </v>
   <v>       0.19636990      -0.00470621       0.25653034 </v>
   <v>      -0.33382862       0.02438937       0.03402962 </v>
   <v>      -0.14910141       0.03304809      -0.03114641 </v>
   <v>       0.00130936       0.00209397       0.22165673 </v>
   <v>       0.19319785       0.04836302      -0.23365418 </v>
   <v>      -0.02979170       0.01290387      -0.01009402 </v>
   <v>      -0.02703182       0.21048780      -0.09070225 </v>
   <v>      -0.26463631      -0.19596950       0.00082160 </v>
   <v>       0.26513170       0.19259783       0.00709235 </v>
   <v>       0.02914183      -0.20979706       0.08440571 </v>
   <v>      -0.03293108       0.11950816       0.03627268 </v>
   <v>       0.31722869      -0.11505626      -0.02592416 </v>
   <v>      -0.32307395       0.11625436       0.01311011 </v>
   <v>       0.03609997      -0.11866087      -0.04048649 </v>
   <v>      -0.00881287       0.17127206       0.15264940 </v>
   <v>      -0.07735328      -0.08263215      -0.00617408 </v>
   <v>       0.14005910       0.13927998       0.02365561 </v>
   <v>      -0.05920633      -0.17519414      -0.15004842 </v>
   <v>       0.00835723       0.09603982      -0.14917709 </v>
   <v>       0.07508156      -0.19554762      -0.00696576 </v>
   <v>      -0.02168029       0.14722932      -0.00634902 </v>
   <v>      -0.05726765      -0.09715964       0.15349892 </v>
   <v>       1.33255913       0.00159544       0.12057452 </v>
   <v>      -0.61197417      -0.85647688       0.53616489 </v>
   <v>       0.60838170       0.86233129      -0.53332654 </v>
   <v>      -1.32487718       0.00243625      -0.13238942 </v>
   <v>      -0.23267050      -0.03047066       0.00350464 </v>
   <v>      -0.45278303       0.82608125      -0.39326783 </v>
   <v>       0.45710016      -0.82935073       0.38880713 </v>
   <v>       0.23505784       0.02565982      -0.00246730 </v>
   <v>       0.09411284      -0.02156025      -0.00454448 </v>
   <v>       0.14083282      -0.08899332       1.13861777 </v>
   <v>      -1.08511239      -0.00330632      -1.12451792 </v>
   <v>       1.00257502      -0.05903960       0.14906516 </v>
   <v>      -0.08508004       0.29401066      -0.03700472 </v>
   <v>      -0.12173064       0.02870534      -1.20389058 </v>
   <v>      -1.04622184      -0.11171024       1.14830718 </v>
   <v>       1.16697930      -0.05018834      -0.12917977 </v>
  </varray>
  <varray name="stress" >
   <v>      -9.21507558      -0.01323432      -0.22672672 </v>
   <v>      -0.01323441     -14.24966108      -0.15188070 </v>
   <v>      -0.22672646      -0.15188067      -8.16857006 </v>
  </varray>
  <energy>
   <i name="e_fr_energy">   -312.18546729 </i>
   <i name="e_wo_entrp">   -312.18546729 </i>
   <i name="e_0_energy">      0.00000000 </i>
  </energy>
  <time name="totalsc"> 1482.17 1486.25</time>
  <eigenvalues>
   <array>
    <dimension dim="1">band</dimension>
    <dimension dim="2">kpoint</dimension>
    <dimension dim="3">spin</dimension>
    <field>eigene</field>
    <field>occ</field>
    <set>
     <set comment="spin 1">
      <set comment="kpoint 1">
       <r>  -40.2257    1.0000 </r>
       <r>  -40.2140    1.0000 </r>
       <r>  -40.0524    1.0000 </r>
       <r>  -40.0175    1.0000 </r>
       <r>  -39.8501    1.0000 </r>
       <r>  -39.7588    1.0000 </r>
       <r>  -39.5999    1.0000 </r>
       <r>  -39.5566    1.0000 </r>
       <r>  -39.4069    1.0000 </r>
       <r>  -39.3966    1.0000 </r>
       <r>  -18.9222    1.0000 </r>
       <r>  -18.9202    1.0000 </r>
       <r>  -18.8522    1.0000 </r>
       <r>  -18.8509    1.0000 </r>
       <r>  -18.8452    1.0000 </r>
       <r>  -18.8439    1.0000 </r>
       <r>  -18.7486    1.0000 </r>
       <r>  -18.7464    1.0000 </r>
       <r>  -18.7353    1.0000 </r>
       <r>  -18.7338    1.0000 </r>
       <r>  -18.7218    1.0000 </r>
       <r>  -18.7112    1.0000 </r>
       <r>  -18.7106    1.0000 </r>
       <r>  -18.7087    1.0000 </r>
       <r>  -18.7015    1.0000 </r>
       <r>  -18.6943    1.0000 </r>
       <r>  -18.6441    1.0000 </r>
       <r>  -18.6407    1.0000 </r>
       <r>  -18.6404    1.0000 </r>
       <r>  -18.6381    1.0000 </r>
       <r>  -18.6360    1.0000 </r>
       <r>  -18.6344    1.0000 </r>
       <r>  -18.6342    1.0000 </r>
       <r>  -18.6333    1.0000 </r>
       <r>  -18.6312    1.0000 </r>
       <r>  -18.6302    1.0000 </r>
       <r>  -18.6289    1.0000 </r>
       <r>  -18.6287    1.0000 </r>
       <r>  -18.6267    1.0000 </r>
       <r>  -18.6263    1.0000 </r>
       <r>  -18.6251    1.0000 </r>
       <r>  -18.6251    1.0000 </r>
       <r>  -18.6242    1.0000 </r>
       <r>  -18.6223    1.0000 </r>
       <r>  -18.6200    1.0000 </r>
       <r>  -18.6189    1.0000 </r>
       <r>  -18.6168    1.0000 </r>
       <r>  -18.6162    1.0000 </r>
       <r>  -18.6156    1.0000 </r>
       <r>  -18.6040    1.0000 </r>
       <r>  -18.5694    1.0000 </r>
       <r>  -18.5646    1.0000 </r>
       <r>  -18.5641    1.0000 </r>
       <r>  -18.5549    1.0000 </r>
       <r>  -18.5542    1.0000 </r>
       <r>  -18.5539    1.0000 </r>
       <r>  -18.5510    1.0000 </r>
       <r>  -18.5493    1.0000 </r>
       <r>  -18.5416    1.0000 </r>
       <r>  -18.5376    1.0000 </r>
       <r>  -18.4882    1.0000 </r>
       <r>  -18.4828    1.0000 </r>
       <r>  -18.4821    1.0000 </r>
       <r>  -18.4818    1.0000 </r>
       <r>  -18.4750    1.0000 </r>
       <r>  -18.4743    1.0000 </r>
       <r>  -18.4722    1.0000 </r>
       <r>  -18.4712    1.0000 </r>
       <r>  -18.4709    1.0000 </r>
       <r>  -18.4703    1.0000 </r>
       <r>  -18.4702    1.0000 </r>
       <r>  -18.4698    1.0000 </r>
       <r>  -18.4696    1.0000 </r>
       <r>  -18.4686    1.0000 </r>
       <r>  -18.4675    1.0000 </r>
       <r>  -18.4463    1.0000 </r>
       <r>  -18.4109    1.0000 </r>
       <r>  -18.4079    1.0000 </r>
       <r>  -18.3995    1.0000 </r>
       <r>  -18.3898    1.0000 </r>
       <r>  -18.3886    1.0000 </r>
       <r>  -18.3866    1.0000 </r>
       <r>  -18.3756    1.0000 </r>
       <r>  -18.3736    1.0000 </r>
       <r>  -18.2963    1.0000 </r>
       <r>  -18.2937    1.0000 </r>
       <r>  -18.1810    1.0000 </r>
       <r>  -18.1787    1.0000 </r>
       <r>  -18.1682    1.0000 </r>
       <r>  -18.1654    1.0000 </r>
       <r>  -13.5363    1.0000 </r>
       <r>  -13.4664    1.0000 </r>
       <r>  -12.9122    1.0000 </r>
       <r>  -12.8205    1.0000 </r>
       <r>  -12.7687    1.0000 </r>
       <r>  -12.7560    1.0000 </r>
       <r>  -12.7223    1.0000 </r>
       <r>  -12.6818    1.0000 </r>
       <r>  -12.6720    1.0000 </r>
       <r>  -12.6625    1.0000 </r>
       <r>  -12.6253    1.0000 </r>
       <r>  -12.6107    1.0000 </r>
       <r>  -12.6044    1.0000 </r>
       <r>  -12.5671    1.0000 </r>
       <r>  -11.9577    1.0000 </r>
       <r>  -11.8945    1.0000 </r>
       <r>   -9.3187    1.0000 </r>
       <r>   -9.0241    1.0000 </r>
       <r>   -8.5235    1.0000 </r>
       <r>   -8.4952    1.0000 </r>
       <r>   -8.4761    1.0000 </r>
       <r>   -8.4343    1.0000 </r>
       <r>   -8.3005    1.0000 </r>
       <r>   -8.2759    1.0000 </r>
       <r>   -8.2498    1.0000 </r>
       <r>   -8.2104    1.0000 </r>
       <r>   -8.0203    1.0000 </r>
       <r>   -8.0191    1.0000 </r>
       <r>   -7.9836    1.0000 </r>
       <r>   -7.9827    1.0000 </r>
       <r>   -7.3478    1.0000 </r>
       <r>   -7.3470    1.0000 </r>
       <r>   -6.3655    1.0000 </r>
       <r>   -6.3599    1.0000 </r>
       <r>   -6.3351    1.0000 </r>
       <r>   -6.3283    1.0000 </r>
       <r>   -5.5212    1.0000 </r>
       <r>   -5.4860    1.0000 </r>
       <r>   -5.3534    1.0000 </r>
       <r>   -5.3333    1.0000 </r>
       <r>   -5.3280    1.0000 </r>
       <r>   -5.2419    1.0000 </r>
       <r>   -5.1988    1.0000 </r>
       <r>   -5.1614    1.0000 </r>
       <r>   -5.1147    1.0000 </r>
       <r>   -5.0492    1.0000 </r>
       <r>   -3.7986    1.0000 </r>
       <r>   -3.6455    1.0000 </r>
       <r>   -1.3905    1.0000 </r>
       <r>   -1.3489    1.0000 </r>
       <r>   -1.0609    1.0000 </r>
       <r>   -1.0278    1.0000 </r>
       <r>   -0.5227    1.0000 </r>
       <r>   -0.4984    1.0000 </r>
       <r>   -0.4670    1.0000 </r>
       <r>   -0.4501    1.0000 </r>
       <r>   -0.1702    1.0000 </r>
       <r>   -0.1556    1.0000 </r>
       <r>   -0.1477    1.0000 </r>
       <r>   -0.1269    1.0000 </r>
       <r>    0.0868    1.0000 </r>
       <r>    0.1614    1.0000 </r>
       <r>    0.3693    1.0000 </r>
       <r>    0.4417    1.0000 </r>
       <r>    0.5209    1.0000 </r>
       <r>    0.6050    1.0000 </r>
       <r>    0.6123    1.0000 </r>
       <r>    0.6452    1.0000 </r>
       <r>    0.7104    1.0000 </r>
       <r>    0.7299    1.0000 </r>
       <r>    0.7579    1.0000 </r>
       <r>    0.7653    1.0000 </r>
       <r>    0.8638    1.0000 </r>
       <r>    0.8725    1.0000 </r>
       <r>    0.9370    1.0000 </r>
       <r>    0.9555    1.0000 </r>
       <r>    0.9954    1.0000 </r>
       <r>    1.0129    1.0000 </r>
       <r>    1.0523    1.0000 </r>
       <r>    1.0669    1.0000 </r>
       <r>    1.1414    1.0000 </r>
       <r>    1.1784    1.0000 </r>
       <r>    1.2531    1.0000 </r>
       <r>    1.2935    1.0000 </r>
       <r>    1.3367    1.0000 </r>
       <r>    1.4420    1.0000 </r>
       <r>    1.4660    1.0000 </r>
       <r>    1.4882    1.0000 </r>
       <r>    1.5052    1.0000 </r>
       <r>    1.5402    1.0000 </r>
       <r>    1.5874    1.0000 </r>
       <r>    1.6311    1.0000 </r>
       <r>    1.6608    1.0000 </r>
       <r>    1.7156    1.0000 </r>
       <r>    1.8293    1.0000 </r>
       <r>    1.8468    1.0000 </r>
       <r>    1.8685    1.0000 </r>
       <r>    1.8933    1.0000 </r>
       <r>    1.9337    1.0000 </r>
       <r>    2.0006    1.0000 </r>
       <r>    2.1083    1.0000 </r>
       <r>    2.1459    1.0000 </r>
       <r>    2.2109    1.0000 </r>
       <r>    2.2700    1.0000 </r>
       <r>    2.3561    1.0000 </r>
       <r>    2.3632    1.0000 </r>
       <r>    2.4994    1.0000 </r>
       <r>    2.5368    1.0000 </r>
       <r>    2.5831    1.0000 </r>
       <r>    2.5852    1.0000 </r>
       <r>    2.5973    1.0000 </r>
       <r>    2.6015    1.0000 </r>
       <r>    2.6356    1.0000 </r>
       <r>    2.6391    1.0000 </r>
       <r>    2.6950    1.0000 </r>
       <r>    2.7240    1.0000 </r>
       <r>    2.7423    1.0000 </r>
       <r>    2.7727    1.0000 </r>
       <r>    2.8152    1.0000 </r>
       <r>    2.8313    1.0000 </r>
       <r>    2.8934    1.0000 </r>
       <r>    2.9145    1.0000 </r>
       <r>    2.9287    1.0000 </r>
       <r>    2.9419    1.0000 </r>
       <r>    2.9686    1.0000 </r>
       <r>    3.0475    1.0000 </r>
       <r>    3.0740    1.0000 </r>
       <r>    3.1153    1.0000 </r>
       <r>    3.1524    1.0000 </r>
       <r>    3.1584    1.0000 </r>
       <r>    3.1653    1.0000 </r>
       <r>    3.1729    1.0000 </r>
       <r>    3.1852    1.0000 </r>
       <r>    3.2365    1.0000 </r>
       <r>    3.2536    1.0000 </r>
       <r>    3.3436    1.0000 </r>
       <r>    3.4263    1.0000 </r>
       <r>    3.4546    1.0000 </r>
       <r>    3.5112    1.0000 </r>
       <r>    3.5493    1.0000 </r>
       <r>    4.2029    1.0000 </r>
       <r>    4.2060    1.0000 </r>
       <r>    4.2251    1.0000 </r>
       <r>    4.2346    1.0000 </r>
       <r>    5.0960    0.0000 </r>
       <r>    5.1024    0.0000 </r>
       <r>    5.1372    0.0000 </r>
       <r>    5.1387    0.0000 </r>
       <r>    5.7649    0.0000 </r>
       <r>    5.7731    0.0000 </r>
       <r>    5.8061    0.0000 </r>
       <r>    5.8079    0.0000 </r>
       <r>    6.1126    0.0000 </r>
       <r>    6.1228    0.0000 </r>
       <r>    6.1348    0.0000 </r>
       <r>    6.1642    0.0000 </r>
       <r>    6.2451    0.0000 </r>
       <r>    6.2510    0.0000 </r>
       <r>    6.2704    0.0000 </r>
       <r>    6.2819    0.0000 </r>
       <r>    7.1524    0.0000 </r>
       <r>    7.1993    0.0000 </r>
       <r>    7.2516    0.0000 </r>
       <r>    7.2965    0.0000 </r>
       <r>    7.8128    0.0000 </r>
       <r>    7.8955    0.0000 </r>
       <r>    7.9313    0.0000 </r>
       <r>    7.9761    0.0000 </r>
       <r>    7.9988    0.0000 </r>
       <r>    8.0450    0.0000 </r>
       <r>    8.1363    0.0000 </r>
       <r>    8.1703    0.0000 </r>
       <r>    8.4904    0.0000 </r>
       <r>    8.5420    0.0000 </r>
       <r>    8.6851    0.0000 </r>
       <r>    8.7834    0.0000 </r>
       <r>    8.7947    0.0000 </r>
       <r>    8.9283    0.0000 </r>
       <r>    8.9337    0.0000 </r>
       <r>    8.9964    0.0000 </r>
       <r>    9.0234    0.0000 </r>
       <r>    9.0489    0.0000 </r>
       <r>    9.0613    0.0000 </r>
       <r>    9.1279    0.0000 </r>
       <r>    9.1569    0.0000 </r>
       <r>    9.1784    0.0000 </r>
       <r>    9.2391    0.0000 </r>
       <r>    9.2525    0.0000 </r>
       <r>    9.4613    0.0000 </r>
       <r>    9.5911    0.0000 </r>
      </set>
      <set comment="kpoint 2">
       <r>  -40.2257    1.0000 </r>
       <r>  -40.2140    1.0000 </r>
       <r>  -40.0524    1.0000 </r>
       <r>  -40.0175    1.0000 </r>
       <r>  -39.8501    1.0000 </r>
       <r>  -39.7588    1.0000 </r>
       <r>  -39.5999    1.0000 </r>
       <r>  -39.5566    1.0000 </r>
       <r>  -39.4069    1.0000 </r>
       <r>  -39.3966    1.0000 </r>
       <r>  -18.9222    1.0000 </r>
       <r>  -18.9202    1.0000 </r>
       <r>  -18.8522    1.0000 </r>
       <r>  -18.8508    1.0000 </r>
       <r>  -18.8452    1.0000 </r>
       <r>  -18.8439    1.0000 </r>
       <r>  -18.7486    1.0000 </r>
       <r>  -18.7464    1.0000 </r>
       <r>  -18.7353    1.0000 </r>
       <r>  -18.7338    1.0000 </r>
       <r>  -18.7217    1.0000 </r>
       <r>  -18.7110    1.0000 </r>
       <r>  -18.7105    1.0000 </r>
       <r>  -18.7086    1.0000 </r>
       <r>  -18.7014    1.0000 </r>
       <r>  -18.6942    1.0000 </r>
       <r>  -18.6457    1.0000 </r>
       <r>  -18.6415    1.0000 </r>
       <r>  -18.6393    1.0000 </r>
       <r>  -18.6370    1.0000 </r>
       <r>  -18.6354    1.0000 </r>
       <r>  -18.6353    1.0000 </r>
       <r>  -18.6347    1.0000 </r>
       <r>  -18.6337    1.0000 </r>
       <r>  -18.6319    1.0000 </r>
       <r>  -18.6305    1.0000 </r>
       <r>  -18.6302    1.0000 </r>
       <r>  -18.6285    1.0000 </r>
       <r>  -18.6282    1.0000 </r>
       <r>  -18.6252    1.0000 </r>
       <r>  -18.6246    1.0000 </r>
       <r>  -18.6242    1.0000 </r>
       <r>  -18.6228    1.0000 </r>
       <r>  -18.6220    1.0000 </r>
       <r>  -18.6205    1.0000 </r>
       <r>  -18.6180    1.0000 </r>
       <r>  -18.6177    1.0000 </r>
       <r>  -18.6160    1.0000 </r>
       <r>  -18.6151    1.0000 </r>
       <r>  -18.6040    1.0000 </r>
       <r>  -18.5694    1.0000 </r>
       <r>  -18.5646    1.0000 </r>
       <r>  -18.5641    1.0000 </r>
       <r>  -18.5551    1.0000 </r>
       <r>  -18.5542    1.0000 </r>
       <r>  -18.5539    1.0000 </r>
       <r>  -18.5512    1.0000 </r>
       <r>  -18.5492    1.0000 </r>
       <r>  -18.5416    1.0000 </r>
       <r>  -18.5376    1.0000 </r>
       <r>  -18.4882    1.0000 </r>
       <r>  -18.4828    1.0000 </r>
       <r>  -18.4821    1.0000 </r>
       <r>  -18.4818    1.0000 </r>
       <r>  -18.4750    1.0000 </r>
       <r>  -18.4743    1.0000 </r>
       <r>  -18.4722    1.0000 </r>
       <r>  -18.4712    1.0000 </r>
       <r>  -18.4709    1.0000 </r>
       <r>  -18.4703    1.0000 </r>
       <r>  -18.4702    1.0000 </r>
       <r>  -18.4697    1.0000 </r>
       <r>  -18.4697    1.0000 </r>
       <r>  -18.4686    1.0000 </r>
       <r>  -18.4675    1.0000 </r>
       <r>  -18.4463    1.0000 </r>
       <r>  -18.4109    1.0000 </r>
       <r>  -18.4079    1.0000 </r>
       <r>  -18.3995    1.0000 </r>
       <r>  -18.3898    1.0000 </r>
       <r>  -18.3886    1.0000 </r>
       <r>  -18.3866    1.0000 </r>
       <r>  -18.3756    1.0000 </r>
       <r>  -18.3737    1.0000 </r>
       <r>  -18.2963    1.0000 </r>
       <r>  -18.2937    1.0000 </r>
       <r>  -18.1810    1.0000 </r>
       <r>  -18.1787    1.0000 </r>
       <r>  -18.1682    1.0000 </r>
       <r>  -18.1654    1.0000 </r>
       <r>  -13.5361    1.0000 </r>
       <r>  -13.4664    1.0000 </r>
       <r>  -12.9001    1.0000 </r>
       <r>  -12.8370    1.0000 </r>
       <r>  -12.7898    1.0000 </r>
       <r>  -12.7336    1.0000 </r>
       <r>  -12.7192    1.0000 </r>
       <r>  -12.6845    1.0000 </r>
       <r>  -12.6730    1.0000 </r>
       <r>  -12.6547    1.0000 </r>
       <r>  -12.6202    1.0000 </r>
       <r>  -12.6169    1.0000 </r>
       <r>  -12.6078    1.0000 </r>
       <r>  -12.5671    1.0000 </r>
       <r>  -11.9576    1.0000 </r>
       <r>  -11.8944    1.0000 </r>
       <r>   -9.1748    1.0000 </r>
       <r>   -9.0166    1.0000 </r>
       <r>   -8.8998    1.0000 </r>
       <r>   -8.7388    1.0000 </r>
       <r>   -8.3928    1.0000 </r>
       <r>   -8.3839    1.0000 </r>
       <r>   -8.2542    1.0000 </r>
       <r>   -8.2483    1.0000 </r>
       <r>   -8.1917    1.0000 </r>
       <r>   -8.1835    1.0000 </r>
       <r>   -8.0513    1.0000 </r>
       <r>   -8.0458    1.0000 </r>
       <r>   -7.7427    1.0000 </r>
       <r>   -7.6304    1.0000 </r>
       <r>   -7.6255    1.0000 </r>
       <r>   -7.5125    1.0000 </r>
       <r>   -6.0150    1.0000 </r>
       <r>   -6.0062    1.0000 </r>
       <r>   -5.8309    1.0000 </r>
       <r>   -5.8246    1.0000 </r>
       <r>   -5.7951    1.0000 </r>
       <r>   -5.7847    1.0000 </r>
       <r>   -5.7314    1.0000 </r>
       <r>   -5.6599    1.0000 </r>
       <r>   -5.6461    1.0000 </r>
       <r>   -5.6449    1.0000 </r>
       <r>   -5.5218    1.0000 </r>
       <r>   -5.4472    1.0000 </r>
       <r>   -4.4991    1.0000 </r>
       <r>   -4.3384    1.0000 </r>
       <r>   -4.3353    1.0000 </r>
       <r>   -4.1636    1.0000 </r>
       <r>   -1.2217    1.0000 </r>
       <r>   -1.0305    1.0000 </r>
       <r>   -0.8857    1.0000 </r>
       <r>   -0.7103    1.0000 </r>
       <r>   -0.4030    1.0000 </r>
       <r>   -0.2437    1.0000 </r>
       <r>   -0.0081    1.0000 </r>
       <r>    0.0257    1.0000 </r>
       <r>    0.0652    1.0000 </r>
       <r>    0.1194    1.0000 </r>
       <r>    0.1682    1.0000 </r>
       <r>    0.1756    1.0000 </r>
       <r>    0.2467    1.0000 </r>
       <r>    0.2895    1.0000 </r>
       <r>    0.3784    1.0000 </r>
       <r>    0.4129    1.0000 </r>
       <r>    0.4662    1.0000 </r>
       <r>    0.4929    1.0000 </r>
       <r>    0.5445    1.0000 </r>
       <r>    0.5728    1.0000 </r>
       <r>    0.5976    1.0000 </r>
       <r>    0.6369    1.0000 </r>
       <r>    0.6414    1.0000 </r>
       <r>    0.7131    1.0000 </r>
       <r>    0.7358    1.0000 </r>
       <r>    0.8366    1.0000 </r>
       <r>    0.8923    1.0000 </r>
       <r>    1.0223    1.0000 </r>
       <r>    1.0427    1.0000 </r>
       <r>    1.0836    1.0000 </r>
       <r>    1.1252    1.0000 </r>
       <r>    1.1380    1.0000 </r>
       <r>    1.1998    1.0000 </r>
       <r>    1.2171    1.0000 </r>
       <r>    1.2266    1.0000 </r>
       <r>    1.2662    1.0000 </r>
       <r>    1.2764    1.0000 </r>
       <r>    1.3574    1.0000 </r>
       <r>    1.3858    1.0000 </r>
       <r>    1.4674    1.0000 </r>
       <r>    1.5268    1.0000 </r>
       <r>    1.5569    1.0000 </r>
       <r>    1.5804    1.0000 </r>
       <r>    1.5993    1.0000 </r>
       <r>    1.6277    1.0000 </r>
       <r>    1.6597    1.0000 </r>
       <r>    1.6973    1.0000 </r>
       <r>    1.7825    1.0000 </r>
       <r>    1.8082    1.0000 </r>
       <r>    1.8540    1.0000 </r>
       <r>    1.8845    1.0000 </r>
       <r>    1.9274    1.0000 </r>
       <r>    2.0159    1.0000 </r>
       <r>    2.0183    1.0000 </r>
       <r>    2.0445    1.0000 </r>
       <r>    2.0957    1.0000 </r>
       <r>    2.1521    1.0000 </r>
       <r>    2.1845    1.0000 </r>
       <r>    2.2129    1.0000 </r>
       <r>    2.2586    1.0000 </r>
       <r>    2.3029    1.0000 </r>
       <r>    2.3542    1.0000 </r>
       <r>    2.4411    1.0000 </r>
       <r>    2.4418    1.0000 </r>
       <r>    2.4943    1.0000 </r>
       <r>    2.5086    1.0000 </r>
       <r>    2.5406    1.0000 </r>
       <r>    2.5904    1.0000 </r>
       <r>    2.6290    1.0000 </r>
       <r>    2.6328    1.0000 </r>
       <r>    2.7213    1.0000 </r>
       <r>    2.7403    1.0000 </r>
       <r>    2.7616    1.0000 </r>
       <r>    2.8301    1.0000 </r>
       <r>    2.8415    1.0000 </r>
       <r>    2.8865    1.0000 </r>
       <r>    2.8992    1.0000 </r>
       <r>    2.9341    1.0000 </r>
       <r>    2.9581    1.0000 </r>
       <r>    3.0062    1.0000 </r>
       <r>    3.0383    1.0000 </r>
       <r>    3.0756    1.0000 </r>
       <r>    3.1159    1.0000 </r>
       <r>    3.1436    1.0000 </r>
       <r>    3.1870    1.0000 </r>
       <r>    3.2857    1.0000 </r>
       <r>    3.3089    1.0000 </r>
       <r>    3.3555    1.0000 </r>
       <r>    3.4575    1.0000 </r>
       <r>    3.4752    1.0000 </r>
       <r>    3.5267    1.0000 </r>
       <r>    3.5663    1.0000 </r>
       <r>    3.5856    1.0000 </r>
       <r>    3.6144    1.0000 </r>
       <r>    3.6812    1.0000 </r>
       <r>    3.7250    1.0000 </r>
       <r>    5.5692    0.0000 </r>
       <r>    5.5752    0.0000 </r>
       <r>    5.7204    0.0000 </r>
       <r>    5.7300    0.0000 </r>
       <r>    5.7447    0.0000 </r>
       <r>    5.7688    0.0000 </r>
       <r>    5.9025    0.0000 </r>
       <r>    5.9227    0.0000 </r>
       <r>    7.2145    0.0000 </r>
       <r>    7.2618    0.0000 </r>
       <r>    7.2712    0.0000 </r>
       <r>    7.3565    0.0000 </r>
       <r>    7.4026    0.0000 </r>
       <r>    7.4220    0.0000 </r>
       <r>    7.4388    0.0000 </r>
       <r>    7.4895    0.0000 </r>
       <r>    7.5087    0.0000 </r>
       <r>    7.5235    0.0000 </r>
       <r>    7.5900    0.0000 </r>
       <r>    7.6229    0.0000 </r>
       <r>    7.8092    0.0000 </r>
       <r>    7.8286    0.0000 </r>
       <r>    7.8551    0.0000 </r>
       <r>    7.8891    0.0000 </r>
       <r>    7.8976    0.0000 </r>
       <r>    7.9100    0.0000 </r>
       <r>    7.9680    0.0000 </r>
       <r>    7.9768    0.0000 </r>
       <r>    7.9878    0.0000 </r>
       <r>    8.0240    0.0000 </r>
       <r>    8.0689    0.0000 </r>
       <r>    8.1138    0.0000 </r>
       <r>    8.2463    0.0000 </r>
       <r>    8.3157    0.0000 </r>
       <r>    8.4467    0.0000 </r>
       <r>    8.6091    0.0000 </r>
       <r>    8.6643    0.0000 </r>
       <r>    8.7138    0.0000 </r>
       <r>    8.7504    0.0000 </r>
       <r>    8.7666    0.0000 </r>
       <r>    8.7847    0.0000 </r>
       <r>    8.8760    0.0000 </r>
       <r>    8.9340    0.0000 </r>
       <r>    8.9439    0.0000 </r>
       <r>    9.1013    0.0000 </r>
       <r>    9.3536    0.0000 </r>
      </set>
      <set comment="kpoint 3">
       <r>  -40.2257    1.0000 </r>
       <r>  -40.2140    1.0000 </r>
       <r>  -40.0524    1.0000 </r>
       <r>  -40.0175    1.0000 </r>
       <r>  -39.8501    1.0000 </r>
       <r>  -39.7588    1.0000 </r>
       <r>  -39.5999    1.0000 </r>
       <r>  -39.5566    1.0000 </r>
       <r>  -39.4069    1.0000 </r>
       <r>  -39.3966    1.0000 </r>
       <r>  -18.9223    1.0000 </r>
       <r>  -18.9200    1.0000 </r>
       <r>  -18.8522    1.0000 </r>
       <r>  -18.8509    1.0000 </r>
       <r>  -18.8452    1.0000 </r>
       <r>  -18.8439    1.0000 </r>
       <r>  -18.7486    1.0000 </r>
       <r>  -18.7464    1.0000 </r>
       <r>  -18.7353    1.0000 </r>
       <r>  -18.7338    1.0000 </r>
       <r>  -18.7218    1.0000 </r>
       <r>  -18.7113    1.0000 </r>
       <r>  -18.7105    1.0000 </r>
       <r>  -18.7086    1.0000 </r>
       <r>  -18.7015    1.0000 </r>
       <r>  -18.6943    1.0000 </r>
       <r>  -18.6440    1.0000 </r>
       <r>  -18.6407    1.0000 </r>
       <r>  -18.6404    1.0000 </r>
       <r>  -18.6381    1.0000 </r>
       <r>  -18.6360    1.0000 </r>
       <r>  -18.6344    1.0000 </r>
       <r>  -18.6342    1.0000 </r>
       <r>  -18.6333    1.0000 </r>
       <r>  -18.6312    1.0000 </r>
       <r>  -18.6302    1.0000 </r>
       <r>  -18.6289    1.0000 </r>
       <r>  -18.6287    1.0000 </r>
       <r>  -18.6267    1.0000 </r>
       <r>  -18.6263    1.0000 </r>
       <r>  -18.6251    1.0000 </r>
       <r>  -18.6251    1.0000 </r>
       <r>  -18.6244    1.0000 </r>
       <r>  -18.6222    1.0000 </r>
       <r>  -18.6201    1.0000 </r>
       <r>  -18.6188    1.0000 </r>
       <r>  -18.6169    1.0000 </r>
       <r>  -18.6160    1.0000 </r>
       <r>  -18.6156    1.0000 </r>
       <r>  -18.6040    1.0000 </r>
       <r>  -18.5694    1.0000 </r>
       <r>  -18.5646    1.0000 </r>
       <r>  -18.5641    1.0000 </r>
       <r>  -18.5549    1.0000 </r>
       <r>  -18.5542    1.0000 </r>
       <r>  -18.5539    1.0000 </r>
       <r>  -18.5510    1.0000 </r>
       <r>  -18.5493    1.0000 </r>
       <r>  -18.5416    1.0000 </r>
       <r>  -18.5376    1.0000 </r>
       <r>  -18.4882    1.0000 </r>
       <r>  -18.4828    1.0000 </r>
       <r>  -18.4820    1.0000 </r>
       <r>  -18.4818    1.0000 </r>
       <r>  -18.4750    1.0000 </r>
       <r>  -18.4744    1.0000 </r>
       <r>  -18.4721    1.0000 </r>
       <r>  -18.4712    1.0000 </r>
       <r>  -18.4709    1.0000 </r>
       <r>  -18.4703    1.0000 </r>
       <r>  -18.4702    1.0000 </r>
       <r>  -18.4698    1.0000 </r>
       <r>  -18.4696    1.0000 </r>
       <r>  -18.4686    1.0000 </r>
       <r>  -18.4675    1.0000 </r>
       <r>  -18.4463    1.0000 </r>
       <r>  -18.4109    1.0000 </r>
       <r>  -18.4079    1.0000 </r>
       <r>  -18.3995    1.0000 </r>
       <r>  -18.3898    1.0000 </r>
       <r>  -18.3886    1.0000 </r>
       <r>  -18.3866    1.0000 </r>
       <r>  -18.3756    1.0000 </r>
       <r>  -18.3736    1.0000 </r>
       <r>  -18.2964    1.0000 </r>
       <r>  -18.2936    1.0000 </r>
       <r>  -18.1810    1.0000 </r>
       <r>  -18.1787    1.0000 </r>
       <r>  -18.1682    1.0000 </r>
       <r>  -18.1654    1.0000 </r>
       <r>  -13.5360    1.0000 </r>
       <r>  -13.4665    1.0000 </r>
       <r>  -12.9107    1.0000 </r>
       <r>  -12.8205    1.0000 </r>
       <r>  -12.7683    1.0000 </r>
       <r>  -12.7555    1.0000 </r>
       <r>  -12.7221    1.0000 </r>
       <r>  -12.6819    1.0000 </r>
       <r>  -12.6721    1.0000 </r>
       <r>  -12.6624    1.0000 </r>
       <r>  -12.6270    1.0000 </r>
       <r>  -12.6112    1.0000 </r>
       <r>  -12.6049    1.0000 </r>
       <r>  -12.5680    1.0000 </r>
       <r>  -11.9567    1.0000 </r>
       <r>  -11.8961    1.0000 </r>
       <r>   -9.3089    1.0000 </r>
       <r>   -9.0309    1.0000 </r>
       <r>   -8.5417    1.0000 </r>
       <r>   -8.5132    1.0000 </r>
       <r>   -8.4942    1.0000 </r>
       <r>   -8.4514    1.0000 </r>
       <r>   -8.2802    1.0000 </r>
       <r>   -8.2561    1.0000 </r>
       <r>   -8.2291    1.0000 </r>
       <r>   -8.1914    1.0000 </r>
       <r>   -8.0243    1.0000 </r>
       <r>   -8.0231    1.0000 </r>
       <r>   -7.9862    1.0000 </r>
       <r>   -7.9860    1.0000 </r>
       <r>   -7.3509    1.0000 </r>
       <r>   -7.3496    1.0000 </r>
       <r>   -6.3560    1.0000 </r>
       <r>   -6.3502    1.0000 </r>
       <r>   -6.3253    1.0000 </r>
       <r>   -6.3184    1.0000 </r>
       <r>   -5.5379    1.0000 </r>
       <r>   -5.4710    1.0000 </r>
       <r>   -5.3894    1.0000 </r>
       <r>   -5.3801    1.0000 </r>
       <r>   -5.3691    1.0000 </r>
       <r>   -5.2615    1.0000 </r>
       <r>   -5.1446    1.0000 </r>
       <r>   -5.1051    1.0000 </r>
       <r>   -5.0723    1.0000 </r>
       <r>   -5.0015    1.0000 </r>
       <r>   -3.8716    1.0000 </r>
       <r>   -3.5609    1.0000 </r>
       <r>   -1.3215    1.0000 </r>
       <r>   -1.2921    1.0000 </r>
       <r>   -1.1545    1.0000 </r>
       <r>   -1.1053    1.0000 </r>
       <r>   -0.4134    1.0000 </r>
       <r>   -0.4001    1.0000 </r>
       <r>   -0.3913    1.0000 </r>
       <r>   -0.3771    1.0000 </r>
       <r>   -0.3324    1.0000 </r>
       <r>   -0.2905    1.0000 </r>
       <r>   -0.2532    1.0000 </r>
       <r>   -0.2461    1.0000 </r>
       <r>   -0.1467    1.0000 </r>
       <r>    0.0633    1.0000 </r>
       <r>    0.1194    1.0000 </r>
       <r>    0.2494    1.0000 </r>
       <r>    0.2995    1.0000 </r>
       <r>    0.3404    1.0000 </r>
       <r>    0.3916    1.0000 </r>
       <r>    0.4478    1.0000 </r>
       <r>    0.5133    1.0000 </r>
       <r>    0.6001    1.0000 </r>
       <r>    0.7303    1.0000 </r>
       <r>    0.7676    1.0000 </r>
       <r>    0.7895    1.0000 </r>
       <r>    0.8161    1.0000 </r>
       <r>    0.8552    1.0000 </r>
       <r>    0.8849    1.0000 </r>
       <r>    0.9990    1.0000 </r>
       <r>    1.1248    1.0000 </r>
       <r>    1.2216    1.0000 </r>
       <r>    1.2249    1.0000 </r>
       <r>    1.2470    1.0000 </r>
       <r>    1.3475    1.0000 </r>
       <r>    1.3638    1.0000 </r>
       <r>    1.4006    1.0000 </r>
       <r>    1.4973    1.0000 </r>
       <r>    1.5237    1.0000 </r>
       <r>    1.5960    1.0000 </r>
       <r>    1.6074    1.0000 </r>
       <r>    1.6509    1.0000 </r>
       <r>    1.7142    1.0000 </r>
       <r>    1.7656    1.0000 </r>
       <r>    1.7833    1.0000 </r>
       <r>    1.8276    1.0000 </r>
       <r>    1.8793    1.0000 </r>
       <r>    1.8983    1.0000 </r>
       <r>    1.9109    1.0000 </r>
       <r>    1.9577    1.0000 </r>
       <r>    2.0184    1.0000 </r>
       <r>    2.0594    1.0000 </r>
       <r>    2.0913    1.0000 </r>
       <r>    2.1489    1.0000 </r>
       <r>    2.1767    1.0000 </r>
       <r>    2.2234    1.0000 </r>
       <r>    2.3509    1.0000 </r>
       <r>    2.4616    1.0000 </r>
       <r>    2.4733    1.0000 </r>
       <r>    2.5214    1.0000 </r>
       <r>    2.5372    1.0000 </r>
       <r>    2.5696    1.0000 </r>
       <r>    2.5786    1.0000 </r>
       <r>    2.5889    1.0000 </r>
       <r>    2.5920    1.0000 </r>
       <r>    2.5963    1.0000 </r>
       <r>    2.6156    1.0000 </r>
       <r>    2.6405    1.0000 </r>
       <r>    2.6646    1.0000 </r>
       <r>    2.7534    1.0000 </r>
       <r>    2.7871    1.0000 </r>
       <r>    2.7967    1.0000 </r>
       <r>    2.8342    1.0000 </r>
       <r>    2.8537    1.0000 </r>
       <r>    2.8709    1.0000 </r>
       <r>    2.9126    1.0000 </r>
       <r>    2.9456    1.0000 </r>
       <r>    2.9684    1.0000 </r>
       <r>    2.9980    1.0000 </r>
       <r>    3.0172    1.0000 </r>
       <r>    3.0684    1.0000 </r>
       <r>    3.0714    1.0000 </r>
       <r>    3.1003    1.0000 </r>
       <r>    3.1341    1.0000 </r>
       <r>    3.2860    1.0000 </r>
       <r>    3.3445    1.0000 </r>
       <r>    3.3816    1.0000 </r>
       <r>    3.4219    1.0000 </r>
       <r>    3.4300    1.0000 </r>
       <r>    3.4650    1.0000 </r>
       <r>    3.4953    1.0000 </r>
       <r>    3.5260    1.0000 </r>
       <r>    3.5810    1.0000 </r>
       <r>    4.2515    1.0000 </r>
       <r>    4.2545    1.0000 </r>
       <r>    4.2788    1.0000 </r>
       <r>    4.2826    1.0000 </r>
       <r>    5.1672    0.0000 </r>
       <r>    5.1698    0.0000 </r>
       <r>    5.2020    0.0000 </r>
       <r>    5.2061    0.0000 </r>
       <r>    5.7757    0.0000 </r>
       <r>    5.7800    0.0000 </r>
       <r>    5.8132    0.0000 </r>
       <r>    5.8156    0.0000 </r>
       <r>    6.1685    0.0000 </r>
       <r>    6.1788    0.0000 </r>
       <r>    6.1889    0.0000 </r>
       <r>    6.2079    0.0000 </r>
       <r>    6.2582    0.0000 </r>
       <r>    6.2604    0.0000 </r>
       <r>    6.2810    0.0000 </r>
       <r>    6.2989    0.0000 </r>
       <r>    6.8086    0.0000 </r>
       <r>    6.9123    0.0000 </r>
       <r>    6.9819    0.0000 </r>
       <r>    7.0462    0.0000 </r>
       <r>    7.2464    0.0000 </r>
       <r>    7.3853    0.0000 </r>
       <r>    7.4563    0.0000 </r>
       <r>    7.5000    0.0000 </r>
       <r>    7.7746    0.0000 </r>
       <r>    7.8364    0.0000 </r>
       <r>    7.9431    0.0000 </r>
       <r>    7.9951    0.0000 </r>
       <r>    8.0061    0.0000 </r>
       <r>    8.3136    0.0000 </r>
       <r>    8.3467    0.0000 </r>
       <r>    8.4857    0.0000 </r>
       <r>    8.7111    0.0000 </r>
       <r>    8.8021    0.0000 </r>
       <r>    8.8993    0.0000 </r>
       <r>    8.9536    0.0000 </r>
       <r>    9.0285    0.0000 </r>
       <r>    9.0661    0.0000 </r>
       <r>    9.0822    0.0000 </r>
       <r>    9.0921    0.0000 </r>
       <r>    9.1265    0.0000 </r>
       <r>    9.1513    0.0000 </r>
       <r>    9.1872    0.0000 </r>
       <r>    9.2111    0.0000 </r>
       <r>    9.5361    0.0000 </r>
       <r>    9.5694    0.0000 </r>
      </set>
      <set comment="kpoint 4">
       <r>  -40.2257    1.0000 </r>
       <r>  -40.2139    1.0000 </r>
       <r>  -40.0524    1.0000 </r>
       <r>  -40.0175    1.0000 </r>
       <r>  -39.8501    1.0000 </r>
       <r>  -39.7587    1.0000 </r>
       <r>  -39.5999    1.0000 </r>
       <r>  -39.5566    1.0000 </r>
       <r>  -39.4069    1.0000 </r>
       <r>  -39.3966    1.0000 </r>
       <r>  -18.9223    1.0000 </r>
       <r>  -18.9200    1.0000 </r>
       <r>  -18.8522    1.0000 </r>
       <r>  -18.8508    1.0000 </r>
       <r>  -18.8452    1.0000 </r>
       <r>  -18.8439    1.0000 </r>
       <r>  -18.7486    1.0000 </r>
       <r>  -18.7464    1.0000 </r>
       <r>  -18.7353    1.0000 </r>
       <r>  -18.7338    1.0000 </r>
       <r>  -18.7217    1.0000 </r>
       <r>  -18.7110    1.0000 </r>
       <r>  -18.7105    1.0000 </r>
       <r>  -18.7085    1.0000 </r>
       <r>  -18.7014    1.0000 </r>
       <r>  -18.6942    1.0000 </r>
       <r>  -18.6457    1.0000 </r>
       <r>  -18.6414    1.0000 </r>
       <r>  -18.6393    1.0000 </r>
       <r>  -18.6370    1.0000 </r>
       <r>  -18.6354    1.0000 </r>
       <r>  -18.6353    1.0000 </r>
       <r>  -18.6347    1.0000 </r>
       <r>  -18.6337    1.0000 </r>
       <r>  -18.6319    1.0000 </r>
       <r>  -18.6305    1.0000 </r>
       <r>  -18.6302    1.0000 </r>
       <r>  -18.6285    1.0000 </r>
       <r>  -18.6282    1.0000 </r>
       <r>  -18.6252    1.0000 </r>
       <r>  -18.6247    1.0000 </r>
       <r>  -18.6242    1.0000 </r>
       <r>  -18.6228    1.0000 </r>
       <r>  -18.6219    1.0000 </r>
       <r>  -18.6205    1.0000 </r>
       <r>  -18.6180    1.0000 </r>
       <r>  -18.6177    1.0000 </r>
       <r>  -18.6160    1.0000 </r>
       <r>  -18.6150    1.0000 </r>
       <r>  -18.6040    1.0000 </r>
       <r>  -18.5694    1.0000 </r>
       <r>  -18.5646    1.0000 </r>
       <r>  -18.5641    1.0000 </r>
       <r>  -18.5551    1.0000 </r>
       <r>  -18.5542    1.0000 </r>
       <r>  -18.5539    1.0000 </r>
       <r>  -18.5512    1.0000 </r>
       <r>  -18.5493    1.0000 </r>
       <r>  -18.5416    1.0000 </r>
       <r>  -18.5376    1.0000 </r>
       <r>  -18.4882    1.0000 </r>
       <r>  -18.4828    1.0000 </r>
[...]
       <r>    8.8840    0.0000 </r>
       <r>    8.8958    0.0000 </r>
       <r>    8.9058    0.0000 </r>
       <r>    8.9180    0.0000 </r>
       <r>    8.9343    0.0000 </r>
      </set>
     </set>
    </set>
   </array>
  </eigenvalues>
  <separator name="orbital magnetization" >
   <v name="MAGDIPOLOUT">      0.00000000      0.00000000      0.00000000</v>
  </separator>
  <dos>
   <i name="efermi">      4.43301485 </i>
   <total>
    <array>
     <dimension dim="1">gridpoints</dimension>
     <dimension dim="2">spin</dimension>
     <field>energy</field>
     <field>total</field>
     <field>integrated</field>
     <set>
      <set comment="spin 1">
       <r>   -42.7166     0.0000     0.0000 </r>
       <r>   -42.5339     0.0000     0.0000 </r>
       <r>   -42.3513     0.0000     0.0000 </r>
       <r>   -42.1686     0.0000     0.0000 </r>
       <r>   -41.9859     0.0000     0.0000 </r>
       <r>   -41.8033     0.0000     0.0000 </r>
       <r>   -41.6206     0.0000     0.0000 </r>
       <r>   -41.4380     0.0000     0.0000 </r>
       <r>   -41.2553     0.0000     0.0000 </r>
       <r>   -41.0726     0.0000     0.0000 </r>
       <r>   -40.8900     0.0000     0.0000 </r>
       <r>   -40.7073     0.0000     0.0000 </r>
       <r>   -40.5247     0.0000     0.0000 </r>
       <r>   -40.3420     0.0000     0.0000 </r>
       <r>   -40.1593     0.0000     4.0000 </r>
       <r>   -39.9767     0.0000     8.0000 </r>
       <r>   -39.7940     0.0000    10.0000 </r>
       <r>   -39.6113     0.0000    12.0000 </r>
       <r>   -39.4287     0.0000    16.0000 </r>
       <r>   -39.2460     0.0000    20.0000 </r>
       <r>   -39.0634     0.0000    20.0000 </r>
       <r>   -38.8807     0.0000    20.0000 </r>
       <r>   -38.6980     0.0000    20.0000 </r>
       <r>   -38.5154     0.0000    20.0000 </r>
       <r>   -38.3327     0.0000    20.0000 </r>
       <r>   -38.1500     0.0000    20.0000 </r>
       <r>   -37.9674     0.0000    20.0000 </r>
       <r>   -37.7847     0.0000    20.0000 </r>
       <r>   -37.6021     0.0000    20.0000 </r>
       <r>   -37.4194     0.0000    20.0000 </r>
       <r>   -37.2367     0.0000    20.0000 </r>
       <r>   -37.0541     0.0000    20.0000 </r>
       <r>   -36.8714     0.0000    20.0000 </r>
       <r>   -36.6888     0.0000    20.0000 </r>
       <r>   -36.5061     0.0000    20.0000 </r>
       <r>   -36.3234     0.0000    20.0000 </r>
       <r>   -36.1408     0.0000    20.0000 </r>
       <r>   -35.9581     0.0000    20.0000 </r>
       <r>   -35.7754     0.0000    20.0000 </r>
       <r>   -35.5928     0.0000    20.0000 </r>
       <r>   -35.4101     0.0000    20.0000 </r>
       <r>   -35.2275     0.0000    20.0000 </r>
       <r>   -35.0448     0.0000    20.0000 </r>
       <r>   -34.8621     0.0000    20.0000 </r>
       <r>   -34.6795     0.0000    20.0000 </r>
       <r>   -34.4968     0.0000    20.0000 </r>
       <r>   -34.3141     0.0000    20.0000 </r>
       <r>   -34.1315     0.0000    20.0000 </r>
       <r>   -33.9488     0.0000    20.0000 </r>
       <r>   -33.7662     0.0000    20.0000 </r>
       <r>   -33.5835     0.0000    20.0000 </r>
       <r>   -33.4008     0.0000    20.0000 </r>
       <r>   -33.2182     0.0000    20.0000 </r>
       <r>   -33.0355     0.0000    20.0000 </r>
       <r>   -32.8528     0.0000    20.0000 </r>
       <r>   -32.6702     0.0000    20.0000 </r>
       <r>   -32.4875     0.0000    20.0000 </r>
       <r>   -32.3049     0.0000    20.0000 </r>
       <r>   -32.1222     0.0000    20.0000 </r>
       <r>   -31.9395     0.0000    20.0000 </r>
       <r>   -31.7569     0.0000    20.0000 </r>
       <r>   -31.5742     0.0000    20.0000 </r>
       <r>   -31.3916     0.0000    20.0000 </r>
       <r>   -31.2089     0.0000    20.0000 </r>
       <r>   -31.0262     0.0000    20.0000 </r>
       <r>   -30.8436     0.0000    20.0000 </r>
       <r>   -30.6609     0.0000    20.0000 </r>
       <r>   -30.4782     0.0000    20.0000 </r>
       <r>   -30.2956     0.0000    20.0000 </r>
       <r>   -30.1129     0.0000    20.0000 </r>
       <r>   -29.9303     0.0000    20.0000 </r>
       <r>   -29.7476     0.0000    20.0000 </r>
       <r>   -29.5649     0.0000    20.0000 </r>
       <r>   -29.3823     0.0000    20.0000 </r>
       <r>   -29.1996     0.0000    20.0000 </r>
       <r>   -29.0169     0.0000    20.0000 </r>
       <r>   -28.8343     0.0000    20.0000 </r>
       <r>   -28.6516     0.0000    20.0000 </r>
       <r>   -28.4690     0.0000    20.0000 </r>
       <r>   -28.2863     0.0000    20.0000 </r>
       <r>   -28.1036     0.0000    20.0000 </r>
       <r>   -27.9210     0.0000    20.0000 </r>
       <r>   -27.7383     0.0000    20.0000 </r>
       <r>   -27.5557     0.0000    20.0000 </r>
       <r>   -27.3730     0.0000    20.0000 </r>
       <r>   -27.1903     0.0000    20.0000 </r>
       <r>   -27.0077     0.0000    20.0000 </r>
       <r>   -26.8250     0.0000    20.0000 </r>
       <r>   -26.6423     0.0000    20.0000 </r>
       <r>   -26.4597     0.0000    20.0000 </r>
       <r>   -26.2770     0.0000    20.0000 </r>
       <r>   -26.0944     0.0000    20.0000 </r>
       <r>   -25.9117     0.0000    20.0000 </r>
       <r>   -25.7290     0.0000    20.0000 </r>
       <r>   -25.5464     0.0000    20.0000 </r>
       <r>   -25.3637     0.0000    20.0000 </r>
       <r>   -25.1810     0.0000    20.0000 </r>
       <r>   -24.9984     0.0000    20.0000 </r>
       <r>   -24.8157     0.0000    20.0000 </r>
       <r>   -24.6331     0.0000    20.0000 </r>
       <r>   -24.4504     0.0000    20.0000 </r>
       <r>   -24.2677     0.0000    20.0000 </r>
       <r>   -24.0851     0.0000    20.0000 </r>
       <r>   -23.9024     0.0000    20.0000 </r>
       <r>   -23.7198     0.0000    20.0000 </r>
       <r>   -23.5371     0.0000    20.0000 </r>
       <r>   -23.3544     0.0000    20.0000 </r>
       <r>   -23.1718     0.0000    20.0000 </r>
       <r>   -22.9891     0.0000    20.0000 </r>
       <r>   -22.8064     0.0000    20.0000 </r>
       <r>   -22.6238     0.0000    20.0000 </r>
       <r>   -22.4411     0.0000    20.0000 </r>
       <r>   -22.2585     0.0000    20.0000 </r>
       <r>   -22.0758     0.0000    20.0000 </r>
       <r>   -21.8931     0.0000    20.0000 </r>
       <r>   -21.7105     0.0000    20.0000 </r>
       <r>   -21.5278     0.0000    20.0000 </r>
       <r>   -21.3451     0.0000    20.0000 </r>
       <r>   -21.1625     0.0000    20.0000 </r>
       <r>   -20.9798     0.0000    20.0000 </r>
       <r>   -20.7972     0.0000    20.0000 </r>
       <r>   -20.6145     0.0000    20.0000 </r>
       <r>   -20.4318     0.0000    20.0000 </r>
       <r>   -20.2492     0.0000    20.0000 </r>
       <r>   -20.0665     0.0000    20.0000 </r>
       <r>   -19.8839     0.0000    20.0000 </r>
       <r>   -19.7012     0.0000    20.0000 </r>
       <r>   -19.5185     0.0000    20.0000 </r>
       <r>   -19.3359     0.0000    20.0000 </r>
       <r>   -19.1532     0.0000    20.0000 </r>
       <r>   -18.9705     0.0000    20.0000 </r>
       <r>   -18.7879     0.0000    32.0000 </r>
       <r>   -18.6052     0.0000    98.0000 </r>
       <r>   -18.4226     0.0000   152.0000 </r>
       <r>   -18.2399     0.0000   172.0000 </r>
       <r>   -18.0572     0.0000   180.0000 </r>
       <r>   -17.8746     0.0000   180.0000 </r>
       <r>   -17.6919     0.0000   180.0000 </r>
       <r>   -17.5092     0.0000   180.0000 </r>
       <r>   -17.3266     0.0000   180.0000 </r>
       <r>   -17.1439     0.0000   180.0000 </r>
       <r>   -16.9613     0.0000   180.0000 </r>
       <r>   -16.7786     0.0000   180.0000 </r>
       <r>   -16.5959     0.0000   180.0000 </r>
       <r>   -16.4133     0.0000   180.0000 </r>
       <r>   -16.2306     0.0000   180.0000 </r>
       <r>   -16.0480     0.0000   180.0000 </r>
       <r>   -15.8653     0.0000   180.0000 </r>
       <r>   -15.6826     0.0000   180.0000 </r>
       <r>   -15.5000     0.0000   180.0000 </r>
       <r>   -15.3173     0.0000   180.0000 </r>
       <r>   -15.1346     0.0000   180.0000 </r>
       <r>   -14.9520     0.0000   180.0000 </r>
       <r>   -14.7693     0.0000   180.0000 </r>
       <r>   -14.5867     0.0000   180.0000 </r>
       <r>   -14.4040     0.0000   180.0000 </r>
       <r>   -14.2213     0.0000   180.0000 </r>
       <r>   -14.0387     0.0000   180.0000 </r>
       <r>   -13.8560     0.0000   180.0000 </r>
       <r>   -13.6733     0.0000   180.0000 </r>
       <r>   -13.4907     0.0000   182.0000 </r>
       <r>   -13.3080     0.0000   184.0000 </r>
       <r>   -13.1254     0.0000   184.0000 </r>
       <r>   -12.9427     0.0000   184.0000 </r>
       <r>   -12.7600     0.0000   190.0000 </r>
       <r>   -12.5774     0.0000   206.0000 </r>
       <r>   -12.3947     0.0000   208.0000 </r>
       <r>   -12.2121     0.0000   208.0000 </r>
       <r>   -12.0294     0.0000   208.0000 </r>
       <r>   -11.8467     0.0000   212.0000 </r>
       <r>   -11.6641     0.0000   212.0000 </r>
       <r>   -11.4814     0.0000   212.0000 </r>
       <r>   -11.2987     0.0000   212.0000 </r>
       <r>   -11.1161     0.0000   212.0000 </r>
       <r>   -10.9334     0.0000   212.0000 </r>
       <r>   -10.7508     0.0000   212.0000 </r>
       <r>   -10.5681     0.0000   212.0000 </r>
       <r>   -10.3854     0.0000   212.0000 </r>
       <r>   -10.2028     0.0000   212.0000 </r>
       <r>   -10.0201     0.0000   212.0000 </r>
       <r>    -9.8374     0.0000   212.0000 </r>
       <r>    -9.6548     0.0000   212.0000 </r>
       <r>    -9.4721     0.0000   212.0000 </r>
       <r>    -9.2895     1.8013   212.0222 </r>
       <r>    -9.1068    10.2019   213.4282 </r>
       <r>    -8.9241     0.0000   216.0000 </r>
       <r>    -8.7415    15.7355   218.2655 </r>
       <r>    -8.5588    13.0441   220.6364 </r>
       <r>    -8.3762    30.8683   224.8569 </r>
       <r>    -8.1935    13.1601   228.2372 </r>
       <r>    -8.0108    26.8226   232.7451 </r>
       <r>    -7.8282    17.3594   236.6392 </r>
       <r>    -7.6455     6.4839   239.9641 </r>
       <r>    -7.4628    13.0010   243.2583 </r>
       <r>    -7.2802     0.0000   244.0000 </r>
       <r>    -7.0975     0.0000   244.0000 </r>
       <r>    -6.9149     0.0000   244.0000 </r>
       <r>    -6.7322     0.0000   244.0000 </r>
       <r>    -6.5495     0.0000   244.0000 </r>
       <r>    -6.3669     0.0000   244.0000 </r>
       <r>    -6.1842    16.0170   245.3110 </r>
       <r>    -6.0015    22.6297   249.6946 </r>
       <r>    -5.8189    17.5453   253.0995 </r>
       <r>    -5.6362    20.9585   257.8160 </r>
       <r>    -5.4536    21.2758   261.7416 </r>
       <r>    -5.2709    17.5725   265.4588 </r>
       <r>    -5.0882     6.0091   267.6779 </r>
       <r>    -4.9056     6.5919   268.5263 </r>
       <r>    -4.7229     7.9688   269.9009 </r>
       <r>    -4.5403    10.4142   271.5863 </r>
       <r>    -4.3576     5.8585   273.0691 </r>
       <r>    -4.1749     7.1909   274.3101 </r>
       <r>    -3.9923     4.2340   275.3696 </r>
       <r>    -3.8096     1.3539   275.8593 </r>
       <r>    -3.6269     0.1678   275.9963 </r>
       <r>    -3.4443     0.0000   276.0000 </r>
       <r>    -3.2616     0.0000   276.0000 </r>
       <r>    -3.0790     0.0000   276.0000 </r>
       <r>    -2.8963     0.0000   276.0000 </r>
       <r>    -2.7136     0.0000   276.0000 </r>
       <r>    -2.5310     0.0000   276.0000 </r>
       <r>    -2.3483     0.0000   276.0000 </r>
       <r>    -2.1656     0.0000   276.0000 </r>
       <r>    -1.9830     0.0000   276.0000 </r>
       <r>    -1.8003     0.0000   276.0000 </r>
       <r>    -1.6177     0.0000   276.0000 </r>
       <r>    -1.4350     0.0000   276.0000 </r>
       <r>    -1.2523     4.8898   276.2364 </r>
       <r>    -1.0697     9.4473   277.6931 </r>
       <r>    -0.8870    13.7726   279.9053 </r>
       <r>    -0.7044     9.2086   282.0343 </r>
       <r>    -0.5217     4.9798   283.3303 </r>
       <r>    -0.3390    21.5198   285.5673 </r>
       <r>    -0.1564    27.9436   289.7897 </r>
       <r>     0.0263    38.4095   296.8104 </r>
       <r>     0.2090    30.7215   302.7940 </r>
       <r>     0.3916    37.8426   309.4070 </r>
       <r>     0.5743    41.4124   316.7729 </r>
       <r>     0.7569    32.8080   323.4948 </r>
       <r>     0.9396    32.5308   330.0292 </r>
       <r>     1.1223    50.4256   337.7389 </r>
       <r>     1.3049    53.1562   346.6504 </r>
       <r>     1.4876    47.8066   355.4576 </r>
       <r>     1.6703    46.0097   364.5512 </r>
       <r>     1.8529    56.4822   373.5221 </r>
       <r>     2.0356    42.7543   381.1328 </r>
       <r>     2.2182    42.0088   389.5982 </r>
       <r>     2.4009    50.6137   397.3031 </r>
       <r>     2.5836    68.2434   408.4979 </r>
       <r>     2.7662    82.6509   419.9324 </r>
       <r>     2.9489    71.3305   431.7711 </r>
       <r>     3.1315    55.6618   444.0247 </r>
       <r>     3.3142    28.4750   451.3893 </r>
       <r>     3.4969    47.1875   457.7334 </r>
       <r>     3.6795    18.7283   462.9499 </r>
       <r>     3.8622    11.4664   465.8027 </r>
       <r>     4.0449     5.9882   467.3970 </r>
       <r>     4.2275     0.5732   467.9905 </r>
       <r>     4.4102     0.0000   468.0000 </r>
       <r>     4.5928     0.0000   468.0000 </r>
       <r>     4.7755     0.0000   468.0000 </r>
       <r>     4.9582     0.0000   468.0000 </r>
       <r>     5.1408     0.1480   468.0021 </r>
       <r>     5.3235     3.7380   468.3305 </r>
       <r>     5.5062     7.7005   469.3751 </r>
       <r>     5.6888     9.2131   471.0277 </r>
       <r>     5.8715    22.0769   474.6483 </r>
       <r>     6.0541    12.8226   477.4212 </r>
       <r>     6.2368    11.4785   479.5934 </r>
       <r>     6.4195    12.9035   481.7985 </r>
       <r>     6.6021    14.6121   484.3119 </r>
       <r>     6.7848    16.3080   487.1354 </r>
       <r>     6.9674    18.5387   490.2923 </r>
       <r>     7.1501    25.4068   494.1747 </r>
       <r>     7.3328    38.0105   499.9933 </r>
       <r>     7.5154    32.2584   507.6704 </r>
       <r>     7.6981    30.7615   512.3712 </r>
       <r>     7.8808    42.1855   520.1475 </r>
       <r>     8.0634    32.3397   528.5190 </r>
       <r>     8.2461    20.1257   532.9123 </r>
       <r>     8.4287    19.2044   536.3686 </r>
       <r>     8.6114    25.4538   540.3711 </r>
       <r>     8.7941    32.3447   545.2256 </r>
       <r>     8.9767    35.2299   553.2442 </r>
       <r>     9.1594    13.6928   557.6999 </r>
       <r>     9.3421     6.2116   559.3416 </r>
       <r>     9.5247     0.9693   559.9730 </r>
       <r>     9.7074     0.0000   560.0000 </r>
       <r>     9.8900     0.0000   560.0000 </r>
       <r>    10.0727     0.0000   560.0000 </r>
       <r>    10.2554     0.0000   560.0000 </r>
       <r>    10.4380     0.0000   560.0000 </r>
       <r>    10.6207     0.0000   560.0000 </r>
       <r>    10.8033     0.0000   560.0000 </r>
       <r>    10.9860     0.0000   560.0000 </r>
       <r>    11.1687     0.0000   560.0000 </r>
       <r>    11.3513     0.0000   560.0000 </r>
       <r>    11.5340     0.0000   560.0000 </r>
       <r>    11.7167     0.0000   560.0000 </r>
       <r>    11.8993     0.0000   560.0000 </r>
       <r>    12.0820     0.0000   560.0000 </r>
      </set>
     </set>
    </array>
   </total>
  </dos>
 </calculation>
 <structure name="finalpos" >
  <crystal>
   <varray name="basis" >
    <v>      11.17850000       0.00000000       0.00000000 </v>
    <v>       0.00000000       9.57460000       0.00000000 </v>
    <v>       0.00000000       0.00000000      11.18240000 </v>
   </varray>
   <i name="volume">   1196.84853820 </i>
   <varray name="rec_basis" >
    <v>       0.08945744       0.00000000       0.00000000 </v>
    <v>       0.00000000       0.10444301       0.00000000 </v>
    <v>       0.00000000       0.00000000       0.08942624 </v>
   </varray>
  </crystal>
  <varray name="positions" >
   <v>       0.37539000       0.00017000       0.43687000 </v>
   <v>       0.12461000       0.99984000       0.18687000 </v>
   <v>       0.37461000       0.00017000       0.18687000 </v>
   <v>       0.62539000       0.99984000       0.43687000 </v>
   <v>       0.62461000       0.99984000       0.18687000 </v>
   <v>       0.87461000       0.00017000       0.18687000 </v>
   <v>       0.12539000       0.99984000       0.93687000 </v>
   <v>       0.37461000       0.00017000       0.68687000 </v>
   <v>       0.87539000       0.00017000       0.93687000 </v>
   <v>       0.62461000       0.99984000       0.68687000 </v>
   <v>       0.87539000       0.00017000       0.43687000 </v>
   <v>       0.12461000       0.99984000       0.68687000 </v>
   <v>       0.62539000       0.99984000       0.93687000 </v>
   <v>       0.00013000       0.29519000       0.06281000 </v>
   <v>       0.25013000       0.70481000       0.06281000 </v>
   <v>       0.24987000       0.29519000       0.31282000 </v>
   <v>       0.49987000       0.70481000       0.31282000 </v>
   <v>       0.50013000       0.29519000       0.06281000 </v>
   <v>       0.75013000       0.70481000       0.06281000 </v>
   <v>       0.74987000       0.29519000       0.31282000 </v>
   <v>       0.99987000       0.70481000       0.31282000 </v>
   <v>       0.00013000       0.29519000       0.56281000 </v>
   <v>       0.25013000       0.70481000       0.56281000 </v>
   <v>       0.24987000       0.29519000       0.81282000 </v>
   <v>       0.49987000       0.70481000       0.81282000 </v>
   <v>       0.50013000       0.29519000       0.56281000 </v>
   <v>       0.75013000       0.70481000       0.56281000 </v>
   <v>       0.74987000       0.29519000       0.81282000 </v>
   <v>       0.99987000       0.70481000       0.81282000 </v>
   <v>       0.25005000       0.32677000       0.06286000 </v>
   <v>       0.00005000       0.67323000       0.06286000 </v>
   <v>       0.49995000       0.32677000       0.31286000 </v>
   <v>       0.24995000       0.67323000       0.31286000 </v>
   <v>       0.75005000       0.32677000       0.06286000 </v>
   <v>       0.50005000       0.67323000       0.06286000 </v>
   <v>       0.99995000       0.32677000       0.31286000 </v>
   <v>       0.74995000       0.67323000       0.31286000 </v>
   <v>       0.25005000       0.32677000       0.56286000 </v>
   <v>       0.00005000       0.67323000       0.56286000 </v>
   <v>       0.49995000       0.32677000       0.81286000 </v>
   <v>       0.24995000       0.67323000       0.81286000 </v>
   <v>       0.75005000       0.32677000       0.56286000 </v>
   <v>       0.50005000       0.67323000       0.56286000 </v>
   <v>       0.99995000       0.32677000       0.81286000 </v>
   <v>       0.74995000       0.67323000       0.81286000 </v>
   <v>       0.49987000       0.07798000       0.06246000 </v>
   <v>       0.24987000       0.92202000       0.06246000 </v>
   <v>       0.25013000       0.07798000       0.31246000 </v>
   <v>       0.00013000       0.92202000       0.31246000 </v>
   <v>       0.99987000       0.07798000       0.06246000 </v>
   <v>       0.74987000       0.92202000       0.06246000 </v>
   <v>       0.75013000       0.07798000       0.31246000 </v>
   <v>       0.50013000       0.92202000       0.31246000 </v>
   <v>       0.49987000       0.07798000       0.56246000 </v>
   <v>       0.24987000       0.92202000       0.56246000 </v>
   <v>       0.25013000       0.07798000       0.81246000 </v>
   <v>       0.00013000       0.92202000       0.81246000 </v>
   <v>       0.99987000       0.07798000       0.56246000 </v>
   <v>       0.74987000       0.92202000       0.56246000 </v>
   <v>       0.75013000       0.07798000       0.81246000 </v>
   <v>       0.50013000       0.92202000       0.81246000 </v>
  </varray>
 </structure>
</modeling>
