<?xml version="1.0" encoding="ISO-8859-1"?>
<modeling>
 <generator>
  <i name="program" type="string">vasp </i>
  <i name="version" type="string">5.4.4.18Apr17-6-g9f103f2a35  </i>
  <i name="subversion" type="string">(build Jul 31 2017 11:33:29) complex            parallel </i>
  <i name="platform" type="string">LinuxIFC </i>
  <i name="date" type="string">2021 09 29 </i>
  <i name="time" type="string">08:42:48 </i>
 </generator>
 <incar>
  <i type="string" name="SYSTEM"> La2O2S</i>
  <i type="string" name="PREC">normal</i>
  <i type="int" name="NELMIN">     4</i>
  <i type="int" name="IBRION">     2</i>
  <i type="int" name="NFREE">    10</i>
  <i name="EDIFF">      0.00000100</i>
  <i name="EDIFFG">     -0.01000000</i>
  <i type="int" name="NSW">     1</i>
  <i type="int" name="ISIF">     2</i>
  <i name="ENCUT">    600.00000000</i>
  <i name="ENAUG">    900.00000000</i>
  <i type="int" name="ISMEAR">    -5</i>
  <i type="logical" name="LWAVE"> F  </i>
  <i type="logical" name="LCHARG"> F  </i>
  <v type="int" name="KPOINT_BSE">    -1     0     0     0</v>
 </incar>
 <structure name="primitive_cell" >
  <crystal>
   <varray name="basis" >
    <v>      11.17850000       0.00000000       0.00000000 </v>
    <v>       0.00000000       9.57460000       0.00000000 </v>
    <v>       0.00000000       0.00000000      11.18240000 </v>
   </varray>
   <i name="volume">   1196.84853820 </i>
   <varray name="rec_basis" >
    <v>       0.08945744       0.00000000       0.00000000 </v>
    <v>       0.00000000       0.10444301       0.00000000 </v>
    <v>       0.00000000       0.00000000       0.08942624 </v>
   </varray>
  </crystal>
  <varray name="positions" >
   <v>      -0.37461000      -0.00016000       0.43687000 </v>
   <v>      -0.24987000       0.07798000       0.31246000 </v>
   <v>      -0.49987000      -0.07798000       0.31246000 </v>
   <v>      -0.25013000      -0.07798000      -0.43754000 </v>
   <v>       0.49987000       0.07798000      -0.43754000 </v>
   <v>      -0.12461000       0.00017000       0.43687000 </v>
   <v>      -0.37539000      -0.00016000      -0.31313000 </v>
   <v>      -0.37539000      -0.00016000       0.18687000 </v>
   <v>      -0.25013000       0.29519000       0.31282000 </v>
   <v>       0.49987000      -0.29519000       0.31282000 </v>
   <v>      -0.24987000      -0.29519000      -0.43719000 </v>
   <v>      -0.49987000       0.29519000      -0.43719000 </v>
   <v>      -0.25005000      -0.32677000       0.31286000 </v>
   <v>       0.49995000       0.32677000       0.31286000 </v>
   <v>      -0.24995000       0.32677000      -0.43714000 </v>
   <v>      -0.49995000      -0.32677000      -0.43714000 </v>
   <v>       0.37461000       0.00017000      -0.31313000 </v>
   <v>      -0.25013000      -0.07798000       0.06246000 </v>
   <v>       0.00013000      -0.07798000       0.31246000 </v>
   <v>      -0.00013000       0.07798000      -0.43754000 </v>
   <v>       0.49987000       0.07798000       0.06246000 </v>
   <v>       0.25013000       0.07798000       0.31246000 </v>
   <v>      -0.24987000       0.07798000      -0.18754000 </v>
   <v>       0.24987000      -0.07798000      -0.43754000 </v>
   <v>      -0.49987000      -0.07798000      -0.18754000 </v>
   <v>      -0.24987000      -0.29519000       0.06281000 </v>
   <v>      -0.00013000      -0.29519000       0.31282000 </v>
   <v>      -0.49987000       0.29519000       0.06281000 </v>
   <v>       0.00013000       0.29519000      -0.43719000 </v>
   <v>       0.24987000       0.29519000       0.31282000 </v>
   <v>       0.25013000      -0.29519000      -0.43719000 </v>
   <v>      -0.25013000       0.29519000      -0.18718000 </v>
   <v>       0.49987000      -0.29519000      -0.18718000 </v>
   <v>      -0.24995000       0.32677000       0.06286000 </v>
   <v>      -0.49995000      -0.32677000       0.06286000 </v>
   <v>      -0.00005000       0.32677000       0.31286000 </v>
   <v>       0.00005000      -0.32677000      -0.43714000 </v>
   <v>       0.24995000      -0.32677000       0.31286000 </v>
   <v>       0.25005000       0.32677000      -0.43714000 </v>
   <v>      -0.25005000      -0.32677000      -0.18714000 </v>
   <v>       0.49995000       0.32677000      -0.18714000 </v>
   <v>      -0.00013000       0.07798000       0.06246000 </v>
   <v>       0.24987000      -0.07798000       0.06246000 </v>
   <v>       0.00013000      -0.07798000      -0.18754000 </v>
   <v>       0.25013000       0.07798000      -0.18754000 </v>
   <v>       0.12461000      -0.00016000       0.18687000 </v>
   <v>       0.12461000      -0.00016000      -0.31313000 </v>
   <v>       0.37539000       0.00017000      -0.06313000 </v>
   <v>      -0.12461000       0.00017000      -0.06313000 </v>
   <v>       0.00013000       0.29519000       0.06281000 </v>
   <v>       0.25013000      -0.29519000       0.06281000 </v>
   <v>      -0.00013000      -0.29519000      -0.18718000 </v>
   <v>       0.24987000       0.29519000      -0.18718000 </v>
   <v>       0.00005000      -0.32677000       0.06286000 </v>
   <v>       0.25005000       0.32677000       0.06286000 </v>
   <v>      -0.00005000       0.32677000      -0.18714000 </v>
   <v>       0.24995000      -0.32677000      -0.18714000 </v>
  </varray>
 </structure>
 <varray name="primitive_index" >
  <v type="int" >        1 </v>
  <v type="int" >       48 </v>
  <v type="int" >       49 </v>
  <v type="int" >       55 </v>
  <v type="int" >       50 </v>
  <v type="int" >        4 </v>
  <v type="int" >        2 </v>
  <v type="int" >        5 </v>
  <v type="int" >       16 </v>
  <v type="int" >       13 </v>
  <v type="int" >       23 </v>
  <v type="int" >       22 </v>
  <v type="int" >       33 </v>
  <v type="int" >       28 </v>
  <v type="int" >       38 </v>
  <v type="int" >       39 </v>
  <v type="int" >        8 </v>
  <v type="int" >       47 </v>
  <v type="int" >       45 </v>
  <v type="int" >       54 </v>
  <v type="int" >       42 </v>
  <v type="int" >       44 </v>
  <v type="int" >       56 </v>
  <v type="int" >       51 </v>
  <v type="int" >       57 </v>
  <v type="int" >       15 </v>
  <v type="int" >       17 </v>
  <v type="int" >       14 </v>
  <v type="int" >       18 </v>
  <v type="int" >       12 </v>
  <v type="int" >       19 </v>
  <v type="int" >       24 </v>
  <v type="int" >       21 </v>
  <v type="int" >       30 </v>
  <v type="int" >       31 </v>
  <v type="int" >       32 </v>
  <v type="int" >       35 </v>
  <v type="int" >       29 </v>
  <v type="int" >       34 </v>
  <v type="int" >       41 </v>
  <v type="int" >       36 </v>
  <v type="int" >       46 </v>
  <v type="int" >       43 </v>
  <v type="int" >       53 </v>
  <v type="int" >       52 </v>
  <v type="int" >        3 </v>
  <v type="int" >        7 </v>
  <v type="int" >        6 </v>
  <v type="int" >        9 </v>
  <v type="int" >       10 </v>
  <v type="int" >       11 </v>
  <v type="int" >       25 </v>
  <v type="int" >       20 </v>
  <v type="int" >       27 </v>
  <v type="int" >       26 </v>
  <v type="int" >       40 </v>
  <v type="int" >       37 </v>
 </varray>
 <kpoints>
  <generation param="Gamma">
   <v type="int" name="divisions">       2        2        2 </v>
   <v name="usershift">      0.00000000       0.00000000       0.00000000 </v>
   <v name="genvec1">      0.50000000       0.00000000       0.00000000 </v>
   <v name="genvec2">      0.00000000       0.50000000       0.00000000 </v>
   <v name="genvec3">      0.00000000       0.00000000       0.50000000 </v>
   <v name="shift">      0.00000000       0.00000000       0.00000000 </v>
  </generation>
  <varray name="kpointlist" >
   <v>       0.00000000       0.00000000       0.00000000 </v>
   <v>       0.50000000       0.00000000       0.00000000 </v>
   <v>       0.00000000       0.50000000       0.00000000 </v>
   <v>       0.50000000       0.50000000       0.00000000 </v>
   <v>       0.00000000       0.00000000       0.50000000 </v>
   <v>       0.50000000       0.00000000       0.50000000 </v>
   <v>       0.00000000       0.50000000       0.50000000 </v>
   <v>       0.50000000       0.50000000       0.50000000 </v>
  </varray>
  <varray name="weights" >
   <v>       0.12500000 </v>
   <v>       0.12500000 </v>
   <v>       0.12500000 </v>
   <v>       0.12500000 </v>
   <v>       0.12500000 </v>
   <v>       0.12500000 </v>
   <v>       0.12500000 </v>
   <v>       0.12500000 </v>
  </varray>
  <varray name="tetrahedronlist"  type="int" >
   <v type="int" >        2        1        2        4        5 </v>
   <v type="int" >        2        1        3        4        5 </v>
   <v type="int" >        2        3        4        5        7 </v>
   <v type="int" >        2        2        4        5        6 </v>
   <v type="int" >        2        4        5        6        8 </v>
   <v type="int" >        2        4        5        7        8 </v>
   <v type="int" >        2        1        2        3        6 </v>
   <v type="int" >        2        2        3        4        6 </v>
   <v type="int" >        2        3        4        6        8 </v>
   <v type="int" >        2        1        3        5        6 </v>
   <v type="int" >        2        3        5        6        7 </v>
   <v type="int" >        2        3        6        7        8 </v>
   <v type="int" >        2        2        3        4        7 </v>
   <v type="int" >        2        1        2        3        7 </v>
   <v type="int" >        2        1        2        5        7 </v>
   <v type="int" >        2        2        4        7        8 </v>
   <v type="int" >        2        2        6        7        8 </v>
   <v type="int" >        2        2        5        6        7 </v>
   <v type="int" >        2        1        3        4        8 </v>
   <v type="int" >        2        1        2        4        8 </v>
   <v type="int" >        2        1        2        6        8 </v>
   <v type="int" >        2        1        3        7        8 </v>
   <v type="int" >        2        1        5        7        8 </v>
   <v type="int" >        2        1        5        6        8 </v>
  </varray>
  <i name="volumeweight">      0.02083333 </i>
 </kpoints>
 <parameters>
  <separator name="general" >
   <i type="string" name="SYSTEM">La2O2S</i>
   <i type="logical" name="LCOMPAT"> F  </i>
  </separator>
  <separator name="electronic" >
   <i type="string" name="PREC">normal</i>
   <i name="ENMAX">    600.00000000</i>
   <i name="ENAUG">    900.00000000</i>
   <i name="EDIFF">      0.00000100</i>
   <i type="int" name="IALGO">    38</i>
   <i type="int" name="IWAVPR">    11</i>
   <i type="int" name="NBANDS">   280</i>
   <i name="NELECT">    452.00000000</i>
   <i type="int" name="TURBO">     0</i>
   <i type="int" name="IRESTART">     0</i>
   <i type="int" name="NREBOOT">     0</i>
   <i type="int" name="NMIN">     0</i>
   <i name="EREF">      0.00000000</i>
   <separator name="electronic smearing" >
    <i type="int" name="ISMEAR">    -5</i>
    <i name="SIGMA">      0.20000000</i>
    <i name="KSPACING">      0.50000000</i>
    <i type="logical" name="KGAMMA"> T  </i>
   </separator>
   <separator name="electronic projectors" >
    <i type="logical" name="LREAL"> F  </i>
    <v name="ROPT">      0.00000000      0.00000000      0.00000000      0.00000000      0.00000000</v>
    <i type="int" name="LMAXPAW">  -100</i>
    <i type="int" name="LMAXMIX">     2</i>
    <i type="logical" name="NLSPLINE"> F  </i>
   </separator>
   <separator name="electronic startup" >
    <i type="int" name="ISTART">     0</i>
    <i type="int" name="ICHARG">     2</i>
    <i type="int" name="INIWAV">     1</i>
   </separator>
   <separator name="electronic spin" >
    <i type="int" name="ISPIN">     1</i>
    <i type="logical" name="LNONCOLLINEAR"> F  </i>
    <v name="MAGMOM">      1.00000000      1.00000000      1.00000000      1.00000000      1.00000000      1.00000000      1.00000000      1.00000000      1.00000000      1.00000000      1.00000000      1.00000000      1.00000000      1.00000000      1.00000000      1.00000000      1.00000000      1.00000000      1.00000000      1.00000000
      1.00000000      1.00000000      1.00000000      1.00000000      1.00000000      1.00000000      1.00000000      1.00000000      1.00000000      1.00000000      1.00000000      1.00000000      1.00000000      1.00000000      1.00000000      1.00000000      1.00000000      1.00000000      1.00000000      1.00000000
      1.00000000      1.00000000      1.00000000      1.00000000      1.00000000      1.00000000      1.00000000      1.00000000      1.00000000      1.00000000      1.00000000      1.00000000      1.00000000      1.00000000      1.00000000      1.00000000      1.00000000</v>
    <i name="NUPDOWN">     -1.00000000</i>
    <i type="logical" name="LSORBIT"> F  </i>
    <v name="SAXIS">      0.00000000      0.00000000      1.00000000</v>
    <i type="logical" name="LSPIRAL"> F  </i>
    <v name="QSPIRAL">      0.00000000      0.00000000      0.00000000</v>
    <i type="logical" name="LZEROZ"> F  </i>
   </separator>
   <separator name="electronic exchange-correlation" >
    <i type="logical" name="LASPH"> F  </i>
    <i type="logical" name="LMETAGGA"> F  </i>
   </separator>
   <separator name="electronic convergence" >
    <i type="int" name="NELM">    60</i>
    <i type="int" name="NELMDL">    -5</i>
    <i type="int" name="NELMIN">     4</i>
    <i name="ENINI">    600.00000000</i>
    <separator name="electronic convergence detail" >
     <i type="logical" name="LDIAG"> T  </i>
     <i type="logical" name="LSUBROT"> F  </i>
     <i name="WEIMIN">      0.00100000</i>
     <i name="EBREAK">      0.00000000</i>
     <i name="DEPER">      0.30000000</i>
     <i type="int" name="NRMM">     4</i>
     <i name="TIME">      0.40000000</i>
    </separator>
   </separator>
   <separator name="electronic mixer" >
    <i name="AMIX">      0.40000000</i>
    <i name="BMIX">      1.00000000</i>
    <i name="AMIN">      0.10000000</i>
    <i name="AMIX_MAG">      1.60000000</i>
    <i name="BMIX_MAG">      1.00000000</i>
    <separator name="electronic mixer details" >
     <i type="int" name="IMIX">     4</i>
     <i type="logical" name="MIXFIRST"> F  </i>
     <i type="int" name="MAXMIX">   -45</i>
     <i name="WC">    100.00000000</i>
     <i type="int" name="INIMIX">     1</i>
     <i type="int" name="MIXPRE">     1</i>
     <i type="int" name="MREMOVE">     5</i>
    </separator>
   </separator>
   <separator name="electronic dipolcorrection" >
    <i type="logical" name="LDIPOL"> F  </i>
    <i type="logical" name="LMONO"> F  </i>
    <i type="int" name="IDIPOL">     0</i>
    <i name="EPSILON">      1.00000000</i>
    <v name="DIPOL">   -100.00000000   -100.00000000   -100.00000000</v>
    <i name="EFIELD">      0.00000000</i>
   </separator>
  </separator>
  <separator name="grids" >
   <i type="int" name="NGX">    70</i>
   <i type="int" name="NGY">    60</i>
   <i type="int" name="NGZ">    70</i>
   <i type="int" name="NGXF">   140</i>
   <i type="int" name="NGYF">   120</i>
   <i type="int" name="NGZF">   140</i>
   <i type="logical" name="ADDGRID"> F  </i>
  </separator>
  <separator name="ionic" >
   <i type="int" name="NSW">     1</i>
   <i type="int" name="IBRION">     2</i>
   <i type="int" name="MDALGO">     0</i>
   <i type="int" name="ISIF">     2</i>
   <i name="PSTRESS">      0.00000000</i>
   <i name="EDIFFG">     -0.01000000</i>
   <i type="int" name="NFREE">    10</i>
   <i name="POTIM">      0.50000000</i>
   <i name="SMASS">     -3.00000000</i>
   <i name="SCALEE">      1.00000000</i>
  </separator>
  <separator name="ionic md" >
   <i name="TEBEG">      0.00010000</i>
   <i name="TEEND">      0.00010000</i>
   <i type="int" name="NBLOCK">     1</i>
   <i type="int" name="KBLOCK">     1</i>
   <i type="int" name="NPACO">   256</i>
   <i name="APACO">     16.00000000</i>
  </separator>
  <separator name="symmetry" >
   <i type="int" name="ISYM">     2</i>
   <i name="SYMPREC">      0.00001000</i>
  </separator>
  <separator name="dos" >
   <i type="int" name="LORBIT">     0</i>
   <v name="RWIGS">     -1.00000000     -1.00000000     -1.00000000     -1.00000000     -1.00000000</v>
   <i type="int" name="NEDOS">   301</i>
   <i name="EMIN">     10.00000000</i>
   <i name="EMAX">    -10.00000000</i>
   <i name="EFERMI">      0.00000000</i>
  </separator>
  <separator name="writing" >
   <i type="int" name="NWRITE">     2</i>
   <i type="logical" name="LWAVE"> F  </i>
   <i type="logical" name="LDOWNSAMPLE"> F  </i>
   <i type="logical" name="LCHARG"> F  </i>
   <i type="logical" name="LPARD"> F  </i>
   <i type="logical" name="LVTOT"> F  </i>
   <i type="logical" name="LVHAR"> F  </i>
   <i type="logical" name="LELF"> F  </i>
   <i type="logical" name="LOPTICS"> F  </i>
   <v name="STM">      0.00000000      0.00000000      0.00000000      0.00000000      0.00000000      0.00000000      0.00000000</v>
  </separator>
  <separator name="performance" >
   <i type="int" name="NPAR">    28</i>
   <i type="int" name="NSIM">     4</i>
   <i type="int" name="NBLK">    -1</i>
   <i type="logical" name="LPLANE"> T  </i>
   <i type="logical" name="LSCALAPACK"> T  </i>
   <i type="logical" name="LSCAAWARE"> F  </i>
   <i type="logical" name="LSCALU"> F  </i>
   <i type="logical" name="LASYNC"> F  </i>
   <i type="logical" name="LORBITALREAL"> F  </i>
  </separator>
  <separator name="miscellaneous" >
   <i type="int" name="IDIOT">     3</i>
   <i type="int" name="ISPECIAL">     0</i>
   <i type="logical" name="LMUSIC"> F  </i>
   <v name="POMASS">      7.01000000     24.30500000    208.98000000     32.06600000     16.00000000</v>
   <v name="DARWINR">      0.00000000      0.00000000      0.00000000      0.00000000      0.00000000</v>
   <v name="DARWINV">      1.00000000      1.00000000      1.00000000      1.00000000      1.00000000</v>
   <i type="logical" name="LCORR"> T  </i>
  </separator>
  <i type="logical" name="GGA_COMPAT"> T  </i>
  <i type="logical" name="LBERRY"> F  </i>
  <i type="int" name="ICORELEVEL">     0</i>
  <i type="logical" name="LDAU"> F  </i>
  <i type="int" name="I_CONSTRAINED_M">     0</i>
  <separator name="electronic exchange-correlation" >
   <i type="string" name="GGA">--</i>
   <i type="int" name="VOSKOWN">     0</i>
   <i type="logical" name="LHFCALC"> F  </i>
   <i type="string" name="PRECFOCK"></i>
   <i type="logical" name="LSYMGRAD"> F  </i>
   <i type="logical" name="LHFONE"> F  </i>
   <i type="logical" name="LRHFCALC"> F  </i>
   <i type="logical" name="LTHOMAS"> F  </i>
   <i type="logical" name="LMODELHF"> F  </i>
   <i name="ENCUT4O">     -1.00000000</i>
   <i type="int" name="EXXOEP">     0</i>
   <i type="int" name="FOURORBIT">     0</i>
   <i name="AEXX">      0.00000000</i>
   <i name="HFALPHA">      0.00000000</i>
   <i name="MCALPHA">      0.00000000</i>
   <i name="ALDAX">      1.00000000</i>
   <i name="AGGAX">      1.00000000</i>
   <i name="ALDAC">      1.00000000</i>
   <i name="AGGAC">      1.00000000</i>
   <i type="int" name="NKREDX">     1</i>
   <i type="int" name="NKREDY">     1</i>
   <i type="int" name="NKREDZ">     1</i>
   <i type="logical" name="SHIFTRED"> F  </i>
   <i type="logical" name="ODDONLY"> F  </i>
   <i type="logical" name="EVENONLY"> F  </i>
   <i type="int" name="LMAXFOCK">     0</i>
   <i type="int" name="NMAXFOCKAE">     0</i>
   <i type="logical" name="LFOCKAEDFT"> F  </i>
   <i name="HFSCREEN">      0.00000000</i>
   <i name="HFSCREENC">      0.00000000</i>
   <i type="int" name="NBANDSGWLOW">     0</i>
  </separator>
  <separator name="vdW DFT" >
   <i type="logical" name="LUSE_VDW"> F  </i>
   <i name="Zab_VDW">     -0.84910000</i>
   <i name="PARAM1">      0.12340000</i>
   <i name="PARAM2">      1.00000000</i>
   <i name="PARAM3">      0.00000000</i>
  </separator>
  <separator name="model GW" >
   <i type="int" name="MODEL_GW">     0</i>
   <i name="MODEL_EPS0">     12.59840567</i>
   <i name="MODEL_ALPHA">      1.00000000</i>
  </separator>
  <separator name="linear response parameters" >
   <i type="logical" name="LEPSILON"> F  </i>
   <i type="logical" name="LRPA"> F  </i>
   <i type="logical" name="LNABLA"> F  </i>
   <i type="logical" name="LVEL"> F  </i>
   <i type="int" name="KINTER">     0</i>
   <i name="CSHIFT">      0.10000000</i>
   <i name="OMEGAMAX">     -1.00000000</i>
   <i name="DEG_THRESHOLD">      0.00200000</i>
   <i name="RTIME">     -0.10000000</i>
   <i name="WPLASMAI">      0.00000000</i>
   <v name="DFIELD">      0.00000000      0.00000000      0.00000000</v>
   <v name="WPLASMA">      0.00000000      0.00000000      0.00000000      0.00000000      0.00000000      0.00000000      0.00000000      0.00000000      0.00000000</v>
  </separator>
  <separator name="orbital magnetization" >
   <i type="logical" name="NUCIND"> F  </i>
   <v name="MAGPOS">      0.00000000      0.00000000      0.00000000</v>
   <i type="logical" name="LNICSALL"> T  </i>
   <i type="logical" name="ORBITALMAG"> F  </i>
   <i type="logical" name="LMAGBLOCH"> F  </i>
   <i type="logical" name="LCHIMAG"> F  </i>
   <i type="logical" name="LGAUGE"> T  </i>
   <i type="int" name="MAGATOM">     0</i>
   <v name="MAGDIPOL">      0.00000000      0.00000000      0.00000000</v>
   <v name="AVECCONST">      0.00000000      0.00000000      0.00000000</v>
  </separator>
  <separator name="response functions" >
   <i type="logical" name="LADDER"> F  </i>
   <i type="logical" name="LRPAFORCE"> F  </i>
   <i type="logical" name="LFXC"> F  </i>
   <i type="logical" name="LHARTREE"> T  </i>
   <i type="int" name="IBSE">     0</i>
   <v type="int" name="KPOINT">    -1     0     0     0</v>
   <i type="logical" name="LTCTE"> F  </i>
   <i type="logical" name="LTETE"> F  </i>
   <i type="logical" name="LTRIPLET"> F  </i>
   <i type="logical" name="LFXCEPS"> F  </i>
   <i type="logical" name="LFXHEG"> F  </i>
   <i type="int" name="NATURALO">     2</i>
   <i type="logical" name="L2ORDER"> F  </i>
   <i type="logical" name="LMP2LT"> F  </i>
   <i type="logical" name="LUSEW"> F  </i>
   <i name="ENCUTGW">     -2.00000000</i>
   <i name="ENCUTGWSOFT">     -2.00000000</i>
   <i name="ENCUTLF">     -1.00000000</i>
   <i type="int" name="LMAXMP2">    -1</i>
   <i name="SCISSOR">      0.00000000</i>
   <i type="int" name="NOMEGA">     0</i>
   <i type="int" name="NOMEGAR">     0</i>
   <i type="int" name="NBANDSGW">    -1</i>
   <i type="int" name="NBANDSO">    -1</i>
   <i type="int" name="NBANDSV">    -1</i>
   <i type="int" name="NELM">     1</i>
   <i type="int" name="NELMHF">     1</i>
   <i type="int" name="DIM">     3</i>
   <i type="int" name="ANTIRES">     0</i>
   <i name="OMEGAMAX">    -30.00000000</i>
   <i name="OMEGAMIN">    -30.00000000</i>
   <i name="OMEGATL">   -200.00000000</i>
   <i type="int" name="OMEGAGRID">   140</i>
   <i name="CSHIFT">     -0.10000000</i>
   <i type="logical" name="SELFENERGY"> F  </i>
   <i type="logical" name="LSPECTRAL"> F  </i>
   <i type="logical" name="LSPECTRALGW"> F  </i>
   <i type="logical" name="LSINGLES"> F  </i>
   <i type="logical" name="LFERMIGW"> F  </i>
   <i type="logical" name="ODDONLYGW"> F  </i>
   <i type="logical" name="EVENONLYGW"> F  </i>
   <i type="int" name="NKREDLFX">     1</i>
   <i type="int" name="NKREDLFY">     1</i>
   <i type="int" name="NKREDLFZ">     1</i>
   <i type="int" name="MAXMEM">  2800</i>
   <i type="int" name="TELESCOPE">     0</i>
   <i type="int" name="TAUPAR">     1</i>
   <i type="int" name="OMEGAPAR">    -1</i>
   <i name="LAMBDA">      1.00000000</i>
  </separator>
  <separator name="External order field" >
   <i name="OFIELD_KAPPA">      0.00000000</i>
   <v name="OFIELD_K">      0.00000000      0.00000000      0.00000000</v>
   <i name="OFIELD_Q6_NEAR">      0.00000000</i>
   <i name="OFIELD_Q6_FAR">      0.00000000</i>
   <i name="OFIELD_A">      0.00000000</i>
  </separator>
 </parameters>
 <atominfo>
  <atoms>      57 </atoms>
  <types>       5 </types>
  <array name="atoms" >
   <dimension dim="1">ion</dimension>
   <field type="string">element</field>
   <field type="int">atomtype</field>
   <set>
    <rc><c>Li</c><c>   1</c></rc>
    <rc><c>Li</c><c>   1</c></rc>
    <rc><c>Mg</c><c>   2</c></rc>
    <rc><c>Mg</c><c>   2</c></rc>
    <rc><c>Mg</c><c>   2</c></rc>
    <rc><c>Mg</c><c>   2</c></rc>
    <rc><c>Mg</c><c>   2</c></rc>
    <rc><c>Mg</c><c>   2</c></rc>
    <rc><c>Mg</c><c>   2</c></rc>
    <rc><c>Bi</c><c>   3</c></rc>
    <rc><c>Bi</c><c>   3</c></rc>
    <rc><c>Bi</c><c>   3</c></rc>
    <rc><c>Bi</c><c>   3</c></rc>
    <rc><c>Bi</c><c>   3</c></rc>
    <rc><c>Bi</c><c>   3</c></rc>
    <rc><c>Bi</c><c>   3</c></rc>
    <rc><c>Bi</c><c>   3</c></rc>
    <rc><c>Bi</c><c>   3</c></rc>
    <rc><c>Bi</c><c>   3</c></rc>
    <rc><c>Bi</c><c>   3</c></rc>
    <rc><c>Bi</c><c>   3</c></rc>
    <rc><c>Bi</c><c>   3</c></rc>
    <rc><c>Bi</c><c>   3</c></rc>
    <rc><c>Bi</c><c>   3</c></rc>
    <rc><c>Bi</c><c>   3</c></rc>
    <rc><c>S </c><c>   4</c></rc>
    <rc><c>S </c><c>   4</c></rc>
    <rc><c>S </c><c>   4</c></rc>
    <rc><c>S </c><c>   4</c></rc>
    <rc><c>S </c><c>   4</c></rc>
    <rc><c>S </c><c>   4</c></rc>
    <rc><c>S </c><c>   4</c></rc>
    <rc><c>S </c><c>   4</c></rc>
    <rc><c>S </c><c>   4</c></rc>
    <rc><c>S </c><c>   4</c></rc>
    <rc><c>S </c><c>   4</c></rc>
    <rc><c>S </c><c>   4</c></rc>
    <rc><c>S </c><c>   4</c></rc>
    <rc><c>S </c><c>   4</c></rc>
    <rc><c>S </c><c>   4</c></rc>
    <rc><c>S </c><c>   4</c></rc>
    <rc><c>O </c><c>   5</c></rc>
    <rc><c>O </c><c>   5</c></rc>
    <rc><c>O </c><c>   5</c></rc>
    <rc><c>O </c><c>   5</c></rc>
    <rc><c>O </c><c>   5</c></rc>
    <rc><c>O </c><c>   5</c></rc>
    <rc><c>O </c><c>   5</c></rc>
    <rc><c>O </c><c>   5</c></rc>
    <rc><c>O </c><c>   5</c></rc>
    <rc><c>O </c><c>   5</c></rc>
    <rc><c>O </c><c>   5</c></rc>
    <rc><c>O </c><c>   5</c></rc>
    <rc><c>O </c><c>   5</c></rc>
    <rc><c>O </c><c>   5</c></rc>
    <rc><c>O </c><c>   5</c></rc>
    <rc><c>O </c><c>   5</c></rc>
   </set>
  </array>
  <array name="atomtypes" >
   <dimension dim="1">type</dimension>
   <field type="int">atomspertype</field>
   <field type="string">element</field>
   <field>mass</field>
   <field>valence</field>
   <field type="string">pseudopotential</field>
   <set>
    <rc><c>   2</c><c>Li</c><c>      7.01000000</c><c>      3.00000000</c><c>  PAW_PBE Li_sv 10Sep2004               </c></rc>
    <rc><c>   7</c><c>Mg</c><c>     24.30500000</c><c>      2.00000000</c><c>  PAW_PBE Mg 13Apr2007                  </c></rc>
    <rc><c>  16</c><c>Bi</c><c>    208.98000000</c><c>     15.00000000</c><c>  PAW_PBE Bi_d 06Sep2000                </c></rc>
    <rc><c>  16</c><c>S </c><c>     32.06600000</c><c>      6.00000000</c><c>  PAW_PBE S 06Sep2000                   </c></rc>
    <rc><c>  16</c><c>O </c><c>     16.00000000</c><c>      6.00000000</c><c>  PAW_PBE O 08Apr2002                   </c></rc>
   </set>
  </array>
 </atominfo>
 <structure name="initialpos" >
  <crystal>
   <varray name="basis" >
    <v>      11.17850000       0.00000000       0.00000000 </v>
    <v>       0.00000000       9.57460000       0.00000000 </v>
    <v>       0.00000000       0.00000000      11.18240000 </v>
   </varray>
   <i name="volume">   1196.84853820 </i>
   <varray name="rec_basis" >
    <v>       0.08945744       0.00000000       0.00000000 </v>
    <v>       0.00000000       0.10444301       0.00000000 </v>
    <v>       0.00000000       0.00000000       0.08942624 </v>
   </varray>
  </crystal>
  <varray name="positions" >
   <v>       0.62539000       0.99984000       0.43687000 </v>
   <v>       0.62461000       0.99984000       0.68687000 </v>
   <v>       0.12461000       0.99984000       0.18687000 </v>
   <v>       0.87539000       0.00017000       0.43687000 </v>
   <v>       0.62461000       0.99984000       0.18687000 </v>
   <v>       0.37539000       0.00017000       0.93687000 </v>
   <v>       0.12461000       0.99984000       0.68687000 </v>
   <v>       0.37461000       0.00017000       0.68687000 </v>
   <v>       0.87539000       0.00017000       0.93687000 </v>
   <v>       0.00013000       0.29519000       0.06281000 </v>
   <v>       0.25013000       0.70481000       0.06281000 </v>
   <v>       0.24987000       0.29519000       0.31282000 </v>
   <v>       0.49987000       0.70481000       0.31282000 </v>
   <v>       0.50013000       0.29519000       0.06281000 </v>
   <v>       0.75013000       0.70481000       0.06281000 </v>
   <v>       0.74987000       0.29519000       0.31282000 </v>
   <v>       0.99987000       0.70481000       0.31282000 </v>
   <v>       0.00013000       0.29519000       0.56281000 </v>
   <v>       0.25013000       0.70481000       0.56281000 </v>
   <v>       0.24987000       0.29519000       0.81282000 </v>
   <v>       0.49987000       0.70481000       0.81282000 </v>
   <v>       0.50013000       0.29519000       0.56281000 </v>
   <v>       0.75013000       0.70481000       0.56281000 </v>
   <v>       0.74987000       0.29519000       0.81282000 </v>
   <v>       0.99987000       0.70481000       0.81282000 </v>
   <v>       0.25005000       0.32677000       0.06286000 </v>
   <v>       0.00005000       0.67323000       0.06286000 </v>
   <v>       0.49995000       0.32677000       0.31286000 </v>
   <v>       0.24995000       0.67323000       0.31286000 </v>
   <v>       0.75005000       0.32677000       0.06286000 </v>
   <v>       0.50005000       0.67323000       0.06286000 </v>
   <v>       0.99995000       0.32677000       0.31286000 </v>
   <v>       0.74995000       0.67323000       0.31286000 </v>
   <v>       0.25005000       0.32677000       0.56286000 </v>
   <v>       0.00005000       0.67323000       0.56286000 </v>
   <v>       0.49995000       0.32677000       0.81286000 </v>
   <v>       0.24995000       0.67323000       0.81286000 </v>
   <v>       0.75005000       0.32677000       0.56286000 </v>
   <v>       0.50005000       0.67323000       0.56286000 </v>
   <v>       0.99995000       0.32677000       0.81286000 </v>
   <v>       0.74995000       0.67323000       0.81286000 </v>
   <v>       0.49987000       0.07798000       0.06246000 </v>
   <v>       0.24987000       0.92202000       0.06246000 </v>
   <v>       0.25013000       0.07798000       0.31246000 </v>
   <v>       0.00013000       0.92202000       0.31246000 </v>
   <v>       0.99987000       0.07798000       0.06246000 </v>
   <v>       0.74987000       0.92202000       0.06246000 </v>
   <v>       0.75013000       0.07798000       0.31246000 </v>
   <v>       0.50013000       0.92202000       0.31246000 </v>
   <v>       0.49987000       0.07798000       0.56246000 </v>
   <v>       0.24987000       0.92202000       0.56246000 </v>
   <v>       0.25013000       0.07798000       0.81246000 </v>
   <v>       0.00013000       0.92202000       0.81246000 </v>
   <v>       0.99987000       0.07798000       0.56246000 </v>
   <v>       0.74987000       0.92202000       0.56246000 </v>
   <v>       0.75013000       0.07798000       0.81246000 </v>
   <v>       0.50013000       0.92202000       0.81246000 </v>
  </varray>
 </structure>
 <calculation>
  <scstep>
   <time name="dav">   60.42   60.54</time>
   <time name="total">   60.51   60.64</time>
   <energy>
    <i name="alphaZ">   1047.62774490 </i>
    <i name="ewald"> -29936.66541066 </i>
    <i name="hartreedc"> -12712.72697390 </i>
    <i name="XCdc">   1099.44692632 </i>
    <i name="pawpsdc">  36446.83583027 </i>
    <i name="pawaedc"> -35618.96860492 </i>
    <i name="eentropy">      0.00000000 </i>
    <i name="bandstr">   1948.00869833 </i>
    <i name="atom">  43261.00331033 </i>
    <i name="e_fr_energy">   5534.56152067 </i>
    <i name="e_wo_entrp">   5534.56152067 </i>
    <i name="e_0_energy">   5534.56152067 </i>
   </energy>
  </scstep>
  <scstep>
   <time name="dav">   61.06   61.16</time>
   <time name="total">   61.07   61.17</time>
   <energy>
    <i name="e_fr_energy">    722.20136031 </i>
    <i name="e_wo_entrp">    722.20136031 </i>
    <i name="e_0_energy">    722.20136031 </i>
   </energy>
  </scstep>
  <scstep>
   <time name="dav">   70.73   70.88</time>
   <time name="total">   70.74   70.88</time>
   <energy>
    <i name="e_fr_energy">   -245.82960120 </i>
    <i name="e_wo_entrp">   -245.82960120 </i>
    <i name="e_0_energy">   -245.82960120 </i>
   </energy>
  </scstep>
  <scstep>
   <time name="dav">   72.56   72.62</time>
   <time name="total">   72.56   72.62</time>
   <energy>
    <i name="e_fr_energy">   -327.15152711 </i>
    <i name="e_wo_entrp">   -327.15152711 </i>
    <i name="e_0_energy">   -327.15152711 </i>
   </energy>
  </scstep>
  <scstep>
   <time name="dav">   88.61   88.63</time>
   <time name="total">   89.33   89.36</time>
   <energy>
    <i name="e_fr_energy">   -332.28156610 </i>
    <i name="e_wo_entrp">   -332.28156610 </i>
    <i name="e_0_energy">   -332.28156610 </i>
   </energy>
  </scstep>
  <scstep>
   <time name="dav">   91.32   91.48</time>
   <time name="total">   92.11   92.27</time>
   <energy>
    <i name="e_fr_energy">   -280.01879539 </i>
    <i name="e_wo_entrp">   -280.01879539 </i>
    <i name="e_0_energy">   -280.01879539 </i>
   </energy>
  </scstep>
  <scstep>
   <time name="dav">   65.08   65.23</time>
   <time name="total">   65.87   66.05</time>
   <energy>
    <i name="e_fr_energy">   -281.79709992 </i>
    <i name="e_wo_entrp">   -281.79709992 </i>
    <i name="e_0_energy">   -281.79709992 </i>
   </energy>
  </scstep>
  <scstep>
   <time name="dav">   77.55   77.58</time>
   <time name="total">   78.34   78.37</time>
   <energy>
    <i name="e_fr_energy">   -281.05959392 </i>
    <i name="e_wo_entrp">   -281.05959392 </i>
    <i name="e_0_energy">   -281.05959392 </i>
   </energy>
  </scstep>
  <scstep>
   <time name="dav">   71.09   71.13</time>
   <time name="total">   71.87   71.92</time>
   <energy>
    <i name="e_fr_energy">   -280.68137678 </i>
    <i name="e_wo_entrp">   -280.68137678 </i>
    <i name="e_0_energy">   -280.68137678 </i>
   </energy>
  </scstep>
  <scstep>
   <time name="dav">   71.69   71.78</time>
   <time name="total">   72.47   72.57</time>
   <energy>
    <i name="e_fr_energy">   -280.71854697 </i>
    <i name="e_wo_entrp">   -280.71854697 </i>
    <i name="e_0_energy">   -280.71854697 </i>
   </energy>
  </scstep>
  <scstep>
   <time name="dav">   87.27   87.32</time>
   <time name="total">   88.07   88.12</time>
   <energy>
    <i name="e_fr_energy">   -280.71942726 </i>
    <i name="e_wo_entrp">   -280.71942726 </i>
    <i name="e_0_energy">   -280.71942726 </i>
   </energy>
  </scstep>
  <scstep>
   <time name="dav">   73.45   73.46</time>
   <time name="total">   74.24   74.25</time>
   <energy>
    <i name="e_fr_energy">   -280.72204875 </i>
    <i name="e_wo_entrp">   -280.72204875 </i>
    <i name="e_0_energy">   -280.72204875 </i>
   </energy>
  </scstep>
  <scstep>
   <time name="dav">   75.78   75.80</time>
   <time name="total">   76.58   76.59</time>
   <energy>
    <i name="e_fr_energy">   -280.72346133 </i>
    <i name="e_wo_entrp">   -280.72346133 </i>
    <i name="e_0_energy">   -280.72346133 </i>
   </energy>
  </scstep>
  <scstep>
   <time name="dav">   69.52   69.66</time>
   <time name="total">   70.31   70.46</time>
   <energy>
    <i name="e_fr_energy">   -280.72350633 </i>
    <i name="e_wo_entrp">   -280.72350633 </i>
    <i name="e_0_energy">   -280.72350633 </i>
   </energy>
  </scstep>
  <scstep>
   <time name="dav">   73.36   73.49</time>
   <time name="total">   74.14   74.28</time>
   <energy>
    <i name="e_fr_energy">   -280.72361319 </i>
    <i name="e_wo_entrp">   -280.72361319 </i>
    <i name="e_0_energy">   -280.72361319 </i>
   </energy>
  </scstep>
  <scstep>
   <time name="dav">   78.13   78.22</time>
   <time name="total">   78.92   79.02</time>
   <energy>
    <i name="e_fr_energy">   -280.72361783 </i>
    <i name="e_wo_entrp">   -280.72361783 </i>
    <i name="e_0_energy">   -280.72361783 </i>
   </energy>
  </scstep>
  <scstep>
   <time name="dav">   65.88   65.92</time>
   <time name="total">   66.67   66.71</time>
   <energy>
    <i name="e_fr_energy">   -280.72362294 </i>
    <i name="e_wo_entrp">   -280.72362294 </i>
    <i name="e_0_energy">   -280.72362294 </i>
   </energy>
  </scstep>
  <scstep>
   <time name="dav">   69.16   69.25</time>
   <time name="total">   69.23   69.33</time>
   <energy>
    <i name="alphaZ">   1047.62774490 </i>
    <i name="ewald"> -29936.66541066 </i>
    <i name="hartreedc"> -12952.52988042 </i>
    <i name="XCdc">   1125.33669570 </i>
    <i name="pawpsdc">  43474.41414366 </i>
    <i name="pawaedc"> -42618.43787655 </i>
    <i name="eentropy">      0.00000000 </i>
    <i name="bandstr">  -3681.47235071 </i>
    <i name="atom">  43261.00331033 </i>
    <i name="e_fr_energy">   -280.72362374 </i>
    <i name="e_wo_entrp">   -280.72362374 </i>
    <i name="e_0_energy">   -280.72362374 </i>
   </energy>
  </scstep>
  <structure>
   <crystal>
    <varray name="basis" >
     <v>      11.17850000       0.00000000       0.00000000 </v>
     <v>       0.00000000       9.57460000       0.00000000 </v>
     <v>       0.00000000       0.00000000      11.18240000 </v>
    </varray>
    <i name="volume">   1196.84853820 </i>
    <varray name="rec_basis" >
     <v>       0.08945744       0.00000000       0.00000000 </v>
     <v>       0.00000000       0.10444301       0.00000000 </v>
     <v>       0.00000000       0.00000000       0.08942624 </v>
    </varray>
   </crystal>
   <varray name="positions" >
    <v>       0.62539000       0.99984000       0.43687000 </v>
    <v>       0.62461000       0.99984000       0.68687000 </v>
    <v>       0.12461000       0.99984000       0.18687000 </v>
    <v>       0.87539000       0.00017000       0.43687000 </v>
    <v>       0.62461000       0.99984000       0.18687000 </v>
    <v>       0.37539000       0.00017000       0.93687000 </v>
    <v>       0.12461000       0.99984000       0.68687000 </v>
    <v>       0.37461000       0.00017000       0.68687000 </v>
    <v>       0.87539000       0.00017000       0.93687000 </v>
    <v>       0.00013000       0.29519000       0.06281000 </v>
    <v>       0.25013000       0.70481000       0.06281000 </v>
    <v>       0.24987000       0.29519000       0.31282000 </v>
    <v>       0.49987000       0.70481000       0.31282000 </v>
    <v>       0.50013000       0.29519000       0.06281000 </v>
    <v>       0.75013000       0.70481000       0.06281000 </v>
    <v>       0.74987000       0.29519000       0.31282000 </v>
    <v>       0.99987000       0.70481000       0.31282000 </v>
    <v>       0.00013000       0.29519000       0.56281000 </v>
    <v>       0.25013000       0.70481000       0.56281000 </v>
    <v>       0.24987000       0.29519000       0.81282000 </v>
    <v>       0.49987000       0.70481000       0.81282000 </v>
    <v>       0.50013000       0.29519000       0.56281000 </v>
    <v>       0.75013000       0.70481000       0.56281000 </v>
    <v>       0.74987000       0.29519000       0.81282000 </v>
    <v>       0.99987000       0.70481000       0.81282000 </v>
    <v>       0.25005000       0.32677000       0.06286000 </v>
    <v>       0.00005000       0.67323000       0.06286000 </v>
    <v>       0.49995000       0.32677000       0.31286000 </v>
    <v>       0.24995000       0.67323000       0.31286000 </v>
    <v>       0.75005000       0.32677000       0.06286000 </v>
    <v>       0.50005000       0.67323000       0.06286000 </v>
    <v>       0.99995000       0.32677000       0.31286000 </v>
    <v>       0.74995000       0.67323000       0.31286000 </v>
    <v>       0.25005000       0.32677000       0.56286000 </v>
    <v>       0.00005000       0.67323000       0.56286000 </v>
    <v>       0.49995000       0.32677000       0.81286000 </v>
    <v>       0.24995000       0.67323000       0.81286000 </v>
    <v>       0.75005000       0.32677000       0.56286000 </v>
    <v>       0.50005000       0.67323000       0.56286000 </v>
    <v>       0.99995000       0.32677000       0.81286000 </v>
    <v>       0.74995000       0.67323000       0.81286000 </v>
    <v>       0.49987000       0.07798000       0.06246000 </v>
    <v>       0.24987000       0.92202000       0.06246000 </v>
    <v>       0.25013000       0.07798000       0.31246000 </v>
    <v>       0.00013000       0.92202000       0.31246000 </v>
    <v>       0.99987000       0.07798000       0.06246000 </v>
    <v>       0.74987000       0.92202000       0.06246000 </v>
    <v>       0.75013000       0.07798000       0.31246000 </v>
    <v>       0.50013000       0.92202000       0.31246000 </v>
    <v>       0.49987000       0.07798000       0.56246000 </v>
    <v>       0.24987000       0.92202000       0.56246000 </v>
    <v>       0.25013000       0.07798000       0.81246000 </v>
    <v>       0.00013000       0.92202000       0.81246000 </v>
    <v>       0.99987000       0.07798000       0.56246000 </v>
    <v>       0.74987000       0.92202000       0.56246000 </v>
    <v>       0.75013000       0.07798000       0.81246000 </v>
    <v>       0.50013000       0.92202000       0.81246000 </v>
   </varray>
  </structure>
  <varray name="forces" >
   <v>      -0.71888157      -0.11933593       0.19944425 </v>
   <v>       0.75750448       0.13653002       0.22090074 </v>
   <v>       0.36487431       0.23170174       0.44611297 </v>
   <v>       0.78842052      -0.11467180       0.12872114 </v>
   <v>      -0.34935864      -0.21804480      -0.51157047 </v>
   <v>       0.16551991      -0.10868831       1.93731418 </v>
   <v>      -1.59737918      -0.21170204      -0.43092092 </v>
   <v>       0.78526819      -0.09136810      -1.78782409 </v>
   <v>      -0.20166553       0.12174527      -0.06420192 </v>
   <v>      -0.00219714      -0.06231599       0.14728080 </v>
   <v>       0.00535703       0.04214915       0.34662413 </v>
   <v>       0.22132693      -1.91166187       0.13799735 </v>
   <v>      -0.41304658       0.94953923       0.06124768 </v>
   <v>      -0.01901681      -0.04461299       0.24752425 </v>
   <v>      -0.00808427       0.08571829       0.04649828 </v>
   <v>       0.07326510       1.00762965      -0.12211805 </v>
   <v>       0.14370713       0.05483887      -0.01223832 </v>
   <v>      -0.03844518      -0.04867566      -0.14588495 </v>
   <v>       0.00676521      -0.13650680      -0.74710160 </v>
   <v>      -0.27293949       2.05992839       0.24037287 </v>
   <v>       0.47212669      -1.10513277       0.11826150 </v>
   <v>      -0.02485424       0.04974149      -0.44262893 </v>
   <v>       0.03201030      -0.01958588       0.14613984 </v>
   <v>      -0.01212162      -0.97920014      -0.08372498 </v>
   <v>      -0.15873608       0.02532138      -0.00493461 </v>
   <v>       0.02578995       0.11107267      -0.44353555 </v>
   <v>       0.00101562      -0.09842925      -0.07833097 </v>
   <v>       0.35853546       0.13190426      -0.02742948 </v>
   <v>      -0.13568136      -0.13347003      -0.04167783 </v>
   <v>      -0.01172077       0.10320694       0.10366409 </v>
   <v>      -0.01766557      -0.09829991      -0.25831679 </v>
   <v>      -0.30090543       0.14146711       0.02297535 </v>
   <v>       0.07787221      -0.16603329       0.04088608 </v>
   <v>       0.02034889       0.03038453       0.54084720 </v>
   <v>       0.01625273      -0.09357819       0.07624722 </v>
   <v>      -0.35127517       0.03953580      -0.02940258 </v>
   <v>       0.16092820      -0.02125256      -0.07372963 </v>
   <v>       0.00937877       0.14055404      -0.16571434 </v>
   <v>      -0.04842300      -0.13235766       0.31372784 </v>
   <v>       0.24566984       0.07097080      -0.01997148 </v>
   <v>      -0.04960801      -0.10312324       0.01862217 </v>
   <v>      -0.05339590       0.25837749      -0.23442742 </v>
   <v>       0.09939096      -0.26507798      -0.37563598 </v>
   <v>      -1.04614330       1.57844433      -1.01224495 </v>
   <v>      -0.20917533      -0.32491258       0.04191078 </v>
   <v>      -0.02722892       0.27476542      -0.09300480 </v>
   <v>       0.01358521      -0.29196915       0.04172517 </v>
   <v>      -0.54853241      -0.58593722       0.63340059 </v>
   <v>       1.77608499      -0.70882655      -0.45279585 </v>
   <v>       0.10048075      -0.02003947       1.30881921 </v>
   <v>       0.00348518       0.24720571       2.38065246 </v>
   <v>       1.11538033      -1.51424092      -1.02409405 </v>
   <v>       0.21300555      -0.22230996      -0.05104102 </v>
   <v>       0.02478633       0.26052099       0.07465705 </v>
   <v>      -0.11011543      -0.01539736      -1.16952785 </v>
   <v>       0.41615034       0.89258091       0.46146496 </v>
   <v>      -1.76769019       0.92092394      -0.58001078 </v>
  </varray>
  <varray name="stress" >
   <v>      -6.98392068      -0.76550681      -0.11297233 </v>
   <v>      -0.76550671     -12.65191392       0.29169790 </v>
   <v>      -0.11297230       0.29169788      -9.25076377 </v>
  </varray>
  <energy>
   <i name="e_fr_energy">   -291.57881207 </i>
   <i name="e_wo_entrp">   -291.57881207 </i>
   <i name="e_0_energy">      0.00000000 </i>
  </energy>
  <time name="totalsc"> 1444.03 1445.73</time>
  <eigenvalues>
   <array>
    <dimension dim="1">band</dimension>
    <dimension dim="2">kpoint</dimension>
    <dimension dim="3">spin</dimension>
    <field>eigene</field>
    <field>occ</field>
    <set>
     <set comment="spin 1">
      <set comment="kpoint 1">
       <r>  -39.9190    1.0000 </r>
       <r>  -39.9010    1.0000 </r>
       <r>  -19.2006    1.0000 </r>
       <r>  -19.0421    1.0000 </r>
       <r>  -19.0330    1.0000 </r>
       <r>  -19.0271    1.0000 </r>
       <r>  -18.9866    1.0000 </r>
       <r>  -18.9677    1.0000 </r>
       <r>  -18.9611    1.0000 </r>
       <r>  -18.9539    1.0000 </r>
       <r>  -18.8624    1.0000 </r>
       <r>  -18.8496    1.0000 </r>
       <r>  -18.8227    1.0000 </r>
       <r>  -18.7905    1.0000 </r>
       <r>  -18.7873    1.0000 </r>
       <r>  -18.7763    1.0000 </r>
       <r>  -18.7713    1.0000 </r>
       <r>  -18.7658    1.0000 </r>
       <r>  -18.7632    1.0000 </r>
       <r>  -18.7595    1.0000 </r>
       <r>  -18.7576    1.0000 </r>
       <r>  -18.7331    1.0000 </r>
       <r>  -18.7255    1.0000 </r>
       <r>  -18.7241    1.0000 </r>
       <r>  -18.7152    1.0000 </r>
       <r>  -18.7149    1.0000 </r>
       <r>  -18.7139    1.0000 </r>
       <r>  -18.7130    1.0000 </r>
       <r>  -18.7065    1.0000 </r>
       <r>  -18.7031    1.0000 </r>
       <r>  -18.7015    1.0000 </r>
       <r>  -18.6965    1.0000 </r>
       <r>  -18.6957    1.0000 </r>
       <r>  -18.6947    1.0000 </r>
       <r>  -18.6898    1.0000 </r>
       <r>  -18.6884    1.0000 </r>
       <r>  -18.6855    1.0000 </r>
       <r>  -18.6836    1.0000 </r>
       <r>  -18.6819    1.0000 </r>
       <r>  -18.6796    1.0000 </r>
       <r>  -18.6781    1.0000 </r>
       <r>  -18.6645    1.0000 </r>
       <r>  -18.6559    1.0000 </r>
       <r>  -18.6412    1.0000 </r>
       <r>  -18.6362    1.0000 </r>
       <r>  -18.6323    1.0000 </r>
       <r>  -18.6297    1.0000 </r>
       <r>  -18.6238    1.0000 </r>
       <r>  -18.6214    1.0000 </r>
       <r>  -18.6143    1.0000 </r>
       <r>  -18.6053    1.0000 </r>
       <r>  -18.5862    1.0000 </r>
       <r>  -18.5781    1.0000 </r>
       <r>  -18.5726    1.0000 </r>
       <r>  -18.5715    1.0000 </r>
       <r>  -18.5619    1.0000 </r>
       <r>  -18.5617    1.0000 </r>
       <r>  -18.5589    1.0000 </r>
       <r>  -18.5541    1.0000 </r>
       <r>  -18.5516    1.0000 </r>
       <r>  -18.5486    1.0000 </r>
       <r>  -18.5356    1.0000 </r>
       <r>  -18.5322    1.0000 </r>
       <r>  -18.5241    1.0000 </r>
       <r>  -18.5234    1.0000 </r>
       <r>  -18.5186    1.0000 </r>
       <r>  -18.5081    1.0000 </r>
       <r>  -18.5070    1.0000 </r>
       <r>  -18.5052    1.0000 </r>
       <r>  -18.4937    1.0000 </r>
       <r>  -18.4893    1.0000 </r>
       <r>  -18.4583    1.0000 </r>
       <r>  -18.4257    1.0000 </r>
       <r>  -18.3942    1.0000 </r>
       <r>  -18.3672    1.0000 </r>
       <r>  -18.3064    1.0000 </r>
       <r>  -18.2920    1.0000 </r>
       <r>  -18.2735    1.0000 </r>
       <r>  -18.2584    1.0000 </r>
       <r>  -18.1366    1.0000 </r>
       <r>  -18.0362    1.0000 </r>
       <r>  -18.0149    1.0000 </r>
       <r>  -14.3880    1.0000 </r>
       <r>  -13.7029    1.0000 </r>
       <r>  -13.3826    1.0000 </r>
       <r>  -13.0502    1.0000 </r>
       <r>  -12.9199    1.0000 </r>
       <r>  -12.8452    1.0000 </r>
       <r>  -12.8304    1.0000 </r>
       <r>  -12.7925    1.0000 </r>
       <r>  -12.7588    1.0000 </r>
       <r>  -12.7447    1.0000 </r>
       <r>  -12.7337    1.0000 </r>
       <r>  -12.6713    1.0000 </r>
       <r>  -12.6424    1.0000 </r>
       <r>  -12.1915    1.0000 </r>
       <r>  -12.1448    1.0000 </r>
       <r>  -11.5367    1.0000 </r>
       <r>   -9.4112    1.0000 </r>
       <r>   -9.1146    1.0000 </r>
       <r>   -8.6607    1.0000 </r>
       <r>   -8.5752    1.0000 </r>
       <r>   -8.5632    1.0000 </r>
       <r>   -8.4704    1.0000 </r>
       <r>   -8.4358    1.0000 </r>
       <r>   -8.3556    1.0000 </r>
       <r>   -8.3343    1.0000 </r>
       <r>   -8.2439    1.0000 </r>
       <r>   -8.1177    1.0000 </r>
       <r>   -8.0908    1.0000 </r>
       <r>   -8.0788    1.0000 </r>
       <r>   -8.0553    1.0000 </r>
       <r>   -7.4347    1.0000 </r>
       <r>   -7.4190    1.0000 </r>
       <r>   -6.4923    1.0000 </r>
       <r>   -6.4671    1.0000 </r>
       <r>   -6.4297    1.0000 </r>
       <r>   -6.4016    1.0000 </r>
       <r>   -5.6267    1.0000 </r>
       <r>   -5.5773    1.0000 </r>
       <r>   -5.4567    1.0000 </r>
       <r>   -5.4206    1.0000 </r>
       <r>   -5.4106    1.0000 </r>
       <r>   -5.3377    1.0000 </r>
       <r>   -5.3026    1.0000 </r>
       <r>   -5.2431    1.0000 </r>
       <r>   -5.1973    1.0000 </r>
       <r>   -4.9867    1.0000 </r>
       <r>   -3.8854    1.0000 </r>
       <r>   -3.7394    1.0000 </r>
       <r>   -1.6241    1.0000 </r>
       <r>   -1.4102    1.0000 </r>
       <r>   -1.2257    1.0000 </r>
       <r>   -1.0586    1.0000 </r>
       <r>   -0.8586    1.0000 </r>
       <r>   -0.7005    1.0000 </r>
       <r>   -0.6512    1.0000 </r>
       <r>   -0.5354    1.0000 </r>
       <r>   -0.4722    1.0000 </r>
       <r>   -0.3585    1.0000 </r>
       <r>   -0.2775    1.0000 </r>
       <r>   -0.2542    1.0000 </r>
       <r>   -0.2084    1.0000 </r>
       <r>   -0.1854    1.0000 </r>
       <r>    0.0635    1.0000 </r>
       <r>    0.2169    1.0000 </r>
       <r>    0.2443    1.0000 </r>
       <r>    0.3527    1.0000 </r>
       <r>    0.3885    1.0000 </r>
       <r>    0.4173    1.0000 </r>
       <r>    0.5392    1.0000 </r>
       <r>    0.5717    1.0000 </r>
       <r>    0.6318    1.0000 </r>
       <r>    0.6382    1.0000 </r>
       <r>    0.6681    1.0000 </r>
       <r>    0.6989    1.0000 </r>
       <r>    0.7115    1.0000 </r>
       <r>    0.7626    1.0000 </r>
       <r>    0.7847    1.0000 </r>
       <r>    0.8640    1.0000 </r>
       <r>    0.8780    1.0000 </r>
       <r>    0.9491    1.0000 </r>
       <r>    0.9708    1.0000 </r>
       <r>    1.0106    1.0000 </r>
       <r>    1.0830    1.0000 </r>
       <r>    1.0920    1.0000 </r>
       <r>    1.1518    1.0000 </r>
       <r>    1.1923    1.0000 </r>
       <r>    1.2610    1.0000 </r>
       <r>    1.2892    1.0000 </r>
       <r>    1.3616    1.0000 </r>
       <r>    1.4746    1.0000 </r>
       <r>    1.4968    1.0000 </r>
       <r>    1.5073    1.0000 </r>
       <r>    1.5895    1.0000 </r>
       <r>    1.6133    1.0000 </r>
       <r>    1.6543    1.0000 </r>
       <r>    1.7245    1.0000 </r>
       <r>    1.7897    1.0000 </r>
       <r>    1.8378    1.0000 </r>
       <r>    1.8901    1.0000 </r>
       <r>    1.9171    1.0000 </r>
       <r>    1.9766    1.0000 </r>
       <r>    2.1178    1.0000 </r>
       <r>    2.1767    1.0000 </r>
       <r>    2.1827    1.0000 </r>
       <r>    2.2756    1.0000 </r>
       <r>    2.4308    1.0000 </r>
       <r>    2.4765    1.0000 </r>
       <r>    2.4869    1.0000 </r>
       <r>    2.4907    1.0000 </r>
       <r>    2.5085    1.0000 </r>
       <r>    2.5243    1.0000 </r>
       <r>    2.5499    1.0000 </r>
       <r>    2.5573    1.0000 </r>
       <r>    2.6047    1.0000 </r>
       <r>    2.6585    1.0000 </r>
       <r>    2.6989    1.0000 </r>
       <r>    2.7211    1.0000 </r>
       <r>    2.7398    1.0000 </r>
       <r>    2.7819    1.0000 </r>
       <r>    2.8176    1.0000 </r>
       <r>    2.8633    1.0000 </r>
       <r>    2.9155    1.0000 </r>
       <r>    2.9405    1.0000 </r>
       <r>    2.9876    1.0000 </r>
       <r>    3.0146    1.0000 </r>
       <r>    3.0224    1.0000 </r>
       <r>    3.0321    1.0000 </r>
       <r>    3.0768    1.0000 </r>
       <r>    3.0888    1.0000 </r>
       <r>    3.0964    1.0000 </r>
       <r>    3.1326    1.0000 </r>
       <r>    3.1431    1.0000 </r>
       <r>    3.1788    1.0000 </r>
       <r>    3.2447    1.0000 </r>
       <r>    3.3068    1.0000 </r>
       <r>    3.3457    1.0000 </r>
       <r>    3.4631    1.0000 </r>
       <r>    3.4826    1.0000 </r>
       <r>    3.5543    1.0000 </r>
       <r>    3.9565    1.0000 </r>
       <r>    4.0904    1.0000 </r>
       <r>    4.1192    1.0000 </r>
       <r>    4.1543    1.0000 </r>
       <r>    4.1972    1.0000 </r>
       <r>    4.9157    0.0000 </r>
       <r>    4.9512    0.0000 </r>
       <r>    5.1036    0.0000 </r>
       <r>    5.1440    0.0000 </r>
       <r>    5.6472    0.0000 </r>
       <r>    5.6817    0.0000 </r>
       <r>    5.7631    0.0000 </r>
       <r>    5.8060    0.0000 </r>
       <r>    6.0129    0.0000 </r>
       <r>    6.0516    0.0000 </r>
       <r>    6.0743    0.0000 </r>
       <r>    6.0984    0.0000 </r>
       <r>    6.1498    0.0000 </r>
       <r>    6.1679    0.0000 </r>
       <r>    6.2009    0.0000 </r>
       <r>    6.2069    0.0000 </r>
       <r>    6.8575    0.0000 </r>
       <r>    6.9786    0.0000 </r>
       <r>    7.1499    0.0000 </r>
       <r>    7.2320    0.0000 </r>
       <r>    7.5582    0.0000 </r>
       <r>    7.7047    0.0000 </r>
       <r>    7.8306    0.0000 </r>
       <r>    7.8558    0.0000 </r>
       <r>    7.8668    0.0000 </r>
       <r>    7.8708    0.0000 </r>
       <r>    7.9437    0.0000 </r>
       <r>    8.0917    0.0000 </r>
       <r>    8.2974    0.0000 </r>
       <r>    8.4683    0.0000 </r>
       <r>    8.5724    0.0000 </r>
       <r>    8.7036    0.0000 </r>
       <r>    8.7235    0.0000 </r>
       <r>    8.7991    0.0000 </r>
       <r>    8.8038    0.0000 </r>
       <r>    8.8969    0.0000 </r>
       <r>    8.9223    0.0000 </r>
       <r>    8.9703    0.0000 </r>
       <r>    8.9923    0.0000 </r>
       <r>    9.0145    0.0000 </r>
       <r>    9.0608    0.0000 </r>
       <r>    9.0739    0.0000 </r>
       <r>    9.1349    0.0000 </r>
       <r>    9.1912    0.0000 </r>
       <r>    9.2738    0.0000 </r>
       <r>    9.3438    0.0000 </r>
       <r>    9.4230    0.0000 </r>
       <r>    9.4537    0.0000 </r>
       <r>    9.5532    0.0000 </r>
       <r>    9.6159    0.0000 </r>
       <r>    9.6431    0.0000 </r>
       <r>    9.7070    0.0000 </r>
       <r>    9.7561    0.0000 </r>
       <r>    9.9104    0.0000 </r>
      </set>
      <set comment="kpoint 2">
       <r>  -39.9190    1.0000 </r>
       <r>  -39.9010    1.0000 </r>
       <r>  -19.2006    1.0000 </r>
       <r>  -19.0421    1.0000 </r>
       <r>  -19.0329    1.0000 </r>
       <r>  -19.0270    1.0000 </r>
       <r>  -18.9866    1.0000 </r>
       <r>  -18.9676    1.0000 </r>
       <r>  -18.9611    1.0000 </r>
       <r>  -18.9538    1.0000 </r>
       <r>  -18.8624    1.0000 </r>
       <r>  -18.8496    1.0000 </r>
       <r>  -18.8227    1.0000 </r>
       <r>  -18.7906    1.0000 </r>
       <r>  -18.7870    1.0000 </r>
       <r>  -18.7764    1.0000 </r>
       <r>  -18.7712    1.0000 </r>
       <r>  -18.7659    1.0000 </r>
       <r>  -18.7630    1.0000 </r>
       <r>  -18.7595    1.0000 </r>
       <r>  -18.7578    1.0000 </r>
       <r>  -18.7332    1.0000 </r>
       <r>  -18.7256    1.0000 </r>
       <r>  -18.7241    1.0000 </r>
       <r>  -18.7152    1.0000 </r>
       <r>  -18.7149    1.0000 </r>
       <r>  -18.7138    1.0000 </r>
       <r>  -18.7125    1.0000 </r>
       <r>  -18.7062    1.0000 </r>
       <r>  -18.7037    1.0000 </r>
       <r>  -18.7017    1.0000 </r>
       <r>  -18.6962    1.0000 </r>
       <r>  -18.6957    1.0000 </r>
       <r>  -18.6944    1.0000 </r>
       <r>  -18.6897    1.0000 </r>
       <r>  -18.6885    1.0000 </r>
       <r>  -18.6859    1.0000 </r>
       <r>  -18.6833    1.0000 </r>
       <r>  -18.6819    1.0000 </r>
       <r>  -18.6797    1.0000 </r>
       <r>  -18.6783    1.0000 </r>
       <r>  -18.6647    1.0000 </r>
       <r>  -18.6559    1.0000 </r>
       <r>  -18.6412    1.0000 </r>
       <r>  -18.6362    1.0000 </r>
       <r>  -18.6323    1.0000 </r>
       <r>  -18.6297    1.0000 </r>
       <r>  -18.6238    1.0000 </r>
       <r>  -18.6214    1.0000 </r>
       <r>  -18.6143    1.0000 </r>
       <r>  -18.6053    1.0000 </r>
       <r>  -18.5861    1.0000 </r>
       <r>  -18.5781    1.0000 </r>
       <r>  -18.5726    1.0000 </r>
       <r>  -18.5715    1.0000 </r>
       <r>  -18.5619    1.0000 </r>
       <r>  -18.5617    1.0000 </r>
       <r>  -18.5589    1.0000 </r>
       <r>  -18.5541    1.0000 </r>
       <r>  -18.5516    1.0000 </r>
       <r>  -18.5486    1.0000 </r>
       <r>  -18.5356    1.0000 </r>
       <r>  -18.5322    1.0000 </r>
       <r>  -18.5241    1.0000 </r>
       <r>  -18.5234    1.0000 </r>
       <r>  -18.5186    1.0000 </r>
       <r>  -18.5081    1.0000 </r>
       <r>  -18.5070    1.0000 </r>
       <r>  -18.5052    1.0000 </r>
       <r>  -18.4938    1.0000 </r>
       <r>  -18.4893    1.0000 </r>
       <r>  -18.4583    1.0000 </r>
       <r>  -18.4257    1.0000 </r>
       <r>  -18.3942    1.0000 </r>
       <r>  -18.3672    1.0000 </r>
       <r>  -18.3064    1.0000 </r>
       <r>  -18.2920    1.0000 </r>
       <r>  -18.2735    1.0000 </r>
       <r>  -18.2584    1.0000 </r>
       <r>  -18.1366    1.0000 </r>
       <r>  -18.0362    1.0000 </r>
       <r>  -18.0149    1.0000 </r>
       <r>  -14.3880    1.0000 </r>
       <r>  -13.7029    1.0000 </r>
       <r>  -13.3823    1.0000 </r>
       <r>  -13.0484    1.0000 </r>
       <r>  -12.9209    1.0000 </r>
       <r>  -12.8430    1.0000 </r>
       <r>  -12.8301    1.0000 </r>
       <r>  -12.7957    1.0000 </r>
       <r>  -12.7858    1.0000 </r>
       <r>  -12.7359    1.0000 </r>
       <r>  -12.7013    1.0000 </r>
       <r>  -12.6848    1.0000 </r>
       <r>  -12.6434    1.0000 </r>
       <r>  -12.1916    1.0000 </r>
       <r>  -12.1448    1.0000 </r>
       <r>  -11.5367    1.0000 </r>
       <r>   -9.2226    1.0000 </r>
       <r>   -9.1731    1.0000 </r>
       <r>   -8.9486    1.0000 </r>
       <r>   -8.8940    1.0000 </r>
       <r>   -8.4033    1.0000 </r>
       <r>   -8.3964    1.0000 </r>
       <r>   -8.3911    1.0000 </r>
       <r>   -8.3853    1.0000 </r>
       <r>   -8.2130    1.0000 </r>
       <r>   -8.2096    1.0000 </r>
       <r>   -8.2028    1.0000 </r>
       <r>   -8.1924    1.0000 </r>
       <r>   -7.7655    1.0000 </r>
       <r>   -7.7577    1.0000 </r>
       <r>   -7.6530    1.0000 </r>
       <r>   -7.6432    1.0000 </r>
       <r>   -6.1661    1.0000 </r>
       <r>   -6.0640    1.0000 </r>
       <r>   -5.9774    1.0000 </r>
       <r>   -5.9561    1.0000 </r>
       <r>   -5.9342    1.0000 </r>
       <r>   -5.8489    1.0000 </r>
       <r>   -5.8236    1.0000 </r>
       <r>   -5.8055    1.0000 </r>
       <r>   -5.7037    1.0000 </r>
       <r>   -5.6494    1.0000 </r>
       <r>   -5.5681    1.0000 </r>
       <r>   -5.4461    1.0000 </r>
       <r>   -4.4988    1.0000 </r>
       <r>   -4.4914    1.0000 </r>
       <r>   -4.3362    1.0000 </r>
       <r>   -4.3167    1.0000 </r>
       <r>   -1.3475    1.0000 </r>
       <r>   -1.2429    1.0000 </r>
       <r>   -0.9592    1.0000 </r>
       <r>   -0.8996    1.0000 </r>
       <r>   -0.8806    1.0000 </r>
       <r>   -0.6000    1.0000 </r>
       <r>   -0.3545    1.0000 </r>
       <r>   -0.2542    1.0000 </r>
       <r>   -0.1198    1.0000 </r>
       <r>   -0.0770    1.0000 </r>
       <r>   -0.0192    1.0000 </r>
       <r>    0.0132    1.0000 </r>
       <r>    0.0996    1.0000 </r>
       <r>    0.1303    1.0000 </r>
       <r>    0.1818    1.0000 </r>
       <r>    0.2206    1.0000 </r>
       <r>    0.2723    1.0000 </r>
       <r>    0.3392    1.0000 </r>
       <r>    0.3757    1.0000 </r>
       <r>    0.4572    1.0000 </r>
       <r>    0.4850    1.0000 </r>
       <r>    0.5155    1.0000 </r>
       <r>    0.5249    1.0000 </r>
       <r>    0.5674    1.0000 </r>
       <r>    0.6075    1.0000 </r>
       <r>    0.6317    1.0000 </r>
       <r>    0.7770    1.0000 </r>
       <r>    0.7799    1.0000 </r>
       <r>    0.7913    1.0000 </r>
       <r>    0.8480    1.0000 </r>
       <r>    0.9603    1.0000 </r>
       <r>    0.9963    1.0000 </r>
       <r>    1.0478    1.0000 </r>
       <r>    1.0746    1.0000 </r>
       <r>    1.1112    1.0000 </r>
       <r>    1.1327    1.0000 </r>
       <r>    1.1549    1.0000 </r>
       <r>    1.1788    1.0000 </r>
       <r>    1.2071    1.0000 </r>
       <r>    1.2401    1.0000 </r>
       <r>    1.3105    1.0000 </r>
       <r>    1.3405    1.0000 </r>
       <r>    1.3955    1.0000 </r>
       <r>    1.4323    1.0000 </r>
       <r>    1.5152    1.0000 </r>
       <r>    1.5620    1.0000 </r>
       <r>    1.5809    1.0000 </r>
       <r>    1.6166    1.0000 </r>
       <r>    1.6577    1.0000 </r>
       <r>    1.7175    1.0000 </r>
       <r>    1.7616    1.0000 </r>
       <r>    1.8403    1.0000 </r>
       <r>    1.9338    1.0000 </r>
       <r>    1.9584    1.0000 </r>
       <r>    1.9832    1.0000 </r>
       <r>    1.9918    1.0000 </r>
       <r>    2.0757    1.0000 </r>
       <r>    2.0932    1.0000 </r>
       <r>    2.1573    1.0000 </r>
       <r>    2.2030    1.0000 </r>
       <r>    2.2581    1.0000 </r>
       <r>    2.3519    1.0000 </r>
       <r>    2.3920    1.0000 </r>
       <r>    2.4271    1.0000 </r>
       <r>    2.4676    1.0000 </r>
       <r>    2.4868    1.0000 </r>
       <r>    2.5366    1.0000 </r>
       <r>    2.5495    1.0000 </r>
       <r>    2.5989    1.0000 </r>
       <r>    2.6512    1.0000 </r>
       <r>    2.6706    1.0000 </r>
       <r>    2.7153    1.0000 </r>
       <r>    2.7516    1.0000 </r>
       <r>    2.7692    1.0000 </r>
       <r>    2.8098    1.0000 </r>
       <r>    2.8259    1.0000 </r>
       <r>    2.8801    1.0000 </r>
       <r>    2.9218    1.0000 </r>
       <r>    2.9661    1.0000 </r>
       <r>    3.0064    1.0000 </r>
       <r>    3.0211    1.0000 </r>
       <r>    3.1147    1.0000 </r>
       <r>    3.1535    1.0000 </r>
       <r>    3.1681    1.0000 </r>
       <r>    3.2340    1.0000 </r>
       <r>    3.2697    1.0000 </r>
       <r>    3.3746    1.0000 </r>
       <r>    3.3938    1.0000 </r>
       <r>    3.4035    1.0000 </r>
       <r>    3.4256    1.0000 </r>
       <r>    3.4760    1.0000 </r>
       <r>    3.5342    1.0000 </r>
       <r>    3.5667    1.0000 </r>
       <r>    3.6161    1.0000 </r>
       <r>    3.7103    1.0000 </r>
       <r>    4.0706    1.0000 </r>
       <r>    5.5876    0.0000 </r>
       <r>    5.5994    0.0000 </r>
       <r>    5.6157    0.0000 </r>
       <r>    5.6234    0.0000 </r>
       <r>    5.6791    0.0000 </r>
       <r>    5.7066    0.0000 </r>
       <r>    5.7224    0.0000 </r>
       <r>    5.7421    0.0000 </r>
       <r>    6.9449    0.0000 </r>
       <r>    7.0986    0.0000 </r>
       <r>    7.1932    0.0000 </r>
       <r>    7.2124    0.0000 </r>
       <r>    7.2499    0.0000 </r>
       <r>    7.2668    0.0000 </r>
       <r>    7.3283    0.0000 </r>
       <r>    7.3435    0.0000 </r>
       <r>    7.3514    0.0000 </r>
       <r>    7.4173    0.0000 </r>
       <r>    7.4868    0.0000 </r>
       <r>    7.4997    0.0000 </r>
       <r>    7.7063    0.0000 </r>
       <r>    7.7606    0.0000 </r>
       <r>    7.7753    0.0000 </r>
       <r>    7.7862    0.0000 </r>
       <r>    7.7924    0.0000 </r>
       <r>    7.8144    0.0000 </r>
       <r>    7.8419    0.0000 </r>
       <r>    7.8636    0.0000 </r>
       <r>    7.9192    0.0000 </r>
       <r>    7.9625    0.0000 </r>
       <r>    8.0046    0.0000 </r>
       <r>    8.0300    0.0000 </r>
       <r>    8.1245    0.0000 </r>
       <r>    8.2110    0.0000 </r>
       <r>    8.2806    0.0000 </r>
       <r>    8.4233    0.0000 </r>
       <r>    8.5837    0.0000 </r>
       <r>    8.6524    0.0000 </r>
       <r>    8.6977    0.0000 </r>
       <r>    8.7150    0.0000 </r>
       <r>    8.7205    0.0000 </r>
       <r>    8.7530    0.0000 </r>
       <r>    8.8655    0.0000 </r>
       <r>    8.8707    0.0000 </r>
       <r>    9.0290    0.0000 </r>
       <r>    9.1309    0.0000 </r>
       <r>    9.1604    0.0000 </r>
       <r>    9.3257    0.0000 </r>
       <r>    9.3627    0.0000 </r>
       <r>    9.4019    0.0000 </r>
       <r>    9.9775    0.0000 </r>
       <r>   10.0817    0.0000 </r>
       <r>   10.1676    0.0000 </r>
       <r>   10.2146    0.0000 </r>
      </set>
      <set comment="kpoint 3">
       <r>  -39.9190    1.0000 </r>
       <r>  -39.9010    1.0000 </r>
       <r>  -19.2006    1.0000 </r>
       <r>  -19.0421    1.0000 </r>
       <r>  -19.0330    1.0000 </r>
       <r>  -19.0271    1.0000 </r>
       <r>  -18.9866    1.0000 </r>
       <r>  -18.9677    1.0000 </r>
       <r>  -18.9611    1.0000 </r>
       <r>  -18.9539    1.0000 </r>
       <r>  -18.8624    1.0000 </r>
       <r>  -18.8496    1.0000 </r>
       <r>  -18.8227    1.0000 </r>
       <r>  -18.7905    1.0000 </r>
       <r>  -18.7873    1.0000 </r>
       <r>  -18.7763    1.0000 </r>
       <r>  -18.7713    1.0000 </r>
       <r>  -18.7658    1.0000 </r>
       <r>  -18.7631    1.0000 </r>
       <r>  -18.7595    1.0000 </r>
       <r>  -18.7576    1.0000 </r>
       <r>  -18.7331    1.0000 </r>
       <r>  -18.7255    1.0000 </r>
       <r>  -18.7241    1.0000 </r>
       <r>  -18.7154    1.0000 </r>
       <r>  -18.7147    1.0000 </r>
       <r>  -18.7139    1.0000 </r>
       <r>  -18.7130    1.0000 </r>
       <r>  -18.7065    1.0000 </r>
       <r>  -18.7031    1.0000 </r>
       <r>  -18.7015    1.0000 </r>
       <r>  -18.6965    1.0000 </r>
       <r>  -18.6957    1.0000 </r>
       <r>  -18.6947    1.0000 </r>
       <r>  -18.6899    1.0000 </r>
       <r>  -18.6884    1.0000 </r>
       <r>  -18.6855    1.0000 </r>
       <r>  -18.6836    1.0000 </r>
       <r>  -18.6820    1.0000 </r>
       <r>  -18.6795    1.0000 </r>
       <r>  -18.6781    1.0000 </r>
       <r>  -18.6645    1.0000 </r>
       <r>  -18.6559    1.0000 </r>
       <r>  -18.6412    1.0000 </r>
       <r>  -18.6362    1.0000 </r>
       <r>  -18.6323    1.0000 </r>
       <r>  -18.6297    1.0000 </r>
       <r>  -18.6238    1.0000 </r>
       <r>  -18.6214    1.0000 </r>
       <r>  -18.6143    1.0000 </r>
       <r>  -18.6053    1.0000 </r>
       <r>  -18.5862    1.0000 </r>
       <r>  -18.5781    1.0000 </r>
       <r>  -18.5726    1.0000 </r>
       <r>  -18.5715    1.0000 </r>
       <r>  -18.5619    1.0000 </r>
       <r>  -18.5617    1.0000 </r>
       <r>  -18.5589    1.0000 </r>
       <r>  -18.5541    1.0000 </r>
       <r>  -18.5516    1.0000 </r>
       <r>  -18.5486    1.0000 </r>
       <r>  -18.5356    1.0000 </r>
       <r>  -18.5322    1.0000 </r>
       <r>  -18.5241    1.0000 </r>
       <r>  -18.5234    1.0000 </r>
       <r>  -18.5186    1.0000 </r>
       <r>  -18.5080    1.0000 </r>
       <r>  -18.5070    1.0000 </r>
       <r>  -18.5052    1.0000 </r>
       <r>  -18.4937    1.0000 </r>
       <r>  -18.4893    1.0000 </r>
       <r>  -18.4583    1.0000 </r>
       <r>  -18.4257    1.0000 </r>
       <r>  -18.3942    1.0000 </r>
       <r>  -18.3672    1.0000 </r>
       <r>  -18.3064    1.0000 </r>
       <r>  -18.2920    1.0000 </r>
       <r>  -18.2735    1.0000 </r>
       <r>  -18.2584    1.0000 </r>
       <r>  -18.1366    1.0000 </r>
       <r>  -18.0362    1.0000 </r>
       <r>  -18.0149    1.0000 </r>
       <r>  -14.3880    1.0000 </r>
       <r>  -13.7029    1.0000 </r>
       <r>  -13.3824    1.0000 </r>
       <r>  -13.0498    1.0000 </r>
       <r>  -12.9190    1.0000 </r>
       <r>  -12.8448    1.0000 </r>
       <r>  -12.8300    1.0000 </r>
       <r>  -12.7926    1.0000 </r>
       <r>  -12.7587    1.0000 </r>
       <r>  -12.7447    1.0000 </r>
       <r>  -12.7348    1.0000 </r>
       <r>  -12.6725    1.0000 </r>
       <r>  -12.6429    1.0000 </r>
       <r>  -12.1920    1.0000 </r>
       <r>  -12.1449    1.0000 </r>
       <r>  -11.5373    1.0000 </r>
       <r>   -9.3995    1.0000 </r>
       <r>   -9.1231    1.0000 </r>
       <r>   -8.6789    1.0000 </r>
       <r>   -8.5928    1.0000 </r>
       <r>   -8.5805    1.0000 </r>
       <r>   -8.4855    1.0000 </r>
       <r>   -8.4157    1.0000 </r>
       <r>   -8.3364    1.0000 </r>
       <r>   -8.3144    1.0000 </r>
       <r>   -8.2269    1.0000 </r>
       <r>   -8.1216    1.0000 </r>
       <r>   -8.0950    1.0000 </r>
       <r>   -8.0816    1.0000 </r>
       <r>   -8.0586    1.0000 </r>
       <r>   -7.4373    1.0000 </r>
       <r>   -7.4218    1.0000 </r>
       <r>   -6.4819    1.0000 </r>
       <r>   -6.4570    1.0000 </r>
       <r>   -6.4198    1.0000 </r>
       <r>   -6.3918    1.0000 </r>
       <r>   -5.6635    1.0000 </r>
       <r>   -5.5675    1.0000 </r>
       <r>   -5.4721    1.0000 </r>
       <r>   -5.4571    1.0000 </r>
       <r>   -5.4506    1.0000 </r>
       <r>   -5.3234    1.0000 </r>
       <r>   -5.2767    1.0000 </r>
       <r>   -5.1846    1.0000 </r>
       <r>   -5.1535    1.0000 </r>
       <r>   -4.9539    1.0000 </r>
       <r>   -3.9648    1.0000 </r>
       <r>   -3.6471    1.0000 </r>
       <r>   -1.4799    1.0000 </r>
       <r>   -1.4289    1.0000 </r>
       <r>   -1.3267    1.0000 </r>
       <r>   -1.1896    1.0000 </r>
       <r>   -0.8042    1.0000 </r>
       <r>   -0.7154    1.0000 </r>
       <r>   -0.5226    1.0000 </r>
       <r>   -0.5023    1.0000 </r>
       <r>   -0.4811    1.0000 </r>
       <r>   -0.4637    1.0000 </r>
       <r>   -0.4515    1.0000 </r>
       <r>   -0.3974    1.0000 </r>
       <r>   -0.3194    1.0000 </r>
       <r>   -0.2588    1.0000 </r>
       <r>   -0.0930    1.0000 </r>
       <r>    0.0349    1.0000 </r>
       <r>    0.1315    1.0000 </r>
       <r>    0.2084    1.0000 </r>
       <r>    0.2715    1.0000 </r>
       <r>    0.3207    1.0000 </r>
       <r>    0.3787    1.0000 </r>
       <r>    0.4246    1.0000 </r>
       <r>    0.4676    1.0000 </r>
       <r>    0.5616    1.0000 </r>
       <r>    0.6254    1.0000 </r>
       <r>    0.6663    1.0000 </r>
       <r>    0.6879    1.0000 </r>
       <r>    0.7278    1.0000 </r>
       <r>    0.7546    1.0000 </r>
       <r>    0.8283    1.0000 </r>
       <r>    0.9205    1.0000 </r>
       <r>    1.0037    1.0000 </r>
       <r>    1.0791    1.0000 </r>
       <r>    1.1297    1.0000 </r>
       <r>    1.1678    1.0000 </r>
       <r>    1.1954    1.0000 </r>
       <r>    1.2736    1.0000 </r>
       <r>    1.3334    1.0000 </r>
       <r>    1.3631    1.0000 </r>
       <r>    1.3980    1.0000 </r>
       <r>    1.4653    1.0000 </r>
       <r>    1.4846    1.0000 </r>
       <r>    1.5904    1.0000 </r>
       <r>    1.6411    1.0000 </r>
       <r>    1.6705    1.0000 </r>
       <r>    1.7264    1.0000 </r>
       <r>    1.7610    1.0000 </r>
       <r>    1.8119    1.0000 </r>
       <r>    1.8467    1.0000 </r>
       <r>    1.9842    1.0000 </r>
       <r>    2.0483    1.0000 </r>
       <r>    2.0825    1.0000 </r>
       <r>    2.1771    1.0000 </r>
       <r>    2.2474    1.0000 </r>
       <r>    2.2731    1.0000 </r>
       <r>    2.3117    1.0000 </r>
       <r>    2.3786    1.0000 </r>
       <r>    2.4102    1.0000 </r>
       <r>    2.4243    1.0000 </r>
       <r>    2.4632    1.0000 </r>
       <r>    2.4850    1.0000 </r>
       <r>    2.5007    1.0000 </r>
       <r>    2.5114    1.0000 </r>
       <r>    2.5236    1.0000 </r>
       <r>    2.5370    1.0000 </r>
       <r>    2.5668    1.0000 </r>
       <r>    2.6177    1.0000 </r>
       <r>    2.6664    1.0000 </r>
       <r>    2.7278    1.0000 </r>
       <r>    2.7796    1.0000 </r>
       <r>    2.7933    1.0000 </r>
       <r>    2.8419    1.0000 </r>
       <r>    2.8650    1.0000 </r>
       <r>    2.8791    1.0000 </r>
       <r>    2.9227    1.0000 </r>
       <r>    2.9457    1.0000 </r>
       <r>    2.9568    1.0000 </r>
       <r>    3.0110    1.0000 </r>
       <r>    3.0380    1.0000 </r>
       <r>    3.0689    1.0000 </r>
       <r>    3.1136    1.0000 </r>
       <r>    3.1541    1.0000 </r>
       <r>    3.2123    1.0000 </r>
       <r>    3.2221    1.0000 </r>
       <r>    3.2838    1.0000 </r>
       <r>    3.3263    1.0000 </r>
       <r>    3.3727    1.0000 </r>
       <r>    3.3935    1.0000 </r>
       <r>    3.4354    1.0000 </r>
       <r>    3.4726    1.0000 </r>
       <r>    3.6303    1.0000 </r>
       <r>    3.9194    1.0000 </r>
       <r>    4.1386    1.0000 </r>
       <r>    4.1690    1.0000 </r>
       <r>    4.2002    1.0000 </r>
       <r>    4.2534    1.0000 </r>
       <r>    4.9982    0.0000 </r>
       <r>    5.0343    0.0000 </r>
       <r>    5.1668    0.0000 </r>
       <r>    5.2097    0.0000 </r>
       <r>    5.6549    0.0000 </r>
       <r>    5.6894    0.0000 </r>
       <r>    5.7705    0.0000 </r>
       <r>    5.8140    0.0000 </r>
       <r>    6.0670    0.0000 </r>
       <r>    6.0932    0.0000 </r>
       <r>    6.1103    0.0000 </r>
       <r>    6.1318    0.0000 </r>
       <r>    6.1683    0.0000 </r>
       <r>    6.1910    0.0000 </r>
       <r>    6.2259    0.0000 </r>
       <r>    6.2323    0.0000 </r>
       <r>    6.4116    0.0000 </r>
       <r>    6.7174    0.0000 </r>
       <r>    6.8120    0.0000 </r>
       <r>    6.9964    0.0000 </r>
       <r>    7.0743    0.0000 </r>
       <r>    7.1892    0.0000 </r>
       <r>    7.2469    0.0000 </r>
       <r>    7.3505    0.0000 </r>
       <r>    7.5717    0.0000 </r>
       <r>    7.7291    0.0000 </r>
       <r>    7.8561    0.0000 </r>
       <r>    7.9146    0.0000 </r>
       <r>    8.0498    0.0000 </r>
       <r>    8.2559    0.0000 </r>
       <r>    8.3633    0.0000 </r>
       <r>    8.3766    0.0000 </r>
       <r>    8.5470    0.0000 </r>
       <r>    8.6074    0.0000 </r>
       <r>    8.7902    0.0000 </r>
       <r>    8.8401    0.0000 </r>
       <r>    8.9474    0.0000 </r>
       <r>    8.9586    0.0000 </r>
       <r>    8.9708    0.0000 </r>
       <r>    9.0017    0.0000 </r>
       <r>    9.0120    0.0000 </r>
       <r>    9.0706    0.0000 </r>
       <r>    9.1081    0.0000 </r>
       <r>    9.1696    0.0000 </r>
       <r>    9.3958    0.0000 </r>
       <r>    9.4178    0.0000 </r>
       <r>    9.5008    0.0000 </r>
       <r>    9.6093    0.0000 </r>
       <r>    9.6483    0.0000 </r>
       <r>    9.6708    0.0000 </r>
       <r>    9.8316    0.0000 </r>
       <r>    9.9154    0.0000 </r>
       <r>    9.9429    0.0000 </r>
       <r>   10.0708    0.0000 </r>
      </set>
      <set comment="kpoint 4">
       <r>  -39.9190    1.0000 </r>
       <r>  -39.9010    1.0000 </r>
       <r>  -19.2006    1.0000 </r>
       <r>  -19.0421    1.0000 </r>
       <r>  -19.0330    1.0000 </r>
       <r>  -19.0270    1.0000 </r>
       <r>  -18.9866    1.0000 </r>
       <r>  -18.9677    1.0000 </r>
       <r>  -18.9611    1.0000 </r>
       <r>  -18.9538    1.0000 </r>
       <r>  -18.8624    1.0000 </r>
       <r>  -18.8496    1.0000 </r>
       <r>  -18.8227    1.0000 </r>
       <r>  -18.7905    1.0000 </r>
       <r>  -18.7870    1.0000 </r>
       <r>  -18.7764    1.0000 </r>
       <r>  -18.7712    1.0000 </r>
       <r>  -18.7659    1.0000 </r>
       <r>  -18.7630    1.0000 </r>
       <r>  -18.7595    1.0000 </r>
       <r>  -18.7578    1.0000 </r>
       <r>  -18.7332    1.0000 </r>
       <r>  -18.7256    1.0000 </r>
       <r>  -18.7241    1.0000 </r>
       <r>  -18.7154    1.0000 </r>
       <r>  -18.7147    1.0000 </r>
       <r>  -18.7138    1.0000 </r>
       <r>  -18.7125    1.0000 </r>
       <r>  -18.7062    1.0000 </r>
       <r>  -18.7037    1.0000 </r>
       <r>  -18.7017    1.0000 </r>
       <r>  -18.6962    1.0000 </r>
       <r>  -18.6957    1.0000 </r>
       <r>  -18.6944    1.0000 </r>
       <r>  -18.6898    1.0000 </r>
       <r>  -18.6884    1.0000 </r>
       <r>  -18.6859    1.0000 </r>
       <r>  -18.6834    1.0000 </r>
       <r>  -18.6820    1.0000 </r>
       <r>  -18.6797    1.0000 </r>
       <r>  -18.6783    1.0000 </r>
       <r>  -18.6646    1.0000 </r>
       <r>  -18.6559    1.0000 </r>
       <r>  -18.6412    1.0000 </r>
       <r>  -18.6361    1.0000 </r>
       <r>  -18.6323    1.0000 </r>
       <r>  -18.6297    1.0000 </r>
       <r>  -18.6238    1.0000 </r>
       <r>  -18.6214    1.0000 </r>
       <r>  -18.6143    1.0000 </r>
       <r>  -18.6053    1.0000 </r>
       <r>  -18.5861    1.0000 </r>
       <r>  -18.5781    1.0000 </r>
       <r>  -18.5726    1.0000 </r>
       <r>  -18.5715    1.0000 </r>
       <r>  -18.5619    1.0000 </r>
       <r>  -18.5617    1.0000 </r>
       <r>  -18.5589    1.0000 </r>
       <r>  -18.5541    1.0000 </r>
       <r>  -18.5516    1.0000 </r>
       <r>  -18.5486    1.0000 </r>
       <r>  -18.5356    1.0000 </r>
       <r>  -18.5322    1.0000 </r>
       <r>  -18.5241    1.0000 </r>
       <r>  -18.5234    1.0000 </r>
       <r>  -18.5186    1.0000 </r>
       <r>  -18.5080    1.0000 </r>
       <r>  -18.5070    1.0000 </r>
       <r>  -18.5052    1.0000 </r>
       <r>  -18.4938    1.0000 </r>
       <r>  -18.4893    1.0000 </r>
       <r>  -18.4583    1.0000 </r>
       <r>  -18.4257    1.0000 </r>
       <r>  -18.3942    1.0000 </r>
       <r>  -18.3672    1.0000 </r>
       <r>  -18.3064    1.0000 </r>
       <r>  -18.2920    1.0000 </r>
       <r>  -18.2735    1.0000 </r>
       <r>  -18.2584    1.0000 </r>
       <r>  -18.1366    1.0000 </r>
       <r>  -18.0362    1.0000 </r>
       <r>  -18.0149    1.0000 </r>
       <r>  -14.3880    1.0000 </r>
       <r>  -13.7029    1.0000 </r>
       <r>  -13.3822    1.0000 </r>
       <r>  -13.0481    1.0000 </r>
       <r>  -12.9201    1.0000 </r>
       <r>  -12.8426    1.0000 </r>
       <r>  -12.8294    1.0000 </r>
       <r>  -12.7959    1.0000 </r>
       <r>  -12.7858    1.0000 </r>
       <r>  -12.7367    1.0000 </r>
       <r>  -12.7021    1.0000 </r>
       <r>  -12.6853    1.0000 </r>
       <r>  -12.6441    1.0000 </r>
       <r>  -12.1921    1.0000 </r>
       <r>  -12.1449    1.0000 </r>
       <r>  -11.5372    1.0000 </r>
       <r>   -9.2235    1.0000 </r>
       <r>   -9.1728    1.0000 </r>
       <r>   -8.9443    1.0000 </r>
       <r>   -8.8912    1.0000 </r>
       <r>   -8.4238    1.0000 </r>
       <r>   -8.4170    1.0000 </r>
       <r>   -8.4118    1.0000 </r>
       <r>   -8.4046    1.0000 </r>
       <r>   -8.1914    1.0000 </r>
[...]
       <r>    8.7821    0.0000 </r>
       <r>    8.8167    0.0000 </r>
       <r>    8.8407    0.0000 </r>
       <r>    8.8445    0.0000 </r>
       <r>    8.8711    0.0000 </r>
       <r>    8.9414    0.0000 </r>
       <r>    9.2513    0.0000 </r>
       <r>    9.6780    0.0000 </r>
       <r>    9.9078    0.0000 </r>
       <r>    9.9549    0.0000 </r>
       <r>   10.1067    0.0000 </r>
       <r>   10.1360    0.0000 </r>
      </set>
     </set>
    </set>
   </array>
  </eigenvalues>
  <separator name="orbital magnetization" >
   <v name="MAGDIPOLOUT">      0.00000000      0.00000000      0.00000000</v>
  </separator>
  <dos>
   <i name="efermi">      4.39012688 </i>
   <total>
    <array>
     <dimension dim="1">gridpoints</dimension>
     <dimension dim="2">spin</dimension>
     <field>energy</field>
     <field>total</field>
     <field>integrated</field>
     <set>
      <set comment="spin 1">
       <r>   -42.4302     0.0000     0.0000 </r>
       <r>   -42.2460     0.0000     0.0000 </r>
       <r>   -42.0619     0.0000     0.0000 </r>
       <r>   -41.8777     0.0000     0.0000 </r>
       <r>   -41.6936     0.0000     0.0000 </r>
       <r>   -41.5094     0.0000     0.0000 </r>
       <r>   -41.3253     0.0000     0.0000 </r>
       <r>   -41.1411     0.0000     0.0000 </r>
       <r>   -40.9570     0.0000     0.0000 </r>
       <r>   -40.7728     0.0000     0.0000 </r>
       <r>   -40.5887     0.0000     0.0000 </r>
       <r>   -40.4045     0.0000     0.0000 </r>
       <r>   -40.2204     0.0000     0.0000 </r>
       <r>   -40.0362     0.0000     0.0000 </r>
       <r>   -39.8521     0.0000     4.0000 </r>
       <r>   -39.6679     0.0000     4.0000 </r>
       <r>   -39.4838     0.0000     4.0000 </r>
       <r>   -39.2996     0.0000     4.0000 </r>
       <r>   -39.1155     0.0000     4.0000 </r>
       <r>   -38.9313     0.0000     4.0000 </r>
       <r>   -38.7472     0.0000     4.0000 </r>
       <r>   -38.5630     0.0000     4.0000 </r>
       <r>   -38.3789     0.0000     4.0000 </r>
       <r>   -38.1947     0.0000     4.0000 </r>
       <r>   -38.0106     0.0000     4.0000 </r>
       <r>   -37.8264     0.0000     4.0000 </r>
       <r>   -37.6423     0.0000     4.0000 </r>
       <r>   -37.4581     0.0000     4.0000 </r>
       <r>   -37.2740     0.0000     4.0000 </r>
       <r>   -37.0898     0.0000     4.0000 </r>
       <r>   -36.9057     0.0000     4.0000 </r>
       <r>   -36.7215     0.0000     4.0000 </r>
       <r>   -36.5374     0.0000     4.0000 </r>
       <r>   -36.3532     0.0000     4.0000 </r>
       <r>   -36.1690     0.0000     4.0000 </r>
       <r>   -35.9849     0.0000     4.0000 </r>
       <r>   -35.8007     0.0000     4.0000 </r>
       <r>   -35.6166     0.0000     4.0000 </r>
       <r>   -35.4324     0.0000     4.0000 </r>
       <r>   -35.2483     0.0000     4.0000 </r>
       <r>   -35.0641     0.0000     4.0000 </r>
       <r>   -34.8800     0.0000     4.0000 </r>
       <r>   -34.6958     0.0000     4.0000 </r>
       <r>   -34.5117     0.0000     4.0000 </r>
       <r>   -34.3275     0.0000     4.0000 </r>
       <r>   -34.1434     0.0000     4.0000 </r>
       <r>   -33.9592     0.0000     4.0000 </r>
       <r>   -33.7751     0.0000     4.0000 </r>
       <r>   -33.5909     0.0000     4.0000 </r>
       <r>   -33.4068     0.0000     4.0000 </r>
       <r>   -33.2226     0.0000     4.0000 </r>
       <r>   -33.0385     0.0000     4.0000 </r>
       <r>   -32.8543     0.0000     4.0000 </r>
       <r>   -32.6702     0.0000     4.0000 </r>
       <r>   -32.4860     0.0000     4.0000 </r>
       <r>   -32.3019     0.0000     4.0000 </r>
       <r>   -32.1177     0.0000     4.0000 </r>
       <r>   -31.9336     0.0000     4.0000 </r>
       <r>   -31.7494     0.0000     4.0000 </r>
       <r>   -31.5653     0.0000     4.0000 </r>
       <r>   -31.3811     0.0000     4.0000 </r>
       <r>   -31.1970     0.0000     4.0000 </r>
       <r>   -31.0128     0.0000     4.0000 </r>
       <r>   -30.8287     0.0000     4.0000 </r>
       <r>   -30.6445     0.0000     4.0000 </r>
       <r>   -30.4604     0.0000     4.0000 </r>
       <r>   -30.2762     0.0000     4.0000 </r>
       <r>   -30.0921     0.0000     4.0000 </r>
       <r>   -29.9079     0.0000     4.0000 </r>
       <r>   -29.7238     0.0000     4.0000 </r>
       <r>   -29.5396     0.0000     4.0000 </r>
       <r>   -29.3555     0.0000     4.0000 </r>
       <r>   -29.1713     0.0000     4.0000 </r>
       <r>   -28.9872     0.0000     4.0000 </r>
       <r>   -28.8030     0.0000     4.0000 </r>
       <r>   -28.6189     0.0000     4.0000 </r>
       <r>   -28.4347     0.0000     4.0000 </r>
       <r>   -28.2506     0.0000     4.0000 </r>
       <r>   -28.0664     0.0000     4.0000 </r>
       <r>   -27.8823     0.0000     4.0000 </r>
       <r>   -27.6981     0.0000     4.0000 </r>
       <r>   -27.5140     0.0000     4.0000 </r>
       <r>   -27.3298     0.0000     4.0000 </r>
       <r>   -27.1457     0.0000     4.0000 </r>
       <r>   -26.9615     0.0000     4.0000 </r>
       <r>   -26.7774     0.0000     4.0000 </r>
       <r>   -26.5932     0.0000     4.0000 </r>
       <r>   -26.4091     0.0000     4.0000 </r>
       <r>   -26.2249     0.0000     4.0000 </r>
       <r>   -26.0408     0.0000     4.0000 </r>
       <r>   -25.8566     0.0000     4.0000 </r>
       <r>   -25.6725     0.0000     4.0000 </r>
       <r>   -25.4883     0.0000     4.0000 </r>
       <r>   -25.3042     0.0000     4.0000 </r>
       <r>   -25.1200     0.0000     4.0000 </r>
       <r>   -24.9359     0.0000     4.0000 </r>
       <r>   -24.7517     0.0000     4.0000 </r>
       <r>   -24.5676     0.0000     4.0000 </r>
       <r>   -24.3834     0.0000     4.0000 </r>
       <r>   -24.1993     0.0000     4.0000 </r>
       <r>   -24.0151     0.0000     4.0000 </r>
       <r>   -23.8310     0.0000     4.0000 </r>
       <r>   -23.6468     0.0000     4.0000 </r>
       <r>   -23.4627     0.0000     4.0000 </r>
       <r>   -23.2785     0.0000     4.0000 </r>
       <r>   -23.0944     0.0000     4.0000 </r>
       <r>   -22.9102     0.0000     4.0000 </r>
       <r>   -22.7261     0.0000     4.0000 </r>
       <r>   -22.5419     0.0000     4.0000 </r>
       <r>   -22.3578     0.0000     4.0000 </r>
       <r>   -22.1736     0.0000     4.0000 </r>
       <r>   -21.9895     0.0000     4.0000 </r>
       <r>   -21.8053     0.0000     4.0000 </r>
       <r>   -21.6211     0.0000     4.0000 </r>
       <r>   -21.4370     0.0000     4.0000 </r>
       <r>   -21.2528     0.0000     4.0000 </r>
       <r>   -21.0687     0.0000     4.0000 </r>
       <r>   -20.8845     0.0000     4.0000 </r>
       <r>   -20.7004     0.0000     4.0000 </r>
       <r>   -20.5162     0.0000     4.0000 </r>
       <r>   -20.3321     0.0000     4.0000 </r>
       <r>   -20.1479     0.0000     4.0000 </r>
       <r>   -19.9638     0.0000     4.0000 </r>
       <r>   -19.7796     0.0000     4.0000 </r>
       <r>   -19.5955     0.0000     4.0000 </r>
       <r>   -19.4113     0.0000     4.0000 </r>
       <r>   -19.2272     0.0000     4.0000 </r>
       <r>   -19.0430     0.0000     6.0000 </r>
       <r>   -18.8589     0.0000    22.0000 </r>
       <r>   -18.6747     0.0000    82.0000 </r>
       <r>   -18.4906     0.0000   140.0000 </r>
       <r>   -18.3064     0.0000   150.0000 </r>
       <r>   -18.1223     0.0000   160.0000 </r>
       <r>   -17.9381     0.0000   164.0000 </r>
       <r>   -17.7540     0.0000   164.0000 </r>
       <r>   -17.5698     0.0000   164.0000 </r>
       <r>   -17.3857     0.0000   164.0000 </r>
       <r>   -17.2015     0.0000   164.0000 </r>
       <r>   -17.0174     0.0000   164.0000 </r>
       <r>   -16.8332     0.0000   164.0000 </r>
       <r>   -16.6491     0.0000   164.0000 </r>
       <r>   -16.4649     0.0000   164.0000 </r>
       <r>   -16.2808     0.0000   164.0000 </r>
       <r>   -16.0966     0.0000   164.0000 </r>
       <r>   -15.9125     0.0000   164.0000 </r>
       <r>   -15.7283     0.0000   164.0000 </r>
       <r>   -15.5442     0.0000   164.0000 </r>
       <r>   -15.3600     0.0000   164.0000 </r>
       <r>   -15.1759     0.0000   164.0000 </r>
       <r>   -14.9917     0.0000   164.0000 </r>
       <r>   -14.8076     0.0000   164.0000 </r>
       <r>   -14.6234     0.0000   164.0000 </r>
       <r>   -14.4393     0.0000   164.0000 </r>
       <r>   -14.2551     0.0000   166.0000 </r>
       <r>   -14.0710     0.0000   166.0000 </r>
       <r>   -13.8868     0.0000   166.0000 </r>
       <r>   -13.7027     0.0000   168.0000 </r>
       <r>   -13.5185     0.0000   168.0000 </r>
       <r>   -13.3344     0.0000   170.0000 </r>
       <r>   -13.1502     0.0000   170.0000 </r>
       <r>   -12.9661     0.0000   172.0000 </r>
       <r>   -12.7819    22.8709   180.0447 </r>
       <r>   -12.5978     0.0000   190.0000 </r>
       <r>   -12.4136     0.0000   190.0000 </r>
       <r>   -12.2295     0.0000   190.0000 </r>
       <r>   -12.0453     0.0000   194.0000 </r>
       <r>   -11.8612     0.0000   194.0000 </r>
       <r>   -11.6770     0.0000   194.0000 </r>
       <r>   -11.4929     0.0000   196.0000 </r>
       <r>   -11.3087     0.0000   196.0000 </r>
       <r>   -11.1246     0.0000   196.0000 </r>
       <r>   -10.9404     0.0000   196.0000 </r>
       <r>   -10.7563     0.0000   196.0000 </r>
       <r>   -10.5721     0.0000   196.0000 </r>
       <r>   -10.3880     0.0000   196.0000 </r>
       <r>   -10.2038     0.0000   196.0000 </r>
       <r>   -10.0197     0.0000   196.0000 </r>
       <r>    -9.8355     0.0000   196.0000 </r>
       <r>    -9.6514     0.0000   196.0000 </r>
       <r>    -9.4672     0.0000   196.0000 </r>
       <r>    -9.2831    10.4648   196.6399 </r>
       <r>    -9.0989    17.0844   199.0945 </r>
       <r>    -8.9148     8.6659   200.9396 </r>
       <r>    -8.7306    10.8446   203.6911 </r>
       <r>    -8.5465    22.5137   206.1706 </r>
       <r>    -8.3623    23.4406   211.5776 </r>
       <r>    -8.1782    19.1952   214.0421 </r>
       <r>    -7.9940    20.6130   219.0227 </r>
       <r>    -7.8099    25.1662   222.4235 </r>
       <r>    -7.6257    23.1994   225.7156 </r>
       <r>    -7.4416     1.6731   227.9844 </r>
       <r>    -7.2574     0.0000   228.0000 </r>
       <r>    -7.0732     0.0000   228.0000 </r>
       <r>    -6.8891     0.0000   228.0000 </r>
       <r>    -6.7049     0.0000   228.0000 </r>
       <r>    -6.5208     0.0000   228.0000 </r>
       <r>    -6.3366    14.9605   228.9695 </r>
       <r>    -6.1525    19.0285   232.7857 </r>
       <r>    -5.9683    15.2854   235.9751 </r>
       <r>    -5.7842    37.7459   240.1775 </r>
       <r>    -5.6000    19.0926   244.2633 </r>
       <r>    -5.4159    22.8570   247.8227 </r>
       <r>    -5.2317    11.6926   251.1403 </r>
       <r>    -5.0476     2.8279   252.1752 </r>
       <r>    -4.8634     8.5023   253.1579 </r>
       <r>    -4.6793    10.1826   254.8531 </r>
       <r>    -4.4951     7.4091   256.6608 </r>
       <r>    -4.3110     7.5171   257.8657 </r>
       <r>    -4.1268     5.2816   259.1150 </r>
       <r>    -3.9427     1.9595   259.7775 </r>
       <r>    -3.7585     0.4523   259.9828 </r>
       <r>    -3.5744     0.0000   260.0000 </r>
       <r>    -3.3902     0.0000   260.0000 </r>
       <r>    -3.2061     0.0000   260.0000 </r>
       <r>    -3.0219     0.0000   260.0000 </r>
       <r>    -2.8378     0.0000   260.0000 </r>
       <r>    -2.6536     0.0000   260.0000 </r>
       <r>    -2.4695     0.0000   260.0000 </r>
       <r>    -2.2853     0.0000   260.0000 </r>
       <r>    -2.1012     0.0000   260.0000 </r>
       <r>    -1.9170     0.0000   260.0000 </r>
       <r>    -1.7329     0.0000   260.0000 </r>
       <r>    -1.5487     0.6987   260.0175 </r>
       <r>    -1.3646     8.2182   260.7048 </r>
       <r>    -1.1804    13.4295   262.8551 </r>
       <r>    -0.9963    12.4493   265.2205 </r>
       <r>    -0.8121    12.6002   267.7382 </r>
       <r>    -0.6280    13.8998   270.1199 </r>
       <r>    -0.4438    15.3796   272.2310 </r>
       <r>    -0.2597    33.9774   276.7477 </r>
       <r>    -0.0755    38.0896   283.6189 </r>
       <r>     0.1086    28.3417   289.1275 </r>
       <r>     0.2928    38.0358   295.4102 </r>
       <r>     0.4769    50.1806   303.0382 </r>
       <r>     0.6611    33.9491   310.3397 </r>
       <r>     0.8452    45.5315   317.3212 </r>
       <r>     1.0294    43.8898   324.9740 </r>
       <r>     1.2135    39.3293   334.3368 </r>
       <r>     1.3977    46.2532   343.3692 </r>
       <r>     1.5818    50.1523   351.4228 </r>
       <r>     1.7660    38.2929   359.4427 </r>
       <r>     1.9501    36.7771   364.5814 </r>
       <r>     2.1343    43.5169   372.1299 </r>
       <r>     2.3184    48.2020   380.3462 </r>
       <r>     2.5026    58.5850   391.1660 </r>
       <r>     2.6867    51.4978   400.5794 </r>
       <r>     2.8709    69.9059   411.6282 </r>
       <r>     3.0550    54.9985   423.1513 </r>
       <r>     3.2392    36.8704   431.2394 </r>
       <r>     3.4233    45.1409   439.0362 </r>
       <r>     3.6075    21.7132   444.5922 </r>
       <r>     3.7916    13.6486   447.7718 </r>
       <r>     3.9758     5.5690   449.5003 </r>
       <r>     4.1599     6.0719   451.7957 </r>
       <r>     4.3441     0.0000   452.0000 </r>
       <r>     4.5282     0.0000   452.0000 </r>
       <r>     4.7124     0.0000   452.0000 </r>
       <r>     4.8965     0.0000   452.0000 </r>
       <r>     5.0807     1.0291   452.0590 </r>
       <r>     5.2648     4.2030   452.4929 </r>
       <r>     5.4490     8.3610   453.6496 </r>
       <r>     5.6331     9.6007   455.4234 </r>
       <r>     5.8173    24.4355   459.1560 </r>
       <r>     6.0014    12.7662   461.9946 </r>
       <r>     6.1856    12.2341   464.2293 </r>
       <r>     6.3697    14.4934   466.6851 </r>
       <r>     6.5539    16.2834   469.5175 </r>
       <r>     6.7380    18.2216   472.6910 </r>
       <r>     6.9222    21.8144   476.3343 </r>
       <r>     7.1063    27.1840   480.7900 </r>
       <r>     7.2905    39.1622   486.9085 </r>
       <r>     7.4746    29.3407   493.1649 </r>
       <r>     7.6588    38.2475   498.7091 </r>
       <r>     7.8430    46.8450   507.5494 </r>
       <r>     8.0271    26.8166   513.8580 </r>
       <r>     8.2113    19.0960   517.9449 </r>
       <r>     8.3954    21.1138   521.6198 </r>
       <r>     8.5796    26.2023   525.9514 </r>
       <r>     8.7637    42.8458   532.1474 </r>
       <r>     8.9479    29.8383   539.4714 </r>
       <r>     9.1320    18.4106   543.5549 </r>
       <r>     9.3162    16.6349   546.6686 </r>
       <r>     9.5003    13.5242   549.6062 </r>
       <r>     9.6845     8.8413   551.4081 </r>
       <r>     9.8686    13.0762   553.3078 </r>
       <r>    10.0528    16.4105   556.0246 </r>
       <r>    10.2369    16.7140   559.3028 </r>
       <r>    10.4211     0.0000   560.0000 </r>
       <r>    10.6052     0.0000   560.0000 </r>
       <r>    10.7894     0.0000   560.0000 </r>
       <r>    10.9735     0.0000   560.0000 </r>
       <r>    11.1577     0.0000   560.0000 </r>
       <r>    11.3418     0.0000   560.0000 </r>
       <r>    11.5260     0.0000   560.0000 </r>
       <r>    11.7101     0.0000   560.0000 </r>
       <r>    11.8943     0.0000   560.0000 </r>
       <r>    12.0784     0.0000   560.0000 </r>
       <r>    12.2626     0.0000   560.0000 </r>
       <r>    12.4467     0.0000   560.0000 </r>
       <r>    12.6309     0.0000   560.0000 </r>
       <r>    12.8150     0.0000   560.0000 </r>
      </set>
     </set>
    </array>
   </total>
  </dos>
 </calculation>
 <structure name="finalpos" >
  <crystal>
   <varray name="basis" >
    <v>      11.17850000       0.00000000       0.00000000 </v>
    <v>       0.00000000       9.57460000       0.00000000 </v>
    <v>       0.00000000       0.00000000      11.18240000 </v>
   </varray>
   <i name="volume">   1196.84853820 </i>
   <varray name="rec_basis" >
    <v>       0.08945744       0.00000000       0.00000000 </v>
    <v>       0.00000000       0.10444301       0.00000000 </v>
    <v>       0.00000000       0.00000000       0.08942624 </v>
   </varray>
  </crystal>
  <varray name="positions" >
   <v>       0.62539000       0.99984000       0.43687000 </v>
   <v>       0.62461000       0.99984000       0.68687000 </v>
   <v>       0.12461000       0.99984000       0.18687000 </v>
   <v>       0.87539000       0.00017000       0.43687000 </v>
   <v>       0.62461000       0.99984000       0.18687000 </v>
   <v>       0.37539000       0.00017000       0.93687000 </v>
   <v>       0.12461000       0.99984000       0.68687000 </v>
   <v>       0.37461000       0.00017000       0.68687000 </v>
   <v>       0.87539000       0.00017000       0.93687000 </v>
   <v>       0.00013000       0.29519000       0.06281000 </v>
   <v>       0.25013000       0.70481000       0.06281000 </v>
   <v>       0.24987000       0.29519000       0.31282000 </v>
   <v>       0.49987000       0.70481000       0.31282000 </v>
   <v>       0.50013000       0.29519000       0.06281000 </v>
   <v>       0.75013000       0.70481000       0.06281000 </v>
   <v>       0.74987000       0.29519000       0.31282000 </v>
   <v>       0.99987000       0.70481000       0.31282000 </v>
   <v>       0.00013000       0.29519000       0.56281000 </v>
   <v>       0.25013000       0.70481000       0.56281000 </v>
   <v>       0.24987000       0.29519000       0.81282000 </v>
   <v>       0.49987000       0.70481000       0.81282000 </v>
   <v>       0.50013000       0.29519000       0.56281000 </v>
   <v>       0.75013000       0.70481000       0.56281000 </v>
   <v>       0.74987000       0.29519000       0.81282000 </v>
   <v>       0.99987000       0.70481000       0.81282000 </v>
   <v>       0.25005000       0.32677000       0.06286000 </v>
   <v>       0.00005000       0.67323000       0.06286000 </v>
   <v>       0.49995000       0.32677000       0.31286000 </v>
   <v>       0.24995000       0.67323000       0.31286000 </v>
   <v>       0.75005000       0.32677000       0.06286000 </v>
   <v>       0.50005000       0.67323000       0.06286000 </v>
   <v>       0.99995000       0.32677000       0.31286000 </v>
   <v>       0.74995000       0.67323000       0.31286000 </v>
   <v>       0.25005000       0.32677000       0.56286000 </v>
   <v>       0.00005000       0.67323000       0.56286000 </v>
   <v>       0.49995000       0.32677000       0.81286000 </v>
   <v>       0.24995000       0.67323000       0.81286000 </v>
   <v>       0.75005000       0.32677000       0.56286000 </v>
   <v>       0.50005000       0.67323000       0.56286000 </v>
   <v>       0.99995000       0.32677000       0.81286000 </v>
   <v>       0.74995000       0.67323000       0.81286000 </v>
   <v>       0.49987000       0.07798000       0.06246000 </v>
   <v>       0.24987000       0.92202000       0.06246000 </v>
   <v>       0.25013000       0.07798000       0.31246000 </v>
   <v>       0.00013000       0.92202000       0.31246000 </v>
   <v>       0.99987000       0.07798000       0.06246000 </v>
   <v>       0.74987000       0.92202000       0.06246000 </v>
   <v>       0.75013000       0.07798000       0.31246000 </v>
   <v>       0.50013000       0.92202000       0.31246000 </v>
   <v>       0.49987000       0.07798000       0.56246000 </v>
   <v>       0.24987000       0.92202000       0.56246000 </v>
   <v>       0.25013000       0.07798000       0.81246000 </v>
   <v>       0.00013000       0.92202000       0.81246000 </v>
   <v>       0.99987000       0.07798000       0.56246000 </v>
   <v>       0.74987000       0.92202000       0.56246000 </v>
   <v>       0.75013000       0.07798000       0.81246000 </v>
   <v>       0.50013000       0.92202000       0.81246000 </v>
  </varray>
 </structure>
</modeling>
