<?xml version="1.0" encoding="ISO-8859-1"?>
<modeling>
 <generator>
  <i name="program" type="string">vasp </i>
  <i name="version" type="string">5.4.4.18Apr17-6-g9f103f2a35  </i>
  <i name="subversion" type="string">(build Jul 31 2017 11:33:29) complex            parallel </i>
  <i name="platform" type="string">LinuxIFC </i>
  <i name="date" type="string">2021 09 29 </i>
  <i name="time" type="string">13:28:16 </i>
 </generator>
 <incar>
  <i type="string" name="SYSTEM"> La2O2S</i>
  <i type="string" name="PREC">normal</i>
  <i type="int" name="NELMIN">     4</i>
  <i type="int" name="IBRION">     2</i>
  <i type="int" name="NFREE">    10</i>
  <i name="EDIFF">      0.00000100</i>
  <i name="EDIFFG">     -0.01000000</i>
  <i type="int" name="NSW">     1</i>
  <i type="int" name="ISIF">     2</i>
  <i name="ENCUT">    600.00000000</i>
  <i name="ENAUG">    900.00000000</i>
  <i type="int" name="ISMEAR">    -5</i>
  <i type="logical" name="LWAVE"> F  </i>
  <i type="logical" name="LCHARG"> F  </i>
  <v type="int" name="KPOINT_BSE">    -1     0     0     0</v>
 </incar>
 <structure name="primitive_cell" >
  <crystal>
   <varray name="basis" >
    <v>      11.17850000       0.00000000       0.00000000 </v>
    <v>       0.00000000       9.57460000       0.00000000 </v>
    <v>       0.00000000       0.00000000      11.18240000 </v>
   </varray>
   <i name="volume">   1196.84853820 </i>
   <varray name="rec_basis" >
    <v>       0.08945744       0.00000000       0.00000000 </v>
    <v>       0.00000000       0.10444301       0.00000000 </v>
    <v>       0.00000000       0.00000000       0.08942624 </v>
   </varray>
  </crystal>
  <varray name="positions" >
   <v>       0.37539000       0.00017000       0.43687000 </v>
   <v>      -0.49987000      -0.07798000       0.31246000 </v>
   <v>       0.25013000       0.07798000       0.31246000 </v>
   <v>       0.49987000       0.07798000      -0.43754000 </v>
   <v>       0.24987000      -0.07798000      -0.43754000 </v>
   <v>      -0.37461000      -0.00016000       0.43687000 </v>
   <v>       0.37461000       0.00017000      -0.31313000 </v>
   <v>       0.49987000      -0.29519000       0.31282000 </v>
   <v>       0.24987000       0.29519000       0.31282000 </v>
   <v>      -0.49987000       0.29519000      -0.43719000 </v>
   <v>       0.25013000      -0.29519000      -0.43719000 </v>
   <v>       0.49995000       0.32677000       0.31286000 </v>
   <v>       0.24995000      -0.32677000       0.31286000 </v>
   <v>      -0.49995000      -0.32677000      -0.43714000 </v>
   <v>       0.25005000       0.32677000      -0.43714000 </v>
   <v>      -0.37539000      -0.00016000       0.18687000 </v>
   <v>      -0.37539000      -0.00016000      -0.31313000 </v>
   <v>       0.12461000      -0.00016000       0.18687000 </v>
   <v>       0.12461000      -0.00016000      -0.31313000 </v>
   <v>       0.49987000       0.07798000       0.06246000 </v>
   <v>      -0.24987000       0.07798000       0.31246000 </v>
   <v>      -0.25013000      -0.07798000      -0.43754000 </v>
   <v>       0.24987000      -0.07798000       0.06246000 </v>
   <v>       0.00013000      -0.07798000       0.31246000 </v>
   <v>      -0.49987000      -0.07798000      -0.18754000 </v>
   <v>      -0.00013000       0.07798000      -0.43754000 </v>
   <v>       0.25013000       0.07798000      -0.18754000 </v>
   <v>      -0.49987000       0.29519000       0.06281000 </v>
   <v>      -0.25013000       0.29519000       0.31282000 </v>
   <v>       0.25013000      -0.29519000       0.06281000 </v>
   <v>      -0.24987000      -0.29519000      -0.43719000 </v>
   <v>      -0.00013000      -0.29519000       0.31282000 </v>
   <v>       0.00013000       0.29519000      -0.43719000 </v>
   <v>       0.49987000      -0.29519000      -0.18718000 </v>
   <v>       0.24987000       0.29519000      -0.18718000 </v>
   <v>      -0.49995000      -0.32677000       0.06286000 </v>
   <v>       0.25005000       0.32677000       0.06286000 </v>
   <v>      -0.25005000      -0.32677000       0.31286000 </v>
   <v>      -0.24995000       0.32677000      -0.43714000 </v>
   <v>      -0.00005000       0.32677000       0.31286000 </v>
   <v>       0.00005000      -0.32677000      -0.43714000 </v>
   <v>       0.49995000       0.32677000      -0.18714000 </v>
   <v>       0.24995000      -0.32677000      -0.18714000 </v>
   <v>      -0.12461000       0.00017000       0.43687000 </v>
   <v>       0.37539000       0.00017000      -0.06313000 </v>
   <v>      -0.25013000      -0.07798000       0.06246000 </v>
   <v>      -0.00013000       0.07798000       0.06246000 </v>
   <v>      -0.24987000       0.07798000      -0.18754000 </v>
   <v>       0.00013000      -0.07798000      -0.18754000 </v>
   <v>      -0.24987000      -0.29519000       0.06281000 </v>
   <v>       0.00013000       0.29519000       0.06281000 </v>
   <v>      -0.25013000       0.29519000      -0.18718000 </v>
   <v>      -0.00013000      -0.29519000      -0.18718000 </v>
   <v>      -0.24995000       0.32677000       0.06286000 </v>
   <v>       0.00005000      -0.32677000       0.06286000 </v>
   <v>      -0.25005000      -0.32677000      -0.18714000 </v>
   <v>      -0.00005000       0.32677000      -0.18714000 </v>
   <v>      -0.12461000       0.00017000      -0.06313000 </v>
  </varray>
 </structure>
 <varray name="primitive_index" >
  <v type="int" >        1 </v>
  <v type="int" >       50 </v>
  <v type="int" >       45 </v>
  <v type="int" >       51 </v>
  <v type="int" >       52 </v>
  <v type="int" >        2 </v>
  <v type="int" >        4 </v>
  <v type="int" >       14 </v>
  <v type="int" >       13 </v>
  <v type="int" >       23 </v>
  <v type="int" >       20 </v>
  <v type="int" >       29 </v>
  <v type="int" >       30 </v>
  <v type="int" >       40 </v>
  <v type="int" >       35 </v>
  <v type="int" >        7 </v>
  <v type="int" >       10 </v>
  <v type="int" >        5 </v>
  <v type="int" >        8 </v>
  <v type="int" >       43 </v>
  <v type="int" >       49 </v>
  <v type="int" >       56 </v>
  <v type="int" >       44 </v>
  <v type="int" >       46 </v>
  <v type="int" >       58 </v>
  <v type="int" >       55 </v>
  <v type="int" >       53 </v>
  <v type="int" >       15 </v>
  <v type="int" >       17 </v>
  <v type="int" >       12 </v>
  <v type="int" >       24 </v>
  <v type="int" >       18 </v>
  <v type="int" >       19 </v>
  <v type="int" >       22 </v>
  <v type="int" >       21 </v>
  <v type="int" >       32 </v>
  <v type="int" >       27 </v>
  <v type="int" >       34 </v>
  <v type="int" >       39 </v>
  <v type="int" >       33 </v>
  <v type="int" >       36 </v>
  <v type="int" >       37 </v>
  <v type="int" >       38 </v>
  <v type="int" >        6 </v>
  <v type="int" >        3 </v>
  <v type="int" >       48 </v>
  <v type="int" >       47 </v>
  <v type="int" >       57 </v>
  <v type="int" >       54 </v>
  <v type="int" >       16 </v>
  <v type="int" >       11 </v>
  <v type="int" >       25 </v>
  <v type="int" >       26 </v>
  <v type="int" >       31 </v>
  <v type="int" >       28 </v>
  <v type="int" >       42 </v>
  <v type="int" >       41 </v>
  <v type="int" >        9 </v>
 </varray>
 <kpoints>
  <generation param="Gamma">
   <v type="int" name="divisions">       2        2        2 </v>
   <v name="usershift">      0.00000000       0.00000000       0.00000000 </v>
   <v name="genvec1">      0.50000000       0.00000000       0.00000000 </v>
   <v name="genvec2">      0.00000000       0.50000000       0.00000000 </v>
   <v name="genvec3">      0.00000000       0.00000000       0.50000000 </v>
   <v name="shift">      0.00000000       0.00000000       0.00000000 </v>
  </generation>
  <varray name="kpointlist" >
   <v>       0.00000000       0.00000000       0.00000000 </v>
   <v>       0.50000000       0.00000000       0.00000000 </v>
   <v>       0.00000000       0.50000000       0.00000000 </v>
   <v>       0.50000000       0.50000000       0.00000000 </v>
   <v>       0.00000000       0.00000000       0.50000000 </v>
   <v>       0.50000000       0.00000000       0.50000000 </v>
   <v>       0.00000000       0.50000000       0.50000000 </v>
   <v>       0.50000000       0.50000000       0.50000000 </v>
  </varray>
  <varray name="weights" >
   <v>       0.12500000 </v>
   <v>       0.12500000 </v>
   <v>       0.12500000 </v>
   <v>       0.12500000 </v>
   <v>       0.12500000 </v>
   <v>       0.12500000 </v>
   <v>       0.12500000 </v>
   <v>       0.12500000 </v>
  </varray>
  <varray name="tetrahedronlist"  type="int" >
   <v type="int" >        2        1        2        4        5 </v>
   <v type="int" >        2        1        3        4        5 </v>
   <v type="int" >        2        3        4        5        7 </v>
   <v type="int" >        2        2        4        5        6 </v>
   <v type="int" >        2        4        5        6        8 </v>
   <v type="int" >        2        4        5        7        8 </v>
   <v type="int" >        2        1        2        3        6 </v>
   <v type="int" >        2        2        3        4        6 </v>
   <v type="int" >        2        3        4        6        8 </v>
   <v type="int" >        2        1        3        5        6 </v>
   <v type="int" >        2        3        5        6        7 </v>
   <v type="int" >        2        3        6        7        8 </v>
   <v type="int" >        2        2        3        4        7 </v>
   <v type="int" >        2        1        2        3        7 </v>
   <v type="int" >        2        1        2        5        7 </v>
   <v type="int" >        2        2        4        7        8 </v>
   <v type="int" >        2        2        6        7        8 </v>
   <v type="int" >        2        2        5        6        7 </v>
   <v type="int" >        2        1        3        4        8 </v>
   <v type="int" >        2        1        2        4        8 </v>
   <v type="int" >        2        1        2        6        8 </v>
   <v type="int" >        2        1        3        7        8 </v>
   <v type="int" >        2        1        5        7        8 </v>
   <v type="int" >        2        1        5        6        8 </v>
  </varray>
  <i name="volumeweight">      0.02083333 </i>
 </kpoints>
 <parameters>
  <separator name="general" >
   <i type="string" name="SYSTEM">La2O2S</i>
   <i type="logical" name="LCOMPAT"> F  </i>
  </separator>
  <separator name="electronic" >
   <i type="string" name="PREC">normal</i>
   <i name="ENMAX">    600.00000000</i>
   <i name="ENAUG">    900.00000000</i>
   <i name="EDIFF">      0.00000100</i>
   <i type="int" name="IALGO">    38</i>
   <i type="int" name="IWAVPR">    11</i>
   <i type="int" name="NBANDS">   280</i>
   <i name="NELECT">    456.00000000</i>
   <i type="int" name="TURBO">     0</i>
   <i type="int" name="IRESTART">     0</i>
   <i type="int" name="NREBOOT">     0</i>
   <i type="int" name="NMIN">     0</i>
   <i name="EREF">      0.00000000</i>
   <separator name="electronic smearing" >
    <i type="int" name="ISMEAR">    -5</i>
    <i name="SIGMA">      0.20000000</i>
    <i name="KSPACING">      0.50000000</i>
    <i type="logical" name="KGAMMA"> T  </i>
   </separator>
   <separator name="electronic projectors" >
    <i type="logical" name="LREAL"> F  </i>
    <v name="ROPT">      0.00000000      0.00000000      0.00000000      0.00000000      0.00000000</v>
    <i type="int" name="LMAXPAW">  -100</i>
    <i type="int" name="LMAXMIX">     2</i>
    <i type="logical" name="NLSPLINE"> F  </i>
   </separator>
   <separator name="electronic startup" >
    <i type="int" name="ISTART">     0</i>
    <i type="int" name="ICHARG">     2</i>
    <i type="int" name="INIWAV">     1</i>
   </separator>
   <separator name="electronic spin" >
    <i type="int" name="ISPIN">     1</i>
    <i type="logical" name="LNONCOLLINEAR"> F  </i>
    <v name="MAGMOM">      1.00000000      1.00000000      1.00000000      1.00000000      1.00000000      1.00000000      1.00000000      1.00000000      1.00000000      1.00000000      1.00000000      1.00000000      1.00000000      1.00000000      1.00000000      1.00000000      1.00000000      1.00000000      1.00000000      1.00000000
      1.00000000      1.00000000      1.00000000      1.00000000      1.00000000      1.00000000      1.00000000      1.00000000      1.00000000      1.00000000      1.00000000      1.00000000      1.00000000      1.00000000      1.00000000      1.00000000      1.00000000      1.00000000      1.00000000      1.00000000
      1.00000000      1.00000000      1.00000000      1.00000000      1.00000000      1.00000000      1.00000000      1.00000000      1.00000000      1.00000000      1.00000000      1.00000000      1.00000000      1.00000000      1.00000000      1.00000000      1.00000000      1.00000000</v>
    <i name="NUPDOWN">     -1.00000000</i>
    <i type="logical" name="LSORBIT"> F  </i>
    <v name="SAXIS">      0.00000000      0.00000000      1.00000000</v>
    <i type="logical" name="LSPIRAL"> F  </i>
    <v name="QSPIRAL">      0.00000000      0.00000000      0.00000000</v>
    <i type="logical" name="LZEROZ"> F  </i>
   </separator>
   <separator name="electronic exchange-correlation" >
    <i type="logical" name="LASPH"> F  </i>
    <i type="logical" name="LMETAGGA"> F  </i>
   </separator>
   <separator name="electronic convergence" >
    <i type="int" name="NELM">    60</i>
    <i type="int" name="NELMDL">    -5</i>
    <i type="int" name="NELMIN">     4</i>
    <i name="ENINI">    600.00000000</i>
    <separator name="electronic convergence detail" >
     <i type="logical" name="LDIAG"> T  </i>
     <i type="logical" name="LSUBROT"> F  </i>
     <i name="WEIMIN">      0.00100000</i>
     <i name="EBREAK">      0.00000000</i>
     <i name="DEPER">      0.30000000</i>
     <i type="int" name="NRMM">     4</i>
     <i name="TIME">      0.40000000</i>
    </separator>
   </separator>
   <separator name="electronic mixer" >
    <i name="AMIX">      0.40000000</i>
    <i name="BMIX">      1.00000000</i>
    <i name="AMIN">      0.10000000</i>
    <i name="AMIX_MAG">      1.60000000</i>
    <i name="BMIX_MAG">      1.00000000</i>
    <separator name="electronic mixer details" >
     <i type="int" name="IMIX">     4</i>
     <i type="logical" name="MIXFIRST"> F  </i>
     <i type="int" name="MAXMIX">   -45</i>
     <i name="WC">    100.00000000</i>
     <i type="int" name="INIMIX">     1</i>
     <i type="int" name="MIXPRE">     1</i>
     <i type="int" name="MREMOVE">     5</i>
    </separator>
   </separator>
   <separator name="electronic dipolcorrection" >
    <i type="logical" name="LDIPOL"> F  </i>
    <i type="logical" name="LMONO"> F  </i>
    <i type="int" name="IDIPOL">     0</i>
    <i name="EPSILON">      1.00000000</i>
    <v name="DIPOL">   -100.00000000   -100.00000000   -100.00000000</v>
    <i name="EFIELD">      0.00000000</i>
   </separator>
  </separator>
  <separator name="grids" >
   <i type="int" name="NGX">    70</i>
   <i type="int" name="NGY">    60</i>
   <i type="int" name="NGZ">    70</i>
   <i type="int" name="NGXF">   140</i>
   <i type="int" name="NGYF">   120</i>
   <i type="int" name="NGZF">   140</i>
   <i type="logical" name="ADDGRID"> F  </i>
  </separator>
  <separator name="ionic" >
   <i type="int" name="NSW">     1</i>
   <i type="int" name="IBRION">     2</i>
   <i type="int" name="MDALGO">     0</i>
   <i type="int" name="ISIF">     2</i>
   <i name="PSTRESS">      0.00000000</i>
   <i name="EDIFFG">     -0.01000000</i>
   <i type="int" name="NFREE">    10</i>
   <i name="POTIM">      0.50000000</i>
   <i name="SMASS">     -3.00000000</i>
   <i name="SCALEE">      1.00000000</i>
  </separator>
  <separator name="ionic md" >
   <i name="TEBEG">      0.00010000</i>
   <i name="TEEND">      0.00010000</i>
   <i type="int" name="NBLOCK">     1</i>
   <i type="int" name="KBLOCK">     1</i>
   <i type="int" name="NPACO">   256</i>
   <i name="APACO">     16.00000000</i>
  </separator>
  <separator name="symmetry" >
   <i type="int" name="ISYM">     2</i>
   <i name="SYMPREC">      0.00001000</i>
  </separator>
  <separator name="dos" >
   <i type="int" name="LORBIT">     0</i>
   <v name="RWIGS">     -1.00000000     -1.00000000     -1.00000000     -1.00000000     -1.00000000</v>
   <i type="int" name="NEDOS">   301</i>
   <i name="EMIN">     10.00000000</i>
   <i name="EMAX">    -10.00000000</i>
   <i name="EFERMI">      0.00000000</i>
  </separator>
  <separator name="writing" >
   <i type="int" name="NWRITE">     2</i>
   <i type="logical" name="LWAVE"> F  </i>
   <i type="logical" name="LDOWNSAMPLE"> F  </i>
   <i type="logical" name="LCHARG"> F  </i>
   <i type="logical" name="LPARD"> F  </i>
   <i type="logical" name="LVTOT"> F  </i>
   <i type="logical" name="LVHAR"> F  </i>
   <i type="logical" name="LELF"> F  </i>
   <i type="logical" name="LOPTICS"> F  </i>
   <v name="STM">      0.00000000      0.00000000      0.00000000      0.00000000      0.00000000      0.00000000      0.00000000</v>
  </separator>
  <separator name="performance" >
   <i type="int" name="NPAR">    28</i>
   <i type="int" name="NSIM">     4</i>
   <i type="int" name="NBLK">    -1</i>
   <i type="logical" name="LPLANE"> T  </i>
   <i type="logical" name="LSCALAPACK"> T  </i>
   <i type="logical" name="LSCAAWARE"> F  </i>
   <i type="logical" name="LSCALU"> F  </i>
   <i type="logical" name="LASYNC"> F  </i>
   <i type="logical" name="LORBITALREAL"> F  </i>
  </separator>
  <separator name="miscellaneous" >
   <i type="int" name="IDIOT">     3</i>
   <i type="int" name="ISPECIAL">     0</i>
   <i type="logical" name="LMUSIC"> F  </i>
   <v name="POMASS">      7.01000000     24.30500000    208.98000000     32.06600000     16.00000000</v>
   <v name="DARWINR">      0.00000000      0.00000000      0.00000000      0.00000000      0.00000000</v>
   <v name="DARWINV">      1.00000000      1.00000000      1.00000000      1.00000000      1.00000000</v>
   <i type="logical" name="LCORR"> T  </i>
  </separator>
  <i type="logical" name="GGA_COMPAT"> T  </i>
  <i type="logical" name="LBERRY"> F  </i>
  <i type="int" name="ICORELEVEL">     0</i>
  <i type="logical" name="LDAU"> F  </i>
  <i type="int" name="I_CONSTRAINED_M">     0</i>
  <separator name="electronic exchange-correlation" >
   <i type="string" name="GGA">--</i>
   <i type="int" name="VOSKOWN">     0</i>
   <i type="logical" name="LHFCALC"> F  </i>
   <i type="string" name="PRECFOCK"></i>
   <i type="logical" name="LSYMGRAD"> F  </i>
   <i type="logical" name="LHFONE"> F  </i>
   <i type="logical" name="LRHFCALC"> F  </i>
   <i type="logical" name="LTHOMAS"> F  </i>
   <i type="logical" name="LMODELHF"> F  </i>
   <i name="ENCUT4O">     -1.00000000</i>
   <i type="int" name="EXXOEP">     0</i>
   <i type="int" name="FOURORBIT">     0</i>
   <i name="AEXX">      0.00000000</i>
   <i name="HFALPHA">      0.00000000</i>
   <i name="MCALPHA">      0.00000000</i>
   <i name="ALDAX">      1.00000000</i>
   <i name="AGGAX">      1.00000000</i>
   <i name="ALDAC">      1.00000000</i>
   <i name="AGGAC">      1.00000000</i>
   <i type="int" name="NKREDX">     1</i>
   <i type="int" name="NKREDY">     1</i>
   <i type="int" name="NKREDZ">     1</i>
   <i type="logical" name="SHIFTRED"> F  </i>
   <i type="logical" name="ODDONLY"> F  </i>
   <i type="logical" name="EVENONLY"> F  </i>
   <i type="int" name="LMAXFOCK">     0</i>
   <i type="int" name="NMAXFOCKAE">     0</i>
   <i type="logical" name="LFOCKAEDFT"> F  </i>
   <i name="HFSCREEN">      0.00000000</i>
   <i name="HFSCREENC">      0.00000000</i>
   <i type="int" name="NBANDSGWLOW">     0</i>
  </separator>
  <separator name="vdW DFT" >
   <i type="logical" name="LUSE_VDW"> F  </i>
   <i name="Zab_VDW">     -0.84910000</i>
   <i name="PARAM1">      0.12340000</i>
   <i name="PARAM2">      1.00000000</i>
   <i name="PARAM3">      0.00000000</i>
  </separator>
  <separator name="model GW" >
   <i type="int" name="MODEL_GW">     0</i>
   <i name="MODEL_EPS0">     12.38119177</i>
   <i name="MODEL_ALPHA">      1.00000000</i>
  </separator>
  <separator name="linear response parameters" >
   <i type="logical" name="LEPSILON"> F  </i>
   <i type="logical" name="LRPA"> F  </i>
   <i type="logical" name="LNABLA"> F  </i>
   <i type="logical" name="LVEL"> F  </i>
   <i type="int" name="KINTER">     0</i>
   <i name="CSHIFT">      0.10000000</i>
   <i name="OMEGAMAX">     -1.00000000</i>
   <i name="DEG_THRESHOLD">      0.00200000</i>
   <i name="RTIME">     -0.10000000</i>
   <i name="WPLASMAI">      0.00000000</i>
   <v name="DFIELD">      0.00000000      0.00000000      0.00000000</v>
   <v name="WPLASMA">      0.00000000      0.00000000      0.00000000      0.00000000      0.00000000      0.00000000      0.00000000      0.00000000      0.00000000</v>
  </separator>
  <separator name="orbital magnetization" >
   <i type="logical" name="NUCIND"> F  </i>
   <v name="MAGPOS">      0.00000000      0.00000000      0.00000000</v>
   <i type="logical" name="LNICSALL"> T  </i>
   <i type="logical" name="ORBITALMAG"> F  </i>
   <i type="logical" name="LMAGBLOCH"> F  </i>
   <i type="logical" name="LCHIMAG"> F  </i>
   <i type="logical" name="LGAUGE"> T  </i>
   <i type="int" name="MAGATOM">     0</i>
   <v name="MAGDIPOL">      0.00000000      0.00000000      0.00000000</v>
   <v name="AVECCONST">      0.00000000      0.00000000      0.00000000</v>
  </separator>
  <separator name="response functions" >
   <i type="logical" name="LADDER"> F  </i>
   <i type="logical" name="LRPAFORCE"> F  </i>
   <i type="logical" name="LFXC"> F  </i>
   <i type="logical" name="LHARTREE"> T  </i>
   <i type="int" name="IBSE">     0</i>
   <v type="int" name="KPOINT">    -1     0     0     0</v>
   <i type="logical" name="LTCTE"> F  </i>
   <i type="logical" name="LTETE"> F  </i>
   <i type="logical" name="LTRIPLET"> F  </i>
   <i type="logical" name="LFXCEPS"> F  </i>
   <i type="logical" name="LFXHEG"> F  </i>
   <i type="int" name="NATURALO">     2</i>
   <i type="logical" name="L2ORDER"> F  </i>
   <i type="logical" name="LMP2LT"> F  </i>
   <i type="logical" name="LUSEW"> F  </i>
   <i name="ENCUTGW">     -2.00000000</i>
   <i name="ENCUTGWSOFT">     -2.00000000</i>
   <i name="ENCUTLF">     -1.00000000</i>
   <i type="int" name="LMAXMP2">    -1</i>
   <i name="SCISSOR">      0.00000000</i>
   <i type="int" name="NOMEGA">     0</i>
   <i type="int" name="NOMEGAR">     0</i>
   <i type="int" name="NBANDSGW">    -1</i>
   <i type="int" name="NBANDSO">    -1</i>
   <i type="int" name="NBANDSV">    -1</i>
   <i type="int" name="NELM">     1</i>
   <i type="int" name="NELMHF">     1</i>
   <i type="int" name="DIM">     3</i>
   <i type="int" name="ANTIRES">     0</i>
   <i name="OMEGAMAX">    -30.00000000</i>
   <i name="OMEGAMIN">    -30.00000000</i>
   <i name="OMEGATL">   -200.00000000</i>
   <i type="int" name="OMEGAGRID">   140</i>
   <i name="CSHIFT">     -0.10000000</i>
   <i type="logical" name="SELFENERGY"> F  </i>
   <i type="logical" name="LSPECTRAL"> F  </i>
   <i type="logical" name="LSPECTRALGW"> F  </i>
   <i type="logical" name="LSINGLES"> F  </i>
   <i type="logical" name="LFERMIGW"> F  </i>
   <i type="logical" name="ODDONLYGW"> F  </i>
   <i type="logical" name="EVENONLYGW"> F  </i>
   <i type="int" name="NKREDLFX">     1</i>
   <i type="int" name="NKREDLFY">     1</i>
   <i type="int" name="NKREDLFZ">     1</i>
   <i type="int" name="MAXMEM">  2800</i>
   <i type="int" name="TELESCOPE">     0</i>
   <i type="int" name="TAUPAR">     1</i>
   <i type="int" name="OMEGAPAR">    -1</i>
   <i name="LAMBDA">      1.00000000</i>
  </separator>
  <separator name="External order field" >
   <i name="OFIELD_KAPPA">      0.00000000</i>
   <v name="OFIELD_K">      0.00000000      0.00000000      0.00000000</v>
   <i name="OFIELD_Q6_NEAR">      0.00000000</i>
   <i name="OFIELD_Q6_FAR">      0.00000000</i>
   <i name="OFIELD_A">      0.00000000</i>
  </separator>
 </parameters>
 <atominfo>
  <atoms>      58 </atoms>
  <types>       5 </types>
  <array name="atoms" >
   <dimension dim="1">ion</dimension>
   <field type="string">element</field>
   <field type="int">atomtype</field>
   <set>
    <rc><c>Li</c><c>   1</c></rc>
    <rc><c>Li</c><c>   1</c></rc>
    <rc><c>Li</c><c>   1</c></rc>
    <rc><c>Li</c><c>   1</c></rc>
    <rc><c>Mg</c><c>   2</c></rc>
    <rc><c>Mg</c><c>   2</c></rc>
    <rc><c>Mg</c><c>   2</c></rc>
    <rc><c>Mg</c><c>   2</c></rc>
    <rc><c>Mg</c><c>   2</c></rc>
    <rc><c>Mg</c><c>   2</c></rc>
    <rc><c>Bi</c><c>   3</c></rc>
    <rc><c>Bi</c><c>   3</c></rc>
    <rc><c>Bi</c><c>   3</c></rc>
    <rc><c>Bi</c><c>   3</c></rc>
    <rc><c>Bi</c><c>   3</c></rc>
    <rc><c>Bi</c><c>   3</c></rc>
    <rc><c>Bi</c><c>   3</c></rc>
    <rc><c>Bi</c><c>   3</c></rc>
    <rc><c>Bi</c><c>   3</c></rc>
    <rc><c>Bi</c><c>   3</c></rc>
    <rc><c>Bi</c><c>   3</c></rc>
    <rc><c>Bi</c><c>   3</c></rc>
    <rc><c>Bi</c><c>   3</c></rc>
    <rc><c>Bi</c><c>   3</c></rc>
    <rc><c>Bi</c><c>   3</c></rc>
    <rc><c>Bi</c><c>   3</c></rc>
    <rc><c>S </c><c>   4</c></rc>
    <rc><c>S </c><c>   4</c></rc>
    <rc><c>S </c><c>   4</c></rc>
    <rc><c>S </c><c>   4</c></rc>
    <rc><c>S </c><c>   4</c></rc>
    <rc><c>S </c><c>   4</c></rc>
    <rc><c>S </c><c>   4</c></rc>
    <rc><c>S </c><c>   4</c></rc>
    <rc><c>S </c><c>   4</c></rc>
    <rc><c>S </c><c>   4</c></rc>
    <rc><c>S </c><c>   4</c></rc>
    <rc><c>S </c><c>   4</c></rc>
    <rc><c>S </c><c>   4</c></rc>
    <rc><c>S </c><c>   4</c></rc>
    <rc><c>S </c><c>   4</c></rc>
    <rc><c>S </c><c>   4</c></rc>
    <rc><c>O </c><c>   5</c></rc>
    <rc><c>O </c><c>   5</c></rc>
    <rc><c>O </c><c>   5</c></rc>
    <rc><c>O </c><c>   5</c></rc>
    <rc><c>O </c><c>   5</c></rc>
    <rc><c>O </c><c>   5</c></rc>
    <rc><c>O </c><c>   5</c></rc>
    <rc><c>O </c><c>   5</c></rc>
    <rc><c>O </c><c>   5</c></rc>
    <rc><c>O </c><c>   5</c></rc>
    <rc><c>O </c><c>   5</c></rc>
    <rc><c>O </c><c>   5</c></rc>
    <rc><c>O </c><c>   5</c></rc>
    <rc><c>O </c><c>   5</c></rc>
    <rc><c>O </c><c>   5</c></rc>
    <rc><c>O </c><c>   5</c></rc>
   </set>
  </array>
  <array name="atomtypes" >
   <dimension dim="1">type</dimension>
   <field type="int">atomspertype</field>
   <field type="string">element</field>
   <field>mass</field>
   <field>valence</field>
   <field type="string">pseudopotential</field>
   <set>
    <rc><c>   4</c><c>Li</c><c>      7.01000000</c><c>      3.00000000</c><c>  PAW_PBE Li_sv 10Sep2004               </c></rc>
    <rc><c>   6</c><c>Mg</c><c>     24.30500000</c><c>      2.00000000</c><c>  PAW_PBE Mg 13Apr2007                  </c></rc>
    <rc><c>  16</c><c>Bi</c><c>    208.98000000</c><c>     15.00000000</c><c>  PAW_PBE Bi_d 06Sep2000                </c></rc>
    <rc><c>  16</c><c>S </c><c>     32.06600000</c><c>      6.00000000</c><c>  PAW_PBE S 06Sep2000                   </c></rc>
    <rc><c>  16</c><c>O </c><c>     16.00000000</c><c>      6.00000000</c><c>  PAW_PBE O 08Apr2002                   </c></rc>
   </set>
  </array>
 </atominfo>
 <structure name="initialpos" >
  <crystal>
   <varray name="basis" >
    <v>      11.17850000       0.00000000       0.00000000 </v>
    <v>       0.00000000       9.57460000       0.00000000 </v>
    <v>       0.00000000       0.00000000      11.18240000 </v>
   </varray>
   <i name="volume">   1196.84853820 </i>
   <varray name="rec_basis" >
    <v>       0.08945744       0.00000000       0.00000000 </v>
    <v>       0.00000000       0.10444301       0.00000000 </v>
    <v>       0.00000000       0.00000000       0.08942624 </v>
   </varray>
  </crystal>
  <varray name="positions" >
   <v>       0.37539000       0.00017000       0.43687000 </v>
   <v>       0.62539000       0.99984000       0.43687000 </v>
   <v>       0.37539000       0.00017000       0.93687000 </v>
   <v>       0.37461000       0.00017000       0.68687000 </v>
   <v>       0.12461000       0.99984000       0.18687000 </v>
   <v>       0.87539000       0.00017000       0.43687000 </v>
   <v>       0.62461000       0.99984000       0.18687000 </v>
   <v>       0.12461000       0.99984000       0.68687000 </v>
   <v>       0.87539000       0.00017000       0.93687000 </v>
   <v>       0.62461000       0.99984000       0.68687000 </v>
   <v>       0.00013000       0.29519000       0.06281000 </v>
   <v>       0.25013000       0.70481000       0.06281000 </v>
   <v>       0.24987000       0.29519000       0.31282000 </v>
   <v>       0.49987000       0.70481000       0.31282000 </v>
   <v>       0.50013000       0.29519000       0.06281000 </v>
   <v>       0.75013000       0.70481000       0.06281000 </v>
   <v>       0.74987000       0.29519000       0.31282000 </v>
   <v>       0.99987000       0.70481000       0.31282000 </v>
   <v>       0.00013000       0.29519000       0.56281000 </v>
   <v>       0.25013000       0.70481000       0.56281000 </v>
   <v>       0.24987000       0.29519000       0.81282000 </v>
   <v>       0.49987000       0.70481000       0.81282000 </v>
   <v>       0.50013000       0.29519000       0.56281000 </v>
   <v>       0.75013000       0.70481000       0.56281000 </v>
   <v>       0.74987000       0.29519000       0.81282000 </v>
   <v>       0.99987000       0.70481000       0.81282000 </v>
   <v>       0.25005000       0.32677000       0.06286000 </v>
   <v>       0.00005000       0.67323000       0.06286000 </v>
   <v>       0.49995000       0.32677000       0.31286000 </v>
   <v>       0.24995000       0.67323000       0.31286000 </v>
   <v>       0.75005000       0.32677000       0.06286000 </v>
   <v>       0.50005000       0.67323000       0.06286000 </v>
   <v>       0.99995000       0.32677000       0.31286000 </v>
   <v>       0.74995000       0.67323000       0.31286000 </v>
   <v>       0.25005000       0.32677000       0.56286000 </v>
   <v>       0.00005000       0.67323000       0.56286000 </v>
   <v>       0.49995000       0.32677000       0.81286000 </v>
   <v>       0.24995000       0.67323000       0.81286000 </v>
   <v>       0.75005000       0.32677000       0.56286000 </v>
   <v>       0.50005000       0.67323000       0.56286000 </v>
   <v>       0.99995000       0.32677000       0.81286000 </v>
   <v>       0.74995000       0.67323000       0.81286000 </v>
   <v>       0.49987000       0.07798000       0.06246000 </v>
   <v>       0.24987000       0.92202000       0.06246000 </v>
   <v>       0.25013000       0.07798000       0.31246000 </v>
   <v>       0.00013000       0.92202000       0.31246000 </v>
   <v>       0.99987000       0.07798000       0.06246000 </v>
   <v>       0.74987000       0.92202000       0.06246000 </v>
   <v>       0.75013000       0.07798000       0.31246000 </v>
   <v>       0.50013000       0.92202000       0.31246000 </v>
   <v>       0.49987000       0.07798000       0.56246000 </v>
   <v>       0.24987000       0.92202000       0.56246000 </v>
   <v>       0.25013000       0.07798000       0.81246000 </v>
   <v>       0.00013000       0.92202000       0.81246000 </v>
   <v>       0.99987000       0.07798000       0.56246000 </v>
   <v>       0.74987000       0.92202000       0.56246000 </v>
   <v>       0.75013000       0.07798000       0.81246000 </v>
   <v>       0.50013000       0.92202000       0.81246000 </v>
  </varray>
 </structure>
 <calculation>
  <scstep>
   <time name="dav">   61.21   61.22</time>
   <time name="total">   61.29   61.31</time>
   <energy>
    <i name="alphaZ">   1054.17224280 </i>
    <i name="ewald"> -30171.86545832 </i>
    <i name="hartreedc"> -12712.99949939 </i>
    <i name="XCdc">   1173.24000133 </i>
    <i name="pawpsdc">  36541.05238669 </i>
    <i name="pawaedc"> -35795.85877930 </i>
    <i name="eentropy">      0.00000000 </i>
    <i name="bandstr">   1907.74182814 </i>
    <i name="atom">  43643.51795008 </i>
    <i name="e_fr_energy">   5639.00067203 </i>
    <i name="e_wo_entrp">   5639.00067203 </i>
    <i name="e_0_energy">   5639.00067203 </i>
   </energy>
  </scstep>
  <scstep>
   <time name="dav">   62.48   62.49</time>
   <time name="total">   62.49   62.50</time>
   <energy>
    <i name="e_fr_energy">    725.05234363 </i>
    <i name="e_wo_entrp">    725.05234363 </i>
    <i name="e_0_energy">    725.05234363 </i>
   </energy>
  </scstep>
  <scstep>
   <time name="dav">   70.57   70.60</time>
   <time name="total">   70.57   70.60</time>
   <energy>
    <i name="e_fr_energy">   -247.71095381 </i>
    <i name="e_wo_entrp">   -247.71095381 </i>
    <i name="e_0_energy">   -247.71095381 </i>
   </energy>
  </scstep>
  <scstep>
   <time name="dav">   73.15   73.26</time>
   <time name="total">   73.15   73.27</time>
   <energy>
    <i name="e_fr_energy">   -332.65375051 </i>
    <i name="e_wo_entrp">   -332.65375051 </i>
    <i name="e_0_energy">   -332.65375051 </i>
   </energy>
  </scstep>
  <scstep>
   <time name="dav">   93.28   93.31</time>
   <time name="total">   94.00   94.03</time>
   <energy>
    <i name="e_fr_energy">   -338.80067128 </i>
    <i name="e_wo_entrp">   -338.80067128 </i>
    <i name="e_0_energy">   -338.80067128 </i>
   </energy>
  </scstep>
  <scstep>
   <time name="dav">   86.99   87.09</time>
   <time name="total">   87.78   87.88</time>
   <energy>
    <i name="e_fr_energy">   -284.73116895 </i>
    <i name="e_wo_entrp">   -284.73116895 </i>
    <i name="e_0_energy">   -284.73116895 </i>
   </energy>
  </scstep>
  <scstep>
   <time name="dav">   65.92   66.15</time>
   <time name="total">   66.71   66.94</time>
   <energy>
    <i name="e_fr_energy">   -286.93005367 </i>
    <i name="e_wo_entrp">   -286.93005367 </i>
    <i name="e_0_energy">   -286.93005367 </i>
   </energy>
  </scstep>
  <scstep>
   <time name="dav">   78.71   78.87</time>
   <time name="total">   79.50   79.66</time>
   <energy>
    <i name="e_fr_energy">   -286.09293569 </i>
    <i name="e_wo_entrp">   -286.09293569 </i>
    <i name="e_0_energy">   -286.09293569 </i>
   </energy>
  </scstep>
  <scstep>
   <time name="dav">   75.81   75.83</time>
   <time name="total">   76.60   76.62</time>
   <energy>
    <i name="e_fr_energy">   -285.67623220 </i>
    <i name="e_wo_entrp">   -285.67623220 </i>
    <i name="e_0_energy">   -285.67623220 </i>
   </energy>
  </scstep>
  <scstep>
   <time name="dav">   73.86   73.88</time>
   <time name="total">   74.65   74.67</time>
   <energy>
    <i name="e_fr_energy">   -285.69209454 </i>
    <i name="e_wo_entrp">   -285.69209454 </i>
    <i name="e_0_energy">   -285.69209454 </i>
   </energy>
  </scstep>
  <scstep>
   <time name="dav">   82.13   82.32</time>
   <time name="total">   82.92   83.11</time>
   <energy>
    <i name="e_fr_energy">   -285.69811121 </i>
    <i name="e_wo_entrp">   -285.69811121 </i>
    <i name="e_0_energy">   -285.69811121 </i>
   </energy>
  </scstep>
  <scstep>
   <time name="dav">   79.45   80.26</time>
   <time name="total">   80.23   81.05</time>
   <energy>
    <i name="e_fr_energy">   -285.70079012 </i>
    <i name="e_wo_entrp">   -285.70079012 </i>
    <i name="e_0_energy">   -285.70079012 </i>
   </energy>
  </scstep>
  <scstep>
   <time name="dav">   73.14   73.32</time>
   <time name="total">   74.00   74.19</time>
   <energy>
    <i name="e_fr_energy">   -285.70208772 </i>
    <i name="e_wo_entrp">   -285.70208772 </i>
    <i name="e_0_energy">   -285.70208772 </i>
   </energy>
  </scstep>
  <scstep>
   <time name="dav">   78.48   78.65</time>
   <time name="total">   79.27   79.45</time>
   <energy>
    <i name="e_fr_energy">   -285.70226475 </i>
    <i name="e_wo_entrp">   -285.70226475 </i>
    <i name="e_0_energy">   -285.70226475 </i>
   </energy>
  </scstep>
  <scstep>
   <time name="dav">   72.19   72.34</time>
   <time name="total">   72.98   73.13</time>
   <energy>
    <i name="e_fr_energy">   -285.70229067 </i>
    <i name="e_wo_entrp">   -285.70229067 </i>
    <i name="e_0_energy">   -285.70229067 </i>
   </energy>
  </scstep>
  <scstep>
   <time name="dav">   64.58   64.72</time>
   <time name="total">   65.37   65.51</time>
   <energy>
    <i name="e_fr_energy">   -285.70230653 </i>
    <i name="e_wo_entrp">   -285.70230653 </i>
    <i name="e_0_energy">   -285.70230653 </i>
   </energy>
  </scstep>
  <scstep>
   <time name="dav">   71.13   71.32</time>
   <time name="total">   71.91   72.11</time>
   <energy>
    <i name="e_fr_energy">   -285.70230777 </i>
    <i name="e_wo_entrp">   -285.70230777 </i>
    <i name="e_0_energy">   -285.70230777 </i>
   </energy>
  </scstep>
  <scstep>
   <time name="dav">   60.83   60.92</time>
   <time name="total">   60.90   60.99</time>
   <energy>
    <i name="alphaZ">   1054.17224280 </i>
    <i name="ewald"> -30171.86545832 </i>
    <i name="hartreedc"> -12955.92530247 </i>
    <i name="XCdc">   1198.76182716 </i>
    <i name="pawpsdc">  43578.93194425 </i>
    <i name="pawaedc"> -42806.48883937 </i>
    <i name="eentropy">      0.00000000 </i>
    <i name="bandstr">  -3826.80667221 </i>
    <i name="atom">  43643.51795008 </i>
    <i name="e_fr_energy">   -285.70230808 </i>
    <i name="e_wo_entrp">   -285.70230808 </i>
    <i name="e_0_energy">   -285.70230808 </i>
   </energy>
  </scstep>
  <structure>
   <crystal>
    <varray name="basis" >
     <v>      11.17850000       0.00000000       0.00000000 </v>
     <v>       0.00000000       9.57460000       0.00000000 </v>
     <v>       0.00000000       0.00000000      11.18240000 </v>
    </varray>
    <i name="volume">   1196.84853820 </i>
    <varray name="rec_basis" >
     <v>       0.08945744       0.00000000       0.00000000 </v>
     <v>       0.00000000       0.10444301       0.00000000 </v>
     <v>       0.00000000       0.00000000       0.08942624 </v>
    </varray>
   </crystal>
   <varray name="positions" >
    <v>       0.37539000       0.00017000       0.43687000 </v>
    <v>       0.62539000       0.99984000       0.43687000 </v>
    <v>       0.37539000       0.00017000       0.93687000 </v>
    <v>       0.37461000       0.00017000       0.68687000 </v>
    <v>       0.12461000       0.99984000       0.18687000 </v>
    <v>       0.87539000       0.00017000       0.43687000 </v>
    <v>       0.62461000       0.99984000       0.18687000 </v>
    <v>       0.12461000       0.99984000       0.68687000 </v>
    <v>       0.87539000       0.00017000       0.93687000 </v>
    <v>       0.62461000       0.99984000       0.68687000 </v>
    <v>       0.00013000       0.29519000       0.06281000 </v>
    <v>       0.25013000       0.70481000       0.06281000 </v>
    <v>       0.24987000       0.29519000       0.31282000 </v>
    <v>       0.49987000       0.70481000       0.31282000 </v>
    <v>       0.50013000       0.29519000       0.06281000 </v>
    <v>       0.75013000       0.70481000       0.06281000 </v>
    <v>       0.74987000       0.29519000       0.31282000 </v>
    <v>       0.99987000       0.70481000       0.31282000 </v>
    <v>       0.00013000       0.29519000       0.56281000 </v>
    <v>       0.25013000       0.70481000       0.56281000 </v>
    <v>       0.24987000       0.29519000       0.81282000 </v>
    <v>       0.49987000       0.70481000       0.81282000 </v>
    <v>       0.50013000       0.29519000       0.56281000 </v>
    <v>       0.75013000       0.70481000       0.56281000 </v>
    <v>       0.74987000       0.29519000       0.81282000 </v>
    <v>       0.99987000       0.70481000       0.81282000 </v>
    <v>       0.25005000       0.32677000       0.06286000 </v>
    <v>       0.00005000       0.67323000       0.06286000 </v>
    <v>       0.49995000       0.32677000       0.31286000 </v>
    <v>       0.24995000       0.67323000       0.31286000 </v>
    <v>       0.75005000       0.32677000       0.06286000 </v>
    <v>       0.50005000       0.67323000       0.06286000 </v>
    <v>       0.99995000       0.32677000       0.31286000 </v>
    <v>       0.74995000       0.67323000       0.31286000 </v>
    <v>       0.25005000       0.32677000       0.56286000 </v>
    <v>       0.00005000       0.67323000       0.56286000 </v>
    <v>       0.49995000       0.32677000       0.81286000 </v>
    <v>       0.24995000       0.67323000       0.81286000 </v>
    <v>       0.75005000       0.32677000       0.56286000 </v>
    <v>       0.50005000       0.67323000       0.56286000 </v>
    <v>       0.99995000       0.32677000       0.81286000 </v>
    <v>       0.74995000       0.67323000       0.81286000 </v>
    <v>       0.49987000       0.07798000       0.06246000 </v>
    <v>       0.24987000       0.92202000       0.06246000 </v>
    <v>       0.25013000       0.07798000       0.31246000 </v>
    <v>       0.00013000       0.92202000       0.31246000 </v>
    <v>       0.99987000       0.07798000       0.06246000 </v>
    <v>       0.74987000       0.92202000       0.06246000 </v>
    <v>       0.75013000       0.07798000       0.31246000 </v>
    <v>       0.50013000       0.92202000       0.31246000 </v>
    <v>       0.49987000       0.07798000       0.56246000 </v>
    <v>       0.24987000       0.92202000       0.56246000 </v>
    <v>       0.25013000       0.07798000       0.81246000 </v>
    <v>       0.00013000       0.92202000       0.81246000 </v>
    <v>       0.99987000       0.07798000       0.56246000 </v>
    <v>       0.74987000       0.92202000       0.56246000 </v>
    <v>       0.75013000       0.07798000       0.81246000 </v>
    <v>       0.50013000       0.92202000       0.81246000 </v>
   </varray>
  </structure>
  <varray name="forces" >
   <v>      -0.55554979      -0.00274599      -0.53677945 </v>
   <v>      -0.35165332      -0.06082542      -0.19737367 </v>
   <v>      -0.04225915       0.00139172       0.53614482 </v>
   <v>      -0.20860378      -0.06372061       0.20809620 </v>
   <v>       0.43679017       0.01174490      -0.03691109 </v>
   <v>       1.06186192      -0.00077160      -0.04284060 </v>
   <v>      -0.39431977       0.00018547      -1.03487749 </v>
   <v>      -0.53567144       0.00657592       0.09464033 </v>
   <v>       0.04229854      -0.00362452       0.10085337 </v>
   <v>       0.59821536       0.00781448       1.11061509 </v>
   <v>       0.20694120      -0.06040536      -0.00043439 </v>
   <v>       0.11661994       1.04250052      -0.02009244 </v>
   <v>       0.09092905      -1.04555269      -0.12589708 </v>
   <v>      -0.44266277      -0.05492603      -0.29127814 </v>
   <v>      -0.27408239      -1.01156361      -0.05587458 </v>
   <v>      -0.07039138       0.05948597      -0.04486501 </v>
   <v>       0.10446417       1.03769998      -0.32864038 </v>
   <v>       0.26760865       0.05090019      -0.14823143 </v>
   <v>       0.20091437      -0.03546343      -0.01325844 </v>
   <v>      -0.07632498      -0.04171414      -0.24412367 </v>
   <v>      -0.02744665       0.01468795       0.37489837 </v>
   <v>      -0.10146226      -0.03701591       0.41049174 </v>
   <v>      -0.29901779       1.10772930      -0.08220490 </v>
   <v>       0.14789720      -1.03554645       0.17239656 </v>
   <v>      -0.02868779      -0.05467949       0.17952978 </v>
   <v>       0.18255034       0.05753763       0.14093511 </v>
   <v>      -0.13483884       0.19583452      -0.06973302 </v>
   <v>      -0.16742751      -0.13438260      -0.00696429 </v>
   <v>       0.31552507       0.12983980       0.23910697 </v>
   <v>      -0.02118333      -0.16491804       0.14271089 </v>
   <v>       0.08291593       0.10127415       0.08618298 </v>
   <v>       0.21099139      -0.15122542       0.05399553 </v>
   <v>      -0.26847672       0.09565693       0.09142412 </v>
   <v>      -0.02434320      -0.06551496       0.19105356 </v>
   <v>       0.07322071       0.14206363       0.15615083 </v>
   <v>      -0.15467474      -0.05492835      -0.00598857 </v>
   <v>       0.09800018       0.12780468      -0.33324218 </v>
   <v>      -0.01114341      -0.17784227      -0.23746144 </v>
   <v>      -0.11671231       0.01788820      -0.10045292 </v>
   <v>       0.20031265      -0.11297052       0.04281992 </v>
   <v>      -0.05986083       0.09512250      -0.07707048 </v>
   <v>      -0.02542377      -0.05770128      -0.17562468 </v>
   <v>       0.61456773       0.96958065       0.51678529 </v>
   <v>      -0.52023082      -1.04297906       0.42559535 </v>
   <v>      -0.46945491       0.99723391      -0.34524746 </v>
   <v>      -0.25406104      -0.27154297       0.13375028 </v>
   <v>      -0.15099791       0.32413931      -0.04656602 </v>
   <v>       0.06958570      -0.27402201       0.04545776 </v>
   <v>      -0.61214252      -0.72745582       0.80278541 </v>
   <v>       1.29588611       0.02722890       0.34032405 </v>
   <v>       0.65134063      -0.86708715       0.46390187 </v>
   <v>       0.21466672      -0.01663443       1.13759563 </v>
   <v>       0.11245576       0.06149636      -1.25057528 </v>
   <v>      -0.06200599      -0.27920648      -0.06468965 </v>
   <v>      -0.15812978       0.21306538      -0.04528649 </v>
   <v>      -0.68646567       0.78182069      -0.72175078 </v>
   <v>      -0.05330331       0.21882055      -0.16867376 </v>
   <v>      -0.03754963       0.00984245      -1.34523207 </v>
  </varray>
  <varray name="stress" >
   <v>      -9.20255818      -0.34831724      -0.68669807 </v>
   <v>      -0.34831714     -12.78881424      -0.19634065 </v>
   <v>      -0.68669797      -0.19634080     -11.30264226 </v>
  </varray>
  <energy>
   <i name="e_fr_energy">   -297.43635248 </i>
   <i name="e_wo_entrp">   -297.43635248 </i>
   <i name="e_0_energy">      0.00000000 </i>
  </energy>
  <time name="totalsc"> 1444.69 1447.92</time>
  <eigenvalues>
   <array>
    <dimension dim="1">band</dimension>
    <dimension dim="2">kpoint</dimension>
    <dimension dim="3">spin</dimension>
    <field>eigene</field>
    <field>occ</field>
    <set>
     <set comment="spin 1">
      <set comment="kpoint 1">
       <r>  -40.5823    1.0000 </r>
       <r>  -40.1195    1.0000 </r>
       <r>  -39.8031    1.0000 </r>
       <r>  -39.3580    1.0000 </r>
       <r>  -19.0562    1.0000 </r>
       <r>  -18.9871    1.0000 </r>
       <r>  -18.9814    1.0000 </r>
       <r>  -18.9733    1.0000 </r>
       <r>  -18.9706    1.0000 </r>
       <r>  -18.9156    1.0000 </r>
       <r>  -18.9088    1.0000 </r>
       <r>  -18.8956    1.0000 </r>
       <r>  -18.8871    1.0000 </r>
       <r>  -18.8840    1.0000 </r>
       <r>  -18.8643    1.0000 </r>
       <r>  -18.8112    1.0000 </r>
       <r>  -18.8010    1.0000 </r>
       <r>  -18.7981    1.0000 </r>
       <r>  -18.7780    1.0000 </r>
       <r>  -18.7574    1.0000 </r>
       <r>  -18.7468    1.0000 </r>
       <r>  -18.7458    1.0000 </r>
       <r>  -18.7388    1.0000 </r>
       <r>  -18.7375    1.0000 </r>
       <r>  -18.7202    1.0000 </r>
       <r>  -18.7194    1.0000 </r>
       <r>  -18.7124    1.0000 </r>
       <r>  -18.7059    1.0000 </r>
       <r>  -18.7041    1.0000 </r>
       <r>  -18.6997    1.0000 </r>
       <r>  -18.6979    1.0000 </r>
       <r>  -18.6930    1.0000 </r>
       <r>  -18.6900    1.0000 </r>
       <r>  -18.6860    1.0000 </r>
       <r>  -18.6841    1.0000 </r>
       <r>  -18.6801    1.0000 </r>
       <r>  -18.6778    1.0000 </r>
       <r>  -18.6739    1.0000 </r>
       <r>  -18.6700    1.0000 </r>
       <r>  -18.6669    1.0000 </r>
       <r>  -18.6619    1.0000 </r>
       <r>  -18.6510    1.0000 </r>
       <r>  -18.6412    1.0000 </r>
       <r>  -18.6239    1.0000 </r>
       <r>  -18.6128    1.0000 </r>
       <r>  -18.6050    1.0000 </r>
       <r>  -18.6043    1.0000 </r>
       <r>  -18.6013    1.0000 </r>
       <r>  -18.6006    1.0000 </r>
       <r>  -18.5930    1.0000 </r>
       <r>  -18.5755    1.0000 </r>
       <r>  -18.5750    1.0000 </r>
       <r>  -18.5685    1.0000 </r>
       <r>  -18.5556    1.0000 </r>
       <r>  -18.5547    1.0000 </r>
       <r>  -18.5451    1.0000 </r>
       <r>  -18.5399    1.0000 </r>
       <r>  -18.5388    1.0000 </r>
       <r>  -18.5373    1.0000 </r>
       <r>  -18.5359    1.0000 </r>
       <r>  -18.5256    1.0000 </r>
       <r>  -18.5174    1.0000 </r>
       <r>  -18.5087    1.0000 </r>
       <r>  -18.5065    1.0000 </r>
       <r>  -18.4897    1.0000 </r>
       <r>  -18.4643    1.0000 </r>
       <r>  -18.4528    1.0000 </r>
       <r>  -18.4496    1.0000 </r>
       <r>  -18.4450    1.0000 </r>
       <r>  -18.4376    1.0000 </r>
       <r>  -18.4313    1.0000 </r>
       <r>  -18.4211    1.0000 </r>
       <r>  -18.4191    1.0000 </r>
       <r>  -18.3739    1.0000 </r>
       <r>  -18.3621    1.0000 </r>
       <r>  -18.3599    1.0000 </r>
       <r>  -18.3417    1.0000 </r>
       <r>  -18.2807    1.0000 </r>
       <r>  -18.2497    1.0000 </r>
       <r>  -18.2352    1.0000 </r>
       <r>  -18.2215    1.0000 </r>
       <r>  -18.2064    1.0000 </r>
       <r>  -18.1720    1.0000 </r>
       <r>  -18.1455    1.0000 </r>
       <r>  -13.7126    1.0000 </r>
       <r>  -13.5651    1.0000 </r>
       <r>  -13.5447    1.0000 </r>
       <r>  -12.9423    1.0000 </r>
       <r>  -12.8627    1.0000 </r>
       <r>  -12.8164    1.0000 </r>
       <r>  -12.7927    1.0000 </r>
       <r>  -12.7588    1.0000 </r>
       <r>  -12.7565    1.0000 </r>
       <r>  -12.7233    1.0000 </r>
       <r>  -12.6884    1.0000 </r>
       <r>  -12.6439    1.0000 </r>
       <r>  -12.6068    1.0000 </r>
       <r>  -12.0560    1.0000 </r>
       <r>  -11.9922    1.0000 </r>
       <r>  -11.9066    1.0000 </r>
       <r>   -9.3927    1.0000 </r>
       <r>   -9.0983    1.0000 </r>
       <r>   -8.5788    1.0000 </r>
       <r>   -8.5780    1.0000 </r>
       <r>   -8.5200    1.0000 </r>
       <r>   -8.5129    1.0000 </r>
       <r>   -8.3561    1.0000 </r>
       <r>   -8.3546    1.0000 </r>
       <r>   -8.3009    1.0000 </r>
       <r>   -8.2886    1.0000 </r>
       <r>   -8.0777    1.0000 </r>
       <r>   -8.0562    1.0000 </r>
       <r>   -8.0399    1.0000 </r>
       <r>   -8.0079    1.0000 </r>
       <r>   -7.4050    1.0000 </r>
       <r>   -7.3997    1.0000 </r>
       <r>   -6.4370    1.0000 </r>
       <r>   -6.4342    1.0000 </r>
       <r>   -6.3921    1.0000 </r>
       <r>   -6.3917    1.0000 </r>
       <r>   -5.5925    1.0000 </r>
       <r>   -5.5862    1.0000 </r>
       <r>   -5.4225    1.0000 </r>
       <r>   -5.3941    1.0000 </r>
       <r>   -5.3212    1.0000 </r>
       <r>   -5.3203    1.0000 </r>
       <r>   -5.2397    1.0000 </r>
       <r>   -5.2009    1.0000 </r>
       <r>   -5.1257    1.0000 </r>
       <r>   -5.1007    1.0000 </r>
       <r>   -3.8492    1.0000 </r>
       <r>   -3.7001    1.0000 </r>
       <r>   -1.5911    1.0000 </r>
       <r>   -1.3344    1.0000 </r>
       <r>   -1.2058    1.0000 </r>
       <r>   -1.0176    1.0000 </r>
       <r>   -0.6296    1.0000 </r>
       <r>   -0.6112    1.0000 </r>
       <r>   -0.5773    1.0000 </r>
       <r>   -0.5465    1.0000 </r>
       <r>   -0.2387    1.0000 </r>
       <r>   -0.2355    1.0000 </r>
       <r>   -0.2245    1.0000 </r>
       <r>   -0.2092    1.0000 </r>
       <r>   -0.0869    1.0000 </r>
       <r>   -0.0328    1.0000 </r>
       <r>    0.1192    1.0000 </r>
       <r>    0.2762    1.0000 </r>
       <r>    0.3493    1.0000 </r>
       <r>    0.4358    1.0000 </r>
       <r>    0.4806    1.0000 </r>
       <r>    0.4985    1.0000 </r>
       <r>    0.5671    1.0000 </r>
       <r>    0.6342    1.0000 </r>
       <r>    0.6826    1.0000 </r>
       <r>    0.7097    1.0000 </r>
       <r>    0.7221    1.0000 </r>
       <r>    0.7456    1.0000 </r>
       <r>    0.7969    1.0000 </r>
       <r>    0.8192    1.0000 </r>
       <r>    0.9012    1.0000 </r>
       <r>    0.9312    1.0000 </r>
       <r>    0.9424    1.0000 </r>
       <r>    0.9845    1.0000 </r>
       <r>    1.0213    1.0000 </r>
       <r>    1.0653    1.0000 </r>
       <r>    1.1100    1.0000 </r>
       <r>    1.1242    1.0000 </r>
       <r>    1.2544    1.0000 </r>
       <r>    1.2660    1.0000 </r>
       <r>    1.2972    1.0000 </r>
       <r>    1.3194    1.0000 </r>
       <r>    1.4054    1.0000 </r>
       <r>    1.4768    1.0000 </r>
       <r>    1.5208    1.0000 </r>
       <r>    1.6040    1.0000 </r>
       <r>    1.6288    1.0000 </r>
       <r>    1.6595    1.0000 </r>
       <r>    1.7220    1.0000 </r>
       <r>    1.7730    1.0000 </r>
       <r>    1.7920    1.0000 </r>
       <r>    1.8242    1.0000 </r>
       <r>    1.8605    1.0000 </r>
       <r>    1.9767    1.0000 </r>
       <r>    2.0657    1.0000 </r>
       <r>    2.1248    1.0000 </r>
       <r>    2.1587    1.0000 </r>
       <r>    2.2379    1.0000 </r>
       <r>    2.2829    1.0000 </r>
       <r>    2.2951    1.0000 </r>
       <r>    2.4471    1.0000 </r>
       <r>    2.5028    1.0000 </r>
       <r>    2.5119    1.0000 </r>
       <r>    2.5137    1.0000 </r>
       <r>    2.5389    1.0000 </r>
       <r>    2.5412    1.0000 </r>
       <r>    2.5824    1.0000 </r>
       <r>    2.6045    1.0000 </r>
       <r>    2.6529    1.0000 </r>
       <r>    2.6970    1.0000 </r>
       <r>    2.7487    1.0000 </r>
       <r>    2.7957    1.0000 </r>
       <r>    2.8109    1.0000 </r>
       <r>    2.8485    1.0000 </r>
       <r>    2.8808    1.0000 </r>
       <r>    2.9122    1.0000 </r>
       <r>    2.9402    1.0000 </r>
       <r>    2.9807    1.0000 </r>
       <r>    3.0056    1.0000 </r>
       <r>    3.0156    1.0000 </r>
       <r>    3.0667    1.0000 </r>
       <r>    3.0876    1.0000 </r>
       <r>    3.1000    1.0000 </r>
       <r>    3.1090    1.0000 </r>
       <r>    3.1637    1.0000 </r>
       <r>    3.1696    1.0000 </r>
       <r>    3.1830    1.0000 </r>
       <r>    3.2929    1.0000 </r>
       <r>    3.3216    1.0000 </r>
       <r>    3.3442    1.0000 </r>
       <r>    3.3829    1.0000 </r>
       <r>    3.4942    1.0000 </r>
       <r>    3.6554    1.0000 </r>
       <r>    3.8002    1.0000 </r>
       <r>    4.1212    1.0000 </r>
       <r>    4.1414    1.0000 </r>
       <r>    4.2018    1.0000 </r>
       <r>    4.2067    1.0000 </r>
       <r>    4.9295    0.0000 </r>
       <r>    4.9406    0.0000 </r>
       <r>    5.1570    0.0000 </r>
       <r>    5.1683    0.0000 </r>
       <r>    5.6584    0.0000 </r>
       <r>    5.6629    0.0000 </r>
       <r>    5.7871    0.0000 </r>
       <r>    5.8078    0.0000 </r>
       <r>    6.0753    0.0000 </r>
       <r>    6.0879    0.0000 </r>
       <r>    6.1023    0.0000 </r>
       <r>    6.1108    0.0000 </r>
       <r>    6.1997    0.0000 </r>
       <r>    6.2081    0.0000 </r>
       <r>    6.2239    0.0000 </r>
       <r>    6.2322    0.0000 </r>
       <r>    6.9369    0.0000 </r>
       <r>    6.9794    0.0000 </r>
       <r>    7.2559    0.0000 </r>
       <r>    7.2889    0.0000 </r>
       <r>    7.7089    0.0000 </r>
       <r>    7.7765    0.0000 </r>
       <r>    7.8260    0.0000 </r>
       <r>    7.8907    0.0000 </r>
       <r>    7.8976    0.0000 </r>
       <r>    7.9462    0.0000 </r>
       <r>    7.9934    0.0000 </r>
       <r>    8.0914    0.0000 </r>
       <r>    8.2179    0.0000 </r>
       <r>    8.5950    0.0000 </r>
       <r>    8.6235    0.0000 </r>
       <r>    8.7149    0.0000 </r>
       <r>    8.7724    0.0000 </r>
       <r>    8.7757    0.0000 </r>
       <r>    8.8668    0.0000 </r>
       <r>    8.9068    0.0000 </r>
       <r>    8.9623    0.0000 </r>
       <r>    8.9807    0.0000 </r>
       <r>    9.0237    0.0000 </r>
       <r>    9.0570    0.0000 </r>
       <r>    9.1063    0.0000 </r>
       <r>    9.1157    0.0000 </r>
       <r>    9.1552    0.0000 </r>
       <r>    9.2310    0.0000 </r>
       <r>    9.3475    0.0000 </r>
       <r>    9.3686    0.0000 </r>
       <r>    9.4668    0.0000 </r>
       <r>    9.4737    0.0000 </r>
       <r>    9.6616    0.0000 </r>
       <r>    9.7150    0.0000 </r>
       <r>    9.7928    0.0000 </r>
       <r>    9.8369    0.0000 </r>
      </set>
      <set comment="kpoint 2">
       <r>  -40.5823    1.0000 </r>
       <r>  -40.1195    1.0000 </r>
       <r>  -39.8031    1.0000 </r>
       <r>  -39.3580    1.0000 </r>
       <r>  -19.0562    1.0000 </r>
       <r>  -18.9870    1.0000 </r>
       <r>  -18.9814    1.0000 </r>
       <r>  -18.9733    1.0000 </r>
       <r>  -18.9706    1.0000 </r>
       <r>  -18.9154    1.0000 </r>
       <r>  -18.9087    1.0000 </r>
       <r>  -18.8957    1.0000 </r>
       <r>  -18.8872    1.0000 </r>
       <r>  -18.8840    1.0000 </r>
       <r>  -18.8643    1.0000 </r>
       <r>  -18.8112    1.0000 </r>
       <r>  -18.8010    1.0000 </r>
       <r>  -18.7981    1.0000 </r>
       <r>  -18.7780    1.0000 </r>
       <r>  -18.7575    1.0000 </r>
       <r>  -18.7467    1.0000 </r>
       <r>  -18.7458    1.0000 </r>
       <r>  -18.7387    1.0000 </r>
       <r>  -18.7375    1.0000 </r>
       <r>  -18.7200    1.0000 </r>
       <r>  -18.7180    1.0000 </r>
       <r>  -18.7100    1.0000 </r>
       <r>  -18.7056    1.0000 </r>
       <r>  -18.7048    1.0000 </r>
       <r>  -18.7007    1.0000 </r>
       <r>  -18.6985    1.0000 </r>
       <r>  -18.6961    1.0000 </r>
       <r>  -18.6931    1.0000 </r>
       <r>  -18.6879    1.0000 </r>
       <r>  -18.6845    1.0000 </r>
       <r>  -18.6798    1.0000 </r>
       <r>  -18.6751    1.0000 </r>
       <r>  -18.6715    1.0000 </r>
       <r>  -18.6679    1.0000 </r>
       <r>  -18.6663    1.0000 </r>
       <r>  -18.6604    1.0000 </r>
       <r>  -18.6531    1.0000 </r>
       <r>  -18.6422    1.0000 </r>
       <r>  -18.6240    1.0000 </r>
       <r>  -18.6128    1.0000 </r>
       <r>  -18.6049    1.0000 </r>
       <r>  -18.6042    1.0000 </r>
       <r>  -18.6013    1.0000 </r>
       <r>  -18.6006    1.0000 </r>
       <r>  -18.5931    1.0000 </r>
       <r>  -18.5755    1.0000 </r>
       <r>  -18.5749    1.0000 </r>
       <r>  -18.5685    1.0000 </r>
       <r>  -18.5556    1.0000 </r>
       <r>  -18.5547    1.0000 </r>
       <r>  -18.5453    1.0000 </r>
       <r>  -18.5396    1.0000 </r>
       <r>  -18.5388    1.0000 </r>
       <r>  -18.5375    1.0000 </r>
       <r>  -18.5359    1.0000 </r>
       <r>  -18.5255    1.0000 </r>
       <r>  -18.5174    1.0000 </r>
       <r>  -18.5087    1.0000 </r>
       <r>  -18.5065    1.0000 </r>
       <r>  -18.4897    1.0000 </r>
       <r>  -18.4643    1.0000 </r>
       <r>  -18.4528    1.0000 </r>
       <r>  -18.4497    1.0000 </r>
       <r>  -18.4450    1.0000 </r>
       <r>  -18.4375    1.0000 </r>
       <r>  -18.4312    1.0000 </r>
       <r>  -18.4211    1.0000 </r>
       <r>  -18.4191    1.0000 </r>
       <r>  -18.3739    1.0000 </r>
       <r>  -18.3621    1.0000 </r>
       <r>  -18.3600    1.0000 </r>
       <r>  -18.3417    1.0000 </r>
       <r>  -18.2807    1.0000 </r>
       <r>  -18.2497    1.0000 </r>
       <r>  -18.2352    1.0000 </r>
       <r>  -18.2215    1.0000 </r>
       <r>  -18.2064    1.0000 </r>
       <r>  -18.1720    1.0000 </r>
       <r>  -18.1455    1.0000 </r>
       <r>  -13.7120    1.0000 </r>
       <r>  -13.5657    1.0000 </r>
       <r>  -13.5446    1.0000 </r>
       <r>  -12.9341    1.0000 </r>
       <r>  -12.8792    1.0000 </r>
       <r>  -12.8112    1.0000 </r>
       <r>  -12.7905    1.0000 </r>
       <r>  -12.7622    1.0000 </r>
       <r>  -12.7530    1.0000 </r>
       <r>  -12.7225    1.0000 </r>
       <r>  -12.6876    1.0000 </r>
       <r>  -12.6439    1.0000 </r>
       <r>  -12.6077    1.0000 </r>
       <r>  -12.0558    1.0000 </r>
       <r>  -11.9924    1.0000 </r>
       <r>  -11.9064    1.0000 </r>
       <r>   -9.2470    1.0000 </r>
       <r>   -9.0908    1.0000 </r>
       <r>   -8.9728    1.0000 </r>
       <r>   -8.8136    1.0000 </r>
       <r>   -8.4497    1.0000 </r>
       <r>   -8.4365    1.0000 </r>
       <r>   -8.3104    1.0000 </r>
       <r>   -8.3055    1.0000 </r>
       <r>   -8.2463    1.0000 </r>
       <r>   -8.2399    1.0000 </r>
       <r>   -8.1106    1.0000 </r>
       <r>   -8.1033    1.0000 </r>
       <r>   -7.7948    1.0000 </r>
       <r>   -7.6871    1.0000 </r>
       <r>   -7.6764    1.0000 </r>
       <r>   -7.5681    1.0000 </r>
       <r>   -6.0978    1.0000 </r>
       <r>   -6.0708    1.0000 </r>
       <r>   -5.9870    1.0000 </r>
       <r>   -5.8894    1.0000 </r>
       <r>   -5.8766    1.0000 </r>
       <r>   -5.8474    1.0000 </r>
       <r>   -5.7655    1.0000 </r>
       <r>   -5.7206    1.0000 </r>
       <r>   -5.6933    1.0000 </r>
       <r>   -5.6530    1.0000 </r>
       <r>   -5.5226    1.0000 </r>
       <r>   -5.4676    1.0000 </r>
       <r>   -4.5461    1.0000 </r>
       <r>   -4.3922    1.0000 </r>
       <r>   -4.3823    1.0000 </r>
       <r>   -4.2169    1.0000 </r>
       <r>   -1.3500    1.0000 </r>
       <r>   -1.1172    1.0000 </r>
       <r>   -0.9584    1.0000 </r>
       <r>   -0.7805    1.0000 </r>
       <r>   -0.5803    1.0000 </r>
       <r>   -0.3887    1.0000 </r>
       <r>   -0.2440    1.0000 </r>
       <r>   -0.1769    1.0000 </r>
       <r>   -0.0441    1.0000 </r>
       <r>   -0.0118    1.0000 </r>
       <r>    0.0212    1.0000 </r>
       <r>    0.1017    1.0000 </r>
       <r>    0.1153    1.0000 </r>
       <r>    0.2110    1.0000 </r>
       <r>    0.2716    1.0000 </r>
       <r>    0.2828    1.0000 </r>
       <r>    0.3465    1.0000 </r>
       <r>    0.4409    1.0000 </r>
       <r>    0.4572    1.0000 </r>
       <r>    0.5026    1.0000 </r>
       <r>    0.5559    1.0000 </r>
       <r>    0.5628    1.0000 </r>
       <r>    0.6042    1.0000 </r>
       <r>    0.6429    1.0000 </r>
       <r>    0.6680    1.0000 </r>
       <r>    0.7434    1.0000 </r>
       <r>    0.7861    1.0000 </r>
       <r>    0.8060    1.0000 </r>
       <r>    0.8381    1.0000 </r>
       <r>    0.8774    1.0000 </r>
       <r>    0.9539    1.0000 </r>
       <r>    1.0101    1.0000 </r>
       <r>    1.0677    1.0000 </r>
       <r>    1.1178    1.0000 </r>
       <r>    1.1485    1.0000 </r>
       <r>    1.2019    1.0000 </r>
       <r>    1.2360    1.0000 </r>
       <r>    1.2564    1.0000 </r>
       <r>    1.2849    1.0000 </r>
       <r>    1.3270    1.0000 </r>
       <r>    1.3681    1.0000 </r>
       <r>    1.4171    1.0000 </r>
       <r>    1.4428    1.0000 </r>
       <r>    1.4799    1.0000 </r>
       <r>    1.5214    1.0000 </r>
       <r>    1.5722    1.0000 </r>
       <r>    1.6389    1.0000 </r>
       <r>    1.6519    1.0000 </r>
       <r>    1.7405    1.0000 </r>
       <r>    1.7484    1.0000 </r>
       <r>    1.8161    1.0000 </r>
       <r>    1.8370    1.0000 </r>
       <r>    1.9244    1.0000 </r>
       <r>    1.9814    1.0000 </r>
       <r>    2.0204    1.0000 </r>
       <r>    2.0342    1.0000 </r>
       <r>    2.0806    1.0000 </r>
       <r>    2.1100    1.0000 </r>
       <r>    2.2009    1.0000 </r>
       <r>    2.2310    1.0000 </r>
       <r>    2.2934    1.0000 </r>
       <r>    2.3173    1.0000 </r>
       <r>    2.3779    1.0000 </r>
       <r>    2.4114    1.0000 </r>
       <r>    2.4736    1.0000 </r>
       <r>    2.5025    1.0000 </r>
       <r>    2.5367    1.0000 </r>
       <r>    2.5645    1.0000 </r>
       <r>    2.6118    1.0000 </r>
       <r>    2.6540    1.0000 </r>
       <r>    2.6957    1.0000 </r>
       <r>    2.7127    1.0000 </r>
       <r>    2.7524    1.0000 </r>
       <r>    2.7881    1.0000 </r>
       <r>    2.8043    1.0000 </r>
       <r>    2.8497    1.0000 </r>
       <r>    2.9020    1.0000 </r>
       <r>    2.9318    1.0000 </r>
       <r>    2.9764    1.0000 </r>
       <r>    2.9899    1.0000 </r>
       <r>    3.0282    1.0000 </r>
       <r>    3.0698    1.0000 </r>
       <r>    3.1265    1.0000 </r>
       <r>    3.1583    1.0000 </r>
       <r>    3.2391    1.0000 </r>
       <r>    3.2890    1.0000 </r>
       <r>    3.3633    1.0000 </r>
       <r>    3.3662    1.0000 </r>
       <r>    3.3969    1.0000 </r>
       <r>    3.4632    1.0000 </r>
       <r>    3.5017    1.0000 </r>
       <r>    3.5393    1.0000 </r>
       <r>    3.6005    1.0000 </r>
       <r>    3.7226    1.0000 </r>
       <r>    3.7676    1.0000 </r>
       <r>    3.9126    1.0000 </r>
       <r>    5.5066    0.0000 </r>
       <r>    5.5122    0.0000 </r>
       <r>    5.6593    0.0000 </r>
       <r>    5.6696    0.0000 </r>
       <r>    5.7017    0.0000 </r>
       <r>    5.7081    0.0000 </r>
       <r>    5.8526    0.0000 </r>
       <r>    5.8678    0.0000 </r>
       <r>    7.0659    0.0000 </r>
       <r>    7.0886    0.0000 </r>
       <r>    7.1811    0.0000 </r>
       <r>    7.2385    0.0000 </r>
       <r>    7.2997    0.0000 </r>
       <r>    7.3385    0.0000 </r>
       <r>    7.3714    0.0000 </r>
       <r>    7.4066    0.0000 </r>
       <r>    7.4226    0.0000 </r>
       <r>    7.4587    0.0000 </r>
       <r>    7.5384    0.0000 </r>
       <r>    7.5796    0.0000 </r>
       <r>    7.7531    0.0000 </r>
       <r>    7.7641    0.0000 </r>
       <r>    7.7886    0.0000 </r>
       <r>    7.8271    0.0000 </r>
       <r>    7.8535    0.0000 </r>
       <r>    7.8685    0.0000 </r>
       <r>    7.8885    0.0000 </r>
       <r>    7.9131    0.0000 </r>
       <r>    7.9364    0.0000 </r>
       <r>    7.9575    0.0000 </r>
       <r>    7.9836    0.0000 </r>
       <r>    8.0231    0.0000 </r>
       <r>    8.0749    0.0000 </r>
       <r>    8.2136    0.0000 </r>
       <r>    8.4016    0.0000 </r>
       <r>    8.4524    0.0000 </r>
       <r>    8.6459    0.0000 </r>
       <r>    8.6749    0.0000 </r>
       <r>    8.7013    0.0000 </r>
       <r>    8.7221    0.0000 </r>
       <r>    8.7262    0.0000 </r>
       <r>    8.8147    0.0000 </r>
       <r>    8.8858    0.0000 </r>
       <r>    8.8997    0.0000 </r>
       <r>    9.0649    0.0000 </r>
       <r>    9.1998    0.0000 </r>
       <r>    9.2725    0.0000 </r>
       <r>    9.3213    0.0000 </r>
       <r>    9.5353    0.0000 </r>
       <r>    9.5779    0.0000 </r>
       <r>    9.9399    0.0000 </r>
       <r>   10.0481    0.0000 </r>
      </set>
      <set comment="kpoint 3">
       <r>  -40.5823    1.0000 </r>
       <r>  -40.1195    1.0000 </r>
       <r>  -39.8031    1.0000 </r>
       <r>  -39.3580    1.0000 </r>
       <r>  -19.0563    1.0000 </r>
       <r>  -18.9870    1.0000 </r>
       <r>  -18.9814    1.0000 </r>
       <r>  -18.9733    1.0000 </r>
       <r>  -18.9706    1.0000 </r>
       <r>  -18.9156    1.0000 </r>
       <r>  -18.9088    1.0000 </r>
       <r>  -18.8956    1.0000 </r>
       <r>  -18.8871    1.0000 </r>
       <r>  -18.8840    1.0000 </r>
       <r>  -18.8643    1.0000 </r>
       <r>  -18.8112    1.0000 </r>
       <r>  -18.8010    1.0000 </r>
       <r>  -18.7981    1.0000 </r>
       <r>  -18.7780    1.0000 </r>
       <r>  -18.7574    1.0000 </r>
       <r>  -18.7468    1.0000 </r>
       <r>  -18.7458    1.0000 </r>
       <r>  -18.7388    1.0000 </r>
       <r>  -18.7375    1.0000 </r>
       <r>  -18.7202    1.0000 </r>
       <r>  -18.7194    1.0000 </r>
       <r>  -18.7124    1.0000 </r>
       <r>  -18.7059    1.0000 </r>
       <r>  -18.7041    1.0000 </r>
       <r>  -18.6997    1.0000 </r>
       <r>  -18.6979    1.0000 </r>
       <r>  -18.6930    1.0000 </r>
       <r>  -18.6900    1.0000 </r>
       <r>  -18.6860    1.0000 </r>
       <r>  -18.6841    1.0000 </r>
       <r>  -18.6801    1.0000 </r>
       <r>  -18.6778    1.0000 </r>
       <r>  -18.6739    1.0000 </r>
       <r>  -18.6700    1.0000 </r>
       <r>  -18.6669    1.0000 </r>
       <r>  -18.6619    1.0000 </r>
       <r>  -18.6510    1.0000 </r>
       <r>  -18.6412    1.0000 </r>
       <r>  -18.6239    1.0000 </r>
       <r>  -18.6128    1.0000 </r>
       <r>  -18.6049    1.0000 </r>
       <r>  -18.6043    1.0000 </r>
       <r>  -18.6013    1.0000 </r>
       <r>  -18.6006    1.0000 </r>
       <r>  -18.5930    1.0000 </r>
       <r>  -18.5755    1.0000 </r>
       <r>  -18.5749    1.0000 </r>
       <r>  -18.5685    1.0000 </r>
       <r>  -18.5556    1.0000 </r>
       <r>  -18.5547    1.0000 </r>
       <r>  -18.5451    1.0000 </r>
       <r>  -18.5399    1.0000 </r>
       <r>  -18.5388    1.0000 </r>
       <r>  -18.5373    1.0000 </r>
       <r>  -18.5359    1.0000 </r>
       <r>  -18.5255    1.0000 </r>
       <r>  -18.5174    1.0000 </r>
       <r>  -18.5087    1.0000 </r>
       <r>  -18.5065    1.0000 </r>
       <r>  -18.4897    1.0000 </r>
       <r>  -18.4643    1.0000 </r>
       <r>  -18.4528    1.0000 </r>
       <r>  -18.4496    1.0000 </r>
       <r>  -18.4450    1.0000 </r>
       <r>  -18.4376    1.0000 </r>
       <r>  -18.4312    1.0000 </r>
       <r>  -18.4211    1.0000 </r>
       <r>  -18.4191    1.0000 </r>
       <r>  -18.3739    1.0000 </r>
       <r>  -18.3621    1.0000 </r>
       <r>  -18.3599    1.0000 </r>
       <r>  -18.3417    1.0000 </r>
       <r>  -18.2807    1.0000 </r>
       <r>  -18.2497    1.0000 </r>
       <r>  -18.2352    1.0000 </r>
       <r>  -18.2215    1.0000 </r>
       <r>  -18.2064    1.0000 </r>
       <r>  -18.1720    1.0000 </r>
       <r>  -18.1455    1.0000 </r>
       <r>  -13.7124    1.0000 </r>
       <r>  -13.5651    1.0000 </r>
       <r>  -13.5449    1.0000 </r>
       <r>  -12.9408    1.0000 </r>
       <r>  -12.8623    1.0000 </r>
       <r>  -12.8167    1.0000 </r>
       <r>  -12.7926    1.0000 </r>
       <r>  -12.7591    1.0000 </r>
       <r>  -12.7566    1.0000 </r>
       <r>  -12.7235    1.0000 </r>
       <r>  -12.6885    1.0000 </r>
       <r>  -12.6451    1.0000 </r>
       <r>  -12.6074    1.0000 </r>
       <r>  -12.0556    1.0000 </r>
       <r>  -11.9923    1.0000 </r>
       <r>  -11.9080    1.0000 </r>
       <r>   -9.3820    1.0000 </r>
       <r>   -9.1059    1.0000 </r>
       <r>   -8.5966    1.0000 </r>
       <r>   -8.5954    1.0000 </r>
       <r>   -8.5363    1.0000 </r>
       <r>   -8.5298    1.0000 </r>
       <r>   -8.3365    1.0000 </r>
       <r>   -8.3355    1.0000 </r>
       <r>   -8.2835    1.0000 </r>
       <r>   -8.2696    1.0000 </r>
       <r>   -8.0817    1.0000 </r>
       <r>   -8.0594    1.0000 </r>
       <r>   -8.0428    1.0000 </r>
       <r>   -8.0104    1.0000 </r>
       <r>   -7.4077    1.0000 </r>
       <r>   -7.4025    1.0000 </r>
       <r>   -6.4287    1.0000 </r>
       <r>   -6.4225    1.0000 </r>
       <r>   -6.3830    1.0000 </r>
       <r>   -6.3821    1.0000 </r>
       <r>   -5.5969    1.0000 </r>
       <r>   -5.5917    1.0000 </r>
       <r>   -5.4586    1.0000 </r>
       <r>   -5.4365    1.0000 </r>
       <r>   -5.3455    1.0000 </r>
       <r>   -5.3421    1.0000 </r>
       <r>   -5.1823    1.0000 </r>
       <r>   -5.1616    1.0000 </r>
       <r>   -5.0744    1.0000 </r>
       <r>   -5.0581    1.0000 </r>
       <r>   -3.9255    1.0000 </r>
       <r>   -3.6118    1.0000 </r>
       <r>   -1.4559    1.0000 </r>
       <r>   -1.3860    1.0000 </r>
       <r>   -1.2898    1.0000 </r>
       <r>   -1.0774    1.0000 </r>
       <r>   -0.5290    1.0000 </r>
       <r>   -0.5087    1.0000 </r>
       <r>   -0.4666    1.0000 </r>
       <r>   -0.4547    1.0000 </r>
       <r>   -0.4417    1.0000 </r>
       <r>   -0.4267    1.0000 </r>
       <r>   -0.3845    1.0000 </r>
       <r>   -0.3394    1.0000 </r>
       <r>   -0.2438    1.0000 </r>
       <r>   -0.1471    1.0000 </r>
       <r>   -0.0911    1.0000 </r>
       <r>    0.1483    1.0000 </r>
       <r>    0.2118    1.0000 </r>
       <r>    0.2458    1.0000 </r>
       <r>    0.3073    1.0000 </r>
       <r>    0.4145    1.0000 </r>
       <r>    0.4643    1.0000 </r>
       <r>    0.5039    1.0000 </r>
       <r>    0.5606    1.0000 </r>
       <r>    0.6629    1.0000 </r>
       <r>    0.6823    1.0000 </r>
       <r>    0.7210    1.0000 </r>
       <r>    0.7702    1.0000 </r>
       <r>    0.8033    1.0000 </r>
       <r>    0.8421    1.0000 </r>
       <r>    0.9070    1.0000 </r>
       <r>    0.9654    1.0000 </r>
       <r>    1.0351    1.0000 </r>
       <r>    1.1586    1.0000 </r>
       <r>    1.2040    1.0000 </r>
       <r>    1.2307    1.0000 </r>
       <r>    1.2666    1.0000 </r>
       <r>    1.3232    1.0000 </r>
       <r>    1.3537    1.0000 </r>
       <r>    1.3649    1.0000 </r>
       <r>    1.4339    1.0000 </r>
       <r>    1.5171    1.0000 </r>
       <r>    1.5723    1.0000 </r>
       <r>    1.6089    1.0000 </r>
       <r>    1.6536    1.0000 </r>
       <r>    1.6855    1.0000 </r>
       <r>    1.8191    1.0000 </r>
       <r>    1.8240    1.0000 </r>
       <r>    1.8773    1.0000 </r>
       <r>    1.9320    1.0000 </r>
       <r>    2.0309    1.0000 </r>
       <r>    2.0683    1.0000 </r>
       <r>    2.0778    1.0000 </r>
       <r>    2.1805    1.0000 </r>
       <r>    2.2212    1.0000 </r>
       <r>    2.2551    1.0000 </r>
       <r>    2.3156    1.0000 </r>
       <r>    2.3648    1.0000 </r>
       <r>    2.4249    1.0000 </r>
       <r>    2.4512    1.0000 </r>
       <r>    2.4785    1.0000 </r>
       <r>    2.4836    1.0000 </r>
       <r>    2.5081    1.0000 </r>
       <r>    2.5160    1.0000 </r>
       <r>    2.5388    1.0000 </r>
       <r>    2.5539    1.0000 </r>
       <r>    2.5635    1.0000 </r>
       <r>    2.6243    1.0000 </r>
       <r>    2.7018    1.0000 </r>
       <r>    2.7067    1.0000 </r>
       <r>    2.7675    1.0000 </r>
       <r>    2.8510    1.0000 </r>
       <r>    2.8567    1.0000 </r>
       <r>    2.8619    1.0000 </r>
       <r>    2.8830    1.0000 </r>
       <r>    2.9044    1.0000 </r>
       <r>    2.9130    1.0000 </r>
       <r>    2.9680    1.0000 </r>
       <r>    2.9894    1.0000 </r>
       <r>    2.9907    1.0000 </r>
       <r>    3.0252    1.0000 </r>
       <r>    3.1501    1.0000 </r>
       <r>    3.1916    1.0000 </r>
       <r>    3.2793    1.0000 </r>
       <r>    3.3036    1.0000 </r>
       <r>    3.3162    1.0000 </r>
       <r>    3.3396    1.0000 </r>
       <r>    3.3678    1.0000 </r>
       <r>    3.4220    1.0000 </r>
       <r>    3.4507    1.0000 </r>
       <r>    3.5273    1.0000 </r>
       <r>    3.6373    1.0000 </r>
       <r>    3.7415    1.0000 </r>
       <r>    4.1714    1.0000 </r>
       <r>    4.1915    1.0000 </r>
       <r>    4.2516    1.0000 </r>
       <r>    4.2583    1.0000 </r>
       <r>    5.0122    0.0000 </r>
       <r>    5.0231    0.0000 </r>
       <r>    5.2175    0.0000 </r>
       <r>    5.2297    0.0000 </r>
       <r>    5.6665    0.0000 </r>
       <r>    5.6712    0.0000 </r>
       <r>    5.7957    0.0000 </r>
       <r>    5.8172    0.0000 </r>
       <r>    6.1229    0.0000 </r>
       <r>    6.1337    0.0000 </r>
       <r>    6.1440    0.0000 </r>
       <r>    6.1493    0.0000 </r>
       <r>    6.2201    0.0000 </r>
       <r>    6.2262    0.0000 </r>
       <r>    6.2442    0.0000 </r>
       <r>    6.2539    0.0000 </r>
       <r>    6.6240    0.0000 </r>
       <r>    6.6746    0.0000 </r>
       <r>    6.9145    0.0000 </r>
       <r>    7.0131    0.0000 </r>
       <r>    7.1450    0.0000 </r>
       <r>    7.1749    0.0000 </r>
       <r>    7.2995    0.0000 </r>
       <r>    7.4309    0.0000 </r>
       <r>    7.6728    0.0000 </r>
       <r>    7.8194    0.0000 </r>
       <r>    7.8272    0.0000 </r>
       <r>    7.9408    0.0000 </r>
       <r>    7.9621    0.0000 </r>
       <r>    8.3346    0.0000 </r>
       <r>    8.3536    0.0000 </r>
       <r>    8.3645    0.0000 </r>
       <r>    8.5549    0.0000 </r>
       <r>    8.7513    0.0000 </r>
       <r>    8.8637    0.0000 </r>
       <r>    8.9053    0.0000 </r>
       <r>    8.9474    0.0000 </r>
       <r>    8.9802    0.0000 </r>
       <r>    9.0132    0.0000 </r>
       <r>    9.0436    0.0000 </r>
       <r>    9.0696    0.0000 </r>
       <r>    9.0971    0.0000 </r>
       <r>    9.1187    0.0000 </r>
       <r>    9.1614    0.0000 </r>
       <r>    9.4222    0.0000 </r>
       <r>    9.4422    0.0000 </r>
       <r>    9.5381    0.0000 </r>
       <r>    9.6865    0.0000 </r>
       <r>    9.6977    0.0000 </r>
       <r>    9.7122    0.0000 </r>
       <r>    9.9259    0.0000 </r>
       <r>    9.9963    0.0000 </r>
      </set>
      <set comment="kpoint 4">
       <r>  -40.5823    1.0000 </r>
       <r>  -40.1195    1.0000 </r>
       <r>  -39.8031    1.0000 </r>
       <r>  -39.3580    1.0000 </r>
       <r>  -19.0562    1.0000 </r>
       <r>  -18.9870    1.0000 </r>
       <r>  -18.9814    1.0000 </r>
       <r>  -18.9733    1.0000 </r>
       <r>  -18.9706    1.0000 </r>
       <r>  -18.9154    1.0000 </r>
       <r>  -18.9087    1.0000 </r>
       <r>  -18.8957    1.0000 </r>
       <r>  -18.8872    1.0000 </r>
       <r>  -18.8840    1.0000 </r>
       <r>  -18.8643    1.0000 </r>
       <r>  -18.8112    1.0000 </r>
       <r>  -18.8010    1.0000 </r>
       <r>  -18.7981    1.0000 </r>
       <r>  -18.7780    1.0000 </r>
       <r>  -18.7574    1.0000 </r>
       <r>  -18.7467    1.0000 </r>
       <r>  -18.7458    1.0000 </r>
       <r>  -18.7388    1.0000 </r>
       <r>  -18.7375    1.0000 </r>
       <r>  -18.7200    1.0000 </r>
       <r>  -18.7180    1.0000 </r>
       <r>  -18.7100    1.0000 </r>
       <r>  -18.7056    1.0000 </r>
       <r>  -18.7048    1.0000 </r>
       <r>  -18.7007    1.0000 </r>
       <r>  -18.6985    1.0000 </r>
       <r>  -18.6961    1.0000 </r>
       <r>  -18.6931    1.0000 </r>
       <r>  -18.6878    1.0000 </r>
       <r>  -18.6845    1.0000 </r>
       <r>  -18.6798    1.0000 </r>
       <r>  -18.6751    1.0000 </r>
       <r>  -18.6715    1.0000 </r>
       <r>  -18.6679    1.0000 </r>
       <r>  -18.6663    1.0000 </r>
       <r>  -18.6604    1.0000 </r>
       <r>  -18.6531    1.0000 </r>
       <r>  -18.6422    1.0000 </r>
       <r>  -18.6240    1.0000 </r>
       <r>  -18.6128    1.0000 </r>
       <r>  -18.6049    1.0000 </r>
       <r>  -18.6042    1.0000 </r>
       <r>  -18.6013    1.0000 </r>
       <r>  -18.6006    1.0000 </r>
       <r>  -18.5931    1.0000 </r>
       <r>  -18.5755    1.0000 </r>
       <r>  -18.5749    1.0000 </r>
       <r>  -18.5685    1.0000 </r>
       <r>  -18.5556    1.0000 </r>
       <r>  -18.5547    1.0000 </r>
       <r>  -18.5453    1.0000 </r>
       <r>  -18.5396    1.0000 </r>
       <r>  -18.5388    1.0000 </r>
       <r>  -18.5374    1.0000 </r>
       <r>  -18.5359    1.0000 </r>
       <r>  -18.5255    1.0000 </r>
       <r>  -18.5174    1.0000 </r>
       <r>  -18.5087    1.0000 </r>
       <r>  -18.5065    1.0000 </r>
       <r>  -18.4897    1.0000 </r>
       <r>  -18.4643    1.0000 </r>
       <r>  -18.4528    1.0000 </r>
       <r>  -18.4497    1.0000 </r>
       <r>  -18.4450    1.0000 </r>
       <r>  -18.4375    1.0000 </r>
       <r>  -18.4312    1.0000 </r>
       <r>  -18.4211    1.0000 </r>
       <r>  -18.4191    1.0000 </r>
       <r>  -18.3739    1.0000 </r>
       <r>  -18.3621    1.0000 </r>
       <r>  -18.3600    1.0000 </r>
       <r>  -18.3417    1.0000 </r>
       <r>  -18.2807    1.0000 </r>
       <r>  -18.2497    1.0000 </r>
       <r>  -18.2352    1.0000 </r>
       <r>  -18.2215    1.0000 </r>
       <r>  -18.2064    1.0000 </r>
       <r>  -18.1720    1.0000 </r>
       <r>  -18.1455    1.0000 </r>
       <r>  -13.7118    1.0000 </r>
       <r>  -13.5657    1.0000 </r>
       <r>  -13.5448    1.0000 </r>
       <r>  -12.9329    1.0000 </r>
       <r>  -12.8784    1.0000 </r>
       <r>  -12.8114    1.0000 </r>
       <r>  -12.7905    1.0000 </r>
       <r>  -12.7622    1.0000 </r>
       <r>  -12.7535    1.0000 </r>
       <r>  -12.7230    1.0000 </r>
       <r>  -12.6877    1.0000 </r>
       <r>  -12.6449    1.0000 </r>
       <r>  -12.6083    1.0000 </r>
       <r>  -12.0554    1.0000 </r>
[...]
       <r>    8.7710    0.0000 </r>
       <r>    8.7994    0.0000 </r>
       <r>    8.8378    0.0000 </r>
       <r>    8.8849    0.0000 </r>
       <r>    8.8993    0.0000 </r>
       <r>    8.9154    0.0000 </r>
       <r>    8.9358    0.0000 </r>
       <r>    9.4833    0.0000 </r>
       <r>    9.8164    0.0000 </r>
       <r>    9.9227    0.0000 </r>
       <r>   10.0020    0.0000 </r>
      </set>
     </set>
    </set>
   </array>
  </eigenvalues>
  <separator name="orbital magnetization" >
   <v name="MAGDIPOLOUT">      0.00000000      0.00000000      0.00000000</v>
  </separator>
  <dos>
   <i name="efermi">      4.32206743 </i>
   <total>
    <array>
     <dimension dim="1">gridpoints</dimension>
     <dimension dim="2">spin</dimension>
     <field>energy</field>
     <field>total</field>
     <field>integrated</field>
     <set>
      <set comment="spin 1">
       <r>   -43.1272     0.0000     0.0000 </r>
       <r>   -42.9405     0.0000     0.0000 </r>
       <r>   -42.7539     0.0000     0.0000 </r>
       <r>   -42.5673     0.0000     0.0000 </r>
       <r>   -42.3807     0.0000     0.0000 </r>
       <r>   -42.1940     0.0000     0.0000 </r>
       <r>   -42.0074     0.0000     0.0000 </r>
       <r>   -41.8208     0.0000     0.0000 </r>
       <r>   -41.6342     0.0000     0.0000 </r>
       <r>   -41.4475     0.0000     0.0000 </r>
       <r>   -41.2609     0.0000     0.0000 </r>
       <r>   -41.0743     0.0000     0.0000 </r>
       <r>   -40.8877     0.0000     0.0000 </r>
       <r>   -40.7010     0.0000     0.0000 </r>
       <r>   -40.5144     0.0000     2.0000 </r>
       <r>   -40.3278     0.0000     2.0000 </r>
       <r>   -40.1412     0.0000     2.0000 </r>
       <r>   -39.9545     0.0000     4.0000 </r>
       <r>   -39.7679     0.0000     6.0000 </r>
       <r>   -39.5813     0.0000     6.0000 </r>
       <r>   -39.3947     0.0000     6.0000 </r>
       <r>   -39.2080     0.0000     8.0000 </r>
       <r>   -39.0214     0.0000     8.0000 </r>
       <r>   -38.8348     0.0000     8.0000 </r>
       <r>   -38.6482     0.0000     8.0000 </r>
       <r>   -38.4615     0.0000     8.0000 </r>
       <r>   -38.2749     0.0000     8.0000 </r>
       <r>   -38.0883     0.0000     8.0000 </r>
       <r>   -37.9017     0.0000     8.0000 </r>
       <r>   -37.7150     0.0000     8.0000 </r>
       <r>   -37.5284     0.0000     8.0000 </r>
       <r>   -37.3418     0.0000     8.0000 </r>
       <r>   -37.1552     0.0000     8.0000 </r>
       <r>   -36.9686     0.0000     8.0000 </r>
       <r>   -36.7819     0.0000     8.0000 </r>
       <r>   -36.5953     0.0000     8.0000 </r>
       <r>   -36.4087     0.0000     8.0000 </r>
       <r>   -36.2221     0.0000     8.0000 </r>
       <r>   -36.0354     0.0000     8.0000 </r>
       <r>   -35.8488     0.0000     8.0000 </r>
       <r>   -35.6622     0.0000     8.0000 </r>
       <r>   -35.4756     0.0000     8.0000 </r>
       <r>   -35.2889     0.0000     8.0000 </r>
       <r>   -35.1023     0.0000     8.0000 </r>
       <r>   -34.9157     0.0000     8.0000 </r>
       <r>   -34.7291     0.0000     8.0000 </r>
       <r>   -34.5424     0.0000     8.0000 </r>
       <r>   -34.3558     0.0000     8.0000 </r>
       <r>   -34.1692     0.0000     8.0000 </r>
       <r>   -33.9826     0.0000     8.0000 </r>
       <r>   -33.7959     0.0000     8.0000 </r>
       <r>   -33.6093     0.0000     8.0000 </r>
       <r>   -33.4227     0.0000     8.0000 </r>
       <r>   -33.2361     0.0000     8.0000 </r>
       <r>   -33.0494     0.0000     8.0000 </r>
       <r>   -32.8628     0.0000     8.0000 </r>
       <r>   -32.6762     0.0000     8.0000 </r>
       <r>   -32.4896     0.0000     8.0000 </r>
       <r>   -32.3029     0.0000     8.0000 </r>
       <r>   -32.1163     0.0000     8.0000 </r>
       <r>   -31.9297     0.0000     8.0000 </r>
       <r>   -31.7431     0.0000     8.0000 </r>
       <r>   -31.5564     0.0000     8.0000 </r>
       <r>   -31.3698     0.0000     8.0000 </r>
       <r>   -31.1832     0.0000     8.0000 </r>
       <r>   -30.9966     0.0000     8.0000 </r>
       <r>   -30.8100     0.0000     8.0000 </r>
       <r>   -30.6233     0.0000     8.0000 </r>
       <r>   -30.4367     0.0000     8.0000 </r>
       <r>   -30.2501     0.0000     8.0000 </r>
       <r>   -30.0635     0.0000     8.0000 </r>
       <r>   -29.8768     0.0000     8.0000 </r>
       <r>   -29.6902     0.0000     8.0000 </r>
       <r>   -29.5036     0.0000     8.0000 </r>
       <r>   -29.3170     0.0000     8.0000 </r>
       <r>   -29.1303     0.0000     8.0000 </r>
       <r>   -28.9437     0.0000     8.0000 </r>
       <r>   -28.7571     0.0000     8.0000 </r>
       <r>   -28.5705     0.0000     8.0000 </r>
       <r>   -28.3838     0.0000     8.0000 </r>
       <r>   -28.1972     0.0000     8.0000 </r>
       <r>   -28.0106     0.0000     8.0000 </r>
       <r>   -27.8240     0.0000     8.0000 </r>
       <r>   -27.6373     0.0000     8.0000 </r>
       <r>   -27.4507     0.0000     8.0000 </r>
       <r>   -27.2641     0.0000     8.0000 </r>
       <r>   -27.0775     0.0000     8.0000 </r>
       <r>   -26.8908     0.0000     8.0000 </r>
       <r>   -26.7042     0.0000     8.0000 </r>
       <r>   -26.5176     0.0000     8.0000 </r>
       <r>   -26.3310     0.0000     8.0000 </r>
       <r>   -26.1443     0.0000     8.0000 </r>
       <r>   -25.9577     0.0000     8.0000 </r>
       <r>   -25.7711     0.0000     8.0000 </r>
       <r>   -25.5845     0.0000     8.0000 </r>
       <r>   -25.3978     0.0000     8.0000 </r>
       <r>   -25.2112     0.0000     8.0000 </r>
       <r>   -25.0246     0.0000     8.0000 </r>
       <r>   -24.8380     0.0000     8.0000 </r>
       <r>   -24.6514     0.0000     8.0000 </r>
       <r>   -24.4647     0.0000     8.0000 </r>
       <r>   -24.2781     0.0000     8.0000 </r>
       <r>   -24.0915     0.0000     8.0000 </r>
       <r>   -23.9049     0.0000     8.0000 </r>
       <r>   -23.7182     0.0000     8.0000 </r>
       <r>   -23.5316     0.0000     8.0000 </r>
       <r>   -23.3450     0.0000     8.0000 </r>
       <r>   -23.1584     0.0000     8.0000 </r>
       <r>   -22.9717     0.0000     8.0000 </r>
       <r>   -22.7851     0.0000     8.0000 </r>
       <r>   -22.5985     0.0000     8.0000 </r>
       <r>   -22.4119     0.0000     8.0000 </r>
       <r>   -22.2252     0.0000     8.0000 </r>
       <r>   -22.0386     0.0000     8.0000 </r>
       <r>   -21.8520     0.0000     8.0000 </r>
       <r>   -21.6654     0.0000     8.0000 </r>
       <r>   -21.4787     0.0000     8.0000 </r>
       <r>   -21.2921     0.0000     8.0000 </r>
       <r>   -21.1055     0.0000     8.0000 </r>
       <r>   -20.9189     0.0000     8.0000 </r>
       <r>   -20.7322     0.0000     8.0000 </r>
       <r>   -20.5456     0.0000     8.0000 </r>
       <r>   -20.3590     0.0000     8.0000 </r>
       <r>   -20.1724     0.0000     8.0000 </r>
       <r>   -19.9857     0.0000     8.0000 </r>
       <r>   -19.7991     0.0000     8.0000 </r>
       <r>   -19.6125     0.0000     8.0000 </r>
       <r>   -19.4259     0.0000     8.0000 </r>
       <r>   -19.2392     0.0000     8.0000 </r>
       <r>   -19.0526     0.0000    10.0000 </r>
       <r>   -18.8660     0.0000    28.0000 </r>
       <r>   -18.6794     0.0000    72.0000 </r>
       <r>   -18.4927     0.0000   128.0000 </r>
       <r>   -18.3061     0.0000   154.0000 </r>
       <r>   -18.1195     0.0000   168.0000 </r>
       <r>   -17.9329     0.0000   168.0000 </r>
       <r>   -17.7463     0.0000   168.0000 </r>
       <r>   -17.5596     0.0000   168.0000 </r>
       <r>   -17.3730     0.0000   168.0000 </r>
       <r>   -17.1864     0.0000   168.0000 </r>
       <r>   -16.9998     0.0000   168.0000 </r>
       <r>   -16.8131     0.0000   168.0000 </r>
       <r>   -16.6265     0.0000   168.0000 </r>
       <r>   -16.4399     0.0000   168.0000 </r>
       <r>   -16.2533     0.0000   168.0000 </r>
       <r>   -16.0666     0.0000   168.0000 </r>
       <r>   -15.8800     0.0000   168.0000 </r>
       <r>   -15.6934     0.0000   168.0000 </r>
       <r>   -15.5068     0.0000   168.0000 </r>
       <r>   -15.3201     0.0000   168.0000 </r>
       <r>   -15.1335     0.0000   168.0000 </r>
       <r>   -14.9469     0.0000   168.0000 </r>
       <r>   -14.7603     0.0000   168.0000 </r>
       <r>   -14.5736     0.0000   168.0000 </r>
       <r>   -14.3870     0.0000   168.0000 </r>
       <r>   -14.2004     0.0000   168.0000 </r>
       <r>   -14.0138     0.0000   168.0000 </r>
       <r>   -13.8271     0.0000   168.0000 </r>
       <r>   -13.6405     0.0000   170.0000 </r>
       <r>   -13.4539     0.0000   174.0000 </r>
       <r>   -13.2673     0.0000   174.0000 </r>
       <r>   -13.0806     0.0000   174.0000 </r>
       <r>   -12.8940     0.0000   176.0000 </r>
       <r>   -12.7074     0.0000   188.0000 </r>
       <r>   -12.5208     0.0000   194.0000 </r>
       <r>   -12.3341     0.0000   194.0000 </r>
       <r>   -12.1475     0.0000   194.0000 </r>
       <r>   -11.9609     0.0000   198.0000 </r>
       <r>   -11.7743     0.0000   200.0000 </r>
       <r>   -11.5877     0.0000   200.0000 </r>
       <r>   -11.4010     0.0000   200.0000 </r>
       <r>   -11.2144     0.0000   200.0000 </r>
       <r>   -11.0278     0.0000   200.0000 </r>
       <r>   -10.8412     0.0000   200.0000 </r>
       <r>   -10.6545     0.0000   200.0000 </r>
       <r>   -10.4679     0.0000   200.0000 </r>
       <r>   -10.2813     0.0000   200.0000 </r>
       <r>   -10.0947     0.0000   200.0000 </r>
       <r>    -9.9080     0.0000   200.0000 </r>
       <r>    -9.7214     0.0000   200.0000 </r>
       <r>    -9.5348     0.0000   200.0000 </r>
       <r>    -9.3482     4.0699   200.0802 </r>
       <r>    -9.1615     5.2489   201.8732 </r>
       <r>    -8.9749     2.8391   203.9742 </r>
       <r>    -8.7883    15.4917   206.4802 </r>
       <r>    -8.6017    14.8916   208.9254 </r>
       <r>    -8.4150    14.5392   213.3379 </r>
       <r>    -8.2284    23.5185   217.3144 </r>
       <r>    -8.0418    23.5761   221.2768 </r>
       <r>    -7.8552    19.3670   225.0628 </r>
       <r>    -7.6685    39.7472   228.2949 </r>
       <r>    -7.4819    10.5530   231.5822 </r>
       <r>    -7.2953     0.0000   232.0000 </r>
       <r>    -7.1087     0.0000   232.0000 </r>
       <r>    -6.9220     0.0000   232.0000 </r>
       <r>    -6.7354     0.0000   232.0000 </r>
       <r>    -6.5488     0.0000   232.0000 </r>
       <r>    -6.3622     6.3983   232.2003 </r>
       <r>    -6.1755    25.6420   235.3439 </r>
       <r>    -5.9889    32.4501   239.2216 </r>
       <r>    -5.8023    22.5772   242.7328 </r>
       <r>    -5.6157    22.2270   247.4788 </r>
       <r>    -5.4291    22.0673   251.0225 </r>
       <r>    -5.2424    13.7460   254.5984 </r>
       <r>    -5.0558     2.7135   256.0190 </r>
       <r>    -4.8692     7.7999   257.0670 </r>
       <r>    -4.6826     9.6130   258.6819 </r>
       <r>    -4.4959     8.0931   260.3664 </r>
       <r>    -4.3093     6.8584   261.7150 </r>
       <r>    -4.1227     5.6455   262.9361 </r>
       <r>    -3.9361     2.5102   263.6964 </r>
       <r>    -3.7494     0.6858   263.9656 </r>
       <r>    -3.5628     0.0000   264.0000 </r>
       <r>    -3.3762     0.0000   264.0000 </r>
       <r>    -3.1896     0.0000   264.0000 </r>
       <r>    -3.0029     0.0000   264.0000 </r>
       <r>    -2.8163     0.0000   264.0000 </r>
       <r>    -2.6297     0.0000   264.0000 </r>
       <r>    -2.4431     0.0000   264.0000 </r>
       <r>    -2.2564     0.0000   264.0000 </r>
       <r>    -2.0698     0.0000   264.0000 </r>
       <r>    -1.8832     0.0000   264.0000 </r>
       <r>    -1.6966     0.0000   264.0000 </r>
       <r>    -1.5099     0.6539   264.0177 </r>
       <r>    -1.3233     6.1903   264.5806 </r>
       <r>    -1.1367    11.7816   266.3258 </r>
       <r>    -0.9501    12.2722   268.5071 </r>
       <r>    -0.7634     7.8703   270.5627 </r>
       <r>    -0.5768    13.3974   271.8231 </r>
       <r>    -0.3902    20.5947   275.5638 </r>
       <r>    -0.2036    34.1214   280.2499 </r>
       <r>    -0.0169    34.8316   287.2560 </r>
       <r>     0.1697    27.3990   292.9234 </r>
       <r>     0.3563    32.9250   299.4269 </r>
       <r>     0.5429    39.9011   307.0905 </r>
       <r>     0.7296    36.0074   314.4479 </r>
       <r>     0.9162    38.0965   322.4661 </r>
       <r>     1.1028    44.0836   330.2891 </r>
       <r>     1.2894    38.3052   339.3624 </r>
       <r>     1.4760    44.4467   348.2691 </r>
       <r>     1.6627    40.9142   357.1300 </r>
       <r>     1.8493    28.9791   364.2318 </r>
       <r>     2.0359    41.7587   370.6954 </r>
       <r>     2.2225    48.3058   379.5384 </r>
       <r>     2.4092    57.0285   388.8632 </r>
       <r>     2.5958    49.1760   399.5491 </r>
       <r>     2.7824    65.3440   409.4870 </r>
       <r>     2.9690    64.2618   421.8246 </r>
       <r>     3.1557    44.4632   431.8131 </r>
       <r>     3.3423    43.8509   439.2832 </r>
       <r>     3.5289    24.4747   446.3046 </r>
       <r>     3.7155    15.7299   449.8552 </r>
       <r>     3.9022    21.2559   453.2233 </r>
       <r>     4.0888     6.6953   455.5719 </r>
       <r>     4.2754     0.0000   456.0000 </r>
       <r>     4.4620     0.0000   456.0000 </r>
       <r>     4.6487     0.0000   456.0000 </r>
       <r>     4.8353     0.0000   456.0000 </r>
       <r>     5.0219     0.4767   456.0140 </r>
       <r>     5.2085     2.6553   456.2888 </r>
       <r>     5.3952     6.9794   457.1852 </r>
       <r>     5.5818     8.7132   458.7801 </r>
       <r>     5.7684    11.1514   461.6055 </r>
       <r>     5.9550    13.7558   464.9629 </r>
       <r>     6.1417    11.6236   467.2980 </r>
       <r>     6.3283    13.0434   469.5546 </r>
       <r>     6.5149    15.3252   472.2024 </r>
       <r>     6.7015    17.5235   475.2684 </r>
       <r>     6.8882    20.3821   478.7877 </r>
       <r>     7.0748    25.6574   483.0575 </r>
       <r>     7.2614    31.4613   488.4257 </r>
       <r>     7.4480    32.0941   495.0683 </r>
       <r>     7.6346    29.5944   500.2592 </r>
       <r>     7.8213    59.8063   508.5784 </r>
       <r>     8.0079    29.8142   517.0649 </r>
       <r>     8.1945    18.6932   521.2244 </r>
       <r>     8.3811    20.2296   524.7222 </r>
       <r>     8.5678    24.4393   528.8439 </r>
       <r>     8.7544    42.3057   534.3612 </r>
       <r>     8.9410    32.1587   542.0322 </r>
       <r>     9.1276    17.4351   546.5251 </r>
       <r>     9.3143    15.3134   549.6679 </r>
       <r>     9.5009    12.0752   552.2160 </r>
       <r>     9.6875     6.7922   554.7760 </r>
       <r>     9.8741     9.2314   556.2588 </r>
       <r>    10.0608    10.6036   558.4435 </r>
       <r>    10.2474     3.8656   559.8632 </r>
       <r>    10.4340     0.0000   560.0000 </r>
       <r>    10.6206     0.0000   560.0000 </r>
       <r>    10.8073     0.0000   560.0000 </r>
       <r>    10.9939     0.0000   560.0000 </r>
       <r>    11.1805     0.0000   560.0000 </r>
       <r>    11.3671     0.0000   560.0000 </r>
       <r>    11.5538     0.0000   560.0000 </r>
       <r>    11.7404     0.0000   560.0000 </r>
       <r>    11.9270     0.0000   560.0000 </r>
       <r>    12.1136     0.0000   560.0000 </r>
       <r>    12.3003     0.0000   560.0000 </r>
       <r>    12.4869     0.0000   560.0000 </r>
       <r>    12.6735     0.0000   560.0000 </r>
       <r>    12.8601     0.0000   560.0000 </r>
      </set>
     </set>
    </array>
   </total>
  </dos>
 </calculation>
 <structure name="finalpos" >
  <crystal>
   <varray name="basis" >
    <v>      11.17850000       0.00000000       0.00000000 </v>
    <v>       0.00000000       9.57460000       0.00000000 </v>
    <v>       0.00000000       0.00000000      11.18240000 </v>
   </varray>
   <i name="volume">   1196.84853820 </i>
   <varray name="rec_basis" >
    <v>       0.08945744       0.00000000       0.00000000 </v>
    <v>       0.00000000       0.10444301       0.00000000 </v>
    <v>       0.00000000       0.00000000       0.08942624 </v>
   </varray>
  </crystal>
  <varray name="positions" >
   <v>       0.37539000       0.00017000       0.43687000 </v>
   <v>       0.62539000       0.99984000       0.43687000 </v>
   <v>       0.37539000       0.00017000       0.93687000 </v>
   <v>       0.37461000       0.00017000       0.68687000 </v>
   <v>       0.12461000       0.99984000       0.18687000 </v>
   <v>       0.87539000       0.00017000       0.43687000 </v>
   <v>       0.62461000       0.99984000       0.18687000 </v>
   <v>       0.12461000       0.99984000       0.68687000 </v>
   <v>       0.87539000       0.00017000       0.93687000 </v>
   <v>       0.62461000       0.99984000       0.68687000 </v>
   <v>       0.00013000       0.29519000       0.06281000 </v>
   <v>       0.25013000       0.70481000       0.06281000 </v>
   <v>       0.24987000       0.29519000       0.31282000 </v>
   <v>       0.49987000       0.70481000       0.31282000 </v>
   <v>       0.50013000       0.29519000       0.06281000 </v>
   <v>       0.75013000       0.70481000       0.06281000 </v>
   <v>       0.74987000       0.29519000       0.31282000 </v>
   <v>       0.99987000       0.70481000       0.31282000 </v>
   <v>       0.00013000       0.29519000       0.56281000 </v>
   <v>       0.25013000       0.70481000       0.56281000 </v>
   <v>       0.24987000       0.29519000       0.81282000 </v>
   <v>       0.49987000       0.70481000       0.81282000 </v>
   <v>       0.50013000       0.29519000       0.56281000 </v>
   <v>       0.75013000       0.70481000       0.56281000 </v>
   <v>       0.74987000       0.29519000       0.81282000 </v>
   <v>       0.99987000       0.70481000       0.81282000 </v>
   <v>       0.25005000       0.32677000       0.06286000 </v>
   <v>       0.00005000       0.67323000       0.06286000 </v>
   <v>       0.49995000       0.32677000       0.31286000 </v>
   <v>       0.24995000       0.67323000       0.31286000 </v>
   <v>       0.75005000       0.32677000       0.06286000 </v>
   <v>       0.50005000       0.67323000       0.06286000 </v>
   <v>       0.99995000       0.32677000       0.31286000 </v>
   <v>       0.74995000       0.67323000       0.31286000 </v>
   <v>       0.25005000       0.32677000       0.56286000 </v>
   <v>       0.00005000       0.67323000       0.56286000 </v>
   <v>       0.49995000       0.32677000       0.81286000 </v>
   <v>       0.24995000       0.67323000       0.81286000 </v>
   <v>       0.75005000       0.32677000       0.56286000 </v>
   <v>       0.50005000       0.67323000       0.56286000 </v>
   <v>       0.99995000       0.32677000       0.81286000 </v>
   <v>       0.74995000       0.67323000       0.81286000 </v>
   <v>       0.49987000       0.07798000       0.06246000 </v>
   <v>       0.24987000       0.92202000       0.06246000 </v>
   <v>       0.25013000       0.07798000       0.31246000 </v>
   <v>       0.00013000       0.92202000       0.31246000 </v>
   <v>       0.99987000       0.07798000       0.06246000 </v>
   <v>       0.74987000       0.92202000       0.06246000 </v>
   <v>       0.75013000       0.07798000       0.31246000 </v>
   <v>       0.50013000       0.92202000       0.31246000 </v>
   <v>       0.49987000       0.07798000       0.56246000 </v>
   <v>       0.24987000       0.92202000       0.56246000 </v>
   <v>       0.25013000       0.07798000       0.81246000 </v>
   <v>       0.00013000       0.92202000       0.81246000 </v>
   <v>       0.99987000       0.07798000       0.56246000 </v>
   <v>       0.74987000       0.92202000       0.56246000 </v>
   <v>       0.75013000       0.07798000       0.81246000 </v>
   <v>       0.50013000       0.92202000       0.81246000 </v>
  </varray>
 </structure>
</modeling>
