<?xml version="1.0" encoding="ISO-8859-1"?>
<modeling>
 <generator>
  <i name="program" type="string">vasp </i>
  <i name="version" type="string">5.4.4.18Apr17-6-g9f103f2a35  </i>
  <i name="subversion" type="string">(build Jul 31 2017 11:33:29) complex            parallel </i>
  <i name="platform" type="string">LinuxIFC </i>
  <i name="date" type="string">2021 09 29 </i>
  <i name="time" type="string">05:19:31 </i>
 </generator>
 <incar>
  <i type="string" name="SYSTEM"> La2O2S</i>
  <i type="string" name="PREC">normal</i>
  <i type="int" name="NELMIN">     4</i>
  <i type="int" name="IBRION">     2</i>
  <i type="int" name="NFREE">    10</i>
  <i name="EDIFF">      0.00000100</i>
  <i name="EDIFFG">     -0.01000000</i>
  <i type="int" name="NSW">     1</i>
  <i type="int" name="ISIF">     2</i>
  <i name="ENCUT">    600.00000000</i>
  <i name="ENAUG">    900.00000000</i>
  <i type="int" name="ISMEAR">    -5</i>
  <i type="logical" name="LWAVE"> F  </i>
  <i type="logical" name="LCHARG"> F  </i>
  <v type="int" name="KPOINT_BSE">    -1     0     0     0</v>
 </incar>
 <structure name="primitive_cell" >
  <crystal>
   <varray name="basis" >
    <v>      -5.58925000       0.00000000       5.59120000 </v>
    <v>      -5.58925000       0.00000000      -5.59120000 </v>
    <v>       0.00000000      -9.57460000       0.00000000 </v>
   </varray>
   <i name="volume">    598.42426910 </i>
   <varray name="rec_basis" >
    <v>      -0.08945744       0.00000000       0.08942624 </v>
    <v>      -0.08945744       0.00000000      -0.08942624 </v>
    <v>       0.00000000      -0.10444301       0.00000000 </v>
   </varray>
  </crystal>
  <varray name="positions" >
   <v>       0.06148000       0.18774000      -0.00017000 </v>
   <v>      -0.18767000       0.18741000       0.07798000 </v>
   <v>       0.06233000       0.43741000      -0.07798000 </v>
   <v>       0.06259000      -0.06233000      -0.07798000 </v>
   <v>       0.31259000       0.18767000       0.07798000 </v>
   <v>      -0.18852000      -0.06226000       0.00016000 </v>
   <v>      -0.18774000       0.43852000      -0.00017000 </v>
   <v>       0.31226000      -0.06148000      -0.00017000 </v>
   <v>      -0.18705000       0.18731000       0.29519000 </v>
   <v>       0.06295000       0.43731000      -0.29519000 </v>
   <v>       0.06268000      -0.06294000      -0.29519000 </v>
   <v>       0.31268000       0.18706000       0.29519000 </v>
   <v>      -0.18709000       0.18719000      -0.32677000 </v>
   <v>       0.06291000       0.43719000       0.32677000 </v>
   <v>       0.06281000      -0.06291000       0.32677000 </v>
   <v>       0.31281000       0.18709000      -0.32677000 </v>
   <v>       0.06226000      -0.31148000       0.00016000 </v>
   <v>      -0.43774000       0.18852000       0.00016000 </v>
   <v>      -0.43741000       0.43767000      -0.07798000 </v>
   <v>      -0.43767000      -0.06259000      -0.07798000 </v>
   <v>      -0.18741000      -0.31233000       0.07798000 </v>
   <v>       0.31233000      -0.31259000       0.07798000 </v>
   <v>      -0.43732000       0.43706000      -0.29519000 </v>
   <v>      -0.43705000      -0.06269000      -0.29519000 </v>
   <v>      -0.18732000      -0.31294000       0.29519000 </v>
   <v>       0.31295000      -0.31269000       0.29519000 </v>
   <v>      -0.43719000       0.43709000       0.32677000 </v>
   <v>      -0.18719000      -0.31291000      -0.32677000 </v>
   <v>      -0.43709000      -0.06281000       0.32677000 </v>
   <v>       0.31291000      -0.31281000      -0.32677000 </v>
   <v>      -0.43852000      -0.31226000      -0.00017000 </v>
  </varray>
 </structure>
 <varray name="primitive_index" >
  <v type="int" >        1 </v>
  <v type="int" >       54 </v>
  <v type="int" >       49 </v>
  <v type="int" >       55 </v>
  <v type="int" >       56 </v>
  <v type="int" >        4 </v>
  <v type="int" >        3 </v>
  <v type="int" >        9 </v>
  <v type="int" >       18 </v>
  <v type="int" >       17 </v>
  <v type="int" >       27 </v>
  <v type="int" >       24 </v>
  <v type="int" >       33 </v>
  <v type="int" >       34 </v>
  <v type="int" >       44 </v>
  <v type="int" >       39 </v>
  <v type="int" >       11 </v>
  <v type="int" >       13 </v>
  <v type="int" >       47 </v>
  <v type="int" >       53 </v>
  <v type="int" >       60 </v>
  <v type="int" >       50 </v>
  <v type="int" >       19 </v>
  <v type="int" >       21 </v>
  <v type="int" >       16 </v>
  <v type="int" >       22 </v>
  <v type="int" >       36 </v>
  <v type="int" >       31 </v>
  <v type="int" >       38 </v>
  <v type="int" >       37 </v>
  <v type="int" >        5 </v>
 </varray>
 <kpoints>
  <generation param="Gamma">
   <v type="int" name="divisions">       2        2        2 </v>
   <v name="usershift">      0.00000000       0.00000000       0.00000000 </v>
   <v name="genvec1">      0.50000000       0.00000000       0.00000000 </v>
   <v name="genvec2">      0.00000000       0.50000000       0.00000000 </v>
   <v name="genvec3">      0.00000000       0.00000000       0.50000000 </v>
   <v name="shift">      0.00000000       0.00000000       0.00000000 </v>
  </generation>
  <varray name="kpointlist" >
   <v>       0.00000000       0.00000000       0.00000000 </v>
   <v>       0.50000000       0.00000000       0.00000000 </v>
   <v>       0.00000000       0.50000000       0.00000000 </v>
   <v>       0.50000000       0.50000000       0.00000000 </v>
   <v>       0.00000000       0.00000000       0.50000000 </v>
   <v>       0.50000000       0.00000000       0.50000000 </v>
   <v>       0.00000000       0.50000000       0.50000000 </v>
   <v>       0.50000000       0.50000000       0.50000000 </v>
  </varray>
  <varray name="weights" >
   <v>       0.12500000 </v>
   <v>       0.12500000 </v>
   <v>       0.12500000 </v>
   <v>       0.12500000 </v>
   <v>       0.12500000 </v>
   <v>       0.12500000 </v>
   <v>       0.12500000 </v>
   <v>       0.12500000 </v>
  </varray>
  <varray name="tetrahedronlist"  type="int" >
   <v type="int" >        2        1        2        4        5 </v>
   <v type="int" >        2        1        3        4        5 </v>
   <v type="int" >        2        3        4        5        7 </v>
   <v type="int" >        2        2        4        5        6 </v>
   <v type="int" >        2        4        5        6        8 </v>
   <v type="int" >        2        4        5        7        8 </v>
   <v type="int" >        2        1        2        3        6 </v>
   <v type="int" >        2        2        3        4        6 </v>
   <v type="int" >        2        3        4        6        8 </v>
   <v type="int" >        2        1        3        5        6 </v>
   <v type="int" >        2        3        5        6        7 </v>
   <v type="int" >        2        3        6        7        8 </v>
   <v type="int" >        2        2        3        4        7 </v>
   <v type="int" >        2        1        2        3        7 </v>
   <v type="int" >        2        1        2        5        7 </v>
   <v type="int" >        2        2        4        7        8 </v>
   <v type="int" >        2        2        6        7        8 </v>
   <v type="int" >        2        2        5        6        7 </v>
   <v type="int" >        2        1        3        4        8 </v>
   <v type="int" >        2        1        2        4        8 </v>
   <v type="int" >        2        1        2        6        8 </v>
   <v type="int" >        2        1        3        7        8 </v>
   <v type="int" >        2        1        5        7        8 </v>
   <v type="int" >        2        1        5        6        8 </v>
  </varray>
  <i name="volumeweight">      0.02083333 </i>
 </kpoints>
 <parameters>
  <separator name="general" >
   <i type="string" name="SYSTEM">La2O2S</i>
   <i type="logical" name="LCOMPAT"> F  </i>
  </separator>
  <separator name="electronic" >
   <i type="string" name="PREC">normal</i>
   <i name="ENMAX">    600.00000000</i>
   <i name="ENAUG">    900.00000000</i>
   <i name="EDIFF">      0.00000100</i>
   <i type="int" name="IALGO">    38</i>
   <i type="int" name="IWAVPR">    11</i>
   <i type="int" name="NBANDS">   308</i>
   <i name="NELECT">    472.00000000</i>
   <i type="int" name="TURBO">     0</i>
   <i type="int" name="IRESTART">     0</i>
   <i type="int" name="NREBOOT">     0</i>
   <i type="int" name="NMIN">     0</i>
   <i name="EREF">      0.00000000</i>
   <separator name="electronic smearing" >
    <i type="int" name="ISMEAR">    -5</i>
    <i name="SIGMA">      0.20000000</i>
    <i name="KSPACING">      0.50000000</i>
    <i type="logical" name="KGAMMA"> T  </i>
   </separator>
   <separator name="electronic projectors" >
    <i type="logical" name="LREAL"> F  </i>
    <v name="ROPT">      0.00000000      0.00000000      0.00000000      0.00000000      0.00000000</v>
    <i type="int" name="LMAXPAW">  -100</i>
    <i type="int" name="LMAXMIX">     2</i>
    <i type="logical" name="NLSPLINE"> F  </i>
   </separator>
   <separator name="electronic startup" >
    <i type="int" name="ISTART">     0</i>
    <i type="int" name="ICHARG">     2</i>
    <i type="int" name="INIWAV">     1</i>
   </separator>
   <separator name="electronic spin" >
    <i type="int" name="ISPIN">     1</i>
    <i type="logical" name="LNONCOLLINEAR"> F  </i>
    <v name="MAGMOM">      1.00000000      1.00000000      1.00000000      1.00000000      1.00000000      1.00000000      1.00000000      1.00000000      1.00000000      1.00000000      1.00000000      1.00000000      1.00000000      1.00000000      1.00000000      1.00000000      1.00000000      1.00000000      1.00000000      1.00000000
      1.00000000      1.00000000      1.00000000      1.00000000      1.00000000      1.00000000      1.00000000      1.00000000      1.00000000      1.00000000      1.00000000      1.00000000      1.00000000      1.00000000      1.00000000      1.00000000      1.00000000      1.00000000      1.00000000      1.00000000
      1.00000000      1.00000000      1.00000000      1.00000000      1.00000000      1.00000000      1.00000000      1.00000000      1.00000000      1.00000000      1.00000000      1.00000000      1.00000000      1.00000000      1.00000000      1.00000000      1.00000000      1.00000000      1.00000000      1.00000000
      1.00000000      1.00000000</v>
    <i name="NUPDOWN">     -1.00000000</i>
    <i type="logical" name="LSORBIT"> F  </i>
    <v name="SAXIS">      0.00000000      0.00000000      1.00000000</v>
    <i type="logical" name="LSPIRAL"> F  </i>
    <v name="QSPIRAL">      0.00000000      0.00000000      0.00000000</v>
    <i type="logical" name="LZEROZ"> F  </i>
   </separator>
   <separator name="electronic exchange-correlation" >
    <i type="logical" name="LASPH"> F  </i>
    <i type="logical" name="LMETAGGA"> F  </i>
   </separator>
   <separator name="electronic convergence" >
    <i type="int" name="NELM">    60</i>
    <i type="int" name="NELMDL">    -5</i>
    <i type="int" name="NELMIN">     4</i>
    <i name="ENINI">    600.00000000</i>
    <separator name="electronic convergence detail" >
     <i type="logical" name="LDIAG"> T  </i>
     <i type="logical" name="LSUBROT"> F  </i>
     <i name="WEIMIN">      0.00100000</i>
     <i name="EBREAK">      0.00000000</i>
     <i name="DEPER">      0.30000000</i>
     <i type="int" name="NRMM">     4</i>
     <i name="TIME">      0.40000000</i>
    </separator>
   </separator>
   <separator name="electronic mixer" >
    <i name="AMIX">      0.40000000</i>
    <i name="BMIX">      1.00000000</i>
    <i name="AMIN">      0.10000000</i>
    <i name="AMIX_MAG">      1.60000000</i>
    <i name="BMIX_MAG">      1.00000000</i>
    <separator name="electronic mixer details" >
     <i type="int" name="IMIX">     4</i>
     <i type="logical" name="MIXFIRST"> F  </i>
     <i type="int" name="MAXMIX">   -45</i>
     <i name="WC">    100.00000000</i>
     <i type="int" name="INIMIX">     1</i>
     <i type="int" name="MIXPRE">     1</i>
     <i type="int" name="MREMOVE">     5</i>
    </separator>
   </separator>
   <separator name="electronic dipolcorrection" >
    <i type="logical" name="LDIPOL"> F  </i>
    <i type="logical" name="LMONO"> F  </i>
    <i type="int" name="IDIPOL">     0</i>
    <i name="EPSILON">      1.00000000</i>
    <v name="DIPOL">   -100.00000000   -100.00000000   -100.00000000</v>
    <i name="EFIELD">      0.00000000</i>
   </separator>
  </separator>
  <separator name="grids" >
   <i type="int" name="NGX">    70</i>
   <i type="int" name="NGY">    60</i>
   <i type="int" name="NGZ">    70</i>
   <i type="int" name="NGXF">   140</i>
   <i type="int" name="NGYF">   120</i>
   <i type="int" name="NGZF">   140</i>
   <i type="logical" name="ADDGRID"> F  </i>
  </separator>
  <separator name="ionic" >
   <i type="int" name="NSW">     1</i>
   <i type="int" name="IBRION">     2</i>
   <i type="int" name="MDALGO">     0</i>
   <i type="int" name="ISIF">     2</i>
   <i name="PSTRESS">      0.00000000</i>
   <i name="EDIFFG">     -0.01000000</i>
   <i type="int" name="NFREE">    10</i>
   <i name="POTIM">      0.50000000</i>
   <i name="SMASS">     -3.00000000</i>
   <i name="SCALEE">      1.00000000</i>
  </separator>
  <separator name="ionic md" >
   <i name="TEBEG">      0.00010000</i>
   <i name="TEEND">      0.00010000</i>
   <i type="int" name="NBLOCK">     1</i>
   <i type="int" name="KBLOCK">     1</i>
   <i type="int" name="NPACO">   256</i>
   <i name="APACO">     16.00000000</i>
  </separator>
  <separator name="symmetry" >
   <i type="int" name="ISYM">     2</i>
   <i name="SYMPREC">      0.00001000</i>
  </separator>
  <separator name="dos" >
   <i type="int" name="LORBIT">     0</i>
   <v name="RWIGS">     -1.00000000     -1.00000000     -1.00000000     -1.00000000     -1.00000000</v>
   <i type="int" name="NEDOS">   301</i>
   <i name="EMIN">     10.00000000</i>
   <i name="EMAX">    -10.00000000</i>
   <i name="EFERMI">      0.00000000</i>
  </separator>
  <separator name="writing" >
   <i type="int" name="NWRITE">     2</i>
   <i type="logical" name="LWAVE"> F  </i>
   <i type="logical" name="LDOWNSAMPLE"> F  </i>
   <i type="logical" name="LCHARG"> F  </i>
   <i type="logical" name="LPARD"> F  </i>
   <i type="logical" name="LVTOT"> F  </i>
   <i type="logical" name="LVHAR"> F  </i>
   <i type="logical" name="LELF"> F  </i>
   <i type="logical" name="LOPTICS"> F  </i>
   <v name="STM">      0.00000000      0.00000000      0.00000000      0.00000000      0.00000000      0.00000000      0.00000000</v>
  </separator>
  <separator name="performance" >
   <i type="int" name="NPAR">    28</i>
   <i type="int" name="NSIM">     4</i>
   <i type="int" name="NBLK">    -1</i>
   <i type="logical" name="LPLANE"> T  </i>
   <i type="logical" name="LSCALAPACK"> T  </i>
   <i type="logical" name="LSCAAWARE"> F  </i>
   <i type="logical" name="LSCALU"> F  </i>
   <i type="logical" name="LASYNC"> F  </i>
   <i type="logical" name="LORBITALREAL"> F  </i>
  </separator>
  <separator name="miscellaneous" >
   <i type="int" name="IDIOT">     3</i>
   <i type="int" name="ISPECIAL">     0</i>
   <i type="logical" name="LMUSIC"> F  </i>
   <v name="POMASS">      7.01000000     24.30500000    208.98000000     32.06600000     16.00000000</v>
   <v name="DARWINR">      0.00000000      0.00000000      0.00000000      0.00000000      0.00000000</v>
   <v name="DARWINV">      1.00000000      1.00000000      1.00000000      1.00000000      1.00000000</v>
   <i type="logical" name="LCORR"> T  </i>
  </separator>
  <i type="logical" name="GGA_COMPAT"> T  </i>
  <i type="logical" name="LBERRY"> F  </i>
  <i type="int" name="ICORELEVEL">     0</i>
  <i type="logical" name="LDAU"> F  </i>
  <i type="int" name="I_CONSTRAINED_M">     0</i>
  <separator name="electronic exchange-correlation" >
   <i type="string" name="GGA">--</i>
   <i type="int" name="VOSKOWN">     0</i>
   <i type="logical" name="LHFCALC"> F  </i>
   <i type="string" name="PRECFOCK"></i>
   <i type="logical" name="LSYMGRAD"> F  </i>
   <i type="logical" name="LHFONE"> F  </i>
   <i type="logical" name="LRHFCALC"> F  </i>
   <i type="logical" name="LTHOMAS"> F  </i>
   <i type="logical" name="LMODELHF"> F  </i>
   <i name="ENCUT4O">     -1.00000000</i>
   <i type="int" name="EXXOEP">     0</i>
   <i type="int" name="FOURORBIT">     0</i>
   <i name="AEXX">      0.00000000</i>
   <i name="HFALPHA">      0.00000000</i>
   <i name="MCALPHA">      0.00000000</i>
   <i name="ALDAX">      1.00000000</i>
   <i name="AGGAX">      1.00000000</i>
   <i name="ALDAC">      1.00000000</i>
   <i name="AGGAC">      1.00000000</i>
   <i type="int" name="NKREDX">     1</i>
   <i type="int" name="NKREDY">     1</i>
   <i type="int" name="NKREDZ">     1</i>
   <i type="logical" name="SHIFTRED"> F  </i>
   <i type="logical" name="ODDONLY"> F  </i>
   <i type="logical" name="EVENONLY"> F  </i>
   <i type="int" name="LMAXFOCK">     0</i>
   <i type="int" name="NMAXFOCKAE">     0</i>
   <i type="logical" name="LFOCKAEDFT"> F  </i>
   <i name="HFSCREEN">      0.00000000</i>
   <i name="HFSCREENC">      0.00000000</i>
   <i type="int" name="NBANDSGWLOW">     0</i>
  </separator>
  <separator name="vdW DFT" >
   <i type="logical" name="LUSE_VDW"> F  </i>
   <i name="Zab_VDW">     -0.84910000</i>
   <i name="PARAM1">      0.12340000</i>
   <i name="PARAM2">      1.00000000</i>
   <i name="PARAM3">      0.00000000</i>
  </separator>
  <separator name="model GW" >
   <i type="int" name="MODEL_GW">     0</i>
   <i name="MODEL_EPS0">     11.58240521</i>
   <i name="MODEL_ALPHA">      1.00000000</i>
  </separator>
  <separator name="linear response parameters" >
   <i type="logical" name="LEPSILON"> F  </i>
   <i type="logical" name="LRPA"> F  </i>
   <i type="logical" name="LNABLA"> F  </i>
   <i type="logical" name="LVEL"> F  </i>
   <i type="int" name="KINTER">     0</i>
   <i name="CSHIFT">      0.10000000</i>
   <i name="OMEGAMAX">     -1.00000000</i>
   <i name="DEG_THRESHOLD">      0.00200000</i>
   <i name="RTIME">     -0.10000000</i>
   <i name="WPLASMAI">      0.00000000</i>
   <v name="DFIELD">      0.00000000      0.00000000      0.00000000</v>
   <v name="WPLASMA">      0.00000000      0.00000000      0.00000000      0.00000000      0.00000000      0.00000000      0.00000000      0.00000000      0.00000000</v>
  </separator>
  <separator name="orbital magnetization" >
   <i type="logical" name="NUCIND"> F  </i>
   <v name="MAGPOS">      0.00000000      0.00000000      0.00000000</v>
   <i type="logical" name="LNICSALL"> T  </i>
   <i type="logical" name="ORBITALMAG"> F  </i>
   <i type="logical" name="LMAGBLOCH"> F  </i>
   <i type="logical" name="LCHIMAG"> F  </i>
   <i type="logical" name="LGAUGE"> T  </i>
   <i type="int" name="MAGATOM">     0</i>
   <v name="MAGDIPOL">      0.00000000      0.00000000      0.00000000</v>
   <v name="AVECCONST">      0.00000000      0.00000000      0.00000000</v>
  </separator>
  <separator name="response functions" >
   <i type="logical" name="LADDER"> F  </i>
   <i type="logical" name="LRPAFORCE"> F  </i>
   <i type="logical" name="LFXC"> F  </i>
   <i type="logical" name="LHARTREE"> T  </i>
   <i type="int" name="IBSE">     0</i>
   <v type="int" name="KPOINT">    -1     0     0     0</v>
   <i type="logical" name="LTCTE"> F  </i>
   <i type="logical" name="LTETE"> F  </i>
   <i type="logical" name="LTRIPLET"> F  </i>
   <i type="logical" name="LFXCEPS"> F  </i>
   <i type="logical" name="LFXHEG"> F  </i>
   <i type="int" name="NATURALO">     2</i>
   <i type="logical" name="L2ORDER"> F  </i>
   <i type="logical" name="LMP2LT"> F  </i>
   <i type="logical" name="LUSEW"> F  </i>
   <i name="ENCUTGW">     -2.00000000</i>
   <i name="ENCUTGWSOFT">     -2.00000000</i>
   <i name="ENCUTLF">     -1.00000000</i>
   <i type="int" name="LMAXMP2">    -1</i>
   <i name="SCISSOR">      0.00000000</i>
   <i type="int" name="NOMEGA">     0</i>
   <i type="int" name="NOMEGAR">     0</i>
   <i type="int" name="NBANDSGW">    -1</i>
   <i type="int" name="NBANDSO">    -1</i>
   <i type="int" name="NBANDSV">    -1</i>
   <i type="int" name="NELM">     1</i>
   <i type="int" name="NELMHF">     1</i>
   <i type="int" name="DIM">     3</i>
   <i type="int" name="ANTIRES">     0</i>
   <i name="OMEGAMAX">    -30.00000000</i>
   <i name="OMEGAMIN">    -30.00000000</i>
   <i name="OMEGATL">   -200.00000000</i>
   <i type="int" name="OMEGAGRID">   140</i>
   <i name="CSHIFT">     -0.10000000</i>
   <i type="logical" name="SELFENERGY"> F  </i>
   <i type="logical" name="LSPECTRAL"> F  </i>
   <i type="logical" name="LSPECTRALGW"> F  </i>
   <i type="logical" name="LSINGLES"> F  </i>
   <i type="logical" name="LFERMIGW"> F  </i>
   <i type="logical" name="ODDONLYGW"> F  </i>
   <i type="logical" name="EVENONLYGW"> F  </i>
   <i type="int" name="NKREDLFX">     1</i>
   <i type="int" name="NKREDLFY">     1</i>
   <i type="int" name="NKREDLFZ">     1</i>
   <i type="int" name="MAXMEM">  2800</i>
   <i type="int" name="TELESCOPE">     0</i>
   <i type="int" name="TAUPAR">     1</i>
   <i type="int" name="OMEGAPAR">    -1</i>
   <i name="LAMBDA">      1.00000000</i>
  </separator>
  <separator name="External order field" >
   <i name="OFIELD_KAPPA">      0.00000000</i>
   <v name="OFIELD_K">      0.00000000      0.00000000      0.00000000</v>
   <i name="OFIELD_Q6_NEAR">      0.00000000</i>
   <i name="OFIELD_Q6_FAR">      0.00000000</i>
   <i name="OFIELD_A">      0.00000000</i>
  </separator>
 </parameters>
 <atominfo>
  <atoms>      62 </atoms>
  <types>       5 </types>
  <array name="atoms" >
   <dimension dim="1">ion</dimension>
   <field type="string">element</field>
   <field type="int">atomtype</field>
   <set>
    <rc><c>Li</c><c>   1</c></rc>
    <rc><c>Li</c><c>   1</c></rc>
    <rc><c>Li</c><c>   1</c></rc>
    <rc><c>Li</c><c>   1</c></rc>
    <rc><c>Li</c><c>   1</c></rc>
    <rc><c>Li</c><c>   1</c></rc>
    <rc><c>Li</c><c>   1</c></rc>
    <rc><c>Li</c><c>   1</c></rc>
    <rc><c>Li</c><c>   1</c></rc>
    <rc><c>Li</c><c>   1</c></rc>
    <rc><c>Li</c><c>   1</c></rc>
    <rc><c>Li</c><c>   1</c></rc>
    <rc><c>Mg</c><c>   2</c></rc>
    <rc><c>Mg</c><c>   2</c></rc>
    <rc><c>Bi</c><c>   3</c></rc>
    <rc><c>Bi</c><c>   3</c></rc>
    <rc><c>Bi</c><c>   3</c></rc>
    <rc><c>Bi</c><c>   3</c></rc>
    <rc><c>Bi</c><c>   3</c></rc>
    <rc><c>Bi</c><c>   3</c></rc>
    <rc><c>Bi</c><c>   3</c></rc>
    <rc><c>Bi</c><c>   3</c></rc>
    <rc><c>Bi</c><c>   3</c></rc>
    <rc><c>Bi</c><c>   3</c></rc>
    <rc><c>Bi</c><c>   3</c></rc>
    <rc><c>Bi</c><c>   3</c></rc>
    <rc><c>Bi</c><c>   3</c></rc>
    <rc><c>Bi</c><c>   3</c></rc>
    <rc><c>Bi</c><c>   3</c></rc>
    <rc><c>Bi</c><c>   3</c></rc>
    <rc><c>S </c><c>   4</c></rc>
    <rc><c>S </c><c>   4</c></rc>
    <rc><c>S </c><c>   4</c></rc>
    <rc><c>S </c><c>   4</c></rc>
    <rc><c>S </c><c>   4</c></rc>
    <rc><c>S </c><c>   4</c></rc>
    <rc><c>S </c><c>   4</c></rc>
    <rc><c>S </c><c>   4</c></rc>
    <rc><c>S </c><c>   4</c></rc>
    <rc><c>S </c><c>   4</c></rc>
    <rc><c>S </c><c>   4</c></rc>
    <rc><c>S </c><c>   4</c></rc>
    <rc><c>S </c><c>   4</c></rc>
    <rc><c>S </c><c>   4</c></rc>
    <rc><c>S </c><c>   4</c></rc>
    <rc><c>S </c><c>   4</c></rc>
    <rc><c>O </c><c>   5</c></rc>
    <rc><c>O </c><c>   5</c></rc>
    <rc><c>O </c><c>   5</c></rc>
    <rc><c>O </c><c>   5</c></rc>
    <rc><c>O </c><c>   5</c></rc>
    <rc><c>O </c><c>   5</c></rc>
    <rc><c>O </c><c>   5</c></rc>
    <rc><c>O </c><c>   5</c></rc>
    <rc><c>O </c><c>   5</c></rc>
    <rc><c>O </c><c>   5</c></rc>
    <rc><c>O </c><c>   5</c></rc>
    <rc><c>O </c><c>   5</c></rc>
    <rc><c>O </c><c>   5</c></rc>
    <rc><c>O </c><c>   5</c></rc>
    <rc><c>O </c><c>   5</c></rc>
    <rc><c>O </c><c>   5</c></rc>
   </set>
  </array>
  <array name="atomtypes" >
   <dimension dim="1">type</dimension>
   <field type="int">atomspertype</field>
   <field type="string">element</field>
   <field>mass</field>
   <field>valence</field>
   <field type="string">pseudopotential</field>
   <set>
    <rc><c>  12</c><c>Li</c><c>      7.01000000</c><c>      3.00000000</c><c>  PAW_PBE Li_sv 10Sep2004               </c></rc>
    <rc><c>   2</c><c>Mg</c><c>     24.30500000</c><c>      2.00000000</c><c>  PAW_PBE Mg 13Apr2007                  </c></rc>
    <rc><c>  16</c><c>Bi</c><c>    208.98000000</c><c>     15.00000000</c><c>  PAW_PBE Bi_d 06Sep2000                </c></rc>
    <rc><c>  16</c><c>S </c><c>     32.06600000</c><c>      6.00000000</c><c>  PAW_PBE S 06Sep2000                   </c></rc>
    <rc><c>  16</c><c>O </c><c>     16.00000000</c><c>      6.00000000</c><c>  PAW_PBE O 08Apr2002                   </c></rc>
   </set>
  </array>
 </atominfo>
 <structure name="initialpos" >
  <crystal>
   <varray name="basis" >
    <v>      11.17850000       0.00000000       0.00000000 </v>
    <v>       0.00000000       9.57460000       0.00000000 </v>
    <v>       0.00000000       0.00000000      11.18240000 </v>
   </varray>
   <i name="volume">   1196.84853820 </i>
   <varray name="rec_basis" >
    <v>       0.08945744       0.00000000       0.00000000 </v>
    <v>       0.00000000       0.10444301       0.00000000 </v>
    <v>       0.00000000       0.00000000       0.08942624 </v>
   </varray>
  </crystal>
  <varray name="positions" >
   <v>       0.37539000       0.00017000       0.43687000 </v>
   <v>       0.12461000       0.99984000       0.18687000 </v>
   <v>       0.37461000       0.00017000       0.18687000 </v>
   <v>       0.62539000       0.99984000       0.43687000 </v>
   <v>       0.87539000       0.00017000       0.43687000 </v>
   <v>       0.87461000       0.00017000       0.18687000 </v>
   <v>       0.12539000       0.99984000       0.93687000 </v>
   <v>       0.37539000       0.00017000       0.93687000 </v>
   <v>       0.37461000       0.00017000       0.68687000 </v>
   <v>       0.87539000       0.00017000       0.93687000 </v>
   <v>       0.62461000       0.99984000       0.68687000 </v>
   <v>       0.87461000       0.00017000       0.68687000 </v>
   <v>       0.62461000       0.99984000       0.18687000 </v>
   <v>       0.12461000       0.99984000       0.68687000 </v>
   <v>       0.00013000       0.29519000       0.06281000 </v>
   <v>       0.25013000       0.70481000       0.06281000 </v>
   <v>       0.24987000       0.29519000       0.31282000 </v>
   <v>       0.49987000       0.70481000       0.31282000 </v>
   <v>       0.50013000       0.29519000       0.06281000 </v>
   <v>       0.75013000       0.70481000       0.06281000 </v>
   <v>       0.74987000       0.29519000       0.31282000 </v>
   <v>       0.99987000       0.70481000       0.31282000 </v>
   <v>       0.00013000       0.29519000       0.56281000 </v>
   <v>       0.25013000       0.70481000       0.56281000 </v>
   <v>       0.24987000       0.29519000       0.81282000 </v>
   <v>       0.49987000       0.70481000       0.81282000 </v>
   <v>       0.50013000       0.29519000       0.56281000 </v>
   <v>       0.75013000       0.70481000       0.56281000 </v>
   <v>       0.74987000       0.29519000       0.81282000 </v>
   <v>       0.99987000       0.70481000       0.81282000 </v>
   <v>       0.25005000       0.32677000       0.06286000 </v>
   <v>       0.00005000       0.67323000       0.06286000 </v>
   <v>       0.49995000       0.32677000       0.31286000 </v>
   <v>       0.24995000       0.67323000       0.31286000 </v>
   <v>       0.75005000       0.32677000       0.06286000 </v>
   <v>       0.50005000       0.67323000       0.06286000 </v>
   <v>       0.99995000       0.32677000       0.31286000 </v>
   <v>       0.74995000       0.67323000       0.31286000 </v>
   <v>       0.25005000       0.32677000       0.56286000 </v>
   <v>       0.00005000       0.67323000       0.56286000 </v>
   <v>       0.49995000       0.32677000       0.81286000 </v>
   <v>       0.24995000       0.67323000       0.81286000 </v>
   <v>       0.75005000       0.32677000       0.56286000 </v>
   <v>       0.50005000       0.67323000       0.56286000 </v>
   <v>       0.99995000       0.32677000       0.81286000 </v>
   <v>       0.74995000       0.67323000       0.81286000 </v>
   <v>       0.49987000       0.07798000       0.06246000 </v>
   <v>       0.24987000       0.92202000       0.06246000 </v>
   <v>       0.25013000       0.07798000       0.31246000 </v>
   <v>       0.00013000       0.92202000       0.31246000 </v>
   <v>       0.99987000       0.07798000       0.06246000 </v>
   <v>       0.74987000       0.92202000       0.06246000 </v>
   <v>       0.75013000       0.07798000       0.31246000 </v>
   <v>       0.50013000       0.92202000       0.31246000 </v>
   <v>       0.49987000       0.07798000       0.56246000 </v>
   <v>       0.24987000       0.92202000       0.56246000 </v>
   <v>       0.25013000       0.07798000       0.81246000 </v>
   <v>       0.00013000       0.92202000       0.81246000 </v>
   <v>       0.99987000       0.07798000       0.56246000 </v>
   <v>       0.74987000       0.92202000       0.56246000 </v>
   <v>       0.75013000       0.07798000       0.81246000 </v>
   <v>       0.50013000       0.92202000       0.81246000 </v>
  </varray>
 </structure>
 <calculation>
  <scstep>
   <time name="dav">   64.45   64.49</time>
   <time name="total">   64.53   64.57</time>
   <energy>
    <i name="alphaZ">   1079.87189334 </i>
    <i name="ewald"> -31117.37030566 </i>
    <i name="hartreedc"> -12707.71957492 </i>
    <i name="XCdc">   1468.88716084 </i>
    <i name="pawpsdc">  36917.91861236 </i>
    <i name="pawaedc"> -36503.41947684 </i>
    <i name="eentropy">      0.00000000 </i>
    <i name="bandstr">   1588.82430885 </i>
    <i name="atom">  45173.57650906 </i>
    <i name="e_fr_energy">   5900.56912704 </i>
    <i name="e_wo_entrp">   5900.56912704 </i>
    <i name="e_0_energy">   5900.56912704 </i>
   </energy>
  </scstep>
  <scstep>
   <time name="dav">   65.01   65.07</time>
   <time name="total">   65.02   65.08</time>
   <energy>
    <i name="e_fr_energy">    749.92024829 </i>
    <i name="e_wo_entrp">    749.92024829 </i>
    <i name="e_0_energy">    749.92024829 </i>
   </energy>
  </scstep>
  <scstep>
   <time name="dav">   72.18   72.27</time>
   <time name="total">   72.18   72.27</time>
   <energy>
    <i name="e_fr_energy">   -246.94055043 </i>
    <i name="e_wo_entrp">   -246.94055043 </i>
    <i name="e_0_energy">   -246.94055043 </i>
   </energy>
  </scstep>
  <scstep>
   <time name="dav">   78.92   79.06</time>
   <time name="total">   78.92   79.06</time>
   <energy>
    <i name="e_fr_energy">   -351.86408355 </i>
    <i name="e_wo_entrp">   -351.86408355 </i>
    <i name="e_0_energy">   -351.86408355 </i>
   </energy>
  </scstep>
  <scstep>
   <time name="dav">  103.90  104.12</time>
   <time name="total">  104.63  104.85</time>
   <energy>
    <i name="e_fr_energy">   -360.95983304 </i>
    <i name="e_wo_entrp">   -360.95983304 </i>
    <i name="e_0_energy">   -360.95983304 </i>
   </energy>
  </scstep>
  <scstep>
   <time name="dav">   90.71   90.74</time>
   <time name="total">   91.50   91.54</time>
   <energy>
    <i name="e_fr_energy">   -301.15346486 </i>
    <i name="e_wo_entrp">   -301.15346486 </i>
    <i name="e_0_energy">   -301.15346486 </i>
   </energy>
  </scstep>
  <scstep>
   <time name="dav">   71.67   71.76</time>
   <time name="total">   72.47   72.56</time>
   <energy>
    <i name="e_fr_energy">   -303.34345875 </i>
    <i name="e_wo_entrp">   -303.34345875 </i>
    <i name="e_0_energy">   -303.34345875 </i>
   </energy>
  </scstep>
  <scstep>
   <time name="dav">   82.17   82.25</time>
   <time name="total">   82.97   83.06</time>
   <energy>
    <i name="e_fr_energy">   -301.96043786 </i>
    <i name="e_wo_entrp">   -301.96043786 </i>
    <i name="e_0_energy">   -301.96043786 </i>
   </energy>
  </scstep>
  <scstep>
   <time name="dav">   91.64   91.76</time>
   <time name="total">   92.44   92.57</time>
   <energy>
    <i name="e_fr_energy">   -301.36378362 </i>
    <i name="e_wo_entrp">   -301.36378362 </i>
    <i name="e_0_energy">   -301.36378362 </i>
   </energy>
  </scstep>
  <scstep>
   <time name="dav">   78.13   78.21</time>
   <time name="total">   78.93   79.01</time>
   <energy>
    <i name="e_fr_energy">   -301.32497731 </i>
    <i name="e_wo_entrp">   -301.32497731 </i>
    <i name="e_0_energy">   -301.32497731 </i>
   </energy>
  </scstep>
  <scstep>
   <time name="dav">   82.88   83.02</time>
   <time name="total">   83.68   83.83</time>
   <energy>
    <i name="e_fr_energy">   -301.33844511 </i>
    <i name="e_wo_entrp">   -301.33844511 </i>
    <i name="e_0_energy">   -301.33844511 </i>
   </energy>
  </scstep>
  <scstep>
   <time name="dav">   80.11   80.21</time>
   <time name="total">   80.91   81.01</time>
   <energy>
    <i name="e_fr_energy">   -301.34342441 </i>
    <i name="e_wo_entrp">   -301.34342441 </i>
    <i name="e_0_energy">   -301.34342441 </i>
   </energy>
  </scstep>
  <scstep>
   <time name="dav">   85.74   85.86</time>
   <time name="total">   86.54   86.66</time>
   <energy>
    <i name="e_fr_energy">   -301.34414590 </i>
    <i name="e_wo_entrp">   -301.34414590 </i>
    <i name="e_0_energy">   -301.34414590 </i>
   </energy>
  </scstep>
  <scstep>
   <time name="dav">   71.94   71.98</time>
   <time name="total">   72.74   72.78</time>
   <energy>
    <i name="e_fr_energy">   -301.34445293 </i>
    <i name="e_wo_entrp">   -301.34445293 </i>
    <i name="e_0_energy">   -301.34445293 </i>
   </energy>
  </scstep>
  <scstep>
   <time name="dav">   99.30   99.38</time>
   <time name="total">  100.10  100.18</time>
   <energy>
    <i name="e_fr_energy">   -301.34448163 </i>
    <i name="e_wo_entrp">   -301.34448163 </i>
    <i name="e_0_energy">   -301.34448163 </i>
   </energy>
  </scstep>
  <scstep>
   <time name="dav">   68.15   68.25</time>
   <time name="total">   68.95   69.05</time>
   <energy>
    <i name="e_fr_energy">   -301.34449852 </i>
    <i name="e_wo_entrp">   -301.34449852 </i>
    <i name="e_0_energy">   -301.34449852 </i>
   </energy>
  </scstep>
  <scstep>
   <time name="dav">   76.30   76.38</time>
   <time name="total">   77.10   77.18</time>
   <energy>
    <i name="e_fr_energy">   -301.34450076 </i>
    <i name="e_wo_entrp">   -301.34450076 </i>
    <i name="e_0_energy">   -301.34450076 </i>
   </energy>
  </scstep>
  <scstep>
   <time name="dav">   57.52   57.59</time>
   <time name="total">   57.60   57.67</time>
   <energy>
    <i name="alphaZ">   1079.87189334 </i>
    <i name="ewald"> -31117.37030566 </i>
    <i name="hartreedc"> -12942.97088961 </i>
    <i name="XCdc">   1491.83169564 </i>
    <i name="pawpsdc">  43947.94576446 </i>
    <i name="pawaedc"> -43508.93788173 </i>
    <i name="eentropy">      0.00000000 </i>
    <i name="bandstr">  -4425.29128636 </i>
    <i name="atom">  45173.57650906 </i>
    <i name="e_fr_energy">   -301.34450084 </i>
    <i name="e_wo_entrp">   -301.34450084 </i>
    <i name="e_0_energy">   -301.34450084 </i>
   </energy>
  </scstep>
  <structure>
   <crystal>
    <varray name="basis" >
     <v>      11.17850000       0.00000000       0.00000000 </v>
     <v>       0.00000000       9.57460000       0.00000000 </v>
     <v>       0.00000000       0.00000000      11.18240000 </v>
    </varray>
    <i name="volume">   1196.84853820 </i>
    <varray name="rec_basis" >
     <v>       0.08945744       0.00000000       0.00000000 </v>
     <v>       0.00000000       0.10444301       0.00000000 </v>
     <v>       0.00000000       0.00000000       0.08942624 </v>
    </varray>
   </crystal>
   <varray name="positions" >
    <v>       0.37539000       0.00017000       0.43687000 </v>
    <v>       0.12461000       0.99984000       0.18687000 </v>
    <v>       0.37461000       0.00017000       0.18687000 </v>
    <v>       0.62539000       0.99984000       0.43687000 </v>
    <v>       0.87539000       0.00017000       0.43687000 </v>
    <v>       0.87461000       0.00017000       0.18687000 </v>
    <v>       0.12539000       0.99984000       0.93687000 </v>
    <v>       0.37539000       0.00017000       0.93687000 </v>
    <v>       0.37461000       0.00017000       0.68687000 </v>
    <v>       0.87539000       0.00017000       0.93687000 </v>
    <v>       0.62461000       0.99984000       0.68687000 </v>
    <v>       0.87461000       0.00017000       0.68687000 </v>
    <v>       0.62461000       0.99984000       0.18687000 </v>
    <v>       0.12461000       0.99984000       0.68687000 </v>
    <v>       0.00013000       0.29519000       0.06281000 </v>
    <v>       0.25013000       0.70481000       0.06281000 </v>
    <v>       0.24987000       0.29519000       0.31282000 </v>
    <v>       0.49987000       0.70481000       0.31282000 </v>
    <v>       0.50013000       0.29519000       0.06281000 </v>
    <v>       0.75013000       0.70481000       0.06281000 </v>
    <v>       0.74987000       0.29519000       0.31282000 </v>
    <v>       0.99987000       0.70481000       0.31282000 </v>
    <v>       0.00013000       0.29519000       0.56281000 </v>
    <v>       0.25013000       0.70481000       0.56281000 </v>
    <v>       0.24987000       0.29519000       0.81282000 </v>
    <v>       0.49987000       0.70481000       0.81282000 </v>
    <v>       0.50013000       0.29519000       0.56281000 </v>
    <v>       0.75013000       0.70481000       0.56281000 </v>
    <v>       0.74987000       0.29519000       0.81282000 </v>
    <v>       0.99987000       0.70481000       0.81282000 </v>
    <v>       0.25005000       0.32677000       0.06286000 </v>
    <v>       0.00005000       0.67323000       0.06286000 </v>
    <v>       0.49995000       0.32677000       0.31286000 </v>
    <v>       0.24995000       0.67323000       0.31286000 </v>
    <v>       0.75005000       0.32677000       0.06286000 </v>
    <v>       0.50005000       0.67323000       0.06286000 </v>
    <v>       0.99995000       0.32677000       0.31286000 </v>
    <v>       0.74995000       0.67323000       0.31286000 </v>
    <v>       0.25005000       0.32677000       0.56286000 </v>
    <v>       0.00005000       0.67323000       0.56286000 </v>
    <v>       0.49995000       0.32677000       0.81286000 </v>
    <v>       0.24995000       0.67323000       0.81286000 </v>
    <v>       0.75005000       0.32677000       0.56286000 </v>
    <v>       0.50005000       0.67323000       0.56286000 </v>
    <v>       0.99995000       0.32677000       0.81286000 </v>
    <v>       0.74995000       0.67323000       0.81286000 </v>
    <v>       0.49987000       0.07798000       0.06246000 </v>
    <v>       0.24987000       0.92202000       0.06246000 </v>
    <v>       0.25013000       0.07798000       0.31246000 </v>
    <v>       0.00013000       0.92202000       0.31246000 </v>
    <v>       0.99987000       0.07798000       0.06246000 </v>
    <v>       0.74987000       0.92202000       0.06246000 </v>
    <v>       0.75013000       0.07798000       0.31246000 </v>
    <v>       0.50013000       0.92202000       0.31246000 </v>
    <v>       0.49987000       0.07798000       0.56246000 </v>
    <v>       0.24987000       0.92202000       0.56246000 </v>
    <v>       0.25013000       0.07798000       0.81246000 </v>
    <v>       0.00013000       0.92202000       0.81246000 </v>
    <v>       0.99987000       0.07798000       0.56246000 </v>
    <v>       0.74987000       0.92202000       0.56246000 </v>
    <v>       0.75013000       0.07798000       0.81246000 </v>
    <v>       0.50013000       0.92202000       0.81246000 </v>
   </varray>
  </structure>
  <varray name="forces" >
   <v>      -0.51863760       0.13326490       0.00904878 </v>
   <v>       0.00966833       0.00013425       0.50730909 </v>
   <v>      -0.47119593       0.12559762       0.00471662 </v>
   <v>      -0.00646194       0.00016810       0.49141458 </v>
   <v>       0.50440537      -0.13497758       0.01050254 </v>
   <v>       0.48000895      -0.12657172      -0.00375345 </v>
   <v>      -0.00646194       0.00016810       0.49141458 </v>
   <v>       0.50440537      -0.13497758       0.01050254 </v>
   <v>       0.48000895      -0.12657172      -0.00375345 </v>
   <v>      -0.51863760       0.13326490       0.00904878 </v>
   <v>       0.00966833       0.00013425       0.50730909 </v>
   <v>      -0.47119593       0.12559762       0.00471662 </v>
   <v>       0.02457287       0.00361232      -0.97928275 </v>
   <v>       0.02457287       0.00361232      -0.97928275 </v>
   <v>       0.01356971       0.02348822       0.10799737 </v>
   <v>      -0.02652599      -0.02444911       0.10769070 </v>
   <v>      -0.20172755      -1.00822423       0.07967391 </v>
   <v>      -0.18379301      -1.04169003       0.08818070 </v>
   <v>       0.01853823      -0.00646308      -0.29098609 </v>
   <v>      -0.02987303       0.01654836      -0.28991985 </v>
   <v>       0.19324952       1.03547214       0.08631924 </v>
   <v>       0.21612136       1.00598149       0.07804769 </v>
   <v>       0.01853823      -0.00646308      -0.29098609 </v>
   <v>      -0.02987303       0.01654836      -0.28991985 </v>
   <v>       0.19324952       1.03547214       0.08631924 </v>
   <v>       0.21612136       1.00598149       0.07804769 </v>
   <v>       0.01356971       0.02348822       0.10799737 </v>
   <v>      -0.02652599      -0.02444911       0.10769070 </v>
   <v>      -0.20172755      -1.00822423       0.07967391 </v>
   <v>      -0.18379301      -1.04169003       0.08818070 </v>
   <v>      -0.00842547       0.19077275      -0.18845909 </v>
   <v>       0.00800563      -0.19085354      -0.18873407 </v>
   <v>       0.23074145       0.14214700      -0.03580392 </v>
   <v>       0.19985928      -0.15996710      -0.02053718 </v>
   <v>      -0.03319363       0.11440721       0.24034545 </v>
   <v>       0.03119623      -0.11336549       0.24113948 </v>
   <v>      -0.19781277       0.15956512      -0.01882766 </v>
   <v>      -0.23019091      -0.14301990      -0.03437116 </v>
   <v>      -0.03319363       0.11440721       0.24034545 </v>
   <v>       0.03119623      -0.11336549       0.24113948 </v>
   <v>      -0.19781277       0.15956512      -0.01882766 </v>
   <v>      -0.23019091      -0.14301990      -0.03437116 </v>
   <v>      -0.00842547       0.19077275      -0.18845909 </v>
   <v>       0.00800563      -0.19085354      -0.18873407 </v>
   <v>       0.23074145       0.14214700      -0.03580392 </v>
   <v>       0.19985928      -0.15996710      -0.02053718 </v>
   <v>      -0.11259298       0.00369259       1.23275614 </v>
   <v>       0.00421844       0.02716910      -0.15098632 </v>
   <v>       0.73533838       0.77914825      -0.60132526 </v>
   <v>      -0.74923720      -0.77693625      -0.59997154 </v>
   <v>       0.00804912      -0.02626681      -0.15088921 </v>
   <v>       0.11378431      -0.00698728       1.23554510 </v>
   <v>      -0.64983699      -0.80308638      -0.48711694 </v>
   <v>       0.62817782       0.80168908      -0.47972291 </v>
   <v>       0.00804912      -0.02626681      -0.15088921 </v>
   <v>       0.11378431      -0.00698728       1.23554510 </v>
   <v>      -0.64983699      -0.80308638      -0.48711694 </v>
   <v>       0.62817782       0.80168908      -0.47972291 </v>
   <v>      -0.11259298       0.00369259       1.23275614 </v>
   <v>       0.00421844       0.02716910      -0.15098632 </v>
   <v>       0.73533838       0.77914825      -0.60132526 </v>
   <v>      -0.74923720      -0.77693625      -0.59997154 </v>
  </varray>
  <varray name="stress" >
   <v>      -6.94767472       0.28287340      -0.03135400 </v>
   <v>       0.28287329     -14.53699664      -0.03377111 </v>
   <v>      -0.03135409      -0.03377122     -10.30634652 </v>
  </varray>
  <energy>
   <i name="e_fr_energy">   -317.12185004 </i>
   <i name="e_wo_entrp">   -317.12185004 </i>
   <i name="e_0_energy">      0.00000000 </i>
  </energy>
  <time name="totalsc"> 1546.37 1548.14</time>
  <eigenvalues>
   <array>
    <dimension dim="1">band</dimension>
    <dimension dim="2">kpoint</dimension>
    <dimension dim="3">spin</dimension>
    <field>eigene</field>
    <field>occ</field>
    <set>
     <set comment="spin 1">
      <set comment="kpoint 1">
       <r>  -40.1593    1.0000 </r>
       <r>  -40.1593    1.0000 </r>
       <r>  -39.8304    1.0000 </r>
       <r>  -39.8303    1.0000 </r>
       <r>  -39.8294    1.0000 </r>
       <r>  -39.8293    1.0000 </r>
       <r>  -39.7491    1.0000 </r>
       <r>  -39.7489    1.0000 </r>
       <r>  -39.7480    1.0000 </r>
       <r>  -39.7479    1.0000 </r>
       <r>  -39.4251    1.0000 </r>
       <r>  -39.4251    1.0000 </r>
       <r>  -18.8258    1.0000 </r>
       <r>  -18.8245    1.0000 </r>
       <r>  -18.8236    1.0000 </r>
       <r>  -18.8223    1.0000 </r>
       <r>  -18.7618    1.0000 </r>
       <r>  -18.7605    1.0000 </r>
       <r>  -18.7589    1.0000 </r>
       <r>  -18.7576    1.0000 </r>
       <r>  -18.7557    1.0000 </r>
       <r>  -18.7544    1.0000 </r>
       <r>  -18.7509    1.0000 </r>
       <r>  -18.7496    1.0000 </r>
       <r>  -18.6497    1.0000 </r>
       <r>  -18.6496    1.0000 </r>
       <r>  -18.6478    1.0000 </r>
       <r>  -18.6476    1.0000 </r>
       <r>  -18.6436    1.0000 </r>
       <r>  -18.6434    1.0000 </r>
       <r>  -18.6417    1.0000 </r>
       <r>  -18.6416    1.0000 </r>
       <r>  -18.6222    1.0000 </r>
       <r>  -18.6212    1.0000 </r>
       <r>  -18.6202    1.0000 </r>
       <r>  -18.6187    1.0000 </r>
       <r>  -18.6157    1.0000 </r>
       <r>  -18.6148    1.0000 </r>
       <r>  -18.6124    1.0000 </r>
       <r>  -18.6124    1.0000 </r>
       <r>  -18.6115    1.0000 </r>
       <r>  -18.6108    1.0000 </r>
       <r>  -18.6098    1.0000 </r>
       <r>  -18.6086    1.0000 </r>
       <r>  -18.6083    1.0000 </r>
       <r>  -18.6062    1.0000 </r>
       <r>  -18.6056    1.0000 </r>
       <r>  -18.6049    1.0000 </r>
       <r>  -18.6047    1.0000 </r>
       <r>  -18.6042    1.0000 </r>
       <r>  -18.6040    1.0000 </r>
       <r>  -18.6030    1.0000 </r>
       <r>  -18.5952    1.0000 </r>
       <r>  -18.5946    1.0000 </r>
       <r>  -18.5943    1.0000 </r>
       <r>  -18.5938    1.0000 </r>
       <r>  -18.4671    1.0000 </r>
       <r>  -18.4669    1.0000 </r>
       <r>  -18.4639    1.0000 </r>
       <r>  -18.4636    1.0000 </r>
       <r>  -18.4523    1.0000 </r>
       <r>  -18.4522    1.0000 </r>
       <r>  -18.4502    1.0000 </r>
       <r>  -18.4502    1.0000 </r>
       <r>  -18.4497    1.0000 </r>
       <r>  -18.4496    1.0000 </r>
       <r>  -18.4493    1.0000 </r>
       <r>  -18.4492    1.0000 </r>
       <r>  -18.4492    1.0000 </r>
       <r>  -18.4491    1.0000 </r>
       <r>  -18.4484    1.0000 </r>
       <r>  -18.4483    1.0000 </r>
       <r>  -18.4380    1.0000 </r>
       <r>  -18.4373    1.0000 </r>
       <r>  -18.4357    1.0000 </r>
       <r>  -18.4351    1.0000 </r>
       <r>  -18.4258    1.0000 </r>
       <r>  -18.4251    1.0000 </r>
       <r>  -18.4219    1.0000 </r>
       <r>  -18.4213    1.0000 </r>
       <r>  -18.3505    1.0000 </r>
       <r>  -18.3496    1.0000 </r>
       <r>  -18.3492    1.0000 </r>
       <r>  -18.3484    1.0000 </r>
       <r>  -18.2316    1.0000 </r>
       <r>  -18.2314    1.0000 </r>
       <r>  -18.2305    1.0000 </r>
       <r>  -18.2303    1.0000 </r>
       <r>  -18.2221    1.0000 </r>
       <r>  -18.2219    1.0000 </r>
       <r>  -18.2210    1.0000 </r>
       <r>  -18.2208    1.0000 </r>
       <r>  -13.4445    1.0000 </r>
       <r>  -13.4356    1.0000 </r>
       <r>  -13.3327    1.0000 </r>
       <r>  -13.3303    1.0000 </r>
       <r>  -12.7607    1.0000 </r>
       <r>  -12.7594    1.0000 </r>
       <r>  -12.6744    1.0000 </r>
       <r>  -12.6682    1.0000 </r>
       <r>  -12.6587    1.0000 </r>
       <r>  -12.6527    1.0000 </r>
       <r>  -12.5999    1.0000 </r>
       <r>  -12.5888    1.0000 </r>
       <r>  -12.0280    1.0000 </r>
       <r>  -12.0202    1.0000 </r>
       <r>  -11.9741    1.0000 </r>
       <r>  -11.9677    1.0000 </r>
       <r>   -9.2821    1.0000 </r>
       <r>   -8.9873    1.0000 </r>
       <r>   -8.5423    1.0000 </r>
       <r>   -8.4537    1.0000 </r>
       <r>   -8.4523    1.0000 </r>
       <r>   -8.3621    1.0000 </r>
       <r>   -8.3170    1.0000 </r>
       <r>   -8.2275    1.0000 </r>
       <r>   -8.2259    1.0000 </r>
       <r>   -8.1358    1.0000 </r>
       <r>   -7.9975    1.0000 </r>
       <r>   -7.9966    1.0000 </r>
       <r>   -7.9933    1.0000 </r>
       <r>   -7.9924    1.0000 </r>
       <r>   -7.3251    1.0000 </r>
       <r>   -7.3245    1.0000 </r>
       <r>   -6.3417    1.0000 </r>
       <r>   -6.3373    1.0000 </r>
       <r>   -6.3120    1.0000 </r>
       <r>   -6.3099    1.0000 </r>
       <r>   -5.4654    1.0000 </r>
       <r>   -5.3893    1.0000 </r>
       <r>   -5.3883    1.0000 </r>
       <r>   -5.3878    1.0000 </r>
       <r>   -5.3075    1.0000 </r>
       <r>   -5.2263    1.0000 </r>
       <r>   -5.2246    1.0000 </r>
       <r>   -5.1361    1.0000 </r>
       <r>   -5.0459    1.0000 </r>
       <r>   -4.9617    1.0000 </r>
       <r>   -3.7796    1.0000 </r>
       <r>   -3.6266    1.0000 </r>
       <r>   -1.3792    1.0000 </r>
       <r>   -1.2877    1.0000 </r>
       <r>   -1.0461    1.0000 </r>
       <r>   -0.9819    1.0000 </r>
       <r>   -0.5820    1.0000 </r>
       <r>   -0.4615    1.0000 </r>
       <r>   -0.4469    1.0000 </r>
       <r>   -0.4052    1.0000 </r>
       <r>   -0.1790    1.0000 </r>
       <r>   -0.1385    1.0000 </r>
       <r>   -0.1291    1.0000 </r>
       <r>   -0.0887    1.0000 </r>
       <r>    0.0739    1.0000 </r>
       <r>    0.2120    1.0000 </r>
       <r>    0.3789    1.0000 </r>
       <r>    0.3982    1.0000 </r>
       <r>    0.4362    1.0000 </r>
       <r>    0.4982    1.0000 </r>
       <r>    0.5779    1.0000 </r>
       <r>    0.6601    1.0000 </r>
       <r>    0.7104    1.0000 </r>
       <r>    0.7584    1.0000 </r>
       <r>    0.7656    1.0000 </r>
       <r>    0.7987    1.0000 </r>
       <r>    0.8005    1.0000 </r>
       <r>    0.8032    1.0000 </r>
       <r>    0.9392    1.0000 </r>
       <r>    0.9767    1.0000 </r>
       <r>    1.0518    1.0000 </r>
       <r>    1.0578    1.0000 </r>
       <r>    1.1555    1.0000 </r>
       <r>    1.1728    1.0000 </r>
       <r>    1.2069    1.0000 </r>
       <r>    1.2348    1.0000 </r>
       <r>    1.2422    1.0000 </r>
       <r>    1.2779    1.0000 </r>
       <r>    1.3196    1.0000 </r>
       <r>    1.3362    1.0000 </r>
       <r>    1.4265    1.0000 </r>
       <r>    1.5010    1.0000 </r>
       <r>    1.5644    1.0000 </r>
       <r>    1.5777    1.0000 </r>
       <r>    1.5896    1.0000 </r>
       <r>    1.6512    1.0000 </r>
       <r>    1.6892    1.0000 </r>
       <r>    1.7055    1.0000 </r>
       <r>    1.7232    1.0000 </r>
       <r>    1.7984    1.0000 </r>
       <r>    1.8503    1.0000 </r>
       <r>    1.9705    1.0000 </r>
       <r>    1.9866    1.0000 </r>
       <r>    2.0743    1.0000 </r>
       <r>    2.0774    1.0000 </r>
       <r>    2.1559    1.0000 </r>
       <r>    2.3123    1.0000 </r>
       <r>    2.3199    1.0000 </r>
       <r>    2.4740    1.0000 </r>
       <r>    2.4845    1.0000 </r>
       <r>    2.5147    1.0000 </r>
       <r>    2.5214    1.0000 </r>
       <r>    2.6098    1.0000 </r>
       <r>    2.6166    1.0000 </r>
       <r>    2.6245    1.0000 </r>
       <r>    2.6351    1.0000 </r>
       <r>    2.6723    1.0000 </r>
       <r>    2.6977    1.0000 </r>
       <r>    2.7236    1.0000 </r>
       <r>    2.7461    1.0000 </r>
       <r>    2.7728    1.0000 </r>
       <r>    2.8507    1.0000 </r>
       <r>    2.8612    1.0000 </r>
       <r>    2.8687    1.0000 </r>
       <r>    2.8981    1.0000 </r>
       <r>    2.9059    1.0000 </r>
       <r>    3.0168    1.0000 </r>
       <r>    3.0340    1.0000 </r>
       <r>    3.0611    1.0000 </r>
       <r>    3.0780    1.0000 </r>
       <r>    3.1122    1.0000 </r>
       <r>    3.1248    1.0000 </r>
       <r>    3.1348    1.0000 </r>
       <r>    3.1619    1.0000 </r>
       <r>    3.1931    1.0000 </r>
       <r>    3.2373    1.0000 </r>
       <r>    3.2516    1.0000 </r>
       <r>    3.2663    1.0000 </r>
       <r>    3.3425    1.0000 </r>
       <r>    3.3980    1.0000 </r>
       <r>    3.4101    1.0000 </r>
       <r>    3.4784    1.0000 </r>
       <r>    3.5054    1.0000 </r>
       <r>    3.6313    1.0000 </r>
       <r>    4.2191    1.0000 </r>
       <r>    4.2251    1.0000 </r>
       <r>    4.2457    1.0000 </r>
       <r>    4.2523    1.0000 </r>
       <r>    5.1134    0.0000 </r>
       <r>    5.1158    0.0000 </r>
       <r>    5.1855    0.0000 </r>
       <r>    5.1987    0.0000 </r>
       <r>    5.7999    0.0000 </r>
       <r>    5.8049    0.0000 </r>
       <r>    5.8477    0.0000 </r>
       <r>    5.8544    0.0000 </r>
       <r>    6.0951    0.0000 </r>
       <r>    6.1442    0.0000 </r>
       <r>    6.1500    0.0000 </r>
       <r>    6.1749    0.0000 </r>
       <r>    6.2450    0.0000 </r>
       <r>    6.2757    0.0000 </r>
       <r>    6.2809    0.0000 </r>
       <r>    6.2955    0.0000 </r>
       <r>    7.1467    0.0000 </r>
       <r>    7.2600    0.0000 </r>
       <r>    7.3361    0.0000 </r>
       <r>    7.3443    0.0000 </r>
       <r>    7.6940    0.0000 </r>
       <r>    7.7284    0.0000 </r>
       <r>    7.9504    0.0000 </r>
       <r>    7.9752    0.0000 </r>
       <r>    8.0578    0.0000 </r>
       <r>    8.1294    0.0000 </r>
       <r>    8.3084    0.0000 </r>
       <r>    8.3761    0.0000 </r>
       <r>    8.4520    0.0000 </r>
       <r>    8.6754    0.0000 </r>
       <r>    8.7096    0.0000 </r>
       <r>    8.7863    0.0000 </r>
       <r>    8.7929    0.0000 </r>
       <r>    8.9688    0.0000 </r>
       <r>    9.0294    0.0000 </r>
       <r>    9.0331    0.0000 </r>
       <r>    9.0417    0.0000 </r>
       <r>    9.0876    0.0000 </r>
       <r>    9.0886    0.0000 </r>
       <r>    9.1603    0.0000 </r>
       <r>    9.1735    0.0000 </r>
       <r>    9.2106    0.0000 </r>
       <r>    9.2120    0.0000 </r>
       <r>    9.2820    0.0000 </r>
       <r>    9.5058    0.0000 </r>
       <r>    9.5347    0.0000 </r>
       <r>    9.5428    0.0000 </r>
       <r>    9.5672    0.0000 </r>
       <r>    9.6700    0.0000 </r>
       <r>    9.6944    0.0000 </r>
       <r>    9.7036    0.0000 </r>
       <r>    9.7467    0.0000 </r>
       <r>   10.2343    0.0000 </r>
       <r>   10.2565    0.0000 </r>
       <r>   10.2809    0.0000 </r>
       <r>   10.3258    0.0000 </r>
       <r>   10.5590    0.0000 </r>
       <r>   10.5887    0.0000 </r>
       <r>   10.6065    0.0000 </r>
       <r>   10.6296    0.0000 </r>
       <r>   10.6335    0.0000 </r>
       <r>   10.9438    0.0000 </r>
       <r>   10.9971    0.0000 </r>
       <r>   11.0472    0.0000 </r>
       <r>   11.3347    0.0000 </r>
       <r>   11.4750    0.0000 </r>
       <r>   11.5732    0.0000 </r>
       <r>   11.5999    0.0000 </r>
       <r>   11.7010    0.0000 </r>
       <r>   11.8575    0.0000 </r>
       <r>   12.0208    0.0000 </r>
       <r>   12.0257    0.0000 </r>
      </set>
      <set comment="kpoint 2">
       <r>  -40.1593    1.0000 </r>
       <r>  -40.1593    1.0000 </r>
       <r>  -39.8304    1.0000 </r>
       <r>  -39.8303    1.0000 </r>
       <r>  -39.8294    1.0000 </r>
       <r>  -39.8293    1.0000 </r>
       <r>  -39.7491    1.0000 </r>
       <r>  -39.7489    1.0000 </r>
       <r>  -39.7480    1.0000 </r>
       <r>  -39.7479    1.0000 </r>
       <r>  -39.4251    1.0000 </r>
       <r>  -39.4251    1.0000 </r>
       <r>  -18.8251    1.0000 </r>
       <r>  -18.8251    1.0000 </r>
       <r>  -18.8229    1.0000 </r>
       <r>  -18.8229    1.0000 </r>
       <r>  -18.7603    1.0000 </r>
       <r>  -18.7603    1.0000 </r>
       <r>  -18.7590    1.0000 </r>
       <r>  -18.7590    1.0000 </r>
       <r>  -18.7533    1.0000 </r>
       <r>  -18.7533    1.0000 </r>
       <r>  -18.7521    1.0000 </r>
       <r>  -18.7520    1.0000 </r>
       <r>  -18.6497    1.0000 </r>
       <r>  -18.6496    1.0000 </r>
       <r>  -18.6477    1.0000 </r>
       <r>  -18.6477    1.0000 </r>
       <r>  -18.6435    1.0000 </r>
       <r>  -18.6435    1.0000 </r>
       <r>  -18.6417    1.0000 </r>
       <r>  -18.6416    1.0000 </r>
       <r>  -18.6214    1.0000 </r>
       <r>  -18.6214    1.0000 </r>
       <r>  -18.6191    1.0000 </r>
       <r>  -18.6190    1.0000 </r>
       <r>  -18.6142    1.0000 </r>
       <r>  -18.6142    1.0000 </r>
       <r>  -18.6134    1.0000 </r>
       <r>  -18.6134    1.0000 </r>
       <r>  -18.6115    1.0000 </r>
       <r>  -18.6115    1.0000 </r>
       <r>  -18.6090    1.0000 </r>
       <r>  -18.6089    1.0000 </r>
       <r>  -18.6075    1.0000 </r>
       <r>  -18.6075    1.0000 </r>
       <r>  -18.6047    1.0000 </r>
       <r>  -18.6046    1.0000 </r>
       <r>  -18.6045    1.0000 </r>
       <r>  -18.6045    1.0000 </r>
       <r>  -18.6039    1.0000 </r>
       <r>  -18.6038    1.0000 </r>
       <r>  -18.5951    1.0000 </r>
       <r>  -18.5950    1.0000 </r>
       <r>  -18.5946    1.0000 </r>
       <r>  -18.5946    1.0000 </r>
       <r>  -18.4670    1.0000 </r>
       <r>  -18.4670    1.0000 </r>
       <r>  -18.4638    1.0000 </r>
       <r>  -18.4637    1.0000 </r>
       <r>  -18.4522    1.0000 </r>
       <r>  -18.4522    1.0000 </r>
       <r>  -18.4503    1.0000 </r>
       <r>  -18.4502    1.0000 </r>
       <r>  -18.4497    1.0000 </r>
       <r>  -18.4496    1.0000 </r>
       <r>  -18.4492    1.0000 </r>
       <r>  -18.4492    1.0000 </r>
       <r>  -18.4489    1.0000 </r>
       <r>  -18.4489    1.0000 </r>
       <r>  -18.4486    1.0000 </r>
       <r>  -18.4486    1.0000 </r>
       <r>  -18.4368    1.0000 </r>
       <r>  -18.4368    1.0000 </r>
       <r>  -18.4362    1.0000 </r>
       <r>  -18.4362    1.0000 </r>
       <r>  -18.4238    1.0000 </r>
       <r>  -18.4238    1.0000 </r>
       <r>  -18.4232    1.0000 </r>
       <r>  -18.4232    1.0000 </r>
       <r>  -18.3499    1.0000 </r>
       <r>  -18.3499    1.0000 </r>
       <r>  -18.3490    1.0000 </r>
       <r>  -18.3490    1.0000 </r>
       <r>  -18.2315    1.0000 </r>
       <r>  -18.2315    1.0000 </r>
       <r>  -18.2304    1.0000 </r>
       <r>  -18.2304    1.0000 </r>
       <r>  -18.2220    1.0000 </r>
       <r>  -18.2220    1.0000 </r>
       <r>  -18.2209    1.0000 </r>
       <r>  -18.2209    1.0000 </r>
       <r>  -13.4398    1.0000 </r>
       <r>  -13.4398    1.0000 </r>
       <r>  -13.3317    1.0000 </r>
       <r>  -13.3317    1.0000 </r>
       <r>  -12.7510    1.0000 </r>
       <r>  -12.7510    1.0000 </r>
       <r>  -12.7000    1.0000 </r>
       <r>  -12.7000    1.0000 </r>
       <r>  -12.6332    1.0000 </r>
       <r>  -12.6332    1.0000 </r>
       <r>  -12.5971    1.0000 </r>
       <r>  -12.5971    1.0000 </r>
       <r>  -12.0246    1.0000 </r>
       <r>  -12.0246    1.0000 </r>
       <r>  -11.9705    1.0000 </r>
       <r>  -11.9705    1.0000 </r>
       <r>   -9.0720    1.0000 </r>
       <r>   -9.0720    1.0000 </r>
       <r>   -8.7967    1.0000 </r>
       <r>   -8.7967    1.0000 </r>
       <r>   -8.2910    1.0000 </r>
       <r>   -8.2910    1.0000 </r>
       <r>   -8.2840    1.0000 </r>
       <r>   -8.2840    1.0000 </r>
       <r>   -8.1027    1.0000 </r>
       <r>   -8.1027    1.0000 </r>
       <r>   -8.0975    1.0000 </r>
       <r>   -8.0975    1.0000 </r>
       <r>   -7.6599    1.0000 </r>
       <r>   -7.6599    1.0000 </r>
       <r>   -7.5473    1.0000 </r>
       <r>   -7.5473    1.0000 </r>
       <r>   -5.9275    1.0000 </r>
       <r>   -5.9275    1.0000 </r>
       <r>   -5.8577    1.0000 </r>
       <r>   -5.8577    1.0000 </r>
       <r>   -5.8119    1.0000 </r>
       <r>   -5.8119    1.0000 </r>
       <r>   -5.7073    1.0000 </r>
       <r>   -5.7073    1.0000 </r>
       <r>   -5.5470    1.0000 </r>
       <r>   -5.5470    1.0000 </r>
       <r>   -5.4635    1.0000 </r>
       <r>   -5.4635    1.0000 </r>
       <r>   -4.3912    1.0000 </r>
       <r>   -4.3912    1.0000 </r>
       <r>   -4.2236    1.0000 </r>
       <r>   -4.2236    1.0000 </r>
       <r>   -1.1015    1.0000 </r>
       <r>   -1.1015    1.0000 </r>
       <r>   -0.7751    1.0000 </r>
       <r>   -0.7751    1.0000 </r>
       <r>   -0.3391    1.0000 </r>
       <r>   -0.3391    1.0000 </r>
       <r>    0.0502    1.0000 </r>
       <r>    0.0502    1.0000 </r>
       <r>    0.1206    1.0000 </r>
       <r>    0.1206    1.0000 </r>
       <r>    0.2379    1.0000 </r>
       <r>    0.2379    1.0000 </r>
       <r>    0.2833    1.0000 </r>
       <r>    0.2833    1.0000 </r>
       <r>    0.2934    1.0000 </r>
       <r>    0.2934    1.0000 </r>
       <r>    0.4313    1.0000 </r>
       <r>    0.4313    1.0000 </r>
       <r>    0.5865    1.0000 </r>
       <r>    0.5865    1.0000 </r>
       <r>    0.6148    1.0000 </r>
       <r>    0.6149    1.0000 </r>
       <r>    0.6373    1.0000 </r>
       <r>    0.6373    1.0000 </r>
       <r>    0.8160    1.0000 </r>
       <r>    0.8160    1.0000 </r>
       <r>    0.9963    1.0000 </r>
       <r>    0.9963    1.0000 </r>
       <r>    1.0608    1.0000 </r>
       <r>    1.0608    1.0000 </r>
       <r>    1.1205    1.0000 </r>
       <r>    1.1205    1.0000 </r>
       <r>    1.2325    1.0000 </r>
       <r>    1.2325    1.0000 </r>
       <r>    1.3234    1.0000 </r>
       <r>    1.3234    1.0000 </r>
       <r>    1.4002    1.0000 </r>
       <r>    1.4002    1.0000 </r>
       <r>    1.4298    1.0000 </r>
       <r>    1.4298    1.0000 </r>
       <r>    1.4824    1.0000 </r>
       <r>    1.4824    1.0000 </r>
       <r>    1.5290    1.0000 </r>
       <r>    1.5290    1.0000 </r>
       <r>    1.6452    1.0000 </r>
       <r>    1.6452    1.0000 </r>
       <r>    1.7441    1.0000 </r>
       <r>    1.7442    1.0000 </r>
       <r>    1.8536    1.0000 </r>
       <r>    1.8536    1.0000 </r>
       <r>    1.9383    1.0000 </r>
       <r>    1.9383    1.0000 </r>
       <r>    2.0267    1.0000 </r>
       <r>    2.0267    1.0000 </r>
       <r>    2.1053    1.0000 </r>
       <r>    2.1053    1.0000 </r>
       <r>    2.1490    1.0000 </r>
       <r>    2.1490    1.0000 </r>
       <r>    2.2843    1.0000 </r>
       <r>    2.2843    1.0000 </r>
       <r>    2.4347    1.0000 </r>
       <r>    2.4347    1.0000 </r>
       <r>    2.4670    1.0000 </r>
       <r>    2.4670    1.0000 </r>
       <r>    2.5324    1.0000 </r>
       <r>    2.5324    1.0000 </r>
       <r>    2.6488    1.0000 </r>
       <r>    2.6488    1.0000 </r>
       <r>    2.6627    1.0000 </r>
       <r>    2.6627    1.0000 </r>
       <r>    2.7344    1.0000 </r>
       <r>    2.7344    1.0000 </r>
       <r>    2.8508    1.0000 </r>
       <r>    2.8508    1.0000 </r>
       <r>    2.9037    1.0000 </r>
       <r>    2.9037    1.0000 </r>
       <r>    3.0043    1.0000 </r>
       <r>    3.0043    1.0000 </r>
       <r>    3.0287    1.0000 </r>
       <r>    3.0287    1.0000 </r>
       <r>    3.1174    1.0000 </r>
       <r>    3.1174    1.0000 </r>
       <r>    3.1596    1.0000 </r>
       <r>    3.1596    1.0000 </r>
       <r>    3.2468    1.0000 </r>
       <r>    3.2468    1.0000 </r>
       <r>    3.3714    1.0000 </r>
       <r>    3.3714    1.0000 </r>
       <r>    3.5388    1.0000 </r>
       <r>    3.5388    1.0000 </r>
       <r>    3.5787    1.0000 </r>
       <r>    3.5787    1.0000 </r>
       <r>    3.6011    1.0000 </r>
       <r>    3.6011    1.0000 </r>
       <r>    3.7065    1.0000 </r>
       <r>    3.7065    1.0000 </r>
       <r>    5.7112    0.0000 </r>
       <r>    5.7112    0.0000 </r>
       <r>    5.7233    0.0000 </r>
       <r>    5.7233    0.0000 </r>
       <r>    5.8112    0.0000 </r>
       <r>    5.8112    0.0000 </r>
       <r>    5.8187    0.0000 </r>
       <r>    5.8187    0.0000 </r>
       <r>    7.3184    0.0000 </r>
       <r>    7.3184    0.0000 </r>
       <r>    7.3654    0.0000 </r>
       <r>    7.3654    0.0000 </r>
       <r>    7.3811    0.0000 </r>
       <r>    7.3811    0.0000 </r>
       <r>    7.4890    0.0000 </r>
       <r>    7.4890    0.0000 </r>
       <r>    7.5155    0.0000 </r>
       <r>    7.5155    0.0000 </r>
       <r>    7.5560    0.0000 </r>
       <r>    7.5560    0.0000 </r>
       <r>    7.8536    0.0000 </r>
       <r>    7.8536    0.0000 </r>
       <r>    7.8859    0.0000 </r>
       <r>    7.8859    0.0000 </r>
       <r>    7.8966    0.0000 </r>
       <r>    7.8966    0.0000 </r>
       <r>    7.9764    0.0000 </r>
       <r>    7.9764    0.0000 </r>
       <r>    8.0627    0.0000 </r>
       <r>    8.0627    0.0000 </r>
       <r>    8.1666    0.0000 </r>
       <r>    8.1666    0.0000 </r>
       <r>    8.4016    0.0000 </r>
       <r>    8.4016    0.0000 </r>
       <r>    8.5534    0.0000 </r>
       <r>    8.5534    0.0000 </r>
       <r>    8.7125    0.0000 </r>
       <r>    8.7125    0.0000 </r>
       <r>    8.7973    0.0000 </r>
       <r>    8.7973    0.0000 </r>
       <r>    8.8531    0.0000 </r>
       <r>    8.8531    0.0000 </r>
       <r>    8.9550    0.0000 </r>
       <r>    8.9550    0.0000 </r>
       <r>    9.2271    0.0000 </r>
       <r>    9.2271    0.0000 </r>
       <r>    9.4925    0.0000 </r>
       <r>    9.4925    0.0000 </r>
       <r>    9.5556    0.0000 </r>
       <r>    9.5556    0.0000 </r>
       <r>   10.3023    0.0000 </r>
       <r>   10.3023    0.0000 </r>
       <r>   10.5349    0.0000 </r>
       <r>   10.5349    0.0000 </r>
       <r>   10.5622    0.0000 </r>
       <r>   10.5622    0.0000 </r>
       <r>   10.7315    0.0000 </r>
       <r>   10.7315    0.0000 </r>
       <r>   10.8271    0.0000 </r>
       <r>   10.8271    0.0000 </r>
       <r>   10.8972    0.0000 </r>
       <r>   10.8972    0.0000 </r>
       <r>   10.9363    0.0000 </r>
       <r>   10.9363    0.0000 </r>
       <r>   11.2872    0.0000 </r>
       <r>   11.2872    0.0000 </r>
       <r>   11.3185    0.0000 </r>
       <r>   11.3185    0.0000 </r>
       <r>   11.4442    0.0000 </r>
       <r>   11.4442    0.0000 </r>
       <r>   11.5477    0.0000 </r>
       <r>   11.5479    0.0000 </r>
      </set>
      <set comment="kpoint 3">
       <r>  -40.1593    1.0000 </r>
       <r>  -40.1593    1.0000 </r>
       <r>  -39.8304    1.0000 </r>
       <r>  -39.8303    1.0000 </r>
       <r>  -39.8294    1.0000 </r>
       <r>  -39.8293    1.0000 </r>
       <r>  -39.7491    1.0000 </r>
       <r>  -39.7489    1.0000 </r>
       <r>  -39.7480    1.0000 </r>
       <r>  -39.7478    1.0000 </r>
       <r>  -39.4251    1.0000 </r>
       <r>  -39.4251    1.0000 </r>
       <r>  -18.8260    1.0000 </r>
       <r>  -18.8247    1.0000 </r>
       <r>  -18.8234    1.0000 </r>
       <r>  -18.8221    1.0000 </r>
       <r>  -18.7618    1.0000 </r>
       <r>  -18.7605    1.0000 </r>
       <r>  -18.7589    1.0000 </r>
       <r>  -18.7576    1.0000 </r>
       <r>  -18.7557    1.0000 </r>
       <r>  -18.7544    1.0000 </r>
       <r>  -18.7509    1.0000 </r>
       <r>  -18.7496    1.0000 </r>
       <r>  -18.6497    1.0000 </r>
       <r>  -18.6495    1.0000 </r>
       <r>  -18.6478    1.0000 </r>
       <r>  -18.6476    1.0000 </r>
       <r>  -18.6436    1.0000 </r>
       <r>  -18.6434    1.0000 </r>
       <r>  -18.6417    1.0000 </r>
       <r>  -18.6416    1.0000 </r>
       <r>  -18.6222    1.0000 </r>
       <r>  -18.6212    1.0000 </r>
       <r>  -18.6202    1.0000 </r>
       <r>  -18.6187    1.0000 </r>
       <r>  -18.6157    1.0000 </r>
       <r>  -18.6148    1.0000 </r>
       <r>  -18.6124    1.0000 </r>
       <r>  -18.6123    1.0000 </r>
       <r>  -18.6115    1.0000 </r>
       <r>  -18.6108    1.0000 </r>
       <r>  -18.6098    1.0000 </r>
       <r>  -18.6087    1.0000 </r>
       <r>  -18.6083    1.0000 </r>
       <r>  -18.6062    1.0000 </r>
       <r>  -18.6056    1.0000 </r>
       <r>  -18.6049    1.0000 </r>
       <r>  -18.6047    1.0000 </r>
       <r>  -18.6042    1.0000 </r>
       <r>  -18.6040    1.0000 </r>
       <r>  -18.6030    1.0000 </r>
       <r>  -18.5954    1.0000 </r>
       <r>  -18.5945    1.0000 </r>
       <r>  -18.5944    1.0000 </r>
       <r>  -18.5937    1.0000 </r>
       <r>  -18.4671    1.0000 </r>
       <r>  -18.4669    1.0000 </r>
       <r>  -18.4639    1.0000 </r>
       <r>  -18.4636    1.0000 </r>
       <r>  -18.4523    1.0000 </r>
       <r>  -18.4522    1.0000 </r>
       <r>  -18.4502    1.0000 </r>
       <r>  -18.4502    1.0000 </r>
       <r>  -18.4497    1.0000 </r>
       <r>  -18.4496    1.0000 </r>
       <r>  -18.4493    1.0000 </r>
       <r>  -18.4492    1.0000 </r>
       <r>  -18.4492    1.0000 </r>
       <r>  -18.4491    1.0000 </r>
       <r>  -18.4484    1.0000 </r>
       <r>  -18.4484    1.0000 </r>
       <r>  -18.4380    1.0000 </r>
       <r>  -18.4373    1.0000 </r>
       <r>  -18.4357    1.0000 </r>
       <r>  -18.4351    1.0000 </r>
       <r>  -18.4258    1.0000 </r>
       <r>  -18.4251    1.0000 </r>
       <r>  -18.4219    1.0000 </r>
       <r>  -18.4213    1.0000 </r>
       <r>  -18.3506    1.0000 </r>
       <r>  -18.3494    1.0000 </r>
       <r>  -18.3494    1.0000 </r>
       <r>  -18.3483    1.0000 </r>
       <r>  -18.2316    1.0000 </r>
       <r>  -18.2314    1.0000 </r>
       <r>  -18.2305    1.0000 </r>
       <r>  -18.2303    1.0000 </r>
       <r>  -18.2221    1.0000 </r>
       <r>  -18.2219    1.0000 </r>
       <r>  -18.2210    1.0000 </r>
       <r>  -18.2209    1.0000 </r>
       <r>  -13.4440    1.0000 </r>
       <r>  -13.4355    1.0000 </r>
       <r>  -13.3327    1.0000 </r>
       <r>  -13.3307    1.0000 </r>
       <r>  -12.7595    1.0000 </r>
       <r>  -12.7589    1.0000 </r>
       <r>  -12.6744    1.0000 </r>
       <r>  -12.6685    1.0000 </r>
       <r>  -12.6586    1.0000 </r>
       <r>  -12.6525    1.0000 </r>
       <r>  -12.6015    1.0000 </r>
       <r>  -12.5894    1.0000 </r>
       <r>  -12.0274    1.0000 </r>
       <r>  -12.0189    1.0000 </r>
       <r>  -11.9762    1.0000 </r>
       <r>  -11.9686    1.0000 </r>
       <r>   -9.2724    1.0000 </r>
       <r>   -8.9940    1.0000 </r>
       <r>   -8.5616    1.0000 </r>
       <r>   -8.4721    1.0000 </r>
       <r>   -8.4705    1.0000 </r>
       <r>   -8.3795    1.0000 </r>
       <r>   -8.2948    1.0000 </r>
       <r>   -8.2064    1.0000 </r>
       <r>   -8.2051    1.0000 </r>
       <r>   -8.1160    1.0000 </r>
       <r>   -8.0014    1.0000 </r>
       <r>   -8.0010    1.0000 </r>
       <r>   -7.9979    1.0000 </r>
       <r>   -7.9956    1.0000 </r>
       <r>   -7.3280    1.0000 </r>
       <r>   -7.3272    1.0000 </r>
       <r>   -6.3311    1.0000 </r>
       <r>   -6.3281    1.0000 </r>
       <r>   -6.3019    1.0000 </r>
       <r>   -6.3000    1.0000 </r>
       <r>   -5.5154    1.0000 </r>
       <r>   -5.4022    1.0000 </r>
       <r>   -5.3807    1.0000 </r>
       <r>   -5.3801    1.0000 </r>
       <r>   -5.3535    1.0000 </r>
       <r>   -5.2446    1.0000 </r>
       <r>   -5.1839    1.0000 </r>
       <r>   -5.0809    1.0000 </r>
       <r>   -5.0197    1.0000 </r>
       <r>   -4.9175    1.0000 </r>
       <r>   -3.8519    1.0000 </r>
       <r>   -3.5428    1.0000 </r>
       <r>   -1.3048    1.0000 </r>
       <r>   -1.2484    1.0000 </r>
       <r>   -1.1496    1.0000 </r>
       <r>   -1.0345    1.0000 </r>
       <r>   -0.4338    1.0000 </r>
       <r>   -0.4180    1.0000 </r>
       <r>   -0.3791    1.0000 </r>
       <r>   -0.3693    1.0000 </r>
       <r>   -0.3432    1.0000 </r>
       <r>   -0.2558    1.0000 </r>
       <r>   -0.2330    1.0000 </r>
       <r>   -0.1762    1.0000 </r>
       <r>   -0.0125    1.0000 </r>
       <r>    0.0105    1.0000 </r>
       <r>    0.0122    1.0000 </r>
       <r>    0.1688    1.0000 </r>
       <r>    0.3273    1.0000 </r>
       <r>    0.3789    1.0000 </r>
       <r>    0.3920    1.0000 </r>
       <r>    0.4494    1.0000 </r>
       <r>    0.4997    1.0000 </r>
       <r>    0.5200    1.0000 </r>
       <r>    0.7189    1.0000 </r>
       <r>    0.7592    1.0000 </r>
       <r>    0.8242    1.0000 </r>
       <r>    0.8261    1.0000 </r>
       <r>    0.8551    1.0000 </r>
       <r>    1.0136    1.0000 </r>
       <r>    1.0828    1.0000 </r>
       <r>    1.1099    1.0000 </r>
       <r>    1.2083    1.0000 </r>
       <r>    1.2897    1.0000 </r>
       <r>    1.3049    1.0000 </r>
       <r>    1.3309    1.0000 </r>
       <r>    1.3525    1.0000 </r>
       <r>    1.4324    1.0000 </r>
       <r>    1.4677    1.0000 </r>
       <r>    1.5268    1.0000 </r>
       <r>    1.5439    1.0000 </r>
       <r>    1.6197    1.0000 </r>
       <r>    1.6381    1.0000 </r>
       <r>    1.6703    1.0000 </r>
       <r>    1.7023    1.0000 </r>
       <r>    1.7521    1.0000 </r>
       <r>    1.8189    1.0000 </r>
       <r>    1.8571    1.0000 </r>
       <r>    1.8992    1.0000 </r>
       <r>    1.9501    1.0000 </r>
       <r>    1.9527    1.0000 </r>
       <r>    1.9878    1.0000 </r>
       <r>    2.1078    1.0000 </r>
       <r>    2.1148    1.0000 </r>
       <r>    2.1275    1.0000 </r>
       <r>    2.2840    1.0000 </r>
       <r>    2.3286    1.0000 </r>
       <r>    2.4409    1.0000 </r>
       <r>    2.4876    1.0000 </r>
       <r>    2.5097    1.0000 </r>
       <r>    2.5533    1.0000 </r>
       <r>    2.5742    1.0000 </r>
       <r>    2.6067    1.0000 </r>
       <r>    2.6070    1.0000 </r>
       <r>    2.6216    1.0000 </r>
       <r>    2.6223    1.0000 </r>
       <r>    2.6573    1.0000 </r>
       <r>    2.6649    1.0000 </r>
       <r>    2.7139    1.0000 </r>
       <r>    2.7831    1.0000 </r>
       <r>    2.7995    1.0000 </r>
       <r>    2.8238    1.0000 </r>
       <r>    2.8346    1.0000 </r>
       <r>    2.8669    1.0000 </r>
       <r>    2.9003    1.0000 </r>
       <r>    2.9173    1.0000 </r>
       <r>    2.9725    1.0000 </r>
       <r>    2.9882    1.0000 </r>
       <r>    2.9976    1.0000 </r>
       <r>    3.0235    1.0000 </r>
       <r>    3.0582    1.0000 </r>
       <r>    3.1028    1.0000 </r>
       <r>    3.1042    1.0000 </r>
       <r>    3.1698    1.0000 </r>
       <r>    3.2177    1.0000 </r>
       <r>    3.2916    1.0000 </r>
       <r>    3.3291    1.0000 </r>
       <r>    3.3314    1.0000 </r>
       <r>    3.4525    1.0000 </r>
       <r>    3.4887    1.0000 </r>
       <r>    3.4945    1.0000 </r>
       <r>    3.5418    1.0000 </r>
       <r>    3.5426    1.0000 </r>
       <r>    3.6829    1.0000 </r>
       <r>    4.2675    1.0000 </r>
       <r>    4.2744    1.0000 </r>
       <r>    4.3002    1.0000 </r>
       <r>    4.3012    1.0000 </r>
       <r>    5.1825    0.0000 </r>
       <r>    5.1880    0.0000 </r>
       <r>    5.2530    0.0000 </r>
       <r>    5.2591    0.0000 </r>
       <r>    5.8062    0.0000 </r>
       <r>    5.8131    0.0000 </r>
       <r>    5.8542    0.0000 </r>
       <r>    5.8620    0.0000 </r>
       <r>    6.1649    0.0000 </r>
       <r>    6.2018    0.0000 </r>
       <r>    6.2036    0.0000 </r>
       <r>    6.2251    0.0000 </r>
       <r>    6.2495    0.0000 </r>
       <r>    6.2828    0.0000 </r>
       <r>    6.2917    0.0000 </r>
       <r>    6.3085    0.0000 </r>
       <r>    6.8218    0.0000 </r>
       <r>    7.0035    0.0000 </r>
       <r>    7.0383    0.0000 </r>
       <r>    7.0825    0.0000 </r>
       <r>    7.0899    0.0000 </r>
       <r>    7.4171    0.0000 </r>
       <r>    7.4539    0.0000 </r>
       <r>    7.6755    0.0000 </r>
       <r>    7.7859    0.0000 </r>
       <r>    7.8476    0.0000 </r>
       <r>    7.9594    0.0000 </r>
       <r>    8.0553    0.0000 </r>
       <r>    8.1594    0.0000 </r>
       <r>    8.3040    0.0000 </r>
       <r>    8.3107    0.0000 </r>
       <r>    8.5038    0.0000 </r>
       <r>    8.7361    0.0000 </r>
       <r>    8.8962    0.0000 </r>
       <r>    8.9874    0.0000 </r>
       <r>    9.0049    0.0000 </r>
       <r>    9.0225    0.0000 </r>
       <r>    9.0417    0.0000 </r>
       <r>    9.1186    0.0000 </r>
       <r>    9.1225    0.0000 </r>
       <r>    9.1589    0.0000 </r>
       <r>    9.1624    0.0000 </r>
       <r>    9.1909    0.0000 </r>
       <r>    9.2488    0.0000 </r>
       <r>    9.4962    0.0000 </r>
       <r>    9.5055    0.0000 </r>
       <r>    9.7293    0.0000 </r>
       <r>    9.7360    0.0000 </r>
       <r>    9.7441    0.0000 </r>
       <r>    9.8621    0.0000 </r>
       <r>    9.8794    0.0000 </r>
       <r>    9.9554    0.0000 </r>
       <r>   10.1403    0.0000 </r>
       <r>   10.1610    0.0000 </r>
       <r>   10.1968    0.0000 </r>
       <r>   10.3238    0.0000 </r>
       <r>   10.6228    0.0000 </r>
       <r>   10.6490    0.0000 </r>
       <r>   10.6567    0.0000 </r>
       <r>   10.7082    0.0000 </r>
       <r>   10.8484    0.0000 </r>
       <r>   10.8777    0.0000 </r>
       <r>   11.1293    0.0000 </r>
       <r>   11.2602    0.0000 </r>
       <r>   11.4405    0.0000 </r>
       <r>   11.4553    0.0000 </r>
       <r>   11.8184    0.0000 </r>
       <r>   12.0202    0.0000 </r>
       <r>   12.0504    0.0000 </r>
       <r>   12.1969    0.0000 </r>
       <r>   12.3064    0.0000 </r>
       <r>   12.3630    0.0000 </r>
      </set>
      <set comment="kpoint 4">
       <r>  -40.1593    1.0000 </r>
       <r>  -40.1593    1.0000 </r>
       <r>  -39.8304    1.0000 </r>
       <r>  -39.8303    1.0000 </r>
       <r>  -39.8293    1.0000 </r>
       <r>  -39.8293    1.0000 </r>
       <r>  -39.7491    1.0000 </r>
       <r>  -39.7489    1.0000 </r>
       <r>  -39.7480    1.0000 </r>
       <r>  -39.7479    1.0000 </r>
       <r>  -39.4251    1.0000 </r>
       <r>  -39.4250    1.0000 </r>
       <r>  -18.8253    1.0000 </r>
       <r>  -18.8253    1.0000 </r>
       <r>  -18.8227    1.0000 </r>
       <r>  -18.8227    1.0000 </r>
       <r>  -18.7603    1.0000 </r>
       <r>  -18.7603    1.0000 </r>
       <r>  -18.7590    1.0000 </r>
       <r>  -18.7590    1.0000 </r>
       <r>  -18.7533    1.0000 </r>
       <r>  -18.7533    1.0000 </r>
       <r>  -18.7521    1.0000 </r>
       <r>  -18.7520    1.0000 </r>
       <r>  -18.6496    1.0000 </r>
       <r>  -18.6496    1.0000 </r>
       <r>  -18.6477    1.0000 </r>
       <r>  -18.6477    1.0000 </r>
       <r>  -18.6435    1.0000 </r>
       <r>  -18.6435    1.0000 </r>
       <r>  -18.6417    1.0000 </r>
       <r>  -18.6416    1.0000 </r>
       <r>  -18.6214    1.0000 </r>
       <r>  -18.6213    1.0000 </r>
       <r>  -18.6191    1.0000 </r>
       <r>  -18.6190    1.0000 </r>
       <r>  -18.6142    1.0000 </r>
       <r>  -18.6142    1.0000 </r>
       <r>  -18.6134    1.0000 </r>
       <r>  -18.6134    1.0000 </r>
       <r>  -18.6116    1.0000 </r>
       <r>  -18.6115    1.0000 </r>
       <r>  -18.6090    1.0000 </r>
       <r>  -18.6090    1.0000 </r>
       <r>  -18.6075    1.0000 </r>
       <r>  -18.6075    1.0000 </r>
       <r>  -18.6047    1.0000 </r>
       <r>  -18.6047    1.0000 </r>
       <r>  -18.6045    1.0000 </r>
       <r>  -18.6045    1.0000 </r>
       <r>  -18.6038    1.0000 </r>
       <r>  -18.6038    1.0000 </r>
       <r>  -18.5953    1.0000 </r>
       <r>  -18.5952    1.0000 </r>
       <r>  -18.5943    1.0000 </r>
       <r>  -18.5943    1.0000 </r>
       <r>  -18.4670    1.0000 </r>
       <r>  -18.4670    1.0000 </r>
       <r>  -18.4638    1.0000 </r>
[...]
       <r>   11.3762    0.0000 </r>
       <r>   11.3772    0.0000 </r>
       <r>   11.4766    0.0000 </r>
       <r>   11.4789    0.0000 </r>
      </set>
     </set>
    </set>
   </array>
  </eigenvalues>
  <separator name="orbital magnetization" >
   <v name="MAGDIPOLOUT">      0.00000000      0.00000000      0.00000000</v>
  </separator>
  <dos>
   <i name="efermi">      4.44523699 </i>
   <total>
    <array>
     <dimension dim="1">gridpoints</dimension>
     <dimension dim="2">spin</dimension>
     <field>energy</field>
     <field>total</field>
     <field>integrated</field>
     <set>
      <set comment="spin 1">
       <r>   -42.7854     0.0000     0.0000 </r>
       <r>   -42.5929     0.0000     0.0000 </r>
       <r>   -42.4003     0.0000     0.0000 </r>
       <r>   -42.2077     0.0000     0.0000 </r>
       <r>   -42.0151     0.0000     0.0000 </r>
       <r>   -41.8225     0.0000     0.0000 </r>
       <r>   -41.6299     0.0000     0.0000 </r>
       <r>   -41.4374     0.0000     0.0000 </r>
       <r>   -41.2448     0.0000     0.0000 </r>
       <r>   -41.0522     0.0000     0.0000 </r>
       <r>   -40.8596     0.0000     0.0000 </r>
       <r>   -40.6670     0.0000     0.0000 </r>
       <r>   -40.4745     0.0000     0.0000 </r>
       <r>   -40.2819     0.0000     0.0000 </r>
       <r>   -40.0893     0.0000     4.0000 </r>
       <r>   -39.8967     0.0000     4.0000 </r>
       <r>   -39.7041     0.0000    20.0000 </r>
       <r>   -39.5115     0.0000    20.0000 </r>
       <r>   -39.3190     0.0000    24.0000 </r>
       <r>   -39.1264     0.0000    24.0000 </r>
       <r>   -38.9338     0.0000    24.0000 </r>
       <r>   -38.7412     0.0000    24.0000 </r>
       <r>   -38.5486     0.0000    24.0000 </r>
       <r>   -38.3561     0.0000    24.0000 </r>
       <r>   -38.1635     0.0000    24.0000 </r>
       <r>   -37.9709     0.0000    24.0000 </r>
       <r>   -37.7783     0.0000    24.0000 </r>
       <r>   -37.5857     0.0000    24.0000 </r>
       <r>   -37.3931     0.0000    24.0000 </r>
       <r>   -37.2006     0.0000    24.0000 </r>
       <r>   -37.0080     0.0000    24.0000 </r>
       <r>   -36.8154     0.0000    24.0000 </r>
       <r>   -36.6228     0.0000    24.0000 </r>
       <r>   -36.4302     0.0000    24.0000 </r>
       <r>   -36.2377     0.0000    24.0000 </r>
       <r>   -36.0451     0.0000    24.0000 </r>
       <r>   -35.8525     0.0000    24.0000 </r>
       <r>   -35.6599     0.0000    24.0000 </r>
       <r>   -35.4673     0.0000    24.0000 </r>
       <r>   -35.2747     0.0000    24.0000 </r>
       <r>   -35.0822     0.0000    24.0000 </r>
       <r>   -34.8896     0.0000    24.0000 </r>
       <r>   -34.6970     0.0000    24.0000 </r>
       <r>   -34.5044     0.0000    24.0000 </r>
       <r>   -34.3118     0.0000    24.0000 </r>
       <r>   -34.1193     0.0000    24.0000 </r>
       <r>   -33.9267     0.0000    24.0000 </r>
       <r>   -33.7341     0.0000    24.0000 </r>
       <r>   -33.5415     0.0000    24.0000 </r>
       <r>   -33.3489     0.0000    24.0000 </r>
       <r>   -33.1564     0.0000    24.0000 </r>
       <r>   -32.9638     0.0000    24.0000 </r>
       <r>   -32.7712     0.0000    24.0000 </r>
       <r>   -32.5786     0.0000    24.0000 </r>
       <r>   -32.3860     0.0000    24.0000 </r>
       <r>   -32.1934     0.0000    24.0000 </r>
       <r>   -32.0009     0.0000    24.0000 </r>
       <r>   -31.8083     0.0000    24.0000 </r>
       <r>   -31.6157     0.0000    24.0000 </r>
       <r>   -31.4231     0.0000    24.0000 </r>
       <r>   -31.2305     0.0000    24.0000 </r>
       <r>   -31.0380     0.0000    24.0000 </r>
       <r>   -30.8454     0.0000    24.0000 </r>
       <r>   -30.6528     0.0000    24.0000 </r>
       <r>   -30.4602     0.0000    24.0000 </r>
       <r>   -30.2676     0.0000    24.0000 </r>
       <r>   -30.0750     0.0000    24.0000 </r>
       <r>   -29.8825     0.0000    24.0000 </r>
       <r>   -29.6899     0.0000    24.0000 </r>
       <r>   -29.4973     0.0000    24.0000 </r>
       <r>   -29.3047     0.0000    24.0000 </r>
       <r>   -29.1121     0.0000    24.0000 </r>
       <r>   -28.9196     0.0000    24.0000 </r>
       <r>   -28.7270     0.0000    24.0000 </r>
       <r>   -28.5344     0.0000    24.0000 </r>
       <r>   -28.3418     0.0000    24.0000 </r>
       <r>   -28.1492     0.0000    24.0000 </r>
       <r>   -27.9566     0.0000    24.0000 </r>
       <r>   -27.7641     0.0000    24.0000 </r>
       <r>   -27.5715     0.0000    24.0000 </r>
       <r>   -27.3789     0.0000    24.0000 </r>
       <r>   -27.1863     0.0000    24.0000 </r>
       <r>   -26.9937     0.0000    24.0000 </r>
       <r>   -26.8012     0.0000    24.0000 </r>
       <r>   -26.6086     0.0000    24.0000 </r>
       <r>   -26.4160     0.0000    24.0000 </r>
       <r>   -26.2234     0.0000    24.0000 </r>
       <r>   -26.0308     0.0000    24.0000 </r>
       <r>   -25.8382     0.0000    24.0000 </r>
       <r>   -25.6457     0.0000    24.0000 </r>
       <r>   -25.4531     0.0000    24.0000 </r>
       <r>   -25.2605     0.0000    24.0000 </r>
       <r>   -25.0679     0.0000    24.0000 </r>
       <r>   -24.8753     0.0000    24.0000 </r>
       <r>   -24.6828     0.0000    24.0000 </r>
       <r>   -24.4902     0.0000    24.0000 </r>
       <r>   -24.2976     0.0000    24.0000 </r>
       <r>   -24.1050     0.0000    24.0000 </r>
       <r>   -23.9124     0.0000    24.0000 </r>
       <r>   -23.7198     0.0000    24.0000 </r>
       <r>   -23.5273     0.0000    24.0000 </r>
       <r>   -23.3347     0.0000    24.0000 </r>
       <r>   -23.1421     0.0000    24.0000 </r>
       <r>   -22.9495     0.0000    24.0000 </r>
       <r>   -22.7569     0.0000    24.0000 </r>
       <r>   -22.5644     0.0000    24.0000 </r>
       <r>   -22.3718     0.0000    24.0000 </r>
       <r>   -22.1792     0.0000    24.0000 </r>
       <r>   -21.9866     0.0000    24.0000 </r>
       <r>   -21.7940     0.0000    24.0000 </r>
       <r>   -21.6014     0.0000    24.0000 </r>
       <r>   -21.4089     0.0000    24.0000 </r>
       <r>   -21.2163     0.0000    24.0000 </r>
       <r>   -21.0237     0.0000    24.0000 </r>
       <r>   -20.8311     0.0000    24.0000 </r>
       <r>   -20.6385     0.0000    24.0000 </r>
       <r>   -20.4460     0.0000    24.0000 </r>
       <r>   -20.2534     0.0000    24.0000 </r>
       <r>   -20.0608     0.0000    24.0000 </r>
       <r>   -19.8682     0.0000    24.0000 </r>
       <r>   -19.6756     0.0000    24.0000 </r>
       <r>   -19.4830     0.0000    24.0000 </r>
       <r>   -19.2905     0.0000    24.0000 </r>
       <r>   -19.0979     0.0000    24.0000 </r>
       <r>   -18.9053     0.0000    24.0000 </r>
       <r>   -18.7127     0.0000    48.0000 </r>
       <r>   -18.5201     0.0000   112.0000 </r>
       <r>   -18.3276     0.0000   168.0000 </r>
       <r>   -18.1350     0.0000   184.0000 </r>
       <r>   -17.9424     0.0000   184.0000 </r>
       <r>   -17.7498     0.0000   184.0000 </r>
       <r>   -17.5572     0.0000   184.0000 </r>
       <r>   -17.3646     0.0000   184.0000 </r>
       <r>   -17.1721     0.0000   184.0000 </r>
       <r>   -16.9795     0.0000   184.0000 </r>
       <r>   -16.7869     0.0000   184.0000 </r>
       <r>   -16.5943     0.0000   184.0000 </r>
       <r>   -16.4017     0.0000   184.0000 </r>
       <r>   -16.2092     0.0000   184.0000 </r>
       <r>   -16.0166     0.0000   184.0000 </r>
       <r>   -15.8240     0.0000   184.0000 </r>
       <r>   -15.6314     0.0000   184.0000 </r>
       <r>   -15.4388     0.0000   184.0000 </r>
       <r>   -15.2462     0.0000   184.0000 </r>
       <r>   -15.0537     0.0000   184.0000 </r>
       <r>   -14.8611     0.0000   184.0000 </r>
       <r>   -14.6685     0.0000   184.0000 </r>
       <r>   -14.4759     0.0000   184.0000 </r>
       <r>   -14.2833     0.0000   184.0000 </r>
       <r>   -14.0908     0.0000   184.0000 </r>
       <r>   -13.8982     0.0000   184.0000 </r>
       <r>   -13.7056     0.0000   184.0000 </r>
       <r>   -13.5130     0.0000   184.0000 </r>
       <r>   -13.3204     0.0000   192.0000 </r>
       <r>   -13.1278     0.0000   192.0000 </r>
       <r>   -12.9353     0.0000   192.0000 </r>
       <r>   -12.7427     0.0000   196.0000 </r>
       <r>   -12.5501     0.0000   208.0000 </r>
       <r>   -12.3575     0.0000   208.0000 </r>
       <r>   -12.1649     0.0000   208.0000 </r>
       <r>   -11.9724   592.3032   212.8296 </r>
       <r>   -11.7798     0.0000   216.0000 </r>
       <r>   -11.5872     0.0000   216.0000 </r>
       <r>   -11.3946     0.0000   216.0000 </r>
       <r>   -11.2020     0.0000   216.0000 </r>
       <r>   -11.0094     0.0000   216.0000 </r>
       <r>   -10.8169     0.0000   216.0000 </r>
       <r>   -10.6243     0.0000   216.0000 </r>
       <r>   -10.4317     0.0000   216.0000 </r>
       <r>   -10.2391     0.0000   216.0000 </r>
       <r>   -10.0465     0.0000   216.0000 </r>
       <r>    -9.8540     0.0000   216.0000 </r>
       <r>    -9.6614     0.0000   216.0000 </r>
       <r>    -9.4688     0.0000   216.0000 </r>
       <r>    -9.2762     0.0919   216.0002 </r>
       <r>    -9.0836     9.9331   216.9615 </r>
       <r>    -8.8910     0.0000   220.0000 </r>
       <r>    -8.6985    13.1910   222.7601 </r>
       <r>    -8.5059    14.5004   224.7514 </r>
       <r>    -8.3133    46.1933   230.0986 </r>
       <r>    -8.1207    14.9203   232.4687 </r>
       <r>    -7.9281    23.0811   238.1770 </r>
       <r>    -7.7356    15.0596   241.8498 </r>
       <r>    -7.5430    26.1824   245.6234 </r>
       <r>    -7.3504     2.4295   247.9706 </r>
       <r>    -7.1578     0.0000   248.0000 </r>
       <r>    -6.9652     0.0000   248.0000 </r>
       <r>    -6.7727     0.0000   248.0000 </r>
       <r>    -6.5801     0.0000   248.0000 </r>
       <r>    -6.3875     0.0000   248.0000 </r>
       <r>    -6.1949    12.5959   248.7992 </r>
       <r>    -6.0023    31.4819   253.0785 </r>
       <r>    -5.8097    21.1853   256.2380 </r>
       <r>    -5.6172    19.9161   261.9322 </r>
       <r>    -5.4246    25.3877   265.6705 </r>
       <r>    -5.2320    18.6995   269.8224 </r>
       <r>    -5.0394     3.3100   271.9166 </r>
       <r>    -4.8468     7.0062   272.4890 </r>
       <r>    -4.6543     9.2113   274.0853 </r>
       <r>    -4.4617    12.2977   276.1536 </r>
       <r>    -4.2691     6.5254   277.4680 </r>
       <r>    -4.0765     6.3109   278.8536 </r>
       <r>    -3.8839     2.6021   279.7098 </r>
       <r>    -3.6913     0.6078   279.9659 </r>
       <r>    -3.4988     0.0000   280.0000 </r>
       <r>    -3.3062     0.0000   280.0000 </r>
       <r>    -3.1136     0.0000   280.0000 </r>
       <r>    -2.9210     0.0000   280.0000 </r>
       <r>    -2.7284     0.0000   280.0000 </r>
       <r>    -2.5359     0.0000   280.0000 </r>
       <r>    -2.3433     0.0000   280.0000 </r>
       <r>    -2.1507     0.0000   280.0000 </r>
       <r>    -1.9581     0.0000   280.0000 </r>
       <r>    -1.7655     0.0000   280.0000 </r>
       <r>    -1.5729     0.0000   280.0000 </r>
       <r>    -1.3804     0.0000   280.0000 </r>
       <r>    -1.1878     6.2380   280.3779 </r>
       <r>    -0.9952     9.5165   282.1656 </r>
       <r>    -0.8026    13.1053   284.7667 </r>
       <r>    -0.6100     7.4403   286.6436 </r>
       <r>    -0.4175     8.6185   287.8735 </r>
       <r>    -0.2249    23.8801   291.6591 </r>
       <r>    -0.0323    40.4814   297.6676 </r>
       <r>     0.1603    39.0618   305.5642 </r>
       <r>     0.3529    50.1242   312.7435 </r>
       <r>     0.5455    38.5025   319.6876 </r>
       <r>     0.7380    20.0846   326.9971 </r>
       <r>     0.9306     7.8780   332.1957 </r>
       <r>     1.1232    54.0374   340.5208 </r>
       <r>     1.3158    49.4672   349.9774 </r>
       <r>     1.5084    68.4191   360.2581 </r>
       <r>     1.7009    47.2152   371.2259 </r>
       <r>     1.8935    36.6230   379.4997 </r>
       <r>     2.0861    48.2566   386.3380 </r>
       <r>     2.2787    35.5953   394.2051 </r>
       <r>     2.4713    59.4667   403.1402 </r>
       <r>     2.6639    47.1958   414.2240 </r>
       <r>     2.8564    90.0062   426.8419 </r>
       <r>     3.0490    99.3042   440.1284 </r>
       <r>     3.2416    38.1534   450.6172 </r>
       <r>     3.4342    29.2496   457.9942 </r>
       <r>     3.6268    30.4332   465.5848 </r>
       <r>     3.8193    12.5934   469.2080 </r>
       <r>     4.0119     7.1128   471.1056 </r>
       <r>     4.2045     1.6294   471.9474 </r>
       <r>     4.3971     0.0000   472.0000 </r>
       <r>     4.5897     0.0000   472.0000 </r>
       <r>     4.7823     0.0000   472.0000 </r>
       <r>     4.9748     0.0000   472.0000 </r>
       <r>     5.1674     0.1887   472.0033 </r>
       <r>     5.3600     3.5315   472.3183 </r>
       <r>     5.5526     7.5382   473.3841 </r>
       <r>     5.7452     9.4509   475.1929 </r>
       <r>     5.9377    14.5692   479.4745 </r>
       <r>     6.1303    12.1634   482.0462 </r>
       <r>     6.3229    11.9585   484.3061 </r>
       <r>     6.5155    13.6808   486.7752 </r>
       <r>     6.7081    15.3848   489.5743 </r>
       <r>     6.9007    17.3332   492.7086 </r>
       <r>     7.0932    20.8693   496.3134 </r>
       <r>     7.2858    35.6330   501.3919 </r>
       <r>     7.4784    40.3446   509.3214 </r>
       <r>     7.6710    28.3746   515.0586 </r>
       <r>     7.8636    37.0652   522.7671 </r>
       <r>     8.0561    37.8822   530.5686 </r>
       <r>     8.2487    20.9900   536.0206 </r>
       <r>     8.4413    18.7498   539.6789 </r>
       <r>     8.6339    26.5902   544.0542 </r>
       <r>     8.8265    39.0643   549.3318 </r>
       <r>     9.0191    31.8883   558.1078 </r>
       <r>     9.2116    16.3274   562.7497 </r>
       <r>     9.4042    11.1965   565.3299 </r>
       <r>     9.5968    23.4677   568.0835 </r>
       <r>     9.7894    10.6408   571.6329 </r>
       <r>     9.9820     4.1067   572.3734 </r>
       <r>    10.1745    10.0088   573.6993 </r>
       <r>    10.3671    15.3021   577.1234 </r>
       <r>    10.5597    33.7388   582.7222 </r>
       <r>    10.7523    33.6261   589.4212 </r>
       <r>    10.9449    25.9228   597.8394 </r>
       <r>    11.1375    13.8514   601.0304 </r>
       <r>    11.3300    22.3885   605.4527 </r>
       <r>    11.5226    21.9100   609.3713 </r>
       <r>    11.7152    12.6917   612.5448 </r>
       <r>    11.9078     7.9547   614.5018 </r>
       <r>    12.1004     4.0173   615.6722 </r>
       <r>    12.2929     0.1710   615.9962 </r>
       <r>    12.4855     0.0000   616.0000 </r>
       <r>    12.6781     0.0000   616.0000 </r>
       <r>    12.8707     0.0000   616.0000 </r>
       <r>    13.0633     0.0000   616.0000 </r>
       <r>    13.2559     0.0000   616.0000 </r>
       <r>    13.4484     0.0000   616.0000 </r>
       <r>    13.6410     0.0000   616.0000 </r>
       <r>    13.8336     0.0000   616.0000 </r>
       <r>    14.0262     0.0000   616.0000 </r>
       <r>    14.2188     0.0000   616.0000 </r>
       <r>    14.4113     0.0000   616.0000 </r>
       <r>    14.6039     0.0000   616.0000 </r>
       <r>    14.7965     0.0000   616.0000 </r>
       <r>    14.9891     0.0000   616.0000 </r>
      </set>
     </set>
    </array>
   </total>
  </dos>
 </calculation>
 <structure name="finalpos" >
  <crystal>
   <varray name="basis" >
    <v>      11.17850000       0.00000000       0.00000000 </v>
    <v>       0.00000000       9.57460000       0.00000000 </v>
    <v>       0.00000000       0.00000000      11.18240000 </v>
   </varray>
   <i name="volume">   1196.84853820 </i>
   <varray name="rec_basis" >
    <v>       0.08945744       0.00000000       0.00000000 </v>
    <v>       0.00000000       0.10444301       0.00000000 </v>
    <v>       0.00000000       0.00000000       0.08942624 </v>
   </varray>
  </crystal>
  <varray name="positions" >
   <v>       0.37539000       0.00017000       0.43687000 </v>
   <v>       0.12461000       0.99984000       0.18687000 </v>
   <v>       0.37461000       0.00017000       0.18687000 </v>
   <v>       0.62539000       0.99984000       0.43687000 </v>
   <v>       0.87539000       0.00017000       0.43687000 </v>
   <v>       0.87461000       0.00017000       0.18687000 </v>
   <v>       0.12539000       0.99984000       0.93687000 </v>
   <v>       0.37539000       0.00017000       0.93687000 </v>
   <v>       0.37461000       0.00017000       0.68687000 </v>
   <v>       0.87539000       0.00017000       0.93687000 </v>
   <v>       0.62461000       0.99984000       0.68687000 </v>
   <v>       0.87461000       0.00017000       0.68687000 </v>
   <v>       0.62461000       0.99984000       0.18687000 </v>
   <v>       0.12461000       0.99984000       0.68687000 </v>
   <v>       0.00013000       0.29519000       0.06281000 </v>
   <v>       0.25013000       0.70481000       0.06281000 </v>
   <v>       0.24987000       0.29519000       0.31282000 </v>
   <v>       0.49987000       0.70481000       0.31282000 </v>
   <v>       0.50013000       0.29519000       0.06281000 </v>
   <v>       0.75013000       0.70481000       0.06281000 </v>
   <v>       0.74987000       0.29519000       0.31282000 </v>
   <v>       0.99987000       0.70481000       0.31282000 </v>
   <v>       0.00013000       0.29519000       0.56281000 </v>
   <v>       0.25013000       0.70481000       0.56281000 </v>
   <v>       0.24987000       0.29519000       0.81282000 </v>
   <v>       0.49987000       0.70481000       0.81282000 </v>
   <v>       0.50013000       0.29519000       0.56281000 </v>
   <v>       0.75013000       0.70481000       0.56281000 </v>
   <v>       0.74987000       0.29519000       0.81282000 </v>
   <v>       0.99987000       0.70481000       0.81282000 </v>
   <v>       0.25005000       0.32677000       0.06286000 </v>
   <v>       0.00005000       0.67323000       0.06286000 </v>
   <v>       0.49995000       0.32677000       0.31286000 </v>
   <v>       0.24995000       0.67323000       0.31286000 </v>
   <v>       0.75005000       0.32677000       0.06286000 </v>
   <v>       0.50005000       0.67323000       0.06286000 </v>
   <v>       0.99995000       0.32677000       0.31286000 </v>
   <v>       0.74995000       0.67323000       0.31286000 </v>
   <v>       0.25005000       0.32677000       0.56286000 </v>
   <v>       0.00005000       0.67323000       0.56286000 </v>
   <v>       0.49995000       0.32677000       0.81286000 </v>
   <v>       0.24995000       0.67323000       0.81286000 </v>
   <v>       0.75005000       0.32677000       0.56286000 </v>
   <v>       0.50005000       0.67323000       0.56286000 </v>
   <v>       0.99995000       0.32677000       0.81286000 </v>
   <v>       0.74995000       0.67323000       0.81286000 </v>
   <v>       0.49987000       0.07798000       0.06246000 </v>
   <v>       0.24987000       0.92202000       0.06246000 </v>
   <v>       0.25013000       0.07798000       0.31246000 </v>
   <v>       0.00013000       0.92202000       0.31246000 </v>
   <v>       0.99987000       0.07798000       0.06246000 </v>
   <v>       0.74987000       0.92202000       0.06246000 </v>
   <v>       0.75013000       0.07798000       0.31246000 </v>
   <v>       0.50013000       0.92202000       0.31246000 </v>
   <v>       0.49987000       0.07798000       0.56246000 </v>
   <v>       0.24987000       0.92202000       0.56246000 </v>
   <v>       0.25013000       0.07798000       0.81246000 </v>
   <v>       0.00013000       0.92202000       0.81246000 </v>
   <v>       0.99987000       0.07798000       0.56246000 </v>
   <v>       0.74987000       0.92202000       0.56246000 </v>
   <v>       0.75013000       0.07798000       0.81246000 </v>
   <v>       0.50013000       0.92202000       0.81246000 </v>
  </varray>
 </structure>
</modeling>
