<?xml version="1.0" encoding="ISO-8859-1"?>
<modeling>
 <generator>
  <i name="program" type="string">vasp </i>
  <i name="version" type="string">5.4.4.18Apr17-6-g9f103f2a35  </i>
  <i name="subversion" type="string">(build Jul 31 2017 11:33:29) complex            parallel </i>
  <i name="platform" type="string">LinuxIFC </i>
  <i name="date" type="string">2021 09 29 </i>
  <i name="time" type="string">04:06:34 </i>
 </generator>
 <incar>
  <i type="string" name="SYSTEM"> La2O2S</i>
  <i type="string" name="PREC">normal</i>
  <i type="int" name="NELMIN">     4</i>
  <i type="int" name="IBRION">     2</i>
  <i type="int" name="NFREE">    10</i>
  <i name="EDIFF">      0.00000100</i>
  <i name="EDIFFG">     -0.01000000</i>
  <i type="int" name="NSW">     1</i>
  <i type="int" name="ISIF">     2</i>
  <i name="ENCUT">    600.00000000</i>
  <i name="ENAUG">    900.00000000</i>
  <i type="int" name="ISMEAR">    -5</i>
  <i type="logical" name="LWAVE"> F  </i>
  <i type="logical" name="LCHARG"> F  </i>
  <v type="int" name="KPOINT_BSE">    -1     0     0     0</v>
 </incar>
 <structure name="primitive_cell" >
  <crystal>
   <varray name="basis" >
    <v>      11.17850000       0.00000000       0.00000000 </v>
    <v>       0.00000000       9.57460000       0.00000000 </v>
    <v>       0.00000000       0.00000000      11.18240000 </v>
   </varray>
   <i name="volume">   1196.84853820 </i>
   <varray name="rec_basis" >
    <v>       0.08945744       0.00000000       0.00000000 </v>
    <v>       0.00000000       0.10444301       0.00000000 </v>
    <v>       0.00000000       0.00000000       0.08942624 </v>
   </varray>
  </crystal>
  <varray name="positions" >
   <v>       0.12461000      -0.00016000       0.18687000 </v>
   <v>      -0.00013000       0.07798000       0.06246000 </v>
   <v>       0.24987000      -0.07798000       0.06246000 </v>
   <v>       0.00013000      -0.07798000       0.31246000 </v>
   <v>       0.25013000       0.07798000       0.31246000 </v>
   <v>       0.37461000       0.00017000       0.18687000 </v>
   <v>      -0.12539000       0.00017000       0.18687000 </v>
   <v>       0.00013000       0.29519000       0.06281000 </v>
   <v>       0.25013000      -0.29519000       0.06281000 </v>
   <v>      -0.00013000      -0.29519000       0.31282000 </v>
   <v>       0.24987000       0.29519000       0.31282000 </v>
   <v>       0.00005000      -0.32677000       0.06286000 </v>
   <v>       0.25005000       0.32677000       0.06286000 </v>
   <v>      -0.00005000       0.32677000       0.31286000 </v>
   <v>       0.24995000      -0.32677000       0.31286000 </v>
   <v>      -0.12461000       0.00017000       0.43687000 </v>
   <v>      -0.12461000       0.00017000      -0.06313000 </v>
   <v>       0.37539000       0.00017000       0.43687000 </v>
   <v>       0.37539000       0.00017000      -0.06313000 </v>
   <v>       0.00013000      -0.07798000      -0.18754000 </v>
   <v>      -0.25013000      -0.07798000       0.06246000 </v>
   <v>      -0.24987000       0.07798000       0.31246000 </v>
   <v>       0.25013000       0.07798000      -0.18754000 </v>
   <v>       0.49987000       0.07798000       0.06246000 </v>
   <v>      -0.00013000       0.07798000      -0.43754000 </v>
   <v>      -0.49987000      -0.07798000       0.31246000 </v>
   <v>       0.24987000      -0.07798000      -0.43754000 </v>
   <v>      -0.00013000      -0.29519000      -0.18718000 </v>
   <v>      -0.24987000      -0.29519000       0.06281000 </v>
   <v>       0.24987000       0.29519000      -0.18718000 </v>
   <v>      -0.25013000       0.29519000       0.31282000 </v>
   <v>      -0.49987000       0.29519000       0.06281000 </v>
   <v>       0.49987000      -0.29519000       0.31282000 </v>
   <v>       0.00013000       0.29519000      -0.43719000 </v>
   <v>       0.25013000      -0.29519000      -0.43719000 </v>
   <v>      -0.00005000       0.32677000      -0.18714000 </v>
   <v>       0.24995000      -0.32677000      -0.18714000 </v>
   <v>      -0.24995000       0.32677000       0.06286000 </v>
   <v>      -0.25005000      -0.32677000       0.31286000 </v>
   <v>      -0.49995000      -0.32677000       0.06286000 </v>
   <v>       0.49995000       0.32677000       0.31286000 </v>
   <v>       0.00005000      -0.32677000      -0.43714000 </v>
   <v>       0.25005000       0.32677000      -0.43714000 </v>
   <v>      -0.37539000      -0.00016000       0.18687000 </v>
   <v>       0.12461000      -0.00016000      -0.31313000 </v>
   <v>      -0.24987000       0.07798000      -0.18754000 </v>
   <v>      -0.49987000      -0.07798000      -0.18754000 </v>
   <v>      -0.25013000      -0.07798000      -0.43754000 </v>
   <v>       0.49987000       0.07798000      -0.43754000 </v>
   <v>      -0.37461000      -0.00016000       0.43687000 </v>
   <v>      -0.37461000      -0.00016000      -0.06313000 </v>
   <v>      -0.12539000       0.00017000      -0.31313000 </v>
   <v>      -0.25013000       0.29519000      -0.18718000 </v>
   <v>       0.49987000      -0.29519000      -0.18718000 </v>
   <v>      -0.24987000      -0.29519000      -0.43719000 </v>
   <v>      -0.49987000       0.29519000      -0.43719000 </v>
   <v>      -0.25005000      -0.32677000      -0.18714000 </v>
   <v>       0.49995000       0.32677000      -0.18714000 </v>
   <v>      -0.24995000       0.32677000      -0.43714000 </v>
   <v>      -0.49995000      -0.32677000      -0.43714000 </v>
   <v>      -0.37539000      -0.00016000      -0.31313000 </v>
  </varray>
 </structure>
 <varray name="primitive_index" >
  <v type="int" >        1 </v>
  <v type="int" >       50 </v>
  <v type="int" >       47 </v>
  <v type="int" >       49 </v>
  <v type="int" >       48 </v>
  <v type="int" >        2 </v>
  <v type="int" >        6 </v>
  <v type="int" >       14 </v>
  <v type="int" >       15 </v>
  <v type="int" >       21 </v>
  <v type="int" >       16 </v>
  <v type="int" >       31 </v>
  <v type="int" >       30 </v>
  <v type="int" >       36 </v>
  <v type="int" >       33 </v>
  <v type="int" >        4 </v>
  <v type="int" >        8 </v>
  <v type="int" >       11 </v>
  <v type="int" >       12 </v>
  <v type="int" >       57 </v>
  <v type="int" >       51 </v>
  <v type="int" >       52 </v>
  <v type="int" >       56 </v>
  <v type="int" >       46 </v>
  <v type="int" >       58 </v>
  <v type="int" >       53 </v>
  <v type="int" >       55 </v>
  <v type="int" >       29 </v>
  <v type="int" >       19 </v>
  <v type="int" >       24 </v>
  <v type="int" >       20 </v>
  <v type="int" >       18 </v>
  <v type="int" >       17 </v>
  <v type="int" >       22 </v>
  <v type="int" >       23 </v>
  <v type="int" >       44 </v>
  <v type="int" >       41 </v>
  <v type="int" >       34 </v>
  <v type="int" >       37 </v>
  <v type="int" >       35 </v>
  <v type="int" >       32 </v>
  <v type="int" >       39 </v>
  <v type="int" >       38 </v>
  <v type="int" >        5 </v>
  <v type="int" >       13 </v>
  <v type="int" >       60 </v>
  <v type="int" >       61 </v>
  <v type="int" >       59 </v>
  <v type="int" >       54 </v>
  <v type="int" >        3 </v>
  <v type="int" >        7 </v>
  <v type="int" >       10 </v>
  <v type="int" >       28 </v>
  <v type="int" >       25 </v>
  <v type="int" >       27 </v>
  <v type="int" >       26 </v>
  <v type="int" >       45 </v>
  <v type="int" >       40 </v>
  <v type="int" >       42 </v>
  <v type="int" >       43 </v>
  <v type="int" >        9 </v>
 </varray>
 <kpoints>
  <generation param="Gamma">
   <v type="int" name="divisions">       2        2        2 </v>
   <v name="usershift">      0.00000000       0.00000000       0.00000000 </v>
   <v name="genvec1">      0.50000000       0.00000000       0.00000000 </v>
   <v name="genvec2">      0.00000000       0.50000000       0.00000000 </v>
   <v name="genvec3">      0.00000000       0.00000000       0.50000000 </v>
   <v name="shift">      0.00000000       0.00000000       0.00000000 </v>
  </generation>
  <varray name="kpointlist" >
   <v>       0.00000000       0.00000000       0.00000000 </v>
   <v>       0.50000000       0.00000000       0.00000000 </v>
   <v>       0.00000000       0.50000000       0.00000000 </v>
   <v>       0.50000000       0.50000000       0.00000000 </v>
   <v>       0.00000000       0.00000000       0.50000000 </v>
   <v>       0.50000000       0.00000000       0.50000000 </v>
   <v>       0.00000000       0.50000000       0.50000000 </v>
   <v>       0.50000000       0.50000000       0.50000000 </v>
  </varray>
  <varray name="weights" >
   <v>       0.12500000 </v>
   <v>       0.12500000 </v>
   <v>       0.12500000 </v>
   <v>       0.12500000 </v>
   <v>       0.12500000 </v>
   <v>       0.12500000 </v>
   <v>       0.12500000 </v>
   <v>       0.12500000 </v>
  </varray>
  <varray name="tetrahedronlist"  type="int" >
   <v type="int" >        2        1        2        4        5 </v>
   <v type="int" >        2        1        3        4        5 </v>
   <v type="int" >        2        3        4        5        7 </v>
   <v type="int" >        2        2        4        5        6 </v>
   <v type="int" >        2        4        5        6        8 </v>
   <v type="int" >        2        4        5        7        8 </v>
   <v type="int" >        2        1        2        3        6 </v>
   <v type="int" >        2        2        3        4        6 </v>
   <v type="int" >        2        3        4        6        8 </v>
   <v type="int" >        2        1        3        5        6 </v>
   <v type="int" >        2        3        5        6        7 </v>
   <v type="int" >        2        3        6        7        8 </v>
   <v type="int" >        2        2        3        4        7 </v>
   <v type="int" >        2        1        2        3        7 </v>
   <v type="int" >        2        1        2        5        7 </v>
   <v type="int" >        2        2        4        7        8 </v>
   <v type="int" >        2        2        6        7        8 </v>
   <v type="int" >        2        2        5        6        7 </v>
   <v type="int" >        2        1        3        4        8 </v>
   <v type="int" >        2        1        2        4        8 </v>
   <v type="int" >        2        1        2        6        8 </v>
   <v type="int" >        2        1        3        7        8 </v>
   <v type="int" >        2        1        5        7        8 </v>
   <v type="int" >        2        1        5        6        8 </v>
  </varray>
  <i name="volumeweight">      0.02083333 </i>
 </kpoints>
 <parameters>
  <separator name="general" >
   <i type="string" name="SYSTEM">La2O2S</i>
   <i type="logical" name="LCOMPAT"> F  </i>
  </separator>
  <separator name="electronic" >
   <i type="string" name="PREC">normal</i>
   <i name="ENMAX">    600.00000000</i>
   <i name="ENAUG">    900.00000000</i>
   <i name="EDIFF">      0.00000100</i>
   <i type="int" name="IALGO">    38</i>
   <i type="int" name="IWAVPR">    11</i>
   <i type="int" name="NBANDS">   280</i>
   <i name="NELECT">    468.00000000</i>
   <i type="int" name="TURBO">     0</i>
   <i type="int" name="IRESTART">     0</i>
   <i type="int" name="NREBOOT">     0</i>
   <i type="int" name="NMIN">     0</i>
   <i name="EREF">      0.00000000</i>
   <separator name="electronic smearing" >
    <i type="int" name="ISMEAR">    -5</i>
    <i name="SIGMA">      0.20000000</i>
    <i name="KSPACING">      0.50000000</i>
    <i type="logical" name="KGAMMA"> T  </i>
   </separator>
   <separator name="electronic projectors" >
    <i type="logical" name="LREAL"> F  </i>
    <v name="ROPT">      0.00000000      0.00000000      0.00000000      0.00000000      0.00000000</v>
    <i type="int" name="LMAXPAW">  -100</i>
    <i type="int" name="LMAXMIX">     2</i>
    <i type="logical" name="NLSPLINE"> F  </i>
   </separator>
   <separator name="electronic startup" >
    <i type="int" name="ISTART">     0</i>
    <i type="int" name="ICHARG">     2</i>
    <i type="int" name="INIWAV">     1</i>
   </separator>
   <separator name="electronic spin" >
    <i type="int" name="ISPIN">     1</i>
    <i type="logical" name="LNONCOLLINEAR"> F  </i>
    <v name="MAGMOM">      1.00000000      1.00000000      1.00000000      1.00000000      1.00000000      1.00000000      1.00000000      1.00000000      1.00000000      1.00000000      1.00000000      1.00000000      1.00000000      1.00000000      1.00000000      1.00000000      1.00000000      1.00000000      1.00000000      1.00000000
      1.00000000      1.00000000      1.00000000      1.00000000      1.00000000      1.00000000      1.00000000      1.00000000      1.00000000      1.00000000      1.00000000      1.00000000      1.00000000      1.00000000      1.00000000      1.00000000      1.00000000      1.00000000      1.00000000      1.00000000
      1.00000000      1.00000000      1.00000000      1.00000000      1.00000000      1.00000000      1.00000000      1.00000000      1.00000000      1.00000000      1.00000000      1.00000000      1.00000000      1.00000000      1.00000000      1.00000000      1.00000000      1.00000000      1.00000000      1.00000000
      1.00000000</v>
    <i name="NUPDOWN">     -1.00000000</i>
    <i type="logical" name="LSORBIT"> F  </i>
    <v name="SAXIS">      0.00000000      0.00000000      1.00000000</v>
    <i type="logical" name="LSPIRAL"> F  </i>
    <v name="QSPIRAL">      0.00000000      0.00000000      0.00000000</v>
    <i type="logical" name="LZEROZ"> F  </i>
   </separator>
   <separator name="electronic exchange-correlation" >
    <i type="logical" name="LASPH"> F  </i>
    <i type="logical" name="LMETAGGA"> F  </i>
   </separator>
   <separator name="electronic convergence" >
    <i type="int" name="NELM">    60</i>
    <i type="int" name="NELMDL">    -5</i>
    <i type="int" name="NELMIN">     4</i>
    <i name="ENINI">    600.00000000</i>
    <separator name="electronic convergence detail" >
     <i type="logical" name="LDIAG"> T  </i>
     <i type="logical" name="LSUBROT"> F  </i>
     <i name="WEIMIN">      0.00100000</i>
     <i name="EBREAK">      0.00000000</i>
     <i name="DEPER">      0.30000000</i>
     <i type="int" name="NRMM">     4</i>
     <i name="TIME">      0.40000000</i>
    </separator>
   </separator>
   <separator name="electronic mixer" >
    <i name="AMIX">      0.40000000</i>
    <i name="BMIX">      1.00000000</i>
    <i name="AMIN">      0.10000000</i>
    <i name="AMIX_MAG">      1.60000000</i>
    <i name="BMIX_MAG">      1.00000000</i>
    <separator name="electronic mixer details" >
     <i type="int" name="IMIX">     4</i>
     <i type="logical" name="MIXFIRST"> F  </i>
     <i type="int" name="MAXMIX">   -45</i>
     <i name="WC">    100.00000000</i>
     <i type="int" name="INIMIX">     1</i>
     <i type="int" name="MIXPRE">     1</i>
     <i type="int" name="MREMOVE">     5</i>
    </separator>
   </separator>
   <separator name="electronic dipolcorrection" >
    <i type="logical" name="LDIPOL"> F  </i>
    <i type="logical" name="LMONO"> F  </i>
    <i type="int" name="IDIPOL">     0</i>
    <i name="EPSILON">      1.00000000</i>
    <v name="DIPOL">   -100.00000000   -100.00000000   -100.00000000</v>
    <i name="EFIELD">      0.00000000</i>
   </separator>
  </separator>
  <separator name="grids" >
   <i type="int" name="NGX">    70</i>
   <i type="int" name="NGY">    60</i>
   <i type="int" name="NGZ">    70</i>
   <i type="int" name="NGXF">   140</i>
   <i type="int" name="NGYF">   120</i>
   <i type="int" name="NGZF">   140</i>
   <i type="logical" name="ADDGRID"> F  </i>
  </separator>
  <separator name="ionic" >
   <i type="int" name="NSW">     1</i>
   <i type="int" name="IBRION">     2</i>
   <i type="int" name="MDALGO">     0</i>
   <i type="int" name="ISIF">     2</i>
   <i name="PSTRESS">      0.00000000</i>
   <i name="EDIFFG">     -0.01000000</i>
   <i type="int" name="NFREE">    10</i>
   <i name="POTIM">      0.50000000</i>
   <i name="SMASS">     -3.00000000</i>
   <i name="SCALEE">      1.00000000</i>
  </separator>
  <separator name="ionic md" >
   <i name="TEBEG">      0.00010000</i>
   <i name="TEEND">      0.00010000</i>
   <i type="int" name="NBLOCK">     1</i>
   <i type="int" name="KBLOCK">     1</i>
   <i type="int" name="NPACO">   256</i>
   <i name="APACO">     16.00000000</i>
  </separator>
  <separator name="symmetry" >
   <i type="int" name="ISYM">     2</i>
   <i name="SYMPREC">      0.00001000</i>
  </separator>
  <separator name="dos" >
   <i type="int" name="LORBIT">     0</i>
   <v name="RWIGS">     -1.00000000     -1.00000000     -1.00000000     -1.00000000     -1.00000000</v>
   <i type="int" name="NEDOS">   301</i>
   <i name="EMIN">     10.00000000</i>
   <i name="EMAX">    -10.00000000</i>
   <i name="EFERMI">      0.00000000</i>
  </separator>
  <separator name="writing" >
   <i type="int" name="NWRITE">     2</i>
   <i type="logical" name="LWAVE"> F  </i>
   <i type="logical" name="LDOWNSAMPLE"> F  </i>
   <i type="logical" name="LCHARG"> F  </i>
   <i type="logical" name="LPARD"> F  </i>
   <i type="logical" name="LVTOT"> F  </i>
   <i type="logical" name="LVHAR"> F  </i>
   <i type="logical" name="LELF"> F  </i>
   <i type="logical" name="LOPTICS"> F  </i>
   <v name="STM">      0.00000000      0.00000000      0.00000000      0.00000000      0.00000000      0.00000000      0.00000000</v>
  </separator>
  <separator name="performance" >
   <i type="int" name="NPAR">    28</i>
   <i type="int" name="NSIM">     4</i>
   <i type="int" name="NBLK">    -1</i>
   <i type="logical" name="LPLANE"> T  </i>
   <i type="logical" name="LSCALAPACK"> T  </i>
   <i type="logical" name="LSCAAWARE"> F  </i>
   <i type="logical" name="LSCALU"> F  </i>
   <i type="logical" name="LASYNC"> F  </i>
   <i type="logical" name="LORBITALREAL"> F  </i>
  </separator>
  <separator name="miscellaneous" >
   <i type="int" name="IDIOT">     3</i>
   <i type="int" name="ISPECIAL">     0</i>
   <i type="logical" name="LMUSIC"> F  </i>
   <v name="POMASS">      7.01000000     24.30500000    208.98000000     32.06600000     16.00000000</v>
   <v name="DARWINR">      0.00000000      0.00000000      0.00000000      0.00000000      0.00000000</v>
   <v name="DARWINV">      1.00000000      1.00000000      1.00000000      1.00000000      1.00000000</v>
   <i type="logical" name="LCORR"> T  </i>
  </separator>
  <i type="logical" name="GGA_COMPAT"> T  </i>
  <i type="logical" name="LBERRY"> F  </i>
  <i type="int" name="ICORELEVEL">     0</i>
  <i type="logical" name="LDAU"> F  </i>
  <i type="int" name="I_CONSTRAINED_M">     0</i>
  <separator name="electronic exchange-correlation" >
   <i type="string" name="GGA">--</i>
   <i type="int" name="VOSKOWN">     0</i>
   <i type="logical" name="LHFCALC"> F  </i>
   <i type="string" name="PRECFOCK"></i>
   <i type="logical" name="LSYMGRAD"> F  </i>
   <i type="logical" name="LHFONE"> F  </i>
   <i type="logical" name="LRHFCALC"> F  </i>
   <i type="logical" name="LTHOMAS"> F  </i>
   <i type="logical" name="LMODELHF"> F  </i>
   <i name="ENCUT4O">     -1.00000000</i>
   <i type="int" name="EXXOEP">     0</i>
   <i type="int" name="FOURORBIT">     0</i>
   <i name="AEXX">      0.00000000</i>
   <i name="HFALPHA">      0.00000000</i>
   <i name="MCALPHA">      0.00000000</i>
   <i name="ALDAX">      1.00000000</i>
   <i name="AGGAX">      1.00000000</i>
   <i name="ALDAC">      1.00000000</i>
   <i name="AGGAC">      1.00000000</i>
   <i type="int" name="NKREDX">     1</i>
   <i type="int" name="NKREDY">     1</i>
   <i type="int" name="NKREDZ">     1</i>
   <i type="logical" name="SHIFTRED"> F  </i>
   <i type="logical" name="ODDONLY"> F  </i>
   <i type="logical" name="EVENONLY"> F  </i>
   <i type="int" name="LMAXFOCK">     0</i>
   <i type="int" name="NMAXFOCKAE">     0</i>
   <i type="logical" name="LFOCKAEDFT"> F  </i>
   <i name="HFSCREEN">      0.00000000</i>
   <i name="HFSCREENC">      0.00000000</i>
   <i type="int" name="NBANDSGWLOW">     0</i>
  </separator>
  <separator name="vdW DFT" >
   <i type="logical" name="LUSE_VDW"> F  </i>
   <i name="Zab_VDW">     -0.84910000</i>
   <i name="PARAM1">      0.12340000</i>
   <i name="PARAM2">      1.00000000</i>
   <i name="PARAM3">      0.00000000</i>
  </separator>
  <separator name="model GW" >
   <i type="int" name="MODEL_GW">     0</i>
   <i name="MODEL_EPS0">     11.77228070</i>
   <i name="MODEL_ALPHA">      1.00000000</i>
  </separator>
  <separator name="linear response parameters" >
   <i type="logical" name="LEPSILON"> F  </i>
   <i type="logical" name="LRPA"> F  </i>
   <i type="logical" name="LNABLA"> F  </i>
   <i type="logical" name="LVEL"> F  </i>
   <i type="int" name="KINTER">     0</i>
   <i name="CSHIFT">      0.10000000</i>
   <i name="OMEGAMAX">     -1.00000000</i>
   <i name="DEG_THRESHOLD">      0.00200000</i>
   <i name="RTIME">     -0.10000000</i>
   <i name="WPLASMAI">      0.00000000</i>
   <v name="DFIELD">      0.00000000      0.00000000      0.00000000</v>
   <v name="WPLASMA">      0.00000000      0.00000000      0.00000000      0.00000000      0.00000000      0.00000000      0.00000000      0.00000000      0.00000000</v>
  </separator>
  <separator name="orbital magnetization" >
   <i type="logical" name="NUCIND"> F  </i>
   <v name="MAGPOS">      0.00000000      0.00000000      0.00000000</v>
   <i type="logical" name="LNICSALL"> T  </i>
   <i type="logical" name="ORBITALMAG"> F  </i>
   <i type="logical" name="LMAGBLOCH"> F  </i>
   <i type="logical" name="LCHIMAG"> F  </i>
   <i type="logical" name="LGAUGE"> T  </i>
   <i type="int" name="MAGATOM">     0</i>
   <v name="MAGDIPOL">      0.00000000      0.00000000      0.00000000</v>
   <v name="AVECCONST">      0.00000000      0.00000000      0.00000000</v>
  </separator>
  <separator name="response functions" >
   <i type="logical" name="LADDER"> F  </i>
   <i type="logical" name="LRPAFORCE"> F  </i>
   <i type="logical" name="LFXC"> F  </i>
   <i type="logical" name="LHARTREE"> T  </i>
   <i type="int" name="IBSE">     0</i>
   <v type="int" name="KPOINT">    -1     0     0     0</v>
   <i type="logical" name="LTCTE"> F  </i>
   <i type="logical" name="LTETE"> F  </i>
   <i type="logical" name="LTRIPLET"> F  </i>
   <i type="logical" name="LFXCEPS"> F  </i>
   <i type="logical" name="LFXHEG"> F  </i>
   <i type="int" name="NATURALO">     2</i>
   <i type="logical" name="L2ORDER"> F  </i>
   <i type="logical" name="LMP2LT"> F  </i>
   <i type="logical" name="LUSEW"> F  </i>
   <i name="ENCUTGW">     -2.00000000</i>
   <i name="ENCUTGWSOFT">     -2.00000000</i>
   <i name="ENCUTLF">     -1.00000000</i>
   <i type="int" name="LMAXMP2">    -1</i>
   <i name="SCISSOR">      0.00000000</i>
   <i type="int" name="NOMEGA">     0</i>
   <i type="int" name="NOMEGAR">     0</i>
   <i type="int" name="NBANDSGW">    -1</i>
   <i type="int" name="NBANDSO">    -1</i>
   <i type="int" name="NBANDSV">    -1</i>
   <i type="int" name="NELM">     1</i>
   <i type="int" name="NELMHF">     1</i>
   <i type="int" name="DIM">     3</i>
   <i type="int" name="ANTIRES">     0</i>
   <i name="OMEGAMAX">    -30.00000000</i>
   <i name="OMEGAMIN">    -30.00000000</i>
   <i name="OMEGATL">   -200.00000000</i>
   <i type="int" name="OMEGAGRID">   140</i>
   <i name="CSHIFT">     -0.10000000</i>
   <i type="logical" name="SELFENERGY"> F  </i>
   <i type="logical" name="LSPECTRAL"> F  </i>
   <i type="logical" name="LSPECTRALGW"> F  </i>
   <i type="logical" name="LSINGLES"> F  </i>
   <i type="logical" name="LFERMIGW"> F  </i>
   <i type="logical" name="ODDONLYGW"> F  </i>
   <i type="logical" name="EVENONLYGW"> F  </i>
   <i type="int" name="NKREDLFX">     1</i>
   <i type="int" name="NKREDLFY">     1</i>
   <i type="int" name="NKREDLFZ">     1</i>
   <i type="int" name="MAXMEM">  2800</i>
   <i type="int" name="TELESCOPE">     0</i>
   <i type="int" name="TAUPAR">     1</i>
   <i type="int" name="OMEGAPAR">    -1</i>
   <i name="LAMBDA">      1.00000000</i>
  </separator>
  <separator name="External order field" >
   <i name="OFIELD_KAPPA">      0.00000000</i>
   <v name="OFIELD_K">      0.00000000      0.00000000      0.00000000</v>
   <i name="OFIELD_Q6_NEAR">      0.00000000</i>
   <i name="OFIELD_Q6_FAR">      0.00000000</i>
   <i name="OFIELD_A">      0.00000000</i>
  </separator>
 </parameters>
 <atominfo>
  <atoms>      61 </atoms>
  <types>       5 </types>
  <array name="atoms" >
   <dimension dim="1">ion</dimension>
   <field type="string">element</field>
   <field type="int">atomtype</field>
   <set>
    <rc><c>Li</c><c>   1</c></rc>
    <rc><c>Li</c><c>   1</c></rc>
    <rc><c>Li</c><c>   1</c></rc>
    <rc><c>Li</c><c>   1</c></rc>
    <rc><c>Li</c><c>   1</c></rc>
    <rc><c>Li</c><c>   1</c></rc>
    <rc><c>Li</c><c>   1</c></rc>
    <rc><c>Li</c><c>   1</c></rc>
    <rc><c>Li</c><c>   1</c></rc>
    <rc><c>Li</c><c>   1</c></rc>
    <rc><c>Mg</c><c>   2</c></rc>
    <rc><c>Mg</c><c>   2</c></rc>
    <rc><c>Mg</c><c>   2</c></rc>
    <rc><c>Bi</c><c>   3</c></rc>
    <rc><c>Bi</c><c>   3</c></rc>
    <rc><c>Bi</c><c>   3</c></rc>
    <rc><c>Bi</c><c>   3</c></rc>
    <rc><c>Bi</c><c>   3</c></rc>
    <rc><c>Bi</c><c>   3</c></rc>
    <rc><c>Bi</c><c>   3</c></rc>
    <rc><c>Bi</c><c>   3</c></rc>
    <rc><c>Bi</c><c>   3</c></rc>
    <rc><c>Bi</c><c>   3</c></rc>
    <rc><c>Bi</c><c>   3</c></rc>
    <rc><c>Bi</c><c>   3</c></rc>
    <rc><c>Bi</c><c>   3</c></rc>
    <rc><c>Bi</c><c>   3</c></rc>
    <rc><c>Bi</c><c>   3</c></rc>
    <rc><c>Bi</c><c>   3</c></rc>
    <rc><c>S </c><c>   4</c></rc>
    <rc><c>S </c><c>   4</c></rc>
    <rc><c>S </c><c>   4</c></rc>
    <rc><c>S </c><c>   4</c></rc>
    <rc><c>S </c><c>   4</c></rc>
    <rc><c>S </c><c>   4</c></rc>
    <rc><c>S </c><c>   4</c></rc>
    <rc><c>S </c><c>   4</c></rc>
    <rc><c>S </c><c>   4</c></rc>
    <rc><c>S </c><c>   4</c></rc>
    <rc><c>S </c><c>   4</c></rc>
    <rc><c>S </c><c>   4</c></rc>
    <rc><c>S </c><c>   4</c></rc>
    <rc><c>S </c><c>   4</c></rc>
    <rc><c>S </c><c>   4</c></rc>
    <rc><c>S </c><c>   4</c></rc>
    <rc><c>O </c><c>   5</c></rc>
    <rc><c>O </c><c>   5</c></rc>
    <rc><c>O </c><c>   5</c></rc>
    <rc><c>O </c><c>   5</c></rc>
    <rc><c>O </c><c>   5</c></rc>
    <rc><c>O </c><c>   5</c></rc>
    <rc><c>O </c><c>   5</c></rc>
    <rc><c>O </c><c>   5</c></rc>
    <rc><c>O </c><c>   5</c></rc>
    <rc><c>O </c><c>   5</c></rc>
    <rc><c>O </c><c>   5</c></rc>
    <rc><c>O </c><c>   5</c></rc>
    <rc><c>O </c><c>   5</c></rc>
    <rc><c>O </c><c>   5</c></rc>
    <rc><c>O </c><c>   5</c></rc>
    <rc><c>O </c><c>   5</c></rc>
   </set>
  </array>
  <array name="atomtypes" >
   <dimension dim="1">type</dimension>
   <field type="int">atomspertype</field>
   <field type="string">element</field>
   <field>mass</field>
   <field>valence</field>
   <field type="string">pseudopotential</field>
   <set>
    <rc><c>  10</c><c>Li</c><c>      7.01000000</c><c>      3.00000000</c><c>  PAW_PBE Li_sv 10Sep2004               </c></rc>
    <rc><c>   3</c><c>Mg</c><c>     24.30500000</c><c>      2.00000000</c><c>  PAW_PBE Mg 13Apr2007                  </c></rc>
    <rc><c>  16</c><c>Bi</c><c>    208.98000000</c><c>     15.00000000</c><c>  PAW_PBE Bi_d 06Sep2000                </c></rc>
    <rc><c>  16</c><c>S </c><c>     32.06600000</c><c>      6.00000000</c><c>  PAW_PBE S 06Sep2000                   </c></rc>
    <rc><c>  16</c><c>O </c><c>     16.00000000</c><c>      6.00000000</c><c>  PAW_PBE O 08Apr2002                   </c></rc>
   </set>
  </array>
 </atominfo>
 <structure name="initialpos" >
  <crystal>
   <varray name="basis" >
    <v>      11.17850000       0.00000000       0.00000000 </v>
    <v>       0.00000000       9.57460000       0.00000000 </v>
    <v>       0.00000000       0.00000000      11.18240000 </v>
   </varray>
   <i name="volume">   1196.84853820 </i>
   <varray name="rec_basis" >
    <v>       0.08945744       0.00000000       0.00000000 </v>
    <v>       0.00000000       0.10444301       0.00000000 </v>
    <v>       0.00000000       0.00000000       0.08942624 </v>
   </varray>
  </crystal>
  <varray name="positions" >
   <v>       0.12461000       0.99984000       0.18687000 </v>
   <v>       0.37461000       0.00017000       0.18687000 </v>
   <v>       0.62539000       0.99984000       0.43687000 </v>
   <v>       0.87539000       0.00017000       0.43687000 </v>
   <v>       0.62461000       0.99984000       0.18687000 </v>
   <v>       0.87461000       0.00017000       0.18687000 </v>
   <v>       0.62539000       0.99984000       0.93687000 </v>
   <v>       0.87539000       0.00017000       0.93687000 </v>
   <v>       0.62461000       0.99984000       0.68687000 </v>
   <v>       0.87461000       0.00017000       0.68687000 </v>
   <v>       0.37539000       0.00017000       0.43687000 </v>
   <v>       0.37539000       0.00017000       0.93687000 </v>
   <v>       0.12461000       0.99984000       0.68687000 </v>
   <v>       0.00013000       0.29519000       0.06281000 </v>
   <v>       0.25013000       0.70481000       0.06281000 </v>
   <v>       0.24987000       0.29519000       0.31282000 </v>
   <v>       0.49987000       0.70481000       0.31282000 </v>
   <v>       0.50013000       0.29519000       0.06281000 </v>
   <v>       0.75013000       0.70481000       0.06281000 </v>
   <v>       0.74987000       0.29519000       0.31282000 </v>
   <v>       0.99987000       0.70481000       0.31282000 </v>
   <v>       0.00013000       0.29519000       0.56281000 </v>
   <v>       0.25013000       0.70481000       0.56281000 </v>
   <v>       0.24987000       0.29519000       0.81282000 </v>
   <v>       0.49987000       0.70481000       0.81282000 </v>
   <v>       0.50013000       0.29519000       0.56281000 </v>
   <v>       0.75013000       0.70481000       0.56281000 </v>
   <v>       0.74987000       0.29519000       0.81282000 </v>
   <v>       0.99987000       0.70481000       0.81282000 </v>
   <v>       0.25005000       0.32677000       0.06286000 </v>
   <v>       0.00005000       0.67323000       0.06286000 </v>
   <v>       0.49995000       0.32677000       0.31286000 </v>
   <v>       0.24995000       0.67323000       0.31286000 </v>
   <v>       0.75005000       0.32677000       0.06286000 </v>
   <v>       0.50005000       0.67323000       0.06286000 </v>
   <v>       0.99995000       0.32677000       0.31286000 </v>
   <v>       0.74995000       0.67323000       0.31286000 </v>
   <v>       0.25005000       0.32677000       0.56286000 </v>
   <v>       0.00005000       0.67323000       0.56286000 </v>
   <v>       0.49995000       0.32677000       0.81286000 </v>
   <v>       0.24995000       0.67323000       0.81286000 </v>
   <v>       0.75005000       0.32677000       0.56286000 </v>
   <v>       0.50005000       0.67323000       0.56286000 </v>
   <v>       0.99995000       0.32677000       0.81286000 </v>
   <v>       0.74995000       0.67323000       0.81286000 </v>
   <v>       0.49987000       0.07798000       0.06246000 </v>
   <v>       0.24987000       0.92202000       0.06246000 </v>
   <v>       0.25013000       0.07798000       0.31246000 </v>
   <v>       0.00013000       0.92202000       0.31246000 </v>
   <v>       0.99987000       0.07798000       0.06246000 </v>
   <v>       0.74987000       0.92202000       0.06246000 </v>
   <v>       0.75013000       0.07798000       0.31246000 </v>
   <v>       0.50013000       0.92202000       0.31246000 </v>
   <v>       0.49987000       0.07798000       0.56246000 </v>
   <v>       0.24987000       0.92202000       0.56246000 </v>
   <v>       0.25013000       0.07798000       0.81246000 </v>
   <v>       0.00013000       0.92202000       0.81246000 </v>
   <v>       0.99987000       0.07798000       0.56246000 </v>
   <v>       0.74987000       0.92202000       0.56246000 </v>
   <v>       0.75013000       0.07798000       0.81246000 </v>
   <v>       0.50013000       0.92202000       0.81246000 </v>
  </varray>
 </structure>
 <calculation>
  <scstep>
   <time name="dav">   59.65   60.39</time>
   <time name="total">   59.74   60.48</time>
   <energy>
    <i name="alphaZ">   1073.51873187 </i>
    <i name="ewald"> -30858.12494008 </i>
    <i name="hartreedc"> -12730.50052727 </i>
    <i name="XCdc">   1394.96651130 </i>
    <i name="pawpsdc">  36823.70205594 </i>
    <i name="pawaedc"> -36326.52930246 </i>
    <i name="eentropy">      0.00000000 </i>
    <i name="bandstr">   1805.12311362 </i>
    <i name="atom">  44791.06186932 </i>
    <i name="e_fr_energy">   5973.21751224 </i>
    <i name="e_wo_entrp">   5973.21751224 </i>
    <i name="e_0_energy">   5973.21751224 </i>
   </energy>
  </scstep>
  <scstep>
   <time name="dav">   60.53   61.58</time>
   <time name="total">   60.54   61.59</time>
   <energy>
    <i name="e_fr_energy">    793.32146111 </i>
    <i name="e_wo_entrp">    793.32146111 </i>
    <i name="e_0_energy">    793.32146111 </i>
   </energy>
  </scstep>
  <scstep>
   <time name="dav">   70.30   70.42</time>
   <time name="total">   70.31   70.43</time>
   <energy>
    <i name="e_fr_energy">   -245.55216210 </i>
    <i name="e_wo_entrp">   -245.55216210 </i>
    <i name="e_0_energy">   -245.55216210 </i>
   </energy>
  </scstep>
  <scstep>
   <time name="dav">   72.69   73.02</time>
   <time name="total">   72.69   73.03</time>
   <energy>
    <i name="e_fr_energy">   -346.81473686 </i>
    <i name="e_wo_entrp">   -346.81473686 </i>
    <i name="e_0_energy">   -346.81473686 </i>
   </energy>
  </scstep>
  <scstep>
   <time name="dav">   96.96   97.46</time>
   <time name="total">   97.69   98.19</time>
   <energy>
    <i name="e_fr_energy">   -355.54982116 </i>
    <i name="e_wo_entrp">   -355.54982116 </i>
    <i name="e_0_energy">   -355.54982116 </i>
   </energy>
  </scstep>
  <scstep>
   <time name="dav">   85.43   86.32</time>
   <time name="total">   86.23   87.12</time>
   <energy>
    <i name="e_fr_energy">   -296.83791852 </i>
    <i name="e_wo_entrp">   -296.83791852 </i>
    <i name="e_0_energy">   -296.83791852 </i>
   </energy>
  </scstep>
  <scstep>
   <time name="dav">   64.83   65.28</time>
   <time name="total">   65.63   66.09</time>
   <energy>
    <i name="e_fr_energy">   -299.62650070 </i>
    <i name="e_wo_entrp">   -299.62650070 </i>
    <i name="e_0_energy">   -299.62650070 </i>
   </energy>
  </scstep>
  <scstep>
   <time name="dav">   79.98   80.43</time>
   <time name="total">   80.81   81.27</time>
   <energy>
    <i name="e_fr_energy">   -298.37610564 </i>
    <i name="e_wo_entrp">   -298.37610564 </i>
    <i name="e_0_energy">   -298.37610564 </i>
   </energy>
  </scstep>
  <scstep>
   <time name="dav">   75.83   76.56</time>
   <time name="total">   76.62   77.36</time>
   <energy>
    <i name="e_fr_energy">   -297.71561920 </i>
    <i name="e_wo_entrp">   -297.71561920 </i>
    <i name="e_0_energy">   -297.71561920 </i>
   </energy>
  </scstep>
  <scstep>
   <time name="dav">   71.64   72.75</time>
   <time name="total">   72.42   73.55</time>
   <energy>
    <i name="e_fr_energy">   -297.73402457 </i>
    <i name="e_wo_entrp">   -297.73402457 </i>
    <i name="e_0_energy">   -297.73402457 </i>
   </energy>
  </scstep>
  <scstep>
   <time name="dav">   75.93   76.82</time>
   <time name="total">   76.69   77.64</time>
   <energy>
    <i name="e_fr_energy">   -297.74362014 </i>
    <i name="e_wo_entrp">   -297.74362014 </i>
    <i name="e_0_energy">   -297.74362014 </i>
   </energy>
  </scstep>
  <scstep>
   <time name="dav">   83.36   84.02</time>
   <time name="total">   84.16   84.82</time>
   <energy>
    <i name="e_fr_energy">   -297.74687657 </i>
    <i name="e_wo_entrp">   -297.74687657 </i>
    <i name="e_0_energy">   -297.74687657 </i>
   </energy>
  </scstep>
  <scstep>
   <time name="dav">   74.85   75.81</time>
   <time name="total">   75.66   76.63</time>
   <energy>
    <i name="e_fr_energy">   -297.74827940 </i>
    <i name="e_wo_entrp">   -297.74827940 </i>
    <i name="e_0_energy">   -297.74827940 </i>
   </energy>
  </scstep>
  <scstep>
   <time name="dav">   76.55   77.93</time>
   <time name="total">   77.37   78.75</time>
   <energy>
    <i name="e_fr_energy">   -297.74845296 </i>
    <i name="e_wo_entrp">   -297.74845296 </i>
    <i name="e_0_energy">   -297.74845296 </i>
   </energy>
  </scstep>
  <scstep>
   <time name="dav">   76.72   77.52</time>
   <time name="total">   77.49   78.32</time>
   <energy>
    <i name="e_fr_energy">   -297.74850370 </i>
    <i name="e_wo_entrp">   -297.74850370 </i>
    <i name="e_0_energy">   -297.74850370 </i>
   </energy>
  </scstep>
  <scstep>
   <time name="dav">   64.63   65.40</time>
   <time name="total">   65.42   66.20</time>
   <energy>
    <i name="e_fr_energy">   -297.74851943 </i>
    <i name="e_wo_entrp">   -297.74851943 </i>
    <i name="e_0_energy">   -297.74851943 </i>
   </energy>
  </scstep>
  <scstep>
   <time name="dav">   63.17   63.75</time>
   <time name="total">   63.96   64.55</time>
   <energy>
    <i name="e_fr_energy">   -297.74852265 </i>
    <i name="e_wo_entrp">   -297.74852265 </i>
    <i name="e_0_energy">   -297.74852265 </i>
   </energy>
  </scstep>
  <scstep>
   <time name="dav">   64.77   65.44</time>
   <time name="total">   65.57   66.24</time>
   <energy>
    <i name="e_fr_energy">   -297.74852372 </i>
    <i name="e_wo_entrp">   -297.74852372 </i>
    <i name="e_0_energy">   -297.74852372 </i>
   </energy>
  </scstep>
  <scstep>
   <time name="dav">   51.37   51.99</time>
   <time name="total">   51.44   52.07</time>
   <energy>
    <i name="alphaZ">   1073.51873187 </i>
    <i name="ewald"> -30858.12494008 </i>
    <i name="hartreedc"> -12970.17039501 </i>
    <i name="XCdc">   1418.59977998 </i>
    <i name="pawpsdc">  43854.55822448 </i>
    <i name="pawaedc"> -43332.11584484 </i>
    <i name="eentropy">      0.00000000 </i>
    <i name="bandstr">  -4275.07594887 </i>
    <i name="atom">  44791.06186932 </i>
    <i name="e_fr_energy">   -297.74852315 </i>
    <i name="e_wo_entrp">   -297.74852315 </i>
    <i name="e_0_energy">   -297.74852315 </i>
   </energy>
  </scstep>
  <structure>
   <crystal>
    <varray name="basis" >
     <v>      11.17850000       0.00000000       0.00000000 </v>
     <v>       0.00000000       9.57460000       0.00000000 </v>
     <v>       0.00000000       0.00000000      11.18240000 </v>
    </varray>
    <i name="volume">   1196.84853820 </i>
    <varray name="rec_basis" >
     <v>       0.08945744       0.00000000       0.00000000 </v>
     <v>       0.00000000       0.10444301       0.00000000 </v>
     <v>       0.00000000       0.00000000       0.08942624 </v>
    </varray>
   </crystal>
   <varray name="positions" >
    <v>       0.12461000       0.99984000       0.18687000 </v>
    <v>       0.37461000       0.00017000       0.18687000 </v>
    <v>       0.62539000       0.99984000       0.43687000 </v>
    <v>       0.87539000       0.00017000       0.43687000 </v>
    <v>       0.62461000       0.99984000       0.18687000 </v>
    <v>       0.87461000       0.00017000       0.18687000 </v>
    <v>       0.62539000       0.99984000       0.93687000 </v>
    <v>       0.87539000       0.00017000       0.93687000 </v>
    <v>       0.62461000       0.99984000       0.68687000 </v>
    <v>       0.87461000       0.00017000       0.68687000 </v>
    <v>       0.37539000       0.00017000       0.43687000 </v>
    <v>       0.37539000       0.00017000       0.93687000 </v>
    <v>       0.12461000       0.99984000       0.68687000 </v>
    <v>       0.00013000       0.29519000       0.06281000 </v>
    <v>       0.25013000       0.70481000       0.06281000 </v>
    <v>       0.24987000       0.29519000       0.31282000 </v>
    <v>       0.49987000       0.70481000       0.31282000 </v>
    <v>       0.50013000       0.29519000       0.06281000 </v>
    <v>       0.75013000       0.70481000       0.06281000 </v>
    <v>       0.74987000       0.29519000       0.31282000 </v>
    <v>       0.99987000       0.70481000       0.31282000 </v>
    <v>       0.00013000       0.29519000       0.56281000 </v>
    <v>       0.25013000       0.70481000       0.56281000 </v>
    <v>       0.24987000       0.29519000       0.81282000 </v>
    <v>       0.49987000       0.70481000       0.81282000 </v>
    <v>       0.50013000       0.29519000       0.56281000 </v>
    <v>       0.75013000       0.70481000       0.56281000 </v>
    <v>       0.74987000       0.29519000       0.81282000 </v>
    <v>       0.99987000       0.70481000       0.81282000 </v>
    <v>       0.25005000       0.32677000       0.06286000 </v>
    <v>       0.00005000       0.67323000       0.06286000 </v>
    <v>       0.49995000       0.32677000       0.31286000 </v>
    <v>       0.24995000       0.67323000       0.31286000 </v>
    <v>       0.75005000       0.32677000       0.06286000 </v>
    <v>       0.50005000       0.67323000       0.06286000 </v>
    <v>       0.99995000       0.32677000       0.31286000 </v>
    <v>       0.74995000       0.67323000       0.31286000 </v>
    <v>       0.25005000       0.32677000       0.56286000 </v>
    <v>       0.00005000       0.67323000       0.56286000 </v>
    <v>       0.49995000       0.32677000       0.81286000 </v>
    <v>       0.24995000       0.67323000       0.81286000 </v>
    <v>       0.75005000       0.32677000       0.56286000 </v>
    <v>       0.50005000       0.67323000       0.56286000 </v>
    <v>       0.99995000       0.32677000       0.81286000 </v>
    <v>       0.74995000       0.67323000       0.81286000 </v>
    <v>       0.49987000       0.07798000       0.06246000 </v>
    <v>       0.24987000       0.92202000       0.06246000 </v>
    <v>       0.25013000       0.07798000       0.31246000 </v>
    <v>       0.00013000       0.92202000       0.31246000 </v>
    <v>       0.99987000       0.07798000       0.06246000 </v>
    <v>       0.74987000       0.92202000       0.06246000 </v>
    <v>       0.75013000       0.07798000       0.31246000 </v>
    <v>       0.50013000       0.92202000       0.31246000 </v>
    <v>       0.49987000       0.07798000       0.56246000 </v>
    <v>       0.24987000       0.92202000       0.56246000 </v>
    <v>       0.25013000       0.07798000       0.81246000 </v>
    <v>       0.00013000       0.92202000       0.81246000 </v>
    <v>       0.99987000       0.07798000       0.56246000 </v>
    <v>       0.74987000       0.92202000       0.56246000 </v>
    <v>       0.75013000       0.07798000       0.81246000 </v>
    <v>       0.50013000       0.92202000       0.81246000 </v>
   </varray>
  </structure>
  <varray name="forces" >
   <v>      -0.19733700      -0.00019562       0.00499591 </v>
   <v>      -0.36047510      -0.00089534       0.00596006 </v>
   <v>       0.35473511       0.06539669       0.16748162 </v>
   <v>       0.43947011      -0.06692790      -0.08103102 </v>
   <v>       0.22336237      -0.00023970       0.00471453 </v>
   <v>       0.35830385      -0.00137942       0.00677292 </v>
   <v>       0.35521426      -0.06463492      -0.15384988 </v>
   <v>       0.43973426       0.06384020       0.09085824 </v>
   <v>      -0.29579114       0.00093436       0.00421125 </v>
   <v>      -0.10677024      -0.00151503       0.00724355 </v>
   <v>      -0.90753043       0.11284447       0.85402464 </v>
   <v>      -0.90949087      -0.12187900      -0.79210363 </v>
   <v>       0.58772583       0.00236725       0.02990691 </v>
   <v>       0.06581228      -1.01427645      -0.05361783 </v>
   <v>      -0.44276096      -0.01021561      -0.03287837 </v>
   <v>      -0.43464481       0.01419413       0.02348476 </v>
   <v>       0.11649262      -1.06278298      -0.04544597 </v>
   <v>       0.10452329       1.05566598       0.03866617 </v>
   <v>       0.25048993      -0.01186245       0.01060234 </v>
   <v>       0.26181732       0.01191280      -0.01822213 </v>
   <v>       0.08213041       1.02420387       0.04204461 </v>
   <v>      -0.01059218      -0.00406714      -0.26406328 </v>
   <v>      -0.14562851       0.11609448      -0.02824271 </v>
   <v>      -0.14398411      -0.11632185       0.01880011 </v>
   <v>       0.00114501      -0.03088762      -0.23133928 </v>
   <v>      -0.01465181       0.01154349       0.22091958 </v>
   <v>       0.14589723      -0.02171166      -0.01282206 </v>
   <v>       0.16015367       0.02196410       0.00405073 </v>
   <v>       0.00643383       0.02385495       0.25577541 </v>
   <v>       0.31718707       0.12352523      -0.01757608 </v>
   <v>      -0.02456344      -0.20958859      -0.08825116 </v>
   <v>      -0.03272558       0.11674083      -0.03913911 </v>
   <v>       0.32154945      -0.12317157       0.01709189 </v>
   <v>      -0.26573372       0.18576708      -0.00038988 </v>
   <v>      -0.03226363      -0.11761906       0.03837841 </v>
   <v>      -0.02303347       0.20867904       0.08710996 </v>
   <v>      -0.26640905      -0.18647238       0.00007418 </v>
   <v>       0.07381348       0.08766869      -0.02210372 </v>
   <v>       0.01058721      -0.16909854       0.15033298 </v>
   <v>      -0.00679981       0.09203248       0.15323173 </v>
   <v>       0.08136681      -0.08790312       0.02021495 </v>
   <v>      -0.07825907       0.18919046      -0.00010735 </v>
   <v>      -0.00645901      -0.09463548      -0.15119585 </v>
   <v>       0.01069518       0.17032130      -0.15176172 </v>
   <v>      -0.08079792      -0.18942821      -0.00014891 </v>
   <v>      -0.45573338      -0.83206707      -0.40078903 </v>
   <v>       1.34041334       0.00980157       0.11549318 </v>
   <v>       1.31943149      -0.00316269      -0.13070680 </v>
   <v>      -0.62935726      -0.85843816      -0.53291620 </v>
   <v>      -0.61693438       0.85621017       0.53549287 </v>
   <v>      -0.23257722       0.02620444      -0.00032236 </v>
   <v>      -0.24380354      -0.02482153      -0.00239505 </v>
   <v>      -0.46064361       0.83166831       0.38642009 </v>
   <v>       0.14852839      -0.02952901      -1.19366113 </v>
   <v>       0.09600886      -0.29113744      -0.03611917 </v>
   <v>       0.06888550       0.29196892       0.01352652 </v>
   <v>      -0.14527567      -0.08307377      -1.15310857 </v>
   <v>      -0.13858906       0.08041252       1.14326499 </v>
   <v>      -0.08032738       0.02250798      -0.00189333 </v>
   <v>      -0.09361391      -0.02185068      -0.00067595 </v>
   <v>       0.14164911       0.03427420       1.18573240 </v>
  </varray>
  <varray name="stress" >
   <v>      -8.23300768      -0.17892958       0.01280606 </v>
   <v>      -0.17892920     -14.15427315       0.15276664 </v>
   <v>       0.01280606       0.15276697     -10.55353157 </v>
  </varray>
  <energy>
   <i name="e_fr_energy">   -312.43460485 </i>
   <i name="e_wo_entrp">   -312.43460485 </i>
   <i name="e_0_energy">      0.00000000 </i>
  </energy>
  <time name="totalsc"> 1487.13 1501.37</time>
  <eigenvalues>
   <array>
    <dimension dim="1">band</dimension>
    <dimension dim="2">kpoint</dimension>
    <dimension dim="3">spin</dimension>
    <field>eigene</field>
    <field>occ</field>
    <set>
     <set comment="spin 1">
      <set comment="kpoint 1">
       <r>  -40.2629    1.0000 </r>
       <r>  -40.1764    1.0000 </r>
       <r>  -40.0525    1.0000 </r>
       <r>  -40.0523    1.0000 </r>
       <r>  -39.8106    1.0000 </r>
       <r>  -39.7954    1.0000 </r>
       <r>  -39.5560    1.0000 </r>
       <r>  -39.5556    1.0000 </r>
       <r>  -39.4380    1.0000 </r>
       <r>  -39.3641    1.0000 </r>
       <r>  -18.9207    1.0000 </r>
       <r>  -18.9203    1.0000 </r>
       <r>  -18.8505    1.0000 </r>
       <r>  -18.8502    1.0000 </r>
       <r>  -18.8435    1.0000 </r>
       <r>  -18.8432    1.0000 </r>
       <r>  -18.7474    1.0000 </r>
       <r>  -18.7463    1.0000 </r>
       <r>  -18.7336    1.0000 </r>
       <r>  -18.7332    1.0000 </r>
       <r>  -18.7148    1.0000 </r>
       <r>  -18.7124    1.0000 </r>
       <r>  -18.7052    1.0000 </r>
       <r>  -18.7028    1.0000 </r>
       <r>  -18.6990    1.0000 </r>
       <r>  -18.6957    1.0000 </r>
       <r>  -18.6411    1.0000 </r>
       <r>  -18.6397    1.0000 </r>
       <r>  -18.6353    1.0000 </r>
       <r>  -18.6344    1.0000 </r>
       <r>  -18.6319    1.0000 </r>
       <r>  -18.6307    1.0000 </r>
       <r>  -18.6306    1.0000 </r>
       <r>  -18.6294    1.0000 </r>
       <r>  -18.6272    1.0000 </r>
       <r>  -18.6255    1.0000 </r>
       <r>  -18.6236    1.0000 </r>
       <r>  -18.6230    1.0000 </r>
       <r>  -18.6227    1.0000 </r>
       <r>  -18.6224    1.0000 </r>
       <r>  -18.6221    1.0000 </r>
       <r>  -18.6216    1.0000 </r>
       <r>  -18.6169    1.0000 </r>
       <r>  -18.6162    1.0000 </r>
       <r>  -18.6146    1.0000 </r>
       <r>  -18.6136    1.0000 </r>
       <r>  -18.6122    1.0000 </r>
       <r>  -18.6114    1.0000 </r>
       <r>  -18.6002    1.0000 </r>
       <r>  -18.5995    1.0000 </r>
       <r>  -18.5661    1.0000 </r>
       <r>  -18.5623    1.0000 </r>
       <r>  -18.5599    1.0000 </r>
       <r>  -18.5566    1.0000 </r>
       <r>  -18.5525    1.0000 </r>
       <r>  -18.5488    1.0000 </r>
       <r>  -18.5440    1.0000 </r>
       <r>  -18.5425    1.0000 </r>
       <r>  -18.5392    1.0000 </r>
       <r>  -18.5392    1.0000 </r>
       <r>  -18.4859    1.0000 </r>
       <r>  -18.4840    1.0000 </r>
       <r>  -18.4720    1.0000 </r>
       <r>  -18.4717    1.0000 </r>
       <r>  -18.4708    1.0000 </r>
       <r>  -18.4701    1.0000 </r>
       <r>  -18.4694    1.0000 </r>
       <r>  -18.4686    1.0000 </r>
       <r>  -18.4685    1.0000 </r>
       <r>  -18.4678    1.0000 </r>
       <r>  -18.4676    1.0000 </r>
       <r>  -18.4669    1.0000 </r>
       <r>  -18.4663    1.0000 </r>
       <r>  -18.4653    1.0000 </r>
       <r>  -18.4428    1.0000 </r>
       <r>  -18.4420    1.0000 </r>
       <r>  -18.4107    1.0000 </r>
       <r>  -18.4061    1.0000 </r>
       <r>  -18.3922    1.0000 </r>
       <r>  -18.3879    1.0000 </r>
       <r>  -18.3873    1.0000 </r>
       <r>  -18.3847    1.0000 </r>
       <r>  -18.3749    1.0000 </r>
       <r>  -18.3717    1.0000 </r>
       <r>  -18.2958    1.0000 </r>
       <r>  -18.2920    1.0000 </r>
       <r>  -18.1808    1.0000 </r>
       <r>  -18.1772    1.0000 </r>
       <r>  -18.1672    1.0000 </r>
       <r>  -18.1635    1.0000 </r>
       <r>  -13.5381    1.0000 </r>
       <r>  -13.4682    1.0000 </r>
       <r>  -12.8959    1.0000 </r>
       <r>  -12.7989    1.0000 </r>
       <r>  -12.7693    1.0000 </r>
       <r>  -12.7386    1.0000 </r>
       <r>  -12.7017    1.0000 </r>
       <r>  -12.6946    1.0000 </r>
       <r>  -12.6519    1.0000 </r>
       <r>  -12.6501    1.0000 </r>
       <r>  -12.6094    1.0000 </r>
       <r>  -12.5920    1.0000 </r>
       <r>  -12.5912    1.0000 </r>
       <r>  -12.5589    1.0000 </r>
       <r>  -11.9578    1.0000 </r>
       <r>  -11.8946    1.0000 </r>
       <r>   -9.3158    1.0000 </r>
       <r>   -9.0213    1.0000 </r>
       <r>   -8.5215    1.0000 </r>
       <r>   -8.4921    1.0000 </r>
       <r>   -8.4733    1.0000 </r>
       <r>   -8.4326    1.0000 </r>
       <r>   -8.2986    1.0000 </r>
       <r>   -8.2730    1.0000 </r>
       <r>   -8.2471    1.0000 </r>
       <r>   -8.2088    1.0000 </r>
       <r>   -8.0180    1.0000 </r>
       <r>   -8.0171    1.0000 </r>
       <r>   -7.9820    1.0000 </r>
       <r>   -7.9811    1.0000 </r>
       <r>   -7.3461    1.0000 </r>
       <r>   -7.3451    1.0000 </r>
       <r>   -6.3635    1.0000 </r>
       <r>   -6.3610    1.0000 </r>
       <r>   -6.3254    1.0000 </r>
       <r>   -6.3244    1.0000 </r>
       <r>   -5.5178    1.0000 </r>
       <r>   -5.4827    1.0000 </r>
       <r>   -5.3508    1.0000 </r>
       <r>   -5.3269    1.0000 </r>
       <r>   -5.3263    1.0000 </r>
       <r>   -5.2365    1.0000 </r>
       <r>   -5.1961    1.0000 </r>
       <r>   -5.1560    1.0000 </r>
       <r>   -5.1130    1.0000 </r>
       <r>   -5.0466    1.0000 </r>
       <r>   -3.7953    1.0000 </r>
       <r>   -3.6414    1.0000 </r>
       <r>   -1.4301    1.0000 </r>
       <r>   -1.3017    1.0000 </r>
       <r>   -1.0891    1.0000 </r>
       <r>   -0.9938    1.0000 </r>
       <r>   -0.5184    1.0000 </r>
       <r>   -0.5024    1.0000 </r>
       <r>   -0.4877    1.0000 </r>
       <r>   -0.4376    1.0000 </r>
       <r>   -0.1671    1.0000 </r>
       <r>   -0.1577    1.0000 </r>
       <r>   -0.1514    1.0000 </r>
       <r>   -0.1213    1.0000 </r>
       <r>    0.0763    1.0000 </r>
       <r>    0.1663    1.0000 </r>
       <r>    0.4031    1.0000 </r>
       <r>    0.4688    1.0000 </r>
       <r>    0.4829    1.0000 </r>
       <r>    0.6093    1.0000 </r>
       <r>    0.6294    1.0000 </r>
       <r>    0.6838    1.0000 </r>
       <r>    0.7272    1.0000 </r>
       <r>    0.7468    1.0000 </r>
       <r>    0.7643    1.0000 </r>
       <r>    0.7749    1.0000 </r>
       <r>    0.7971    1.0000 </r>
       <r>    0.8922    1.0000 </r>
       <r>    0.9510    1.0000 </r>
       <r>    0.9583    1.0000 </r>
       <r>    0.9763    1.0000 </r>
       <r>    0.9993    1.0000 </r>
       <r>    1.0422    1.0000 </r>
       <r>    1.0681    1.0000 </r>
       <r>    1.0981    1.0000 </r>
       <r>    1.2117    1.0000 </r>
       <r>    1.2546    1.0000 </r>
       <r>    1.2663    1.0000 </r>
       <r>    1.4099    1.0000 </r>
       <r>    1.4353    1.0000 </r>
       <r>    1.4683    1.0000 </r>
       <r>    1.4818    1.0000 </r>
       <r>    1.5226    1.0000 </r>
       <r>    1.5516    1.0000 </r>
       <r>    1.6033    1.0000 </r>
       <r>    1.6214    1.0000 </r>
       <r>    1.6310    1.0000 </r>
       <r>    1.7873    1.0000 </r>
       <r>    1.7929    1.0000 </r>
       <r>    1.8383    1.0000 </r>
       <r>    1.8767    1.0000 </r>
       <r>    1.8891    1.0000 </r>
       <r>    1.8902    1.0000 </r>
       <r>    1.9727    1.0000 </r>
       <r>    2.1062    1.0000 </r>
       <r>    2.1481    1.0000 </r>
       <r>    2.2473    1.0000 </r>
       <r>    2.2908    1.0000 </r>
       <r>    2.3527    1.0000 </r>
       <r>    2.3655    1.0000 </r>
       <r>    2.5027    1.0000 </r>
       <r>    2.5419    1.0000 </r>
       <r>    2.5809    1.0000 </r>
       <r>    2.5822    1.0000 </r>
       <r>    2.6064    1.0000 </r>
       <r>    2.6087    1.0000 </r>
       <r>    2.6413    1.0000 </r>
       <r>    2.6910    1.0000 </r>
       <r>    2.6920    1.0000 </r>
       <r>    2.7394    1.0000 </r>
       <r>    2.7480    1.0000 </r>
       <r>    2.7887    1.0000 </r>
       <r>    2.7914    1.0000 </r>
       <r>    2.8010    1.0000 </r>
       <r>    2.8841    1.0000 </r>
       <r>    2.9290    1.0000 </r>
       <r>    2.9296    1.0000 </r>
       <r>    2.9688    1.0000 </r>
       <r>    3.0444    1.0000 </r>
       <r>    3.0636    1.0000 </r>
       <r>    3.0867    1.0000 </r>
       <r>    3.1199    1.0000 </r>
       <r>    3.1225    1.0000 </r>
       <r>    3.1603    1.0000 </r>
       <r>    3.1761    1.0000 </r>
       <r>    3.1891    1.0000 </r>
       <r>    3.1914    1.0000 </r>
       <r>    3.2454    1.0000 </r>
       <r>    3.3143    1.0000 </r>
       <r>    3.3308    1.0000 </r>
       <r>    3.4113    1.0000 </r>
       <r>    3.4689    1.0000 </r>
       <r>    3.4912    1.0000 </r>
       <r>    3.5777    1.0000 </r>
       <r>    4.1997    1.0000 </r>
       <r>    4.2007    1.0000 </r>
       <r>    4.2334    1.0000 </r>
       <r>    4.2433    1.0000 </r>
       <r>    5.0634    0.0000 </r>
       <r>    5.0644    0.0000 </r>
       <r>    5.1755    0.0000 </r>
       <r>    5.1815    0.0000 </r>
       <r>    5.7542    0.0000 </r>
       <r>    5.7554    0.0000 </r>
       <r>    5.8232    0.0000 </r>
       <r>    5.8319    0.0000 </r>
       <r>    6.1130    0.0000 </r>
       <r>    6.1243    0.0000 </r>
       <r>    6.1374    0.0000 </r>
       <r>    6.1691    0.0000 </r>
       <r>    6.2477    0.0000 </r>
       <r>    6.2497    0.0000 </r>
       <r>    6.2725    0.0000 </r>
       <r>    6.2839    0.0000 </r>
       <r>    7.1038    0.0000 </r>
       <r>    7.1725    0.0000 </r>
       <r>    7.3264    0.0000 </r>
       <r>    7.3272    0.0000 </r>
       <r>    7.8143    0.0000 </r>
       <r>    7.8852    0.0000 </r>
       <r>    7.9345    0.0000 </r>
       <r>    7.9564    0.0000 </r>
       <r>    7.9934    0.0000 </r>
       <r>    8.0147    0.0000 </r>
       <r>    8.1511    0.0000 </r>
       <r>    8.1903    0.0000 </r>
       <r>    8.4330    0.0000 </r>
       <r>    8.6584    0.0000 </r>
       <r>    8.6827    0.0000 </r>
       <r>    8.7884    0.0000 </r>
       <r>    8.7973    0.0000 </r>
       <r>    8.8927    0.0000 </r>
       <r>    8.9365    0.0000 </r>
       <r>    9.0070    0.0000 </r>
       <r>    9.0557    0.0000 </r>
       <r>    9.0644    0.0000 </r>
       <r>    9.0852    0.0000 </r>
       <r>    9.1309    0.0000 </r>
       <r>    9.1524    0.0000 </r>
       <r>    9.1697    0.0000 </r>
       <r>    9.2036    0.0000 </r>
       <r>    9.2709    0.0000 </r>
       <r>    9.4608    0.0000 </r>
       <r>    9.5325    0.0000 </r>
      </set>
      <set comment="kpoint 2">
       <r>  -40.2629    1.0000 </r>
       <r>  -40.1764    1.0000 </r>
       <r>  -40.0525    1.0000 </r>
       <r>  -40.0522    1.0000 </r>
       <r>  -39.8106    1.0000 </r>
       <r>  -39.7954    1.0000 </r>
       <r>  -39.5560    1.0000 </r>
       <r>  -39.5556    1.0000 </r>
       <r>  -39.4380    1.0000 </r>
       <r>  -39.3641    1.0000 </r>
       <r>  -18.9207    1.0000 </r>
       <r>  -18.9203    1.0000 </r>
       <r>  -18.8505    1.0000 </r>
       <r>  -18.8501    1.0000 </r>
       <r>  -18.8435    1.0000 </r>
       <r>  -18.8432    1.0000 </r>
       <r>  -18.7474    1.0000 </r>
       <r>  -18.7463    1.0000 </r>
       <r>  -18.7336    1.0000 </r>
       <r>  -18.7332    1.0000 </r>
       <r>  -18.7147    1.0000 </r>
       <r>  -18.7122    1.0000 </r>
       <r>  -18.7051    1.0000 </r>
       <r>  -18.7027    1.0000 </r>
       <r>  -18.6989    1.0000 </r>
       <r>  -18.6956    1.0000 </r>
       <r>  -18.6420    1.0000 </r>
       <r>  -18.6406    1.0000 </r>
       <r>  -18.6345    1.0000 </r>
       <r>  -18.6336    1.0000 </r>
       <r>  -18.6323    1.0000 </r>
       <r>  -18.6309    1.0000 </r>
       <r>  -18.6309    1.0000 </r>
       <r>  -18.6299    1.0000 </r>
       <r>  -18.6278    1.0000 </r>
       <r>  -18.6261    1.0000 </r>
       <r>  -18.6238    1.0000 </r>
       <r>  -18.6229    1.0000 </r>
       <r>  -18.6228    1.0000 </r>
       <r>  -18.6223    1.0000 </r>
       <r>  -18.6221    1.0000 </r>
       <r>  -18.6215    1.0000 </r>
       <r>  -18.6152    1.0000 </r>
       <r>  -18.6147    1.0000 </r>
       <r>  -18.6146    1.0000 </r>
       <r>  -18.6137    1.0000 </r>
       <r>  -18.6125    1.0000 </r>
       <r>  -18.6117    1.0000 </r>
       <r>  -18.6001    1.0000 </r>
       <r>  -18.5995    1.0000 </r>
       <r>  -18.5661    1.0000 </r>
       <r>  -18.5623    1.0000 </r>
       <r>  -18.5599    1.0000 </r>
       <r>  -18.5566    1.0000 </r>
       <r>  -18.5526    1.0000 </r>
       <r>  -18.5489    1.0000 </r>
       <r>  -18.5440    1.0000 </r>
       <r>  -18.5425    1.0000 </r>
       <r>  -18.5392    1.0000 </r>
       <r>  -18.5392    1.0000 </r>
       <r>  -18.4859    1.0000 </r>
       <r>  -18.4840    1.0000 </r>
       <r>  -18.4720    1.0000 </r>
       <r>  -18.4717    1.0000 </r>
       <r>  -18.4708    1.0000 </r>
       <r>  -18.4701    1.0000 </r>
       <r>  -18.4694    1.0000 </r>
       <r>  -18.4686    1.0000 </r>
       <r>  -18.4685    1.0000 </r>
       <r>  -18.4678    1.0000 </r>
       <r>  -18.4676    1.0000 </r>
       <r>  -18.4669    1.0000 </r>
       <r>  -18.4663    1.0000 </r>
       <r>  -18.4653    1.0000 </r>
       <r>  -18.4428    1.0000 </r>
       <r>  -18.4420    1.0000 </r>
       <r>  -18.4107    1.0000 </r>
       <r>  -18.4061    1.0000 </r>
       <r>  -18.3922    1.0000 </r>
       <r>  -18.3879    1.0000 </r>
       <r>  -18.3873    1.0000 </r>
       <r>  -18.3847    1.0000 </r>
       <r>  -18.3749    1.0000 </r>
       <r>  -18.3717    1.0000 </r>
       <r>  -18.2958    1.0000 </r>
       <r>  -18.2920    1.0000 </r>
       <r>  -18.1808    1.0000 </r>
       <r>  -18.1772    1.0000 </r>
       <r>  -18.1672    1.0000 </r>
       <r>  -18.1635    1.0000 </r>
       <r>  -13.5379    1.0000 </r>
       <r>  -13.4682    1.0000 </r>
       <r>  -12.8852    1.0000 </r>
       <r>  -12.8038    1.0000 </r>
       <r>  -12.7954    1.0000 </r>
       <r>  -12.7258    1.0000 </r>
       <r>  -12.6998    1.0000 </r>
       <r>  -12.6916    1.0000 </r>
       <r>  -12.6493    1.0000 </r>
       <r>  -12.6450    1.0000 </r>
       <r>  -12.6052    1.0000 </r>
       <r>  -12.5970    1.0000 </r>
       <r>  -12.5959    1.0000 </r>
       <r>  -12.5586    1.0000 </r>
       <r>  -11.9578    1.0000 </r>
       <r>  -11.8945    1.0000 </r>
       <r>   -9.1723    1.0000 </r>
       <r>   -9.0136    1.0000 </r>
       <r>   -8.8973    1.0000 </r>
       <r>   -8.7358    1.0000 </r>
       <r>   -8.3907    1.0000 </r>
       <r>   -8.3819    1.0000 </r>
       <r>   -8.2521    1.0000 </r>
       <r>   -8.2459    1.0000 </r>
       <r>   -8.1892    1.0000 </r>
       <r>   -8.1814    1.0000 </r>
       <r>   -8.0492    1.0000 </r>
       <r>   -8.0438    1.0000 </r>
       <r>   -7.7408    1.0000 </r>
       <r>   -7.6286    1.0000 </r>
       <r>   -7.6235    1.0000 </r>
       <r>   -7.5106    1.0000 </r>
       <r>   -6.0123    1.0000 </r>
       <r>   -6.0051    1.0000 </r>
       <r>   -5.8267    1.0000 </r>
       <r>   -5.8212    1.0000 </r>
       <r>   -5.7907    1.0000 </r>
       <r>   -5.7803    1.0000 </r>
       <r>   -5.7260    1.0000 </r>
       <r>   -5.6549    1.0000 </r>
       <r>   -5.6430    1.0000 </r>
       <r>   -5.6421    1.0000 </r>
       <r>   -5.5194    1.0000 </r>
       <r>   -5.4437    1.0000 </r>
       <r>   -4.4958    1.0000 </r>
       <r>   -4.3340    1.0000 </r>
       <r>   -4.3331    1.0000 </r>
       <r>   -4.1600    1.0000 </r>
       <r>   -1.2264    1.0000 </r>
       <r>   -1.0281    1.0000 </r>
       <r>   -0.8854    1.0000 </r>
       <r>   -0.7095    1.0000 </r>
       <r>   -0.3826    1.0000 </r>
       <r>   -0.2133    1.0000 </r>
       <r>   -0.1284    1.0000 </r>
       <r>    0.0644    1.0000 </r>
       <r>    0.0828    1.0000 </r>
       <r>    0.1390    1.0000 </r>
       <r>    0.1688    1.0000 </r>
       <r>    0.2063    1.0000 </r>
       <r>    0.2455    1.0000 </r>
       <r>    0.2813    1.0000 </r>
       <r>    0.3820    1.0000 </r>
       <r>    0.4234    1.0000 </r>
       <r>    0.4692    1.0000 </r>
       <r>    0.5083    1.0000 </r>
       <r>    0.5242    1.0000 </r>
       <r>    0.5972    1.0000 </r>
       <r>    0.6044    1.0000 </r>
       <r>    0.6292    1.0000 </r>
       <r>    0.6433    1.0000 </r>
       <r>    0.7206    1.0000 </r>
       <r>    0.7870    1.0000 </r>
       <r>    0.8255    1.0000 </r>
       <r>    0.8571    1.0000 </r>
       <r>    1.0197    1.0000 </r>
       <r>    1.0408    1.0000 </r>
       <r>    1.0782    1.0000 </r>
       <r>    1.1040    1.0000 </r>
       <r>    1.1603    1.0000 </r>
       <r>    1.1711    1.0000 </r>
       <r>    1.2067    1.0000 </r>
       <r>    1.2426    1.0000 </r>
       <r>    1.2607    1.0000 </r>
       <r>    1.2944    1.0000 </r>
       <r>    1.3245    1.0000 </r>
       <r>    1.4754    1.0000 </r>
       <r>    1.4774    1.0000 </r>
       <r>    1.5296    1.0000 </r>
       <r>    1.5375    1.0000 </r>
       <r>    1.5613    1.0000 </r>
       <r>    1.6092    1.0000 </r>
       <r>    1.6273    1.0000 </r>
       <r>    1.6462    1.0000 </r>
       <r>    1.7611    1.0000 </r>
       <r>    1.7711    1.0000 </r>
       <r>    1.7945    1.0000 </r>
       <r>    1.8468    1.0000 </r>
       <r>    1.8597    1.0000 </r>
       <r>    1.9507    1.0000 </r>
       <r>    1.9891    1.0000 </r>
       <r>    1.9992    1.0000 </r>
       <r>    2.0637    1.0000 </r>
       <r>    2.0870    1.0000 </r>
       <r>    2.1333    1.0000 </r>
       <r>    2.1867    1.0000 </r>
       <r>    2.2383    1.0000 </r>
       <r>    2.2749    1.0000 </r>
       <r>    2.3072    1.0000 </r>
       <r>    2.3768    1.0000 </r>
       <r>    2.4423    1.0000 </r>
       <r>    2.4501    1.0000 </r>
       <r>    2.4571    1.0000 </r>
       <r>    2.5300    1.0000 </r>
       <r>    2.5949    1.0000 </r>
       <r>    2.6034    1.0000 </r>
       <r>    2.6430    1.0000 </r>
       <r>    2.6497    1.0000 </r>
       <r>    2.7289    1.0000 </r>
       <r>    2.7469    1.0000 </r>
       <r>    2.7730    1.0000 </r>
       <r>    2.7891    1.0000 </r>
       <r>    2.8066    1.0000 </r>
       <r>    2.9180    1.0000 </r>
       <r>    2.9278    1.0000 </r>
       <r>    2.9441    1.0000 </r>
       <r>    2.9780    1.0000 </r>
       <r>    2.9825    1.0000 </r>
       <r>    3.0585    1.0000 </r>
       <r>    3.0660    1.0000 </r>
       <r>    3.1628    1.0000 </r>
       <r>    3.1644    1.0000 </r>
       <r>    3.1704    1.0000 </r>
       <r>    3.2657    1.0000 </r>
       <r>    3.3341    1.0000 </r>
       <r>    3.4441    1.0000 </r>
       <r>    3.4484    1.0000 </r>
       <r>    3.4666    1.0000 </r>
       <r>    3.5439    1.0000 </r>
       <r>    3.5488    1.0000 </r>
       <r>    3.5784    1.0000 </r>
       <r>    3.6100    1.0000 </r>
       <r>    3.6950    1.0000 </r>
       <r>    3.7352    1.0000 </r>
       <r>    5.5693    0.0000 </r>
       <r>    5.5723    0.0000 </r>
       <r>    5.7257    0.0000 </r>
       <r>    5.7311    0.0000 </r>
       <r>    5.7541    0.0000 </r>
       <r>    5.7699    0.0000 </r>
       <r>    5.9082    0.0000 </r>
       <r>    5.9247    0.0000 </r>
       <r>    7.1931    0.0000 </r>
       <r>    7.2506    0.0000 </r>
       <r>    7.2748    0.0000 </r>
       <r>    7.3593    0.0000 </r>
       <r>    7.4081    0.0000 </r>
       <r>    7.4438    0.0000 </r>
       <r>    7.4577    0.0000 </r>
       <r>    7.4910    0.0000 </r>
       <r>    7.5080    0.0000 </r>
       <r>    7.5204    0.0000 </r>
       <r>    7.6026    0.0000 </r>
       <r>    7.6410    0.0000 </r>
       <r>    7.8163    0.0000 </r>
       <r>    7.8336    0.0000 </r>
       <r>    7.8728    0.0000 </r>
       <r>    7.8828    0.0000 </r>
       <r>    7.8963    0.0000 </r>
       <r>    7.9177    0.0000 </r>
       <r>    7.9616    0.0000 </r>
       <r>    7.9763    0.0000 </r>
       <r>    8.0000    0.0000 </r>
       <r>    8.0017    0.0000 </r>
       <r>    8.0619    0.0000 </r>
       <r>    8.0750    0.0000 </r>
       <r>    8.2470    0.0000 </r>
       <r>    8.3118    0.0000 </r>
       <r>    8.4457    0.0000 </r>
       <r>    8.6484    0.0000 </r>
       <r>    8.6599    0.0000 </r>
       <r>    8.7288    0.0000 </r>
       <r>    8.7576    0.0000 </r>
       <r>    8.7667    0.0000 </r>
       <r>    8.7839    0.0000 </r>
       <r>    8.8746    0.0000 </r>
       <r>    8.9332    0.0000 </r>
       <r>    8.9480    0.0000 </r>
       <r>    9.1158    0.0000 </r>
       <r>    9.3432    0.0000 </r>
      </set>
      <set comment="kpoint 3">
       <r>  -40.2629    1.0000 </r>
       <r>  -40.1764    1.0000 </r>
       <r>  -40.0525    1.0000 </r>
       <r>  -40.0522    1.0000 </r>
       <r>  -39.8106    1.0000 </r>
       <r>  -39.7954    1.0000 </r>
       <r>  -39.5560    1.0000 </r>
       <r>  -39.5556    1.0000 </r>
       <r>  -39.4380    1.0000 </r>
       <r>  -39.3641    1.0000 </r>
       <r>  -18.9211    1.0000 </r>
       <r>  -18.9198    1.0000 </r>
       <r>  -18.8505    1.0000 </r>
       <r>  -18.8502    1.0000 </r>
       <r>  -18.8435    1.0000 </r>
       <r>  -18.8432    1.0000 </r>
       <r>  -18.7474    1.0000 </r>
       <r>  -18.7463    1.0000 </r>
       <r>  -18.7336    1.0000 </r>
       <r>  -18.7332    1.0000 </r>
       <r>  -18.7148    1.0000 </r>
       <r>  -18.7124    1.0000 </r>
       <r>  -18.7051    1.0000 </r>
       <r>  -18.7028    1.0000 </r>
       <r>  -18.6989    1.0000 </r>
       <r>  -18.6958    1.0000 </r>
       <r>  -18.6411    1.0000 </r>
       <r>  -18.6397    1.0000 </r>
       <r>  -18.6353    1.0000 </r>
       <r>  -18.6344    1.0000 </r>
       <r>  -18.6319    1.0000 </r>
       <r>  -18.6306    1.0000 </r>
       <r>  -18.6306    1.0000 </r>
       <r>  -18.6294    1.0000 </r>
       <r>  -18.6272    1.0000 </r>
       <r>  -18.6255    1.0000 </r>
       <r>  -18.6236    1.0000 </r>
       <r>  -18.6230    1.0000 </r>
       <r>  -18.6227    1.0000 </r>
       <r>  -18.6224    1.0000 </r>
       <r>  -18.6221    1.0000 </r>
       <r>  -18.6216    1.0000 </r>
       <r>  -18.6169    1.0000 </r>
       <r>  -18.6162    1.0000 </r>
       <r>  -18.6148    1.0000 </r>
       <r>  -18.6134    1.0000 </r>
       <r>  -18.6122    1.0000 </r>
       <r>  -18.6113    1.0000 </r>
       <r>  -18.6003    1.0000 </r>
       <r>  -18.5994    1.0000 </r>
       <r>  -18.5661    1.0000 </r>
       <r>  -18.5623    1.0000 </r>
       <r>  -18.5599    1.0000 </r>
       <r>  -18.5566    1.0000 </r>
       <r>  -18.5525    1.0000 </r>
       <r>  -18.5488    1.0000 </r>
       <r>  -18.5441    1.0000 </r>
       <r>  -18.5425    1.0000 </r>
       <r>  -18.5392    1.0000 </r>
       <r>  -18.5391    1.0000 </r>
       <r>  -18.4859    1.0000 </r>
       <r>  -18.4840    1.0000 </r>
       <r>  -18.4720    1.0000 </r>
       <r>  -18.4717    1.0000 </r>
       <r>  -18.4708    1.0000 </r>
       <r>  -18.4701    1.0000 </r>
       <r>  -18.4693    1.0000 </r>
       <r>  -18.4686    1.0000 </r>
       <r>  -18.4685    1.0000 </r>
       <r>  -18.4678    1.0000 </r>
       <r>  -18.4676    1.0000 </r>
       <r>  -18.4669    1.0000 </r>
       <r>  -18.4663    1.0000 </r>
       <r>  -18.4653    1.0000 </r>
       <r>  -18.4428    1.0000 </r>
       <r>  -18.4420    1.0000 </r>
       <r>  -18.4107    1.0000 </r>
       <r>  -18.4061    1.0000 </r>
       <r>  -18.3922    1.0000 </r>
       <r>  -18.3879    1.0000 </r>
       <r>  -18.3873    1.0000 </r>
       <r>  -18.3847    1.0000 </r>
       <r>  -18.3749    1.0000 </r>
       <r>  -18.3717    1.0000 </r>
       <r>  -18.2958    1.0000 </r>
       <r>  -18.2920    1.0000 </r>
       <r>  -18.1808    1.0000 </r>
       <r>  -18.1772    1.0000 </r>
       <r>  -18.1672    1.0000 </r>
       <r>  -18.1635    1.0000 </r>
       <r>  -13.5378    1.0000 </r>
       <r>  -13.4684    1.0000 </r>
       <r>  -12.8944    1.0000 </r>
       <r>  -12.7993    1.0000 </r>
       <r>  -12.7688    1.0000 </r>
       <r>  -12.7378    1.0000 </r>
       <r>  -12.7013    1.0000 </r>
       <r>  -12.6948    1.0000 </r>
       <r>  -12.6518    1.0000 </r>
       <r>  -12.6500    1.0000 </r>
       <r>  -12.6110    1.0000 </r>
       <r>  -12.5928    1.0000 </r>
       <r>  -12.5915    1.0000 </r>
       <r>  -12.5598    1.0000 </r>
       <r>  -11.9569    1.0000 </r>
       <r>  -11.8961    1.0000 </r>
       <r>   -9.3061    1.0000 </r>
       <r>   -9.0281    1.0000 </r>
       <r>   -8.5397    1.0000 </r>
       <r>   -8.5103    1.0000 </r>
       <r>   -8.4914    1.0000 </r>
       <r>   -8.4497    1.0000 </r>
       <r>   -8.2782    1.0000 </r>
       <r>   -8.2533    1.0000 </r>
       <r>   -8.2264    1.0000 </r>
       <r>   -8.1898    1.0000 </r>
       <r>   -8.0219    1.0000 </r>
       <r>   -8.0211    1.0000 </r>
       <r>   -7.9848    1.0000 </r>
       <r>   -7.9842    1.0000 </r>
       <r>   -7.3491    1.0000 </r>
       <r>   -7.3477    1.0000 </r>
       <r>   -6.3547    1.0000 </r>
       <r>   -6.3503    1.0000 </r>
       <r>   -6.3158    1.0000 </r>
       <r>   -6.3146    1.0000 </r>
       <r>   -5.5350    1.0000 </r>
       <r>   -5.4674    1.0000 </r>
       <r>   -5.3864    1.0000 </r>
       <r>   -5.3728    1.0000 </r>
       <r>   -5.3677    1.0000 </r>
       <r>   -5.2570    1.0000 </r>
       <r>   -5.1420    1.0000 </r>
       <r>   -5.1000    1.0000 </r>
       <r>   -5.0700    1.0000 </r>
       <r>   -4.9989    1.0000 </r>
       <r>   -3.8677    1.0000 </r>
       <r>   -3.5575    1.0000 </r>
       <r>   -1.3460    1.0000 </r>
       <r>   -1.2619    1.0000 </r>
       <r>   -1.2022    1.0000 </r>
       <r>   -1.0465    1.0000 </r>
       <r>   -0.4133    1.0000 </r>
       <r>   -0.4016    1.0000 </r>
       <r>   -0.3988    1.0000 </r>
       <r>   -0.3720    1.0000 </r>
       <r>   -0.3489    1.0000 </r>
       <r>   -0.3006    1.0000 </r>
       <r>   -0.2738    1.0000 </r>
       <r>   -0.2139    1.0000 </r>
       <r>   -0.1389    1.0000 </r>
       <r>    0.0658    1.0000 </r>
       <r>    0.1133    1.0000 </r>
       <r>    0.2738    1.0000 </r>
       <r>    0.3327    1.0000 </r>
       <r>    0.3331    1.0000 </r>
       <r>    0.4162    1.0000 </r>
       <r>    0.4918    1.0000 </r>
       <r>    0.5227    1.0000 </r>
       <r>    0.5556    1.0000 </r>
       <r>    0.7106    1.0000 </r>
       <r>    0.7609    1.0000 </r>
       <r>    0.7896    1.0000 </r>
       <r>    0.8218    1.0000 </r>
       <r>    0.8317    1.0000 </r>
       <r>    0.9548    1.0000 </r>
       <r>    1.0038    1.0000 </r>
       <r>    1.1179    1.0000 </r>
       <r>    1.2200    1.0000 </r>
       <r>    1.2348    1.0000 </r>
       <r>    1.2728    1.0000 </r>
       <r>    1.2776    1.0000 </r>
       <r>    1.3446    1.0000 </r>
       <r>    1.4160    1.0000 </r>
       <r>    1.4681    1.0000 </r>
       <r>    1.4995    1.0000 </r>
       <r>    1.5400    1.0000 </r>
       <r>    1.6726    1.0000 </r>
       <r>    1.7064    1.0000 </r>
       <r>    1.7194    1.0000 </r>
       <r>    1.7499    1.0000 </r>
       <r>    1.8144    1.0000 </r>
       <r>    1.8288    1.0000 </r>
       <r>    1.8405    1.0000 </r>
       <r>    1.8689    1.0000 </r>
       <r>    1.8826    1.0000 </r>
       <r>    1.9864    1.0000 </r>
       <r>    2.0310    1.0000 </r>
       <r>    2.0567    1.0000 </r>
       <r>    2.1249    1.0000 </r>
       <r>    2.1275    1.0000 </r>
       <r>    2.1599    1.0000 </r>
       <r>    2.3054    1.0000 </r>
       <r>    2.3467    1.0000 </r>
       <r>    2.4381    1.0000 </r>
       <r>    2.4847    1.0000 </r>
       <r>    2.5169    1.0000 </r>
       <r>    2.5584    1.0000 </r>
       <r>    2.5685    1.0000 </r>
       <r>    2.5826    1.0000 </r>
       <r>    2.5844    1.0000 </r>
       <r>    2.5958    1.0000 </r>
       <r>    2.6038    1.0000 </r>
       <r>    2.6071    1.0000 </r>
       <r>    2.6592    1.0000 </r>
       <r>    2.7075    1.0000 </r>
       <r>    2.7083    1.0000 </r>
       <r>    2.7973    1.0000 </r>
       <r>    2.8311    1.0000 </r>
       <r>    2.8346    1.0000 </r>
       <r>    2.8579    1.0000 </r>
       <r>    2.8794    1.0000 </r>
       <r>    2.9325    1.0000 </r>
       <r>    2.9773    1.0000 </r>
       <r>    2.9868    1.0000 </r>
       <r>    3.0184    1.0000 </r>
       <r>    3.0296    1.0000 </r>
       <r>    3.0449    1.0000 </r>
       <r>    3.0709    1.0000 </r>
       <r>    3.1254    1.0000 </r>
       <r>    3.1694    1.0000 </r>
       <r>    3.3031    1.0000 </r>
       <r>    3.3459    1.0000 </r>
       <r>    3.3860    1.0000 </r>
       <r>    3.4248    1.0000 </r>
       <r>    3.4385    1.0000 </r>
       <r>    3.4577    1.0000 </r>
       <r>    3.4918    1.0000 </r>
       <r>    3.5404    1.0000 </r>
       <r>    3.5857    1.0000 </r>
       <r>    4.2480    1.0000 </r>
       <r>    4.2505    1.0000 </r>
       <r>    4.2859    1.0000 </r>
       <r>    4.2923    1.0000 </r>
       <r>    5.1352    0.0000 </r>
       <r>    5.1389    0.0000 </r>
       <r>    5.2397    0.0000 </r>
       <r>    5.2425    0.0000 </r>
       <r>    5.7621    0.0000 </r>
       <r>    5.7640    0.0000 </r>
       <r>    5.8329    0.0000 </r>
       <r>    5.8379    0.0000 </r>
       <r>    6.1716    0.0000 </r>
       <r>    6.1792    0.0000 </r>
       <r>    6.1921    0.0000 </r>
       <r>    6.2134    0.0000 </r>
       <r>    6.2578    0.0000 </r>
       <r>    6.2613    0.0000 </r>
       <r>    6.2816    0.0000 </r>
       <r>    6.3007    0.0000 </r>
       <r>    6.7782    0.0000 </r>
       <r>    6.9111    0.0000 </r>
       <r>    7.0439    0.0000 </r>
       <r>    7.0744    0.0000 </r>
       <r>    7.2147    0.0000 </r>
       <r>    7.3191    0.0000 </r>
       <r>    7.4948    0.0000 </r>
       <r>    7.5109    0.0000 </r>
       <r>    7.7811    0.0000 </r>
       <r>    7.8421    0.0000 </r>
       <r>    7.9473    0.0000 </r>
       <r>    8.0000    0.0000 </r>
       <r>    8.0069    0.0000 </r>
       <r>    8.3175    0.0000 </r>
       <r>    8.3536    0.0000 </r>
       <r>    8.4691    0.0000 </r>
       <r>    8.7125    0.0000 </r>
       <r>    8.8061    0.0000 </r>
       <r>    8.9517    0.0000 </r>
       <r>    8.9679    0.0000 </r>
       <r>    9.0486    0.0000 </r>
       <r>    9.0784    0.0000 </r>
       <r>    9.0808    0.0000 </r>
       <r>    9.1023    0.0000 </r>
       <r>    9.1080    0.0000 </r>
       <r>    9.1431    0.0000 </r>
       <r>    9.1540    0.0000 </r>
       <r>    9.2332    0.0000 </r>
       <r>    9.4893    0.0000 </r>
       <r>    9.5333    0.0000 </r>
      </set>
      <set comment="kpoint 4">
       <r>  -40.2629    1.0000 </r>
       <r>  -40.1764    1.0000 </r>
       <r>  -40.0525    1.0000 </r>
       <r>  -40.0522    1.0000 </r>
       <r>  -39.8106    1.0000 </r>
       <r>  -39.7954    1.0000 </r>
       <r>  -39.5560    1.0000 </r>
       <r>  -39.5556    1.0000 </r>
       <r>  -39.4380    1.0000 </r>
       <r>  -39.3641    1.0000 </r>
       <r>  -18.9211    1.0000 </r>
       <r>  -18.9198    1.0000 </r>
       <r>  -18.8504    1.0000 </r>
       <r>  -18.8502    1.0000 </r>
       <r>  -18.8435    1.0000 </r>
       <r>  -18.8432    1.0000 </r>
       <r>  -18.7474    1.0000 </r>
       <r>  -18.7463    1.0000 </r>
       <r>  -18.7336    1.0000 </r>
       <r>  -18.7332    1.0000 </r>
       <r>  -18.7147    1.0000 </r>
       <r>  -18.7122    1.0000 </r>
       <r>  -18.7050    1.0000 </r>
       <r>  -18.7027    1.0000 </r>
       <r>  -18.6989    1.0000 </r>
       <r>  -18.6957    1.0000 </r>
       <r>  -18.6420    1.0000 </r>
       <r>  -18.6406    1.0000 </r>
       <r>  -18.6345    1.0000 </r>
       <r>  -18.6336    1.0000 </r>
       <r>  -18.6323    1.0000 </r>
       <r>  -18.6309    1.0000 </r>
       <r>  -18.6309    1.0000 </r>
       <r>  -18.6299    1.0000 </r>
       <r>  -18.6279    1.0000 </r>
       <r>  -18.6260    1.0000 </r>
       <r>  -18.6238    1.0000 </r>
       <r>  -18.6229    1.0000 </r>
       <r>  -18.6228    1.0000 </r>
       <r>  -18.6223    1.0000 </r>
       <r>  -18.6221    1.0000 </r>
       <r>  -18.6215    1.0000 </r>
       <r>  -18.6152    1.0000 </r>
       <r>  -18.6151    1.0000 </r>
       <r>  -18.6146    1.0000 </r>
       <r>  -18.6135    1.0000 </r>
       <r>  -18.6125    1.0000 </r>
       <r>  -18.6117    1.0000 </r>
       <r>  -18.6002    1.0000 </r>
       <r>  -18.5993    1.0000 </r>
       <r>  -18.5661    1.0000 </r>
       <r>  -18.5623    1.0000 </r>
       <r>  -18.5599    1.0000 </r>
       <r>  -18.5566    1.0000 </r>
       <r>  -18.5526    1.0000 </r>
       <r>  -18.5489    1.0000 </r>
       <r>  -18.5441    1.0000 </r>
       <r>  -18.5425    1.0000 </r>
       <r>  -18.5392    1.0000 </r>
       <r>  -18.5391    1.0000 </r>
       <r>  -18.4859    1.0000 </r>
       <r>  -18.4840    1.0000 </r>
[...]
       <r>    8.8715    0.0000 </r>
       <r>    8.8822    0.0000 </r>
       <r>    8.9057    0.0000 </r>
       <r>    8.9194    0.0000 </r>
       <r>    8.9482    0.0000 </r>
      </set>
     </set>
    </set>
   </array>
  </eigenvalues>
  <separator name="orbital magnetization" >
   <v name="MAGDIPOLOUT">      0.00000000      0.00000000      0.00000000</v>
  </separator>
  <dos>
   <i name="efermi">      4.40016221 </i>
   <total>
    <array>
     <dimension dim="1">gridpoints</dimension>
     <dimension dim="2">spin</dimension>
     <field>energy</field>
     <field>total</field>
     <field>integrated</field>
     <set>
      <set comment="spin 1">
       <r>   -42.7527     0.0000     0.0000 </r>
       <r>   -42.5701     0.0000     0.0000 </r>
       <r>   -42.3875     0.0000     0.0000 </r>
       <r>   -42.2049     0.0000     0.0000 </r>
       <r>   -42.0223     0.0000     0.0000 </r>
       <r>   -41.8397     0.0000     0.0000 </r>
       <r>   -41.6572     0.0000     0.0000 </r>
       <r>   -41.4746     0.0000     0.0000 </r>
       <r>   -41.2920     0.0000     0.0000 </r>
       <r>   -41.1094     0.0000     0.0000 </r>
       <r>   -40.9268     0.0000     0.0000 </r>
       <r>   -40.7442     0.0000     0.0000 </r>
       <r>   -40.5616     0.0000     0.0000 </r>
       <r>   -40.3791     0.0000     0.0000 </r>
       <r>   -40.1965     0.0000     2.0000 </r>
       <r>   -40.0139     0.0000     8.0000 </r>
       <r>   -39.8313     0.0000     8.0000 </r>
       <r>   -39.6487     0.0000    12.0000 </r>
       <r>   -39.4661     0.0000    16.0000 </r>
       <r>   -39.2835     0.0000    20.0000 </r>
       <r>   -39.1010     0.0000    20.0000 </r>
       <r>   -38.9184     0.0000    20.0000 </r>
       <r>   -38.7358     0.0000    20.0000 </r>
       <r>   -38.5532     0.0000    20.0000 </r>
       <r>   -38.3706     0.0000    20.0000 </r>
       <r>   -38.1880     0.0000    20.0000 </r>
       <r>   -38.0054     0.0000    20.0000 </r>
       <r>   -37.8229     0.0000    20.0000 </r>
       <r>   -37.6403     0.0000    20.0000 </r>
       <r>   -37.4577     0.0000    20.0000 </r>
       <r>   -37.2751     0.0000    20.0000 </r>
       <r>   -37.0925     0.0000    20.0000 </r>
       <r>   -36.9099     0.0000    20.0000 </r>
       <r>   -36.7273     0.0000    20.0000 </r>
       <r>   -36.5448     0.0000    20.0000 </r>
       <r>   -36.3622     0.0000    20.0000 </r>
       <r>   -36.1796     0.0000    20.0000 </r>
       <r>   -35.9970     0.0000    20.0000 </r>
       <r>   -35.8144     0.0000    20.0000 </r>
       <r>   -35.6318     0.0000    20.0000 </r>
       <r>   -35.4492     0.0000    20.0000 </r>
       <r>   -35.2667     0.0000    20.0000 </r>
       <r>   -35.0841     0.0000    20.0000 </r>
       <r>   -34.9015     0.0000    20.0000 </r>
       <r>   -34.7189     0.0000    20.0000 </r>
       <r>   -34.5363     0.0000    20.0000 </r>
       <r>   -34.3537     0.0000    20.0000 </r>
       <r>   -34.1711     0.0000    20.0000 </r>
       <r>   -33.9885     0.0000    20.0000 </r>
       <r>   -33.8060     0.0000    20.0000 </r>
       <r>   -33.6234     0.0000    20.0000 </r>
       <r>   -33.4408     0.0000    20.0000 </r>
       <r>   -33.2582     0.0000    20.0000 </r>
       <r>   -33.0756     0.0000    20.0000 </r>
       <r>   -32.8930     0.0000    20.0000 </r>
       <r>   -32.7104     0.0000    20.0000 </r>
       <r>   -32.5279     0.0000    20.0000 </r>
       <r>   -32.3453     0.0000    20.0000 </r>
       <r>   -32.1627     0.0000    20.0000 </r>
       <r>   -31.9801     0.0000    20.0000 </r>
       <r>   -31.7975     0.0000    20.0000 </r>
       <r>   -31.6149     0.0000    20.0000 </r>
       <r>   -31.4323     0.0000    20.0000 </r>
       <r>   -31.2498     0.0000    20.0000 </r>
       <r>   -31.0672     0.0000    20.0000 </r>
       <r>   -30.8846     0.0000    20.0000 </r>
       <r>   -30.7020     0.0000    20.0000 </r>
       <r>   -30.5194     0.0000    20.0000 </r>
       <r>   -30.3368     0.0000    20.0000 </r>
       <r>   -30.1542     0.0000    20.0000 </r>
       <r>   -29.9717     0.0000    20.0000 </r>
       <r>   -29.7891     0.0000    20.0000 </r>
       <r>   -29.6065     0.0000    20.0000 </r>
       <r>   -29.4239     0.0000    20.0000 </r>
       <r>   -29.2413     0.0000    20.0000 </r>
       <r>   -29.0587     0.0000    20.0000 </r>
       <r>   -28.8761     0.0000    20.0000 </r>
       <r>   -28.6936     0.0000    20.0000 </r>
       <r>   -28.5110     0.0000    20.0000 </r>
       <r>   -28.3284     0.0000    20.0000 </r>
       <r>   -28.1458     0.0000    20.0000 </r>
       <r>   -27.9632     0.0000    20.0000 </r>
       <r>   -27.7806     0.0000    20.0000 </r>
       <r>   -27.5980     0.0000    20.0000 </r>
       <r>   -27.4155     0.0000    20.0000 </r>
       <r>   -27.2329     0.0000    20.0000 </r>
       <r>   -27.0503     0.0000    20.0000 </r>
       <r>   -26.8677     0.0000    20.0000 </r>
       <r>   -26.6851     0.0000    20.0000 </r>
       <r>   -26.5025     0.0000    20.0000 </r>
       <r>   -26.3199     0.0000    20.0000 </r>
       <r>   -26.1374     0.0000    20.0000 </r>
       <r>   -25.9548     0.0000    20.0000 </r>
       <r>   -25.7722     0.0000    20.0000 </r>
       <r>   -25.5896     0.0000    20.0000 </r>
       <r>   -25.4070     0.0000    20.0000 </r>
       <r>   -25.2244     0.0000    20.0000 </r>
       <r>   -25.0418     0.0000    20.0000 </r>
       <r>   -24.8592     0.0000    20.0000 </r>
       <r>   -24.6767     0.0000    20.0000 </r>
       <r>   -24.4941     0.0000    20.0000 </r>
       <r>   -24.3115     0.0000    20.0000 </r>
       <r>   -24.1289     0.0000    20.0000 </r>
       <r>   -23.9463     0.0000    20.0000 </r>
       <r>   -23.7637     0.0000    20.0000 </r>
       <r>   -23.5811     0.0000    20.0000 </r>
       <r>   -23.3986     0.0000    20.0000 </r>
       <r>   -23.2160     0.0000    20.0000 </r>
       <r>   -23.0334     0.0000    20.0000 </r>
       <r>   -22.8508     0.0000    20.0000 </r>
       <r>   -22.6682     0.0000    20.0000 </r>
       <r>   -22.4856     0.0000    20.0000 </r>
       <r>   -22.3030     0.0000    20.0000 </r>
       <r>   -22.1205     0.0000    20.0000 </r>
       <r>   -21.9379     0.0000    20.0000 </r>
       <r>   -21.7553     0.0000    20.0000 </r>
       <r>   -21.5727     0.0000    20.0000 </r>
       <r>   -21.3901     0.0000    20.0000 </r>
       <r>   -21.2075     0.0000    20.0000 </r>
       <r>   -21.0249     0.0000    20.0000 </r>
       <r>   -20.8424     0.0000    20.0000 </r>
       <r>   -20.6598     0.0000    20.0000 </r>
       <r>   -20.4772     0.0000    20.0000 </r>
       <r>   -20.2946     0.0000    20.0000 </r>
       <r>   -20.1120     0.0000    20.0000 </r>
       <r>   -19.9294     0.0000    20.0000 </r>
       <r>   -19.7468     0.0000    20.0000 </r>
       <r>   -19.5643     0.0000    20.0000 </r>
       <r>   -19.3817     0.0000    20.0000 </r>
       <r>   -19.1991     0.0000    20.0000 </r>
       <r>   -19.0165     0.0000    20.0000 </r>
       <r>   -18.8339     0.0000    32.0000 </r>
       <r>   -18.6513     0.0000    52.0000 </r>
       <r>   -18.4687     0.0000   134.0000 </r>
       <r>   -18.2862     0.0000   172.0000 </r>
       <r>   -18.1036     0.0000   180.0000 </r>
       <r>   -17.9210     0.0000   180.0000 </r>
       <r>   -17.7384     0.0000   180.0000 </r>
       <r>   -17.5558     0.0000   180.0000 </r>
       <r>   -17.3732     0.0000   180.0000 </r>
       <r>   -17.1906     0.0000   180.0000 </r>
       <r>   -17.0080     0.0000   180.0000 </r>
       <r>   -16.8255     0.0000   180.0000 </r>
       <r>   -16.6429     0.0000   180.0000 </r>
       <r>   -16.4603     0.0000   180.0000 </r>
       <r>   -16.2777     0.0000   180.0000 </r>
       <r>   -16.0951     0.0000   180.0000 </r>
       <r>   -15.9125     0.0000   180.0000 </r>
       <r>   -15.7299     0.0000   180.0000 </r>
       <r>   -15.5474     0.0000   180.0000 </r>
       <r>   -15.3648     0.0000   180.0000 </r>
       <r>   -15.1822     0.0000   180.0000 </r>
       <r>   -14.9996     0.0000   180.0000 </r>
       <r>   -14.8170     0.0000   180.0000 </r>
       <r>   -14.6344     0.0000   180.0000 </r>
       <r>   -14.4518     0.0000   180.0000 </r>
       <r>   -14.2693     0.0000   180.0000 </r>
       <r>   -14.0867     0.0000   180.0000 </r>
       <r>   -13.9041     0.0000   180.0000 </r>
       <r>   -13.7215     0.0000   180.0000 </r>
       <r>   -13.5389     0.0000   180.0000 </r>
       <r>   -13.3563     0.0000   184.0000 </r>
       <r>   -13.1737     0.0000   184.0000 </r>
       <r>   -12.9912     0.0000   184.0000 </r>
       <r>   -12.8086   116.7166   186.0713 </r>
       <r>   -12.6260    63.4153   199.3674 </r>
       <r>   -12.4434     0.0000   208.0000 </r>
       <r>   -12.2608     0.0000   208.0000 </r>
       <r>   -12.0782     0.0000   208.0000 </r>
       <r>   -11.8956  1292.2722   210.3993 </r>
       <r>   -11.7131     0.0000   212.0000 </r>
       <r>   -11.5305     0.0000   212.0000 </r>
       <r>   -11.3479     0.0000   212.0000 </r>
       <r>   -11.1653     0.0000   212.0000 </r>
       <r>   -10.9827     0.0000   212.0000 </r>
       <r>   -10.8001     0.0000   212.0000 </r>
       <r>   -10.6175     0.0000   212.0000 </r>
       <r>   -10.4350     0.0000   212.0000 </r>
       <r>   -10.2524     0.0000   212.0000 </r>
       <r>   -10.0698     0.0000   212.0000 </r>
       <r>    -9.8872     0.0000   212.0000 </r>
       <r>    -9.7046     0.0000   212.0000 </r>
       <r>    -9.5220     0.0000   212.0000 </r>
       <r>    -9.3394     0.0000   212.0000 </r>
       <r>    -9.1569    10.4001   212.8775 </r>
       <r>    -8.9743    10.6320   215.8331 </r>
       <r>    -8.7917    21.9928   217.2240 </r>
       <r>    -8.6091    12.4899   219.9716 </r>
       <r>    -8.4265    29.2528   223.1353 </r>
       <r>    -8.2439     0.0481   228.0001 </r>
       <r>    -8.0613    32.8766   230.8838 </r>
       <r>    -7.8787    19.5663   235.6727 </r>
       <r>    -7.6962    25.0337   238.9707 </r>
       <r>    -7.5136    18.7982   242.4183 </r>
       <r>    -7.3310     0.0000   244.0000 </r>
       <r>    -7.1484     0.0000   244.0000 </r>
       <r>    -6.9658     0.0000   244.0000 </r>
       <r>    -6.7832     0.0000   244.0000 </r>
       <r>    -6.6006     0.0000   244.0000 </r>
       <r>    -6.4181     0.0000   244.0000 </r>
       <r>    -6.2355    10.6347   244.5908 </r>
       <r>    -6.0529    28.3118   248.1636 </r>
       <r>    -5.8703    21.0269   252.0980 </r>
       <r>    -5.6877    26.7100   256.5168 </r>
       <r>    -5.5051    19.3324   260.6277 </r>
       <r>    -5.3225    19.1560   264.4474 </r>
       <r>    -5.1400     9.7657   267.2485 </r>
       <r>    -4.9574     4.2456   268.2325 </r>
       <r>    -4.7748     7.6053   269.4739 </r>
       <r>    -4.5922     9.7893   271.0205 </r>
       <r>    -4.4096     7.2323   272.7169 </r>
       <r>    -4.2270     7.2816   273.9038 </r>
       <r>    -4.0444     5.2068   275.1075 </r>
       <r>    -3.8619     2.0327   275.7673 </r>
       <r>    -3.6793     0.5180   275.9774 </r>
       <r>    -3.4967     0.0000   276.0000 </r>
       <r>    -3.3141     0.0000   276.0000 </r>
       <r>    -3.1315     0.0000   276.0000 </r>
       <r>    -2.9489     0.0000   276.0000 </r>
       <r>    -2.7663     0.0000   276.0000 </r>
       <r>    -2.5838     0.0000   276.0000 </r>
       <r>    -2.4012     0.0000   276.0000 </r>
       <r>    -2.2186     0.0000   276.0000 </r>
       <r>    -2.0360     0.0000   276.0000 </r>
       <r>    -1.8534     0.0000   276.0000 </r>
       <r>    -1.6708     0.0000   276.0000 </r>
       <r>    -1.4882     0.0000   276.0000 </r>
       <r>    -1.3057     2.1101   276.0945 </r>
       <r>    -1.1231     9.4027   277.2046 </r>
       <r>    -0.9405    13.0832   279.1579 </r>
       <r>    -0.7579    10.6528   281.5086 </r>
       <r>    -0.5753     6.1594   283.0276 </r>
       <r>    -0.3927    17.0552   284.3374 </r>
       <r>    -0.2101    24.6636   288.4355 </r>
       <r>    -0.0275    41.6041   294.2855 </r>
       <r>     0.1550    34.9577   301.0688 </r>
       <r>     0.3376    41.9413   306.7378 </r>
       <r>     0.5202    38.2364   314.1814 </r>
       <r>     0.7028    32.7642   321.5684 </r>
       <r>     0.8854    37.3339   328.0485 </r>
       <r>     1.0680    45.5239   335.1477 </r>
       <r>     1.2506    46.7878   343.9507 </r>
       <r>     1.4331    61.4988   352.5077 </r>
       <r>     1.6157    60.9166   361.6637 </r>
       <r>     1.7983    50.1621   370.4936 </r>
       <r>     1.9809    39.2200   378.9417 </r>
       <r>     2.1635    45.3919   386.6756 </r>
       <r>     2.3461    45.1887   394.6175 </r>
       <r>     2.5287    59.0241   404.7485 </r>
       <r>     2.7112    67.1531   415.9195 </r>
       <r>     2.8938    49.8326   427.1441 </r>
       <r>     3.0764    64.4862   440.0305 </r>
       <r>     3.2590    34.1628   448.9389 </r>
       <r>     3.4416    42.4262   455.3149 </r>
       <r>     3.6242    15.0671   461.8674 </r>
       <r>     3.8068    13.4225   465.0353 </r>
       <r>     3.9893     7.8596   466.9783 </r>
       <r>     4.1719     2.2899   467.9050 </r>
       <r>     4.3545     0.0000   468.0000 </r>
       <r>     4.5371     0.0000   468.0000 </r>
       <r>     4.7197     0.0000   468.0000 </r>
       <r>     4.9023     0.0000   468.0000 </r>
       <r>     5.0849     0.0318   468.0002 </r>
       <r>     5.2674     2.4111   468.1701 </r>
       <r>     5.4500     6.3967   468.9740 </r>
       <r>     5.6326     9.4971   470.4872 </r>
       <r>     5.8152    15.8127   473.1813 </r>
       <r>     5.9978    13.5816   476.6429 </r>
       <r>     6.1804    11.5439   478.9163 </r>
       <r>     6.3630    12.3770   481.0573 </r>
       <r>     6.5455    14.1044   483.4752 </r>
       <r>     6.7281    15.8106   486.2066 </r>
       <r>     6.9107    17.7563   489.2575 </r>
       <r>     7.0933    22.2623   492.8484 </r>
       <r>     7.2759    33.2582   497.8692 </r>
       <r>     7.4585    46.4556   505.1878 </r>
       <r>     7.6411    24.0962   510.6448 </r>
       <r>     7.8237    49.4915   517.3940 </r>
       <r>     8.0062    41.2751   526.4109 </r>
       <r>     8.1888    21.3054   531.6862 </r>
       <r>     8.3714    18.1892   535.1826 </r>
       <r>     8.5540    22.7008   538.8337 </r>
       <r>     8.7366    26.3363   543.4816 </r>
       <r>     8.9192    49.4877   550.9940 </r>
       <r>     9.1018    19.4997   556.7112 </r>
       <r>     9.2843     8.4668   559.0017 </r>
       <r>     9.4669     1.6415   559.9496 </r>
       <r>     9.6495     0.0000   560.0000 </r>
       <r>     9.8321     0.0000   560.0000 </r>
       <r>    10.0147     0.0000   560.0000 </r>
       <r>    10.1973     0.0000   560.0000 </r>
       <r>    10.3799     0.0000   560.0000 </r>
       <r>    10.5624     0.0000   560.0000 </r>
       <r>    10.7450     0.0000   560.0000 </r>
       <r>    10.9276     0.0000   560.0000 </r>
       <r>    11.1102     0.0000   560.0000 </r>
       <r>    11.2928     0.0000   560.0000 </r>
       <r>    11.4754     0.0000   560.0000 </r>
       <r>    11.6580     0.0000   560.0000 </r>
       <r>    11.8405     0.0000   560.0000 </r>
       <r>    12.0231     0.0000   560.0000 </r>
      </set>
     </set>
    </array>
   </total>
  </dos>
 </calculation>
 <structure name="finalpos" >
  <crystal>
   <varray name="basis" >
    <v>      11.17850000       0.00000000       0.00000000 </v>
    <v>       0.00000000       9.57460000       0.00000000 </v>
    <v>       0.00000000       0.00000000      11.18240000 </v>
   </varray>
   <i name="volume">   1196.84853820 </i>
   <varray name="rec_basis" >
    <v>       0.08945744       0.00000000       0.00000000 </v>
    <v>       0.00000000       0.10444301       0.00000000 </v>
    <v>       0.00000000       0.00000000       0.08942624 </v>
   </varray>
  </crystal>
  <varray name="positions" >
   <v>       0.12461000       0.99984000       0.18687000 </v>
   <v>       0.37461000       0.00017000       0.18687000 </v>
   <v>       0.62539000       0.99984000       0.43687000 </v>
   <v>       0.87539000       0.00017000       0.43687000 </v>
   <v>       0.62461000       0.99984000       0.18687000 </v>
   <v>       0.87461000       0.00017000       0.18687000 </v>
   <v>       0.62539000       0.99984000       0.93687000 </v>
   <v>       0.87539000       0.00017000       0.93687000 </v>
   <v>       0.62461000       0.99984000       0.68687000 </v>
   <v>       0.87461000       0.00017000       0.68687000 </v>
   <v>       0.37539000       0.00017000       0.43687000 </v>
   <v>       0.37539000       0.00017000       0.93687000 </v>
   <v>       0.12461000       0.99984000       0.68687000 </v>
   <v>       0.00013000       0.29519000       0.06281000 </v>
   <v>       0.25013000       0.70481000       0.06281000 </v>
   <v>       0.24987000       0.29519000       0.31282000 </v>
   <v>       0.49987000       0.70481000       0.31282000 </v>
   <v>       0.50013000       0.29519000       0.06281000 </v>
   <v>       0.75013000       0.70481000       0.06281000 </v>
   <v>       0.74987000       0.29519000       0.31282000 </v>
   <v>       0.99987000       0.70481000       0.31282000 </v>
   <v>       0.00013000       0.29519000       0.56281000 </v>
   <v>       0.25013000       0.70481000       0.56281000 </v>
   <v>       0.24987000       0.29519000       0.81282000 </v>
   <v>       0.49987000       0.70481000       0.81282000 </v>
   <v>       0.50013000       0.29519000       0.56281000 </v>
   <v>       0.75013000       0.70481000       0.56281000 </v>
   <v>       0.74987000       0.29519000       0.81282000 </v>
   <v>       0.99987000       0.70481000       0.81282000 </v>
   <v>       0.25005000       0.32677000       0.06286000 </v>
   <v>       0.00005000       0.67323000       0.06286000 </v>
   <v>       0.49995000       0.32677000       0.31286000 </v>
   <v>       0.24995000       0.67323000       0.31286000 </v>
   <v>       0.75005000       0.32677000       0.06286000 </v>
   <v>       0.50005000       0.67323000       0.06286000 </v>
   <v>       0.99995000       0.32677000       0.31286000 </v>
   <v>       0.74995000       0.67323000       0.31286000 </v>
   <v>       0.25005000       0.32677000       0.56286000 </v>
   <v>       0.00005000       0.67323000       0.56286000 </v>
   <v>       0.49995000       0.32677000       0.81286000 </v>
   <v>       0.24995000       0.67323000       0.81286000 </v>
   <v>       0.75005000       0.32677000       0.56286000 </v>
   <v>       0.50005000       0.67323000       0.56286000 </v>
   <v>       0.99995000       0.32677000       0.81286000 </v>
   <v>       0.74995000       0.67323000       0.81286000 </v>
   <v>       0.49987000       0.07798000       0.06246000 </v>
   <v>       0.24987000       0.92202000       0.06246000 </v>
   <v>       0.25013000       0.07798000       0.31246000 </v>
   <v>       0.00013000       0.92202000       0.31246000 </v>
   <v>       0.99987000       0.07798000       0.06246000 </v>
   <v>       0.74987000       0.92202000       0.06246000 </v>
   <v>       0.75013000       0.07798000       0.31246000 </v>
   <v>       0.50013000       0.92202000       0.31246000 </v>
   <v>       0.49987000       0.07798000       0.56246000 </v>
   <v>       0.24987000       0.92202000       0.56246000 </v>
   <v>       0.25013000       0.07798000       0.81246000 </v>
   <v>       0.00013000       0.92202000       0.81246000 </v>
   <v>       0.99987000       0.07798000       0.56246000 </v>
   <v>       0.74987000       0.92202000       0.56246000 </v>
   <v>       0.75013000       0.07798000       0.81246000 </v>
   <v>       0.50013000       0.92202000       0.81246000 </v>
  </varray>
 </structure>
</modeling>
