<?xml version="1.0" encoding="ISO-8859-1"?>
<modeling>
 <generator>
  <i name="program" type="string">vasp </i>
  <i name="version" type="string">5.3.3  </i>
  <i name="subversion" type="string">18Dez12 (build Nov 19 2020 19:34:37) complex                          parallel </i>
  <i name="platform" type="string">LinuxIFC </i>
  <i name="date" type="string">2021 10 01 </i>
  <i name="time" type="string">13:13:00 </i>
 </generator>
 <incar>
  <i type="string" name="SYSTEM"> La2O2S</i>
  <i type="string" name="PREC">normal</i>
  <i type="int" name="NELMIN">     4</i>
  <i type="int" name="IBRION">     2</i>
  <i type="int" name="NFREE">    10</i>
  <i name="EDIFF">      0.00000100</i>
  <i name="EDIFFG">     -0.01000000</i>
  <i type="int" name="NSW">    10</i>
  <i type="int" name="ISIF">     2</i>
  <i name="ENCUT">    600.00000000</i>
  <i name="ENAUG">    900.00000000</i>
  <i type="int" name="ISMEAR">    -5</i>
  <i type="logical" name="LWAVE"> F  </i>
  <i type="logical" name="LCHARG"> F  </i>
 </incar>
 <kpoints>
  <generation param="Gamma">
   <v type="int" name="divisions">       2        2        2 </v>
   <v name="usershift">      0.00000000       0.00000000       0.00000000 </v>
   <v name="genvec1">      0.50000000       0.00000000       0.00000000 </v>
   <v name="genvec2">      0.00000000       0.50000000       0.00000000 </v>
   <v name="genvec3">      0.00000000       0.00000000       0.50000000 </v>
   <v name="shift">      0.00000000       0.00000000       0.00000000 </v>
  </generation>
  <varray name="kpointlist" >
   <v>       0.00000000       0.00000000       0.00000000 </v>
   <v>       0.50000000       0.00000000       0.00000000 </v>
   <v>       0.00000000       0.50000000       0.00000000 </v>
   <v>       0.50000000       0.50000000       0.00000000 </v>
   <v>       0.00000000       0.00000000       0.50000000 </v>
   <v>       0.50000000       0.00000000       0.50000000 </v>
   <v>       0.00000000       0.50000000       0.50000000 </v>
   <v>       0.50000000       0.50000000       0.50000000 </v>
  </varray>
  <varray name="weights" >
   <v>       0.12500000 </v>
   <v>       0.12500000 </v>
   <v>       0.12500000 </v>
   <v>       0.12500000 </v>
   <v>       0.12500000 </v>
   <v>       0.12500000 </v>
   <v>       0.12500000 </v>
   <v>       0.12500000 </v>
  </varray>
  <varray name="tetrahedronlist"  type="int" >
   <v type="int" >        2        1        2        4        5 </v>
   <v type="int" >        2        1        3        4        5 </v>
   <v type="int" >        2        3        4        5        7 </v>
   <v type="int" >        2        2        4        5        6 </v>
   <v type="int" >        2        4        5        6        8 </v>
   <v type="int" >        2        4        5        7        8 </v>
   <v type="int" >        2        1        2        3        6 </v>
   <v type="int" >        2        2        3        4        6 </v>
   <v type="int" >        2        3        4        6        8 </v>
   <v type="int" >        2        1        3        5        6 </v>
   <v type="int" >        2        3        5        6        7 </v>
   <v type="int" >        2        3        6        7        8 </v>
   <v type="int" >        2        2        3        4        7 </v>
   <v type="int" >        2        1        2        3        7 </v>
   <v type="int" >        2        1        2        5        7 </v>
   <v type="int" >        2        2        4        7        8 </v>
   <v type="int" >        2        2        6        7        8 </v>
   <v type="int" >        2        2        5        6        7 </v>
   <v type="int" >        2        1        3        4        8 </v>
   <v type="int" >        2        1        2        4        8 </v>
   <v type="int" >        2        1        2        6        8 </v>
   <v type="int" >        2        1        3        7        8 </v>
   <v type="int" >        2        1        5        7        8 </v>
   <v type="int" >        2        1        5        6        8 </v>
  </varray>
  <i name="volumeweight">      0.02083333 </i>
 </kpoints>
 <parameters>
  <separator name="general" >
   <i type="string" name="SYSTEM">La2O2S</i>
   <i type="logical" name="LCOMPAT"> F  </i>
  </separator>
  <separator name="electronic" >
   <i type="string" name="PREC">normal</i>
   <i name="ENMAX">    600.00000000</i>
   <i name="ENAUG">    900.00000000</i>
   <i name="EDIFF">      0.00000100</i>
   <i type="int" name="IALGO">    38</i>
   <i type="int" name="IWAVPR">    11</i>
   <i type="int" name="NBANDS">   280</i>
   <i name="NELECT">    452.00000000</i>
   <i type="int" name="TURBO">     0</i>
   <i type="int" name="IRESTART">     0</i>
   <i type="int" name="NREBOOT">     0</i>
   <i type="int" name="NMIN">     0</i>
   <i name="EREF">      0.00000000</i>
   <separator name="electronic smearing" >
    <i type="int" name="ISMEAR">    -5</i>
    <i name="SIGMA">      0.20000000</i>
    <i name="KSPACING">      0.50000000</i>
    <i type="logical" name="KGAMMA"> T  </i>
   </separator>
   <separator name="electronic projectors" >
    <i type="logical" name="LREAL"> F  </i>
    <v name="ROPT">      0.00000000      0.00000000      0.00000000      0.00000000      0.00000000</v>
    <i type="int" name="LMAXPAW">  -100</i>
    <i type="int" name="LMAXMIX">     2</i>
    <i type="logical" name="NLSPLINE"> F  </i>
   </separator>
   <separator name="electronic startup" >
    <i type="int" name="ISTART">     0</i>
    <i type="int" name="ICHARG">     2</i>
    <i type="int" name="INIWAV">     1</i>
   </separator>
   <separator name="electronic spin" >
    <i type="int" name="ISPIN">     1</i>
    <i type="logical" name="LNONCOLLINEAR"> F  </i>
    <v name="MAGMOM">      1.00000000      1.00000000      1.00000000      1.00000000      1.00000000      1.00000000      1.00000000      1.00000000      1.00000000      1.00000000      1.00000000      1.00000000      1.00000000      1.00000000      1.00000000      1.00000000      1.00000000      1.00000000      1.00000000      1.00000000
      1.00000000      1.00000000      1.00000000      1.00000000      1.00000000      1.00000000      1.00000000      1.00000000      1.00000000      1.00000000      1.00000000      1.00000000      1.00000000      1.00000000      1.00000000      1.00000000      1.00000000      1.00000000      1.00000000      1.00000000
      1.00000000      1.00000000      1.00000000      1.00000000      1.00000000      1.00000000      1.00000000      1.00000000      1.00000000      1.00000000      1.00000000      1.00000000      1.00000000      1.00000000      1.00000000      1.00000000      1.00000000</v>
    <i name="NUPDOWN">     -1.00000000</i>
    <i type="logical" name="LSORBIT"> F  </i>
    <v name="SAXIS">      0.00000000      0.00000000      1.00000000</v>
    <i type="logical" name="LSPIRAL"> F  </i>
    <v name="QSPIRAL">      0.00000000      0.00000000      0.00000000</v>
    <i type="logical" name="LZEROZ"> F  </i>
   </separator>
   <separator name="electronic exchange-correlation" >
    <i type="logical" name="LASPH"> F  </i>
    <i type="logical" name="LMETAGGA"> F  </i>
   </separator>
   <separator name="electronic convergence" >
    <i type="int" name="NELM">    60</i>
    <i type="int" name="NELMDL">    -5</i>
    <i type="int" name="NELMIN">     4</i>
    <i name="ENINI">    600.00000000</i>
    <separator name="electronic convergence detail" >
     <i type="logical" name="LDIAG"> T  </i>
     <i type="logical" name="LSUBROT"> T  </i>
     <i name="WEIMIN">      0.00100000</i>
     <i name="EBREAK">      0.00000000</i>
     <i name="DEPER">      0.30000000</i>
     <i type="int" name="NRMM">     4</i>
     <i name="TIME">      0.40000000</i>
    </separator>
   </separator>
   <separator name="electronic mixer" >
    <i name="AMIX">      0.40000000</i>
    <i name="BMIX">      1.00000000</i>
    <i name="AMIN">      0.10000000</i>
    <i name="AMIX_MAG">      1.60000000</i>
    <i name="BMIX_MAG">      1.00000000</i>
    <separator name="electronic mixer details" >
     <i type="int" name="IMIX">     4</i>
     <i type="int" name="MAXMIX">   -45</i>
     <i name="WC">    100.00000000</i>
     <i type="int" name="INIMIX">     1</i>
     <i type="int" name="MIXPRE">     1</i>
     <i type="int" name="MREMOVE">     5</i>
    </separator>
   </separator>
   <separator name="electronic dipolcorrection" >
    <i type="logical" name="LDIPOL"> F  </i>
    <i type="logical" name="LMONO"> F  </i>
    <i type="int" name="IDIPOL">     0</i>
    <i name="EPSILON">      1.00000000</i>
    <v name="DIPOL">   -100.00000000   -100.00000000   -100.00000000</v>
    <i name="EFIELD">      0.00000000</i>
   </separator>
  </separator>
  <separator name="grids" >
   <i type="int" name="NGX">    70</i>
   <i type="int" name="NGY">    60</i>
   <i type="int" name="NGZ">    70</i>
   <i type="int" name="NGXF">   140</i>
   <i type="int" name="NGYF">   120</i>
   <i type="int" name="NGZF">   140</i>
   <i type="logical" name="ADDGRID"> F  </i>
  </separator>
  <separator name="ionic" >
   <i type="int" name="NSW">    10</i>
   <i type="int" name="IBRION">     2</i>
   <i type="int" name="ISIF">     2</i>
   <i name="PSTRESS">      0.00000000</i>
   <i name="EDIFFG">     -0.01000000</i>
   <i type="int" name="NFREE">    10</i>
   <i name="POTIM">      0.50000000</i>
   <i name="SMASS">     -3.00000000</i>
   <i name="SCALEE">      1.00000000</i>
  </separator>
  <separator name="ionic md" >
   <i name="TEBEG">      0.00010000</i>
   <i name="TEEND">      0.00010000</i>
   <i type="int" name="NBLOCK">     1</i>
   <i type="int" name="KBLOCK">    10</i>
   <i type="int" name="NPACO">   256</i>
   <i name="APACO">     16.00000000</i>
  </separator>
  <separator name="symmetry" >
   <i type="int" name="ISYM">     2</i>
   <i name="SYMPREC">      0.00001000</i>
  </separator>
  <separator name="dos" >
   <i type="logical" name="LORBIT"> F  </i>
   <v name="RWIGS">     -1.00000000     -1.00000000     -1.00000000     -1.00000000     -1.00000000</v>
   <i type="int" name="NEDOS">   301</i>
   <i name="EMIN">     10.00000000</i>
   <i name="EMAX">    -10.00000000</i>
   <i name="EFERMI">      0.00000000</i>
  </separator>
  <separator name="writing" >
   <i type="int" name="NWRITE">     2</i>
   <i type="logical" name="LWAVE"> F  </i>
   <i type="logical" name="LCHARG"> F  </i>
   <i type="logical" name="LPARD"> F  </i>
   <i type="logical" name="LVTOT"> F  </i>
   <i type="logical" name="LVHAR"> F  </i>
   <i type="logical" name="LELF"> F  </i>
   <i type="logical" name="LOPTICS"> F  </i>
   <v name="STM">      0.00000000      0.00000000      0.00000000      0.00000000      0.00000000      0.00000000      0.00000000</v>
  </separator>
  <separator name="performance" >
   <i type="int" name="NPAR">    40</i>
   <i type="int" name="NSIM">     4</i>
   <i type="int" name="NBLK">    -1</i>
   <i type="logical" name="LPLANE"> T  </i>
   <i type="logical" name="LSCALAPACK"> F  </i>
   <i type="logical" name="LSCAAWARE"> F  </i>
   <i type="logical" name="LSCALU"> F  </i>
   <i type="logical" name="LASYNC"> F  </i>
   <i type="logical" name="LORBITALREAL"> F  </i>
  </separator>
  <separator name="miscellaneous" >
   <i type="int" name="IDIOT">     3</i>
   <i type="logical" name="LMUSIC"> F  </i>
   <v name="POMASS">      7.01000000     24.30500000    208.98000000     32.06600000     16.00000000</v>
   <v name="DARWINR">      0.00000000      0.00000000      0.00000000      0.00000000      0.00000000</v>
   <v name="DARWINV">      1.00000000      1.00000000      1.00000000      1.00000000      1.00000000</v>
   <i type="logical" name="LCORR"> T  </i>
  </separator>
  <i type="logical" name="GGA_COMPAT"> T  </i>
  <i type="logical" name="LBERRY"> F  </i>
  <i type="int" name="ICORELEVEL">     0</i>
  <i type="logical" name="LDAU"> F  </i>
  <i type="int" name="I_CONSTRAINED_M">     0</i>
  <separator name="electronic exchange-correlation" >
   <i type="string" name="GGA">--</i>
   <i type="int" name="VOSKOWN">     0</i>
   <i type="logical" name="LHFCALC"> F  </i>
   <i type="string" name="PRECFOCK"></i>
   <i type="logical" name="LSYMGRAD"> F  </i>
   <i type="logical" name="LHFONE"> F  </i>
   <i type="logical" name="LRHFCALC"> F  </i>
   <i type="logical" name="LTHOMAS"> F  </i>
   <i type="logical" name="LMODELHF"> F  </i>
   <i name="ENCUT4O">     -1.00000000</i>
   <i type="int" name="EXXOEP">     0</i>
   <i type="int" name="FOURORBIT">     0</i>
   <i name="AEXX">      0.00000000</i>
   <i name="HFALPHA">      0.00000000</i>
   <i name="MCALPHA">      0.00000000</i>
   <i name="ALDAX">      1.00000000</i>
   <i name="AGGAX">      1.00000000</i>
   <i name="ALDAC">      1.00000000</i>
   <i name="AGGAC">      1.00000000</i>
   <i type="int" name="NKREDX">     1</i>
   <i type="int" name="NKREDY">     1</i>
   <i type="int" name="NKREDZ">     1</i>
   <i type="logical" name="SHIFTRED"> F  </i>
   <i type="logical" name="ODDONLY"> F  </i>
   <i type="logical" name="EVENONLY"> F  </i>
   <i type="int" name="LMAXFOCK">     0</i>
   <i type="int" name="NMAXFOCKAE">     0</i>
   <i type="logical" name="LFOCKAEDFT"> F  </i>
   <i name="HFSCREEN">      0.00000000</i>
   <i name="HFSCREENC">      0.00000000</i>
   <i type="int" name="NBANDSGWLOW">     0</i>
  </separator>
  <separator name="vdW DFT" >
   <i type="logical" name="LUSE_VDW"> F  </i>
   <i name="Zab_VDW">     -0.84910000</i>
   <i name="PARAM1">      0.12340000</i>
   <i name="PARAM2">      1.00000000</i>
   <i name="PARAM3">      0.00000000</i>
  </separator>
  <separator name="model GW" >
   <i type="int" name="MODEL_GW">     0</i>
   <i name="MODEL_EPS0">     12.59840567</i>
   <i name="MODEL_ALPHA">      1.00000000</i>
  </separator>
  <separator name="linear response parameters" >
   <i type="logical" name="LEPSILON"> F  </i>
   <i type="logical" name="LRPA"> F  </i>
   <i type="logical" name="LNABLA"> F  </i>
   <i type="logical" name="LVEL"> F  </i>
   <i type="int" name="KINTER">     0</i>
   <i name="CSHIFT">      0.10000000</i>
   <i name="OMEGAMAX">     -1.00000000</i>
   <i name="DEG_THRESHOLD">      0.00200000</i>
  </separator>
  <separator name="orbital magnetization" >
   <i type="logical" name="NUCIND"> F  </i>
   <v name="MAGPOS">      0.00000000      0.00000000      0.00000000</v>
   <i type="logical" name="LNICSALL"> T  </i>
   <i type="logical" name="ORBITALMAG"> F  </i>
   <i type="logical" name="LMAGBLOCH"> F  </i>
   <i type="logical" name="LCHIMAG"> F  </i>
   <i type="logical" name="LGAUGE"> T  </i>
   <i type="int" name="MAGATOM">     0</i>
   <v name="MAGDIPOL">      0.00000000      0.00000000      0.00000000</v>
   <v name="AVECCONST">      0.00000000      0.00000000      0.00000000</v>
  </separator>
  <separator name="response functions" >
   <i type="logical" name="LADDER"> F  </i>
   <i type="logical" name="LFXC"> F  </i>
   <i type="logical" name="LHARTREE"> T  </i>
   <i type="int" name="IBSE">     0</i>
   <i type="logical" name="LTCTE"> F  </i>
   <i type="logical" name="LTETE"> F  </i>
   <i type="logical" name="LTRIPLET"> F  </i>
   <i type="logical" name="LFXCEPS"> F  </i>
   <i type="logical" name="L2ORDER"> F  </i>
   <i type="logical" name="LUSEW"> F  </i>
   <i name="ENCUTGW">     -2.00000000</i>
   <i name="ENCUTGWSOFT">     -2.00000000</i>
   <i name="ENCUTLF">     -1.00000000</i>
   <i type="int" name="LMAXMP2">    -1</i>
   <i name="SCISSOR">      0.00000000</i>
   <i type="int" name="NOMEGA">     0</i>
   <i type="int" name="NOMEGAR">     0</i>
   <i type="int" name="NBANDSGW">    -1</i>
   <i type="int" name="NBANDSO">    -1</i>
   <i type="int" name="NBANDSV">    -1</i>
   <i type="int" name="NELM">     1</i>
   <i type="int" name="DIM">     3</i>
   <i type="int" name="ANTIRES">     0</i>
   <i name="OMEGAMAX">    -30.00000000</i>
   <i name="OMEGATL">   -200.00000000</i>
   <i type="int" name="OMEGAGRID">     0</i>
   <i name="CSHIFT">     -0.10000000</i>
   <i type="logical" name="SELFENERGY"> F  </i>
   <i type="logical" name="LSPECTRAL"> F  </i>
   <i type="logical" name="ODDONLYGW"> F  </i>
   <i type="logical" name="EVENONLYGW"> F  </i>
   <i type="int" name="NKREDLFX">     1</i>
   <i type="int" name="NKREDLFY">     1</i>
   <i type="int" name="NKREDLFZ">     1</i>
   <i type="int" name="MAXMEM">  1800</i>
   <i type="int" name="TELESCOPE">     0</i>
  </separator>
 </parameters>
 <atominfo>
  <atoms>      57 </atoms>
  <types>       5 </types>
  <array name="atoms" >
   <dimension dim="1">ion</dimension>
   <field type="string">element</field>
   <field type="int">atomtype</field>
   <set>
    <rc><c>Li</c><c>   1</c></rc>
    <rc><c>Li</c><c>   1</c></rc>
    <rc><c>Mg</c><c>   2</c></rc>
    <rc><c>Mg</c><c>   2</c></rc>
    <rc><c>Mg</c><c>   2</c></rc>
    <rc><c>Mg</c><c>   2</c></rc>
    <rc><c>Mg</c><c>   2</c></rc>
    <rc><c>Mg</c><c>   2</c></rc>
    <rc><c>Mg</c><c>   2</c></rc>
    <rc><c>Bi</c><c>   3</c></rc>
    <rc><c>Bi</c><c>   3</c></rc>
    <rc><c>Bi</c><c>   3</c></rc>
    <rc><c>Bi</c><c>   3</c></rc>
    <rc><c>Bi</c><c>   3</c></rc>
    <rc><c>Bi</c><c>   3</c></rc>
    <rc><c>Bi</c><c>   3</c></rc>
    <rc><c>Bi</c><c>   3</c></rc>
    <rc><c>Bi</c><c>   3</c></rc>
    <rc><c>Bi</c><c>   3</c></rc>
    <rc><c>Bi</c><c>   3</c></rc>
    <rc><c>Bi</c><c>   3</c></rc>
    <rc><c>Bi</c><c>   3</c></rc>
    <rc><c>Bi</c><c>   3</c></rc>
    <rc><c>Bi</c><c>   3</c></rc>
    <rc><c>Bi</c><c>   3</c></rc>
    <rc><c>S </c><c>   4</c></rc>
    <rc><c>S </c><c>   4</c></rc>
    <rc><c>S </c><c>   4</c></rc>
    <rc><c>S </c><c>   4</c></rc>
    <rc><c>S </c><c>   4</c></rc>
    <rc><c>S </c><c>   4</c></rc>
    <rc><c>S </c><c>   4</c></rc>
    <rc><c>S </c><c>   4</c></rc>
    <rc><c>S </c><c>   4</c></rc>
    <rc><c>S </c><c>   4</c></rc>
    <rc><c>S </c><c>   4</c></rc>
    <rc><c>S </c><c>   4</c></rc>
    <rc><c>S </c><c>   4</c></rc>
    <rc><c>S </c><c>   4</c></rc>
    <rc><c>S </c><c>   4</c></rc>
    <rc><c>S </c><c>   4</c></rc>
    <rc><c>O </c><c>   5</c></rc>
    <rc><c>O </c><c>   5</c></rc>
    <rc><c>O </c><c>   5</c></rc>
    <rc><c>O </c><c>   5</c></rc>
    <rc><c>O </c><c>   5</c></rc>
    <rc><c>O </c><c>   5</c></rc>
    <rc><c>O </c><c>   5</c></rc>
    <rc><c>O </c><c>   5</c></rc>
    <rc><c>O </c><c>   5</c></rc>
    <rc><c>O </c><c>   5</c></rc>
    <rc><c>O </c><c>   5</c></rc>
    <rc><c>O </c><c>   5</c></rc>
    <rc><c>O </c><c>   5</c></rc>
    <rc><c>O </c><c>   5</c></rc>
    <rc><c>O </c><c>   5</c></rc>
    <rc><c>O </c><c>   5</c></rc>
   </set>
  </array>
  <array name="atomtypes" >
   <dimension dim="1">type</dimension>
   <field type="int">atomspertype</field>
   <field type="string">element</field>
   <field>mass</field>
   <field>valence</field>
   <field type="string">pseudopotential</field>
   <set>
    <rc><c>   2</c><c>Li</c><c>      7.01000000</c><c>      3.00000000</c><c>  PAW_PBE Li_sv 10Sep2004               </c></rc>
    <rc><c>   7</c><c>Mg</c><c>     24.30500000</c><c>      2.00000000</c><c>  PAW_PBE Mg 13Apr2007                  </c></rc>
    <rc><c>  16</c><c>Bi</c><c>    208.98000000</c><c>     15.00000000</c><c>  PAW_PBE Bi_d 06Sep2000                </c></rc>
    <rc><c>  16</c><c>S </c><c>     32.06600000</c><c>      6.00000000</c><c>  PAW_PBE S 06Sep2000                   </c></rc>
    <rc><c>  16</c><c>O </c><c>     16.00000000</c><c>      6.00000000</c><c>  PAW_PBE O 08Apr2002                   </c></rc>
   </set>
  </array>
 </atominfo>
 <structure name="initialpos" >
  <crystal>
   <varray name="basis" >
    <v>      11.17850000       0.00000000       0.00000000 </v>
    <v>       0.00000000       9.57460000       0.00000000 </v>
    <v>       0.00000000       0.00000000      11.18240000 </v>
   </varray>
   <i name="volume">   1196.84853820 </i>
   <varray name="rec_basis" >
    <v>       0.08945744       0.00000000       0.00000000 </v>
    <v>       0.00000000       0.10444301       0.00000000 </v>
    <v>       0.00000000       0.00000000       0.08942624 </v>
   </varray>
  </crystal>
  <varray name="positions" >
   <v>       0.12461000       0.99984000       0.18687000 </v>
   <v>       0.62461000       0.99984000       0.68687000 </v>
   <v>       0.37461000       0.00017000       0.18687000 </v>
   <v>       0.62539000       0.99984000       0.43687000 </v>
   <v>       0.87461000       0.00017000       0.18687000 </v>
   <v>       0.12539000       0.99984000       0.93687000 </v>
   <v>       0.37461000       0.00017000       0.68687000 </v>
   <v>       0.62539000       0.99984000       0.93687000 </v>
   <v>       0.87461000       0.00017000       0.68687000 </v>
   <v>       0.00013000       0.29519000       0.06281000 </v>
   <v>       0.25013000       0.70481000       0.06281000 </v>
   <v>       0.24987000       0.29519000       0.31282000 </v>
   <v>       0.49987000       0.70481000       0.31282000 </v>
   <v>       0.50013000       0.29519000       0.06281000 </v>
   <v>       0.75013000       0.70481000       0.06281000 </v>
   <v>       0.74987000       0.29519000       0.31282000 </v>
   <v>       0.99987000       0.70481000       0.31282000 </v>
   <v>       0.00013000       0.29519000       0.56281000 </v>
   <v>       0.25013000       0.70481000       0.56281000 </v>
   <v>       0.24987000       0.29519000       0.81282000 </v>
   <v>       0.49987000       0.70481000       0.81282000 </v>
   <v>       0.50013000       0.29519000       0.56281000 </v>
   <v>       0.75013000       0.70481000       0.56281000 </v>
   <v>       0.74987000       0.29519000       0.81282000 </v>
   <v>       0.99987000       0.70481000       0.81282000 </v>
   <v>       0.25005000       0.32677000       0.06286000 </v>
   <v>       0.00005000       0.67323000       0.06286000 </v>
   <v>       0.49995000       0.32677000       0.31286000 </v>
   <v>       0.24995000       0.67323000       0.31286000 </v>
   <v>       0.75005000       0.32677000       0.06286000 </v>
   <v>       0.50005000       0.67323000       0.06286000 </v>
   <v>       0.99995000       0.32677000       0.31286000 </v>
   <v>       0.74995000       0.67323000       0.31286000 </v>
   <v>       0.25005000       0.32677000       0.56286000 </v>
   <v>       0.00005000       0.67323000       0.56286000 </v>
   <v>       0.49995000       0.32677000       0.81286000 </v>
   <v>       0.24995000       0.67323000       0.81286000 </v>
   <v>       0.75005000       0.32677000       0.56286000 </v>
   <v>       0.50005000       0.67323000       0.56286000 </v>
   <v>       0.99995000       0.32677000       0.81286000 </v>
   <v>       0.74995000       0.67323000       0.81286000 </v>
   <v>       0.49987000       0.07798000       0.06246000 </v>
   <v>       0.24987000       0.92202000       0.06246000 </v>
   <v>       0.25013000       0.07798000       0.31246000 </v>
   <v>       0.00013000       0.92202000       0.31246000 </v>
   <v>       0.99987000       0.07798000       0.06246000 </v>
   <v>       0.74987000       0.92202000       0.06246000 </v>
   <v>       0.75013000       0.07798000       0.31246000 </v>
   <v>       0.50013000       0.92202000       0.31246000 </v>
   <v>       0.49987000       0.07798000       0.56246000 </v>
   <v>       0.24987000       0.92202000       0.56246000 </v>
   <v>       0.25013000       0.07798000       0.81246000 </v>
   <v>       0.00013000       0.92202000       0.81246000 </v>
   <v>       0.99987000       0.07798000       0.56246000 </v>
   <v>       0.74987000       0.92202000       0.56246000 </v>
   <v>       0.75013000       0.07798000       0.81246000 </v>
   <v>       0.50013000       0.92202000       0.81246000 </v>
  </varray>
 </structure>
 <calculation>
  <scstep>
   <time name="dav">   39.47   39.59</time>
   <time name="total">   39.55   39.68</time>
   <energy>
    <i name="alphaZ">   1047.62774490 </i>
    <i name="ewald"> -29934.31865277 </i>
    <i name="hartreedc"> -12714.39179779 </i>
    <i name="XCdc">   1099.47163345 </i>
    <i name="pawpsdc">  36446.83583027 </i>
    <i name="pawaedc"> -35618.96860492 </i>
    <i name="eentropy">      0.00000000 </i>
    <i name="bandstr">   1802.21097263 </i>
    <i name="atom">  43261.00331033 </i>
    <i name="e_fr_energy">   5389.47043611 </i>
    <i name="e_wo_entrp">   5389.47043611 </i>
    <i name="e_0_energy">   5389.47043611 </i>
   </energy>
  </scstep>
  <scstep>
   <time name="dav">   40.37   40.50</time>
   <time name="total">   40.39   40.56</time>
   <energy>
    <i name="e_fr_energy">    614.80168370 </i>
    <i name="e_wo_entrp">    614.80168370 </i>
    <i name="e_0_energy">    614.80168370 </i>
   </energy>
  </scstep>
  <scstep>
   <time name="dav">   47.18   47.40</time>
   <time name="total">   47.18   47.44</time>
   <energy>
    <i name="e_fr_energy">   -263.42788381 </i>
    <i name="e_wo_entrp">   -263.42788381 </i>
    <i name="e_0_energy">   -263.42788381 </i>
   </energy>
  </scstep>
  <scstep>
   <time name="dav">   50.02   50.33</time>
   <time name="total">   50.02   50.35</time>
   <energy>
    <i name="e_fr_energy">   -328.29044715 </i>
    <i name="e_wo_entrp">   -328.29044715 </i>
    <i name="e_0_energy">   -328.29044715 </i>
   </energy>
  </scstep>
  <scstep>
   <time name="dav">   62.89   63.52</time>
   <time name="total">   63.32   63.97</time>
   <energy>
    <i name="e_fr_energy">   -331.91881195 </i>
    <i name="e_wo_entrp">   -331.91881195 </i>
    <i name="e_0_energy">   -331.91881195 </i>
   </energy>
  </scstep>
  <scstep>
   <time name="dav">   58.54   58.93</time>
   <time name="total">   59.02   59.43</time>
   <energy>
    <i name="e_fr_energy">   -280.30336260 </i>
    <i name="e_wo_entrp">   -280.30336260 </i>
    <i name="e_0_energy">   -280.30336260 </i>
   </energy>
  </scstep>
  <scstep>
   <time name="dav">   43.81   44.13</time>
   <time name="total">   44.30   44.70</time>
   <energy>
    <i name="e_fr_energy">   -281.55607844 </i>
    <i name="e_wo_entrp">   -281.55607844 </i>
    <i name="e_0_energy">   -281.55607844 </i>
   </energy>
  </scstep>
  <scstep>
   <time name="dav">   51.21   51.31</time>
   <time name="total">   51.70   51.83</time>
   <energy>
    <i name="e_fr_energy">   -280.78523465 </i>
    <i name="e_wo_entrp">   -280.78523465 </i>
    <i name="e_0_energy">   -280.78523465 </i>
   </energy>
  </scstep>
  <scstep>
   <time name="dav">   47.83   48.29</time>
   <time name="total">   48.32   48.82</time>
   <energy>
    <i name="e_fr_energy">   -280.42281571 </i>
    <i name="e_wo_entrp">   -280.42281571 </i>
    <i name="e_0_energy">   -280.42281571 </i>
   </energy>
  </scstep>
  <scstep>
   <time name="dav">   51.15   51.46</time>
   <time name="total">   51.63   51.96</time>
   <energy>
    <i name="e_fr_energy">   -280.44342379 </i>
    <i name="e_wo_entrp">   -280.44342379 </i>
    <i name="e_0_energy">   -280.44342379 </i>
   </energy>
  </scstep>
  <scstep>
   <time name="dav">   49.65   50.37</time>
   <time name="total">   50.13   50.88</time>
   <energy>
    <i name="e_fr_energy">   -280.44344795 </i>
    <i name="e_wo_entrp">   -280.44344795 </i>
    <i name="e_0_energy">   -280.44344795 </i>
   </energy>
  </scstep>
  <scstep>
   <time name="dav">   53.21   53.73</time>
   <time name="total">   53.69   54.23</time>
   <energy>
    <i name="e_fr_energy">   -280.44665844 </i>
    <i name="e_wo_entrp">   -280.44665844 </i>
    <i name="e_0_energy">   -280.44665844 </i>
   </energy>
  </scstep>
  <scstep>
   <time name="dav">   48.19   48.56</time>
   <time name="total">   48.68   49.06</time>
   <energy>
    <i name="e_fr_energy">   -280.44778344 </i>
    <i name="e_wo_entrp">   -280.44778344 </i>
    <i name="e_0_energy">   -280.44778344 </i>
   </energy>
  </scstep>
  <scstep>
   <time name="dav">   48.46   48.59</time>
   <time name="total">   48.95   49.12</time>
   <energy>
    <i name="e_fr_energy">   -280.44778632 </i>
    <i name="e_wo_entrp">   -280.44778632 </i>
    <i name="e_0_energy">   -280.44778632 </i>
   </energy>
  </scstep>
  <scstep>
   <time name="dav">   52.59   52.83</time>
   <time name="total">   53.07   53.38</time>
   <energy>
    <i name="e_fr_energy">   -280.44791804 </i>
    <i name="e_wo_entrp">   -280.44791804 </i>
    <i name="e_0_energy">   -280.44791804 </i>
   </energy>
  </scstep>
  <scstep>
   <time name="dav">   53.61   54.46</time>
   <time name="total">   54.09   54.98</time>
   <energy>
    <i name="e_fr_energy">   -280.44792143 </i>
    <i name="e_wo_entrp">   -280.44792143 </i>
    <i name="e_0_energy">   -280.44792143 </i>
   </energy>
  </scstep>
  <scstep>
   <time name="dav">   46.82   47.16</time>
   <time name="total">   47.30   47.69</time>
   <energy>
    <i name="e_fr_energy">   -280.44792173 </i>
    <i name="e_wo_entrp">   -280.44792173 </i>
    <i name="e_0_energy">   -280.44792173 </i>
   </energy>
  </scstep>
  <scstep>
   <time name="dav">   46.91   47.09</time>
   <time name="total">   47.41   47.62</time>
   <energy>
    <i name="e_fr_energy">   -280.44792287 </i>
    <i name="e_wo_entrp">   -280.44792287 </i>
    <i name="e_0_energy">   -280.44792287 </i>
   </energy>
  </scstep>
  <scstep>
   <time name="dav">   36.83   37.04</time>
   <time name="total">   36.89   37.11</time>
   <energy>
    <i name="alphaZ">   1047.62774490 </i>
    <i name="ewald"> -29934.31865277 </i>
    <i name="hartreedc"> -12952.85994731 </i>
    <i name="XCdc">   1125.35653269 </i>
    <i name="pawpsdc">  43481.23269206 </i>
    <i name="pawaedc"> -42625.31851580 </i>
    <i name="eentropy">      0.00000000 </i>
    <i name="bandstr">  -3683.17108773 </i>
    <i name="atom">  43261.00331033 </i>
    <i name="e_fr_energy">   -280.44792363 </i>
    <i name="e_wo_entrp">   -280.44792363 </i>
    <i name="e_0_energy">   -280.44792363 </i>
   </energy>
  </scstep>
  <structure>
   <crystal>
    <varray name="basis" >
     <v>      11.17850000       0.00000000       0.00000000 </v>
     <v>       0.00000000       9.57460000       0.00000000 </v>
     <v>       0.00000000       0.00000000      11.18240000 </v>
    </varray>
    <i name="volume">   1196.84853820 </i>
    <varray name="rec_basis" >
     <v>       0.08945744       0.00000000       0.00000000 </v>
     <v>       0.00000000       0.10444301       0.00000000 </v>
     <v>       0.00000000       0.00000000       0.08942624 </v>
    </varray>
   </crystal>
   <varray name="positions" >
    <v>       0.12461000       0.99984000       0.18687000 </v>
    <v>       0.62461000       0.99984000       0.68687000 </v>
    <v>       0.37461000       0.00017000       0.18687000 </v>
    <v>       0.62539000       0.99984000       0.43687000 </v>
    <v>       0.87461000       0.00017000       0.18687000 </v>
    <v>       0.12539000       0.99984000       0.93687000 </v>
    <v>       0.37461000       0.00017000       0.68687000 </v>
    <v>       0.62539000       0.99984000       0.93687000 </v>
    <v>       0.87461000       0.00017000       0.68687000 </v>
    <v>       0.00013000       0.29519000       0.06281000 </v>
    <v>       0.25013000       0.70481000       0.06281000 </v>
    <v>       0.24987000       0.29519000       0.31282000 </v>
    <v>       0.49987000       0.70481000       0.31282000 </v>
    <v>       0.50013000       0.29519000       0.06281000 </v>
    <v>       0.75013000       0.70481000       0.06281000 </v>
    <v>       0.74987000       0.29519000       0.31282000 </v>
    <v>       0.99987000       0.70481000       0.31282000 </v>
    <v>       0.00013000       0.29519000       0.56281000 </v>
    <v>       0.25013000       0.70481000       0.56281000 </v>
    <v>       0.24987000       0.29519000       0.81282000 </v>
    <v>       0.49987000       0.70481000       0.81282000 </v>
    <v>       0.50013000       0.29519000       0.56281000 </v>
    <v>       0.75013000       0.70481000       0.56281000 </v>
    <v>       0.74987000       0.29519000       0.81282000 </v>
    <v>       0.99987000       0.70481000       0.81282000 </v>
    <v>       0.25005000       0.32677000       0.06286000 </v>
    <v>       0.00005000       0.67323000       0.06286000 </v>
    <v>       0.49995000       0.32677000       0.31286000 </v>
    <v>       0.24995000       0.67323000       0.31286000 </v>
    <v>       0.75005000       0.32677000       0.06286000 </v>
    <v>       0.50005000       0.67323000       0.06286000 </v>
    <v>       0.99995000       0.32677000       0.31286000 </v>
    <v>       0.74995000       0.67323000       0.31286000 </v>
    <v>       0.25005000       0.32677000       0.56286000 </v>
    <v>       0.00005000       0.67323000       0.56286000 </v>
    <v>       0.49995000       0.32677000       0.81286000 </v>
    <v>       0.24995000       0.67323000       0.81286000 </v>
    <v>       0.75005000       0.32677000       0.56286000 </v>
    <v>       0.50005000       0.67323000       0.56286000 </v>
    <v>       0.99995000       0.32677000       0.81286000 </v>
    <v>       0.74995000       0.67323000       0.81286000 </v>
    <v>       0.49987000       0.07798000       0.06246000 </v>
    <v>       0.24987000       0.92202000       0.06246000 </v>
    <v>       0.25013000       0.07798000       0.31246000 </v>
    <v>       0.00013000       0.92202000       0.31246000 </v>
    <v>       0.99987000       0.07798000       0.06246000 </v>
    <v>       0.74987000       0.92202000       0.06246000 </v>
    <v>       0.75013000       0.07798000       0.31246000 </v>
    <v>       0.50013000       0.92202000       0.31246000 </v>
    <v>       0.49987000       0.07798000       0.56246000 </v>
    <v>       0.24987000       0.92202000       0.56246000 </v>
    <v>       0.25013000       0.07798000       0.81246000 </v>
    <v>       0.00013000       0.92202000       0.81246000 </v>
    <v>       0.99987000       0.07798000       0.56246000 </v>
    <v>       0.74987000       0.92202000       0.56246000 </v>
    <v>       0.75013000       0.07798000       0.81246000 </v>
    <v>       0.50013000       0.92202000       0.81246000 </v>
   </varray>
  </structure>
  <varray name="forces" >
   <v>       0.00104723       0.00036432       1.03018603 </v>
   <v>      -0.00240430      -0.00002483      -0.05212012 </v>
   <v>       0.51287365       0.22348560       0.53840825 </v>
   <v>      -0.02570513       0.00496625      -0.99444958 </v>
   <v>      -0.45806386      -0.23321277       0.53430319 </v>
   <v>      -0.02500873       0.00506534      -0.97077618 </v>
   <v>      -1.45986484      -0.20871779      -0.43897763 </v>
   <v>      -0.02556039       0.00468783       1.04980451 </v>
   <v>       1.51272938       0.19834367      -0.43440473 </v>
   <v>      -0.01987563       1.02865478       0.08542595 </v>
   <v>       0.01100142      -1.04348919       0.08718805 </v>
   <v>      -0.24487625      -0.95012553       0.53515893 </v>
   <v>      -0.20697996       0.05523684       0.08233994 </v>
   <v>      -0.10415692      -0.03425570       0.19335695 </v>
   <v>       0.09123855       0.01658235       0.19309305 </v>
   <v>       0.21714608      -0.03609726       0.08156744 </v>
   <v>       0.26060595       0.95369045       0.53401446 </v>
   <v>       0.40907880      -1.87764212      -0.32904902 </v>
   <v>      -0.42473335       1.87506686      -0.33151789 </v>
   <v>      -0.18185695      -0.01840362      -0.30543203 </v>
   <v>      -0.33444882      -1.04068368       0.00461024 </v>
   <v>      -0.43773404       1.06928159      -0.31010453 </v>
   <v>       0.42759837      -1.08536088      -0.30928209 </v>
   <v>       0.34382185       1.05244663       0.00454242 </v>
   <v>       0.19502126       0.03648788      -0.30472872 </v>
   <v>      -0.02970033       0.12384349      -0.14310652 </v>
   <v>       0.02797062      -0.12547264      -0.14228892 </v>
   <v>       0.14692712       0.10143478       0.02365421 </v>
   <v>       0.20906921      -0.15793493      -0.43693273 </v>
   <v>       0.00905246       0.02136145      -0.15766330 </v>
   <v>      -0.00882705      -0.02343659      -0.15979527 </v>
   <v>      -0.20911081       0.15858680      -0.43557529 </v>
   <v>      -0.14443984      -0.09936863       0.02386986 </v>
   <v>       0.43699410       0.12738650       0.23016963 </v>
   <v>      -0.43989469      -0.12854450       0.22725391 </v>
   <v>       0.17629121       0.02429556      -0.03083366 </v>
   <v>       0.15756395      -0.10028733       0.34355288 </v>
   <v>      -0.35572967       0.09850898       0.17428261 </v>
   <v>       0.35771922      -0.10092436       0.17499923 </v>
   <v>      -0.15614738       0.10208987       0.34146120 </v>
   <v>      -0.17571825      -0.02190604      -0.02915685 </v>
   <v>       0.06996054       0.16272252      -0.18589626 </v>
   <v>      -0.66544687       0.64752059       0.44007346 </v>
   <v>       0.54747055       0.71535469      -1.86064110 </v>
   <v>      -0.57850118      -0.71140334      -1.86899400 </v>
   <v>       0.67743139      -0.64633723       0.43588133 </v>
   <v>      -0.05283846      -0.15859335      -0.17972757 </v>
   <v>      -0.14729833       0.26233381       0.03341878 </v>
   <v>       0.13325308      -0.26651813       0.02824568 </v>
   <v>       0.91885422      -0.72827537       0.73891688 </v>
   <v>       1.21759240      -1.53362237       1.12342390 </v>
   <v>       0.08366781       0.24482629       0.24220867 </v>
   <v>      -0.09890803      -0.24810165       0.23574691 </v>
   <v>      -1.21632237       1.53383738       1.12555135 </v>
   <v>      -0.90423178       0.73098941       0.74392029 </v>
   <v>      -0.82665778      -0.78936366      -0.61149349 </v>
   <v>       0.80906157       0.78865098      -0.61768274 </v>
  </varray>
  <varray name="stress" >
   <v>      -7.17873177       0.13985726      -0.04883377 </v>
   <v>       0.13985738     -12.25890884       0.01559647 </v>
   <v>      -0.04883366       0.01559651     -10.75653699 </v>
  </varray>
  <energy>
   <i name="e_fr_energy">   -291.19500140 </i>
   <i name="e_wo_entrp">   -291.19500140 </i>
   <i name="e_0_energy">      0.00000000 </i>
  </energy>
  <time name="totalsc"> 1020.08 1027.73</time>
 </calculation>
 <calculation>
  <scstep>
   <time name="dav">   39.60   39.81</time>
   <time name="total">   40.09   40.31</time>
   <energy>
    <i name="alphaZ">   1047.62774490 </i>
    <i name="ewald"> -29891.16565305 </i>
    <i name="hartreedc"> -12984.57974432 </i>
    <i name="XCdc">   1125.71836723 </i>
    <i name="pawpsdc">  43480.91702097 </i>
    <i name="pawaedc"> -42625.00741705 </i>
    <i name="eentropy">      0.00000000 </i>
    <i name="bandstr">  -3694.15796749 </i>
    <i name="atom">  43261.00331033 </i>
    <i name="e_fr_energy">   -279.64433848 </i>
    <i name="e_wo_entrp">   -279.64433848 </i>
    <i name="e_0_energy">   -279.64433848 </i>
   </energy>
  </scstep>
  <scstep>
   <time name="dav">   46.32   47.00</time>
   <time name="total">   46.81   47.51</time>
   <energy>
    <i name="e_fr_energy">   -281.97962760 </i>
    <i name="e_wo_entrp">   -281.97962760 </i>
    <i name="e_0_energy">   -281.97962760 </i>
   </energy>
  </scstep>
  <scstep>
   <time name="dav">   63.14   63.24</time>
   <time name="total">   63.63   63.75</time>
   <energy>
    <i name="e_fr_energy">   -281.96051754 </i>
    <i name="e_wo_entrp">   -281.96051754 </i>
    <i name="e_0_energy">   -281.96051754 </i>
   </energy>
  </scstep>
  <scstep>
   <time name="dav">   46.95   47.29</time>
   <time name="total">   47.46   47.82</time>
   <energy>
    <i name="e_fr_energy">   -281.90122773 </i>
    <i name="e_wo_entrp">   -281.90122773 </i>
    <i name="e_0_energy">   -281.90122773 </i>
   </energy>
  </scstep>
  <scstep>
   <time name="dav">   49.08   49.44</time>
   <time name="total">   49.57   49.97</time>
   <energy>
    <i name="e_fr_energy">   -281.87512029 </i>
    <i name="e_wo_entrp">   -281.87512029 </i>
    <i name="e_0_energy">   -281.87512029 </i>
   </energy>
  </scstep>
  <scstep>
   <time name="dav">   56.84   57.31</time>
   <time name="total">   57.32   57.81</time>
   <energy>
    <i name="e_fr_energy">   -281.87532356 </i>
    <i name="e_wo_entrp">   -281.87532356 </i>
    <i name="e_0_energy">   -281.87532356 </i>
   </energy>
  </scstep>
  <scstep>
   <time name="dav">   54.29   54.75</time>
   <time name="total">   54.78   55.26</time>
   <energy>
    <i name="e_fr_energy">   -281.87506556 </i>
    <i name="e_wo_entrp">   -281.87506556 </i>
    <i name="e_0_energy">   -281.87506556 </i>
   </energy>
  </scstep>
  <scstep>
   <time name="dav">   51.97   52.79</time>
   <time name="total">   52.46   53.34</time>
   <energy>
    <i name="e_fr_energy">   -281.87482077 </i>
    <i name="e_wo_entrp">   -281.87482077 </i>
    <i name="e_0_energy">   -281.87482077 </i>
   </energy>
  </scstep>
  <scstep>
   <time name="dav">   54.66   55.15</time>
   <time name="total">   55.14   55.73</time>
   <energy>
    <i name="e_fr_energy">   -281.87489106 </i>
    <i name="e_wo_entrp">   -281.87489106 </i>
    <i name="e_0_energy">   -281.87489106 </i>
   </energy>
  </scstep>
  <scstep>
   <time name="dav">   46.61   46.95</time>
   <time name="total">   47.10   47.45</time>
   <energy>
    <i name="e_fr_energy">   -281.87489110 </i>
    <i name="e_wo_entrp">   -281.87489110 </i>
    <i name="e_0_energy">   -281.87489110 </i>
   </energy>
  </scstep>
  <scstep>
   <time name="dav">   47.33   47.95</time>
   <time name="total">   47.82   48.51</time>
   <energy>
    <i name="e_fr_energy">   -281.87489813 </i>
    <i name="e_wo_entrp">   -281.87489813 </i>
    <i name="e_0_energy">   -281.87489813 </i>
   </energy>
  </scstep>
  <scstep>
   <time name="dav">   47.93   48.31</time>
   <time name="total">   48.39   48.82</time>
   <energy>
    <i name="e_fr_energy">   -281.87489916 </i>
    <i name="e_wo_entrp">   -281.87489916 </i>
    <i name="e_0_energy">   -281.87489916 </i>
   </energy>
  </scstep>
  <scstep>
   <time name="dav">   43.75   44.08</time>
   <time name="total">   43.81   44.14</time>
   <energy>
    <i name="alphaZ">   1047.62774490 </i>
    <i name="ewald"> -29891.16565305 </i>
    <i name="hartreedc"> -12996.62234822 </i>
    <i name="XCdc">   1126.37395791 </i>
    <i name="pawpsdc">  43583.36139342 </i>
    <i name="pawaedc"> -42728.36432635 </i>
    <i name="eentropy">      0.00000000 </i>
    <i name="bandstr">  -3684.08897891 </i>
    <i name="atom">  43261.00331033 </i>
    <i name="e_fr_energy">   -281.87489997 </i>
    <i name="e_wo_entrp">   -281.87489997 </i>
    <i name="e_0_energy">   -281.87489997 </i>
   </energy>
  </scstep>
  <structure>
   <crystal>
    <varray name="basis" >
     <v>      11.17850000       0.00000000       0.00000000 </v>
     <v>       0.00000000       9.57460000       0.00000000 </v>
     <v>       0.00000000       0.00000000      11.18240000 </v>
    </varray>
    <i name="volume">   1196.84853820 </i>
    <varray name="rec_basis" >
     <v>       0.08945744       0.00000000       0.00000000 </v>
     <v>       0.00000000       0.10444301       0.00000000 </v>
     <v>       0.00000000       0.00000000       0.08942624 </v>
    </varray>
   </crystal>
   <varray name="positions" >
    <v>       0.12461452       0.99984184       0.19131439 </v>
    <v>       0.62459962       0.99983987       0.68664515 </v>
    <v>       0.37682339       0.00129606       0.18919278 </v>
    <v>       0.62527907       0.99986502       0.43257979 </v>
    <v>       0.87263315      -0.00100507       0.18917507 </v>
    <v>       0.12528207       0.99986552       0.93268192 </v>
    <v>       0.36830971      -0.00088165       0.68497618 </v>
    <v>       0.62527969       0.99986362       0.94139902 </v>
    <v>       0.88113843       0.00116938       0.68499591 </v>
    <v>       0.00004422       0.30037299       0.06317854 </v>
    <v>       0.25017748       0.69955227       0.06318614 </v>
    <v>       0.24881320       0.29040269       0.31512876 </v>
    <v>       0.49897674       0.70508832       0.31317523 </v>
    <v>       0.49968049       0.29501740       0.06364417 </v>
    <v>       0.75052375       0.70489355       0.06364303 </v>
    <v>       0.75080713       0.29500812       0.31317189 </v>
    <v>       0.00099469       0.70961527       0.31512382 </v>
    <v>       0.00189545       0.28572930       0.56139043 </v>
    <v>       0.24829699       0.71425773       0.56137978 </v>
    <v>       0.24908517       0.29509727       0.81150232 </v>
    <v>       0.49842663       0.69956640       0.81283989 </v>
    <v>       0.49824089       0.30057769       0.56147216 </v>
    <v>       0.75197537       0.69934129       0.56147571 </v>
    <v>       0.75135382       0.30049287       0.81283960 </v>
    <v>       0.00071165       0.70499385       0.81150535 </v>
    <v>       0.24992182       0.32739400       0.06224262 </v>
    <v>       0.00017071       0.67259779       0.06224614 </v>
    <v>       0.50058409       0.32728109       0.31296205 </v>
    <v>       0.25085227       0.67243423       0.31097500 </v>
    <v>       0.75008907       0.32687763       0.06217982 </v>
    <v>       0.50001191       0.67311191       0.06217062 </v>
    <v>       0.99904755       0.32756906       0.31098086 </v>
    <v>       0.74932665       0.67272932       0.31296298 </v>
    <v>       0.25193592       0.32741185       0.56385299 </v>
    <v>      -0.00184844       0.67258231       0.56384041 </v>
    <v>       0.50071081       0.32689242       0.81272698 </v>
    <v>       0.25062999       0.67272469       0.81434214 </v>
    <v>       0.74851479       0.32726635       0.56361188 </v>
    <v>       0.50159380       0.67272148       0.56361497 </v>
    <v>       0.99927612       0.32728439       0.81433312 </v>
    <v>       0.74919166       0.67311962       0.81273421 </v>
    <v>       0.50017193       0.07879989       0.06165801 </v>
    <v>       0.24699815       0.92528260       0.06435855 </v>
    <v>       0.25249270       0.08158439       0.30443290 </v>
    <v>      -0.00236662       0.91843552       0.30439686 </v>
    <v>       0.00279357       0.07472336       0.06434046 </v>
    <v>       0.74964197       0.92122091       0.06168463 </v>
    <v>       0.74949431       0.07930180       0.31260417 </v>
    <v>       0.50070508       0.92067712       0.31258186 </v>
    <v>       0.50383547       0.07431051       0.56564781 </v>
    <v>       0.25512472       0.91429268       0.56730663 </v>
    <v>       0.25049108       0.07921358       0.81350493 </v>
    <v>      -0.00029685       0.92076991       0.81347705 </v>
    <v>       0.99462076       0.08570840       0.56731581 </v>
    <v>       0.74596764       0.92570317       0.56566939 </v>
    <v>       0.74656242       0.07400271       0.80982192 </v>
    <v>       0.50362164       0.92599370       0.80979522 </v>
   </varray>
  </structure>
  <varray name="forces" >
   <v>       0.00820600       0.00270560       0.55403263 </v>
   <v>       0.00802111       0.00136155       0.01463018 </v>
   <v>       0.39900766       0.01803231       0.00130853 </v>
   <v>      -0.01504732       0.00211975      -0.27637568 </v>
   <v>      -0.36032596      -0.03330969       0.00530377 </v>
   <v>      -0.01588600       0.00244071      -0.26048759 </v>
   <v>      -0.28054433       0.06910684       0.02662175 </v>
   <v>      -0.02025201       0.00714112       0.31676012 </v>
   <v>       0.30844010      -0.07405483       0.03192895 </v>
   <v>       0.04215156      -0.19836771       0.04306410 </v>
   <v>      -0.05216964       0.19762344       0.04403946 </v>
   <v>      -0.12457058       0.43938777       0.22819574 </v>
   <v>      -0.10213874      -0.28333440       0.08642200 </v>
   <v>      -0.09210366       0.13674457      -0.00590520 </v>
   <v>       0.08401723      -0.13334195      -0.00519717 </v>
   <v>       0.11160397       0.27887172       0.08619271 </v>
   <v>       0.13223862      -0.43817793       0.22687617 </v>
   <v>       0.23878799       1.70251855      -0.28297317 </v>
   <v>      -0.24375487      -1.70759744      -0.28401860 </v>
   <v>      -0.00154341       0.25294218      -0.04204734 </v>
   <v>      -0.05414678       0.33556342      -0.05967930 </v>
   <v>      -0.08390438      -0.24183131      -0.04666258 </v>
   <v>       0.07244286       0.24243962      -0.04598859 </v>
   <v>       0.06422950      -0.33496406      -0.05889351 </v>
   <v>       0.00986489      -0.25619857      -0.04202499 </v>
   <v>      -0.00551516       0.21699987      -0.05842489 </v>
   <v>       0.00409817      -0.21749279      -0.05843443 </v>
   <v>       0.04224638       0.07163771       0.00820147 </v>
   <v>       0.12043364      -0.10470279      -0.24004899 </v>
   <v>      -0.00496774       0.03275444      -0.05608683 </v>
   <v>       0.00424418      -0.03366349      -0.05729655 </v>
   <v>      -0.12054717       0.10524955      -0.23962060 </v>
   <v>      -0.04053267      -0.07077568       0.00864682 </v>
   <v>       0.24961598       0.02123987       0.15186159 </v>
   <v>      -0.24976023      -0.02312945       0.14999725 </v>
   <v>       0.06129279       0.16028582       0.00245616 </v>
   <v>       0.05643312      -0.08713473       0.12831504 </v>
   <v>      -0.12768790       0.21378847       0.05202140 </v>
   <v>       0.12671667      -0.21351385       0.05215137 </v>
   <v>      -0.05576791       0.08823729       0.12722199 </v>
   <v>      -0.05959394      -0.15909164       0.00383316 </v>
   <v>      -0.00781572       0.06780799       0.07151746 </v>
   <v>      -0.40047208      -0.48711968       0.40167319 </v>
   <v>       0.36239714      -0.52405567      -1.27132158 </v>
   <v>      -0.38903411       0.53024744      -1.28063883 </v>
   <v>       0.41100270       0.48132383       0.39862575 </v>
   <v>       0.02360876      -0.08224175       0.07890620 </v>
   <v>      -0.04485441      -0.01214132      -0.04253526 </v>
   <v>       0.03267632       0.02767602      -0.04643754 </v>
   <v>       0.40535397       0.51836328       0.36627383 </v>
   <v>       0.76430959       1.79925917       0.76795594 </v>
   <v>      -0.02138403       0.01728084      -0.00248977 </v>
   <v>       0.01088632      -0.00349232      -0.00554361 </v>
   <v>      -0.76812759      -1.79730959       0.77020208 </v>
   <v>      -0.39689191      -0.52550385       0.36896888 </v>
   <v>      -0.36607829       0.56353636      -0.40359185 </v>
   <v>       0.35109133      -0.56214061      -0.40148127 </v>
  </varray>
  <varray name="stress" >
   <v>      -5.61491756       1.20807846      -0.04687873 </v>
   <v>       1.20807841      -2.32768052       0.00671367 </v>
   <v>      -0.04687872       0.00671379      -8.15193547 </v>
  </varray>
  <energy>
   <i name="e_fr_energy">   -292.62815975 </i>
   <i name="e_wo_entrp">   -292.62815975 </i>
   <i name="e_0_energy">      0.00000000 </i>
  </energy>
  <time name="totalsc">  731.04  738.05</time>
 </calculation>
 <calculation>
  <scstep>
   <time name="dav">   43.21   43.49</time>
   <time name="total">   43.69   44.02</time>
   <energy>
    <i name="alphaZ">   1047.62774490 </i>
    <i name="ewald"> -29891.97805446 </i>
    <i name="hartreedc"> -12996.02795638 </i>
    <i name="XCdc">   1126.36752038 </i>
    <i name="pawpsdc">  43583.26473618 </i>
    <i name="pawaedc"> -42728.26783300 </i>
    <i name="eentropy">      0.00000000 </i>
    <i name="bandstr">  -3683.86472129 </i>
    <i name="atom">  43261.00331033 </i>
    <i name="e_fr_energy">   -281.87525333 </i>
    <i name="e_wo_entrp">   -281.87525333 </i>
    <i name="e_0_energy">   -281.87525333 </i>
   </energy>
  </scstep>
  <scstep>
   <time name="dav">   44.00   44.29</time>
   <time name="total">   44.48   44.78</time>
   <energy>
    <i name="e_fr_energy">   -281.87558712 </i>
    <i name="e_wo_entrp">   -281.87558712 </i>
    <i name="e_0_energy">   -281.87558712 </i>
   </energy>
  </scstep>
  <scstep>
   <time name="dav">   59.81   60.21</time>
   <time name="total">   60.27   60.71</time>
   <energy>
    <i name="e_fr_energy">   -281.87558186 </i>
    <i name="e_wo_entrp">   -281.87558186 </i>
    <i name="e_0_energy">   -281.87558186 </i>
   </energy>
  </scstep>
  <scstep>
   <time name="dav">   46.05   46.37</time>
   <time name="total">   46.53   46.88</time>
   <energy>
    <i name="e_fr_energy">   -281.87556910 </i>
    <i name="e_wo_entrp">   -281.87556910 </i>
    <i name="e_0_energy">   -281.87556910 </i>
   </energy>
  </scstep>
  <scstep>
   <time name="dav">   44.40   44.80</time>
   <time name="total">   44.89   45.30</time>
   <energy>
    <i name="e_fr_energy">   -281.87556656 </i>
    <i name="e_wo_entrp">   -281.87556656 </i>
    <i name="e_0_energy">   -281.87556656 </i>
   </energy>
  </scstep>
  <scstep>
   <time name="dav">   44.56   44.92</time>
   <time name="total">   44.62   45.05</time>
   <energy>
    <i name="alphaZ">   1047.62774490 </i>
    <i name="ewald"> -29891.97805446 </i>
    <i name="hartreedc"> -12995.87325191 </i>
    <i name="XCdc">   1126.35960957 </i>
    <i name="pawpsdc">  43581.22048119 </i>
    <i name="pawaedc"> -42726.19779553 </i>
    <i name="eentropy">      0.00000000 </i>
    <i name="bandstr">  -3684.03761048 </i>
    <i name="atom">  43261.00331033 </i>
    <i name="e_fr_energy">   -281.87556637 </i>
    <i name="e_wo_entrp">   -281.87556637 </i>
    <i name="e_0_energy">   -281.87556637 </i>
   </energy>
  </scstep>
  <structure>
   <crystal>
    <varray name="basis" >
     <v>      11.17850000       0.00000000       0.00000000 </v>
     <v>       0.00000000       9.57460000       0.00000000 </v>
     <v>       0.00000000       0.00000000      11.18240000 </v>
    </varray>
    <i name="volume">   1196.84853820 </i>
    <varray name="rec_basis" >
     <v>       0.08945744       0.00000000       0.00000000 </v>
     <v>       0.00000000       0.10444301       0.00000000 </v>
     <v>       0.00000000       0.00000000       0.08942624 </v>
    </varray>
   </crystal>
   <varray name="positions" >
    <v>       0.12461446       0.99984181       0.19125543 </v>
    <v>       0.62459976       0.99983988       0.68664813 </v>
    <v>       0.37679403       0.00128112       0.18916197 </v>
    <v>       0.62528054       0.99986469       0.43263670 </v>
    <v>       0.87265937      -0.00098948       0.18914449 </v>
    <v>       0.12528350       0.99986518       0.93273748 </v>
    <v>       0.36839329      -0.00086770       0.68500130 </v>
    <v>       0.62528115       0.99986331       0.94133894 </v>
    <v>       0.88105183       0.00115612       0.68502077 </v>
    <v>       0.00004536       0.30030423       0.06317365 </v>
    <v>       0.25017685       0.69962202       0.06318115 </v>
    <v>       0.24882722       0.29046620       0.31509813 </v>
    <v>       0.49898859       0.70508462       0.31317052 </v>
    <v>       0.49968646       0.29501969       0.06363311 </v>
    <v>       0.75051853       0.70489244       0.06363198 </v>
    <v>       0.75079470       0.29501053       0.31316723 </v>
    <v>       0.00097977       0.70955153       0.31509326 </v>
    <v>       0.00187203       0.28585480       0.56140926 </v>
    <v>       0.24832131       0.71413239       0.56139875 </v>
    <v>       0.24909558       0.29509850       0.81151980 </v>
    <v>       0.49844578       0.69963596       0.81283963 </v>
    <v>       0.49826595       0.30050622       0.56148991 </v>
    <v>       0.75195089       0.69941384       0.56149341 </v>
    <v>       0.75133414       0.30042252       0.81283934 </v>
    <v>       0.00070048       0.70499141       0.81152279 </v>
    <v>       0.24992352       0.32738572       0.06225081 </v>
    <v>       0.00016911       0.67260618       0.06225429 </v>
    <v>       0.50057568       0.32727431       0.31296069 </v>
    <v>       0.25084030       0.67244478       0.31100001 </v>
    <v>       0.75008855       0.32687620       0.06218884 </v>
    <v>       0.50001241       0.67311348       0.06217976 </v>
    <v>       0.99905952       0.32755846       0.31100579 </v>
    <v>       0.74933492       0.67273596       0.31296161 </v>
    <v>       0.25191090       0.32740334       0.56383982 </v>
    <v>      -0.00182325       0.67259091       0.56382740 </v>
    <v>       0.50070072       0.32689079       0.81272874 </v>
    <v>       0.25062097       0.67273139       0.81432248 </v>
    <v>       0.74853516       0.32725976       0.56360191 </v>
    <v>       0.50157332       0.67272823       0.56360496 </v>
    <v>       0.99928506       0.32727757       0.81431358 </v>
    <v>       0.74920172       0.67312109       0.81273588 </v>
    <v>       0.50016792       0.07878902       0.06166865 </v>
    <v>       0.24703625       0.92523932       0.06433336 </v>
    <v>       0.25246136       0.08153658       0.30453938 </v>
    <v>      -0.00233350       0.91848307       0.30450383 </v>
    <v>       0.00275478       0.07476656       0.06431552 </v>
    <v>       0.74964499       0.92123151       0.06169491 </v>
    <v>       0.74950274       0.07928426       0.31260226 </v>
    <v>       0.50069745       0.92069493       0.31258024 </v>
    <v>       0.50378286       0.07435919       0.56560552 </v>
    <v>       0.25505501       0.91439519       0.56724233 </v>
    <v>       0.25048629       0.07919722       0.81349106 </v>
    <v>      -0.00029119       0.92078650       0.81346356 </v>
    <v>       0.99469040       0.08560588       0.56725139 </v>
    <v>       0.74601941       0.92565431       0.56562682 </v>
    <v>       0.74660975       0.07405547       0.80985692 </v>
    <v>       0.50357532       0.92594099       0.80983057 </v>
   </varray>
  </structure>
  <varray name="forces" >
   <v>       0.00812117       0.00267450       0.56054642 </v>
   <v>       0.00788657       0.00134686       0.01371127 </v>
   <v>       0.39992196       0.02093761       0.00856805 </v>
   <v>      -0.01518969       0.00214538      -0.28578584 </v>
   <v>      -0.36099787      -0.03617213       0.01248818 </v>
   <v>      -0.01600862       0.00246557      -0.26984553 </v>
   <v>      -0.29693880       0.06382042       0.01907297 </v>
   <v>      -0.02033780       0.00712591       0.32637271 </v>
   <v>       0.32517628      -0.06881203       0.02437135 </v>
   <v>       0.04118826      -0.18489177       0.04355811 </v>
   <v>      -0.05120792       0.18395154       0.04451920 </v>
   <v>      -0.12573000       0.41821657       0.23118817 </v>
   <v>      -0.10348083      -0.27845433       0.08629393 </v>
   <v>      -0.09221152       0.13419103      -0.00333793 </v>
   <v>       0.08407085      -0.13106784      -0.00262592 </v>
   <v>       0.11295856       0.27433517       0.08606243 </v>
   <v>       0.13350736      -0.41698706       0.22986737 </v>
   <v>       0.23843132       1.63521672      -0.28120869 </v>
   <v>      -0.24357604      -1.64024093      -0.28226314 </v>
   <v>      -0.00384353       0.24899563      -0.04546787 </v>
   <v>      -0.05798833       0.32072126      -0.05867210 </v>
   <v>      -0.08890239      -0.22766107      -0.05024017 </v>
   <v>       0.07745444       0.22811345      -0.04957035 </v>
   <v>       0.06805275      -0.32002910      -0.05789325 </v>
   <v>       0.01222682      -0.25193959      -0.04543697 </v>
   <v>      -0.00588360       0.21579148      -0.05939661 </v>
   <v>       0.00445718      -0.21629637      -0.05939679 </v>
   <v>       0.04358950       0.07200601       0.00849765 </v>
   <v>       0.12154099      -0.10549645      -0.24262387 </v>
   <v>      -0.00474318       0.03263822      -0.05736835 </v>
   <v>       0.00403200      -0.03356002      -0.05858876 </v>
   <v>      -0.12165655       0.10604639      -0.24218648 </v>
   <v>      -0.04186507      -0.07112321       0.00893842 </v>
   <v>       0.25222133       0.02270126       0.15276003 </v>
   <v>      -0.25240074      -0.02458190       0.15087997 </v>
   <v>       0.06277978       0.15867294       0.00198454 </v>
   <v>       0.05778683      -0.08736205       0.13114448 </v>
   <v>      -0.13061938       0.21241595       0.05358453 </v>
   <v>       0.12967846      -0.21217038       0.05372124 </v>
   <v>      -0.05711523       0.08847816       0.13004408 </v>
   <v>      -0.06108967      -0.15746430       0.00336694 </v>
   <v>      -0.00665733       0.06943589       0.06790251 </v>
   <v>      -0.40438092      -0.47428012       0.40253137 </v>
   <v>       0.36502355      -0.50510319      -1.27913552 </v>
   <v>      -0.39174457       0.51131447      -1.28846318 </v>
   <v>       0.41493599       0.46852886       0.39946777 </v>
   <v>       0.02249252      -0.08360886       0.07530392 </v>
   <v>      -0.04638360      -0.00792103      -0.04141820 </v>
   <v>       0.03415977       0.02319401      -0.04534546 </v>
   <v>       0.41316371       0.50420564       0.37205222 </v>
   <v>       0.76914806       1.73630653       0.77188445 </v>
   <v>      -0.02004913       0.02101795       0.00106553 </v>
   <v>       0.00948746      -0.00745049      -0.00206052 </v>
   <v>      -0.77288256      -1.73442225       0.77415805 </v>
   <v>      -0.40458479      -0.51128954       0.37476797 </v>
   <v>      -0.37281039       0.54784535      -0.40717892 </v>
   <v>       0.35778656      -0.54647073      -0.40516544 </v>
  </varray>
  <varray name="stress" >
   <v>      -5.66551561       1.17872376      -0.04683538 </v>
   <v>       1.17872375      -2.61840533       0.00693425 </v>
   <v>      -0.04683534       0.00693446      -8.21741430 </v>
  </varray>
  <energy>
   <i name="e_fr_energy">   -292.62871907 </i>
   <i name="e_wo_entrp">   -292.62871907 </i>
   <i name="e_0_energy">      0.00000000 </i>
  </energy>
  <time name="totalsc">  361.18  364.41</time>
 </calculation>
 <calculation>
  <scstep>
   <time name="dav">   39.43   39.77</time>
   <time name="total">   39.93   40.30</time>
   <energy>
    <i name="alphaZ">   1047.62774490 </i>
    <i name="ewald"> -29918.51930890 </i>
    <i name="hartreedc"> -12968.86808737 </i>
    <i name="XCdc">   1126.08110518 </i>
    <i name="pawpsdc">  43581.09921583 </i>
    <i name="pawaedc"> -42726.07632357 </i>
    <i name="eentropy">      0.00000000 </i>
    <i name="bandstr">  -3683.61422078 </i>
    <i name="atom">  43261.00331033 </i>
    <i name="e_fr_energy">   -281.26656438 </i>
    <i name="e_wo_entrp">   -281.26656438 </i>
    <i name="e_0_energy">   -281.26656438 </i>
   </energy>
  </scstep>
  <scstep>
   <time name="dav">   46.07   46.50</time>
   <time name="total">   46.56   47.00</time>
   <energy>
    <i name="e_fr_energy">   -282.46617058 </i>
    <i name="e_wo_entrp">   -282.46617058 </i>
    <i name="e_0_energy">   -282.46617058 </i>
   </energy>
  </scstep>
  <scstep>
   <time name="dav">   62.82   63.37</time>
   <time name="total">   63.32   63.89</time>
   <energy>
    <i name="e_fr_energy">   -282.44385594 </i>
    <i name="e_wo_entrp">   -282.44385594 </i>
    <i name="e_0_energy">   -282.44385594 </i>
   </energy>
  </scstep>
  <scstep>
   <time name="dav">   46.46   46.56</time>
   <time name="total">   46.95   47.07</time>
   <energy>
    <i name="e_fr_energy">   -282.41890372 </i>
    <i name="e_wo_entrp">   -282.41890372 </i>
    <i name="e_0_energy">   -282.41890372 </i>
   </energy>
  </scstep>
  <scstep>
   <time name="dav">   50.94   51.34</time>
   <time name="total">   51.43   51.85</time>
   <energy>
    <i name="e_fr_energy">   -282.40573409 </i>
    <i name="e_wo_entrp">   -282.40573409 </i>
    <i name="e_0_energy">   -282.40573409 </i>
   </energy>
  </scstep>
  <scstep>
   <time name="dav">   48.80   49.28</time>
   <time name="total">   49.30   49.80</time>
   <energy>
    <i name="e_fr_energy">   -282.40648358 </i>
    <i name="e_wo_entrp">   -282.40648358 </i>
    <i name="e_0_energy">   -282.40648358 </i>
   </energy>
  </scstep>
  <scstep>
   <time name="dav">   57.94   58.41</time>
   <time name="total">   58.43   58.91</time>
   <energy>
    <i name="e_fr_energy">   -282.40643118 </i>
    <i name="e_wo_entrp">   -282.40643118 </i>
    <i name="e_0_energy">   -282.40643118 </i>
   </energy>
  </scstep>
  <scstep>
   <time name="dav">   54.37   54.87</time>
   <time name="total">   54.86   55.40</time>
   <energy>
    <i name="e_fr_energy">   -282.40632602 </i>
    <i name="e_wo_entrp">   -282.40632602 </i>
    <i name="e_0_energy">   -282.40632602 </i>
   </energy>
  </scstep>
  <scstep>
   <time name="dav">   52.90   53.52</time>
   <time name="total">   53.39   54.03</time>
   <energy>
    <i name="e_fr_energy">   -282.40632818 </i>
    <i name="e_wo_entrp">   -282.40632818 </i>
    <i name="e_0_energy">   -282.40632818 </i>
   </energy>
  </scstep>
  <scstep>
   <time name="dav">   48.47   48.88</time>
   <time name="total">   48.96   49.40</time>
   <energy>
    <i name="e_fr_energy">   -282.40633643 </i>
    <i name="e_wo_entrp">   -282.40633643 </i>
    <i name="e_0_energy">   -282.40633643 </i>
   </energy>
  </scstep>
  <scstep>
   <time name="dav">   46.36   46.88</time>
   <time name="total">   46.41   46.98</time>
   <energy>
    <i name="alphaZ">   1047.62774490 </i>
    <i name="ewald"> -29918.51930890 </i>
    <i name="hartreedc"> -12969.20336148 </i>
    <i name="XCdc">   1126.11611813 </i>
    <i name="pawpsdc">  43494.88643793 </i>
    <i name="pawaedc"> -42637.84487979 </i>
    <i name="eentropy">      0.00000000 </i>
    <i name="bandstr">  -3686.47239831 </i>
    <i name="atom">  43261.00331033 </i>
    <i name="e_fr_energy">   -282.40633719 </i>
    <i name="e_wo_entrp">   -282.40633719 </i>
    <i name="e_0_energy">   -282.40633719 </i>
   </energy>
  </scstep>
  <structure>
   <crystal>
    <varray name="basis" >
     <v>      11.17850000       0.00000000       0.00000000 </v>
     <v>       0.00000000       9.57460000       0.00000000 </v>
     <v>       0.00000000       0.00000000      11.18240000 </v>
    </varray>
    <i name="volume">   1196.84853820 </i>
    <varray name="rec_basis" >
     <v>       0.08945744       0.00000000       0.00000000 </v>
     <v>       0.00000000       0.10444301       0.00000000 </v>
     <v>       0.00000000       0.00000000       0.08942624 </v>
    </varray>
   </crystal>
   <varray name="positions" >
    <v>       0.12465130       0.99985602       0.19552367 </v>
    <v>       0.62462937       0.99984659       0.68661320 </v>
    <v>       0.37943989       0.00185668       0.19016903 </v>
    <v>       0.62516882       0.99988592       0.42961507 </v>
    <v>       0.87027985      -0.00166207       0.19016103 </v>
    <v>       0.12516952       0.99988823       0.92982709 </v>
    <v>       0.36448364      -0.00098624       0.68429234 </v>
    <v>       0.62514754       0.99990898       0.94463495 </v>
    <v>       0.88517831       0.00122775       0.68434285 </v>
    <v>       0.00018682       0.30153998       0.06351501 </v>
    <v>       0.24997627       0.69835032       0.06352982 </v>
    <v>       0.24784463       0.29056823       0.31705721 </v>
    <v>       0.49817009       0.70380157       0.31369019 </v>
    <v>       0.49910180       0.29562194       0.06396717 </v>
    <v>       0.75104486       0.70426870       0.06396863 </v>
    <v>       0.75167232       0.29631316       0.31368451 </v>
    <v>       0.00202418       0.70946318       0.31704460 </v>
    <v>       0.00363569       0.29012053       0.55960636 </v>
    <v>       0.24650728       0.70983600       0.55958687 </v>
    <v>       0.24875122       0.29631103       0.81077378 </v>
    <v>       0.49759330       0.69905747       0.81259548 </v>
    <v>       0.49709423       0.30161255       0.56071494 </v>
    <v>       0.75305506       0.69827594       0.56072280 </v>
    <v>       0.75224682       0.30102925       0.81259842 </v>
    <v>       0.00110465       0.70380214       0.81077818 </v>
    <v>       0.24984466       0.32873076       0.06173736 </v>
    <v>       0.00023872       0.67125517       0.06174232 </v>
    <v>       0.50102815       0.32784963       0.31303988 </v>
    <v>       0.25174031       0.67158225       0.30916872 </v>
    <v>       0.75008445       0.32708518       0.06165789 </v>
    <v>       0.50001385       0.67289551       0.06163972 </v>
    <v>       0.99815894       0.32842512       0.30917883 </v>
    <v>       0.74889435       0.67216942       0.31304308 </v>
    <v>       0.25378424       0.32778551       0.56491186 </v>
    <v>      -0.00370260       0.67219685       0.56488610 </v>
    <v>       0.50128872       0.32773929       0.81268172 </v>
    <v>       0.25115373       0.67208132       0.81550583 </v>
    <v>       0.74733170       0.32853452       0.56414652 </v>
    <v>       0.50277631       0.67144962       0.56415145 </v>
    <v>       0.99875775       0.32793705       0.81548842 </v>
    <v>       0.74862203       0.67228369       0.81269783 </v>
    <v>       0.50026538       0.07948041       0.06162584 </v>
    <v>       0.24409617       0.92421870       0.06685834 </v>
    <v>       0.25501937       0.08050383       0.29568280 </v>
    <v>      -0.00506246       0.91955535       0.29559205 </v>
    <v>       0.00576190       0.07576077       0.06681976 </v>
    <v>       0.74964656       0.92047759       0.06169506 </v>
    <v>       0.74903758       0.07979656       0.31248427 </v>
    <v>       0.50108468       0.92025058       0.31243603 </v>
    <v>       0.50721754       0.07536023       0.56853786 </v>
    <v>       0.26056043       0.91989293       0.57258792 </v>
    <v>       0.25055082       0.07981809       0.81393210 </v>
    <v>      -0.00042865       0.92022691       0.81387950 </v>
    <v>       0.98917119       0.08011806       0.57261059 </v>
    <v>       0.74264801       0.92462338       0.56857986 </v>
    <v>       0.74351496       0.07514725       0.80700304 </v>
    <v>       0.50657373       0.92485461       0.80697421 </v>
   </varray>
  </structure>
  <varray name="forces" >
   <v>       0.01391453       0.00543723       0.26369926 </v>
   <v>       0.01335523       0.00219378       0.03915168 </v>
   <v>       0.40632046      -0.12505086      -0.35108873 </v>
   <v>      -0.00591404       0.00200874       0.10360857 </v>
   <v>      -0.39063803       0.11511059      -0.34837279 </v>
   <v>      -0.00750159       0.00192394       0.11403780 </v>
   <v>       0.69985336       0.42113281       0.73023880 </v>
   <v>      -0.00954259       0.00466041      -0.07420917 </v>
   <v>      -0.69426573      -0.42651903       0.73782520 </v>
   <v>       0.09656121      -0.40988352      -0.07510169 </v>
   <v>      -0.10384401       0.41394659      -0.07547798 </v>
   <v>       0.05589271      -0.05507681      -0.16424729 </v>
   <v>       0.03737202      -0.17380011       0.08295902 </v>
   <v>      -0.07997159       0.19891896      -0.12334845 </v>
   <v>       0.07552384      -0.19402905      -0.12186441 </v>
   <v>      -0.02989178       0.16963093       0.08406948 </v>
   <v>      -0.05307700       0.05915152      -0.16493047 </v>
   <v>      -0.21596633      -0.80797215       0.07918890 </v>
   <v>       0.20698605       0.80920954       0.08008641 </v>
   <v>       0.08425006       0.14626244       0.22054389 </v>
   <v>       0.11559042       0.48036842      -0.10578330 </v>
   <v>       0.28483346      -0.44578537       0.12745832 </v>
   <v>      -0.29174034       0.45191104       0.12829527 </v>
   <v>      -0.10908036      -0.48553151      -0.10584137 </v>
   <v>      -0.07919596      -0.14953359       0.21864187 </v>
   <v>       0.01039222       0.27749208       0.01522408 </v>
   <v>      -0.01082320      -0.27779429       0.01464216 </v>
   <v>      -0.06021879       0.07315252       0.00062039 </v>
   <v>      -0.00467516      -0.12447514       0.04127426 </v>
   <v>      -0.02202608       0.02173637       0.03426437 </v>
   <v>       0.02029809      -0.02208355       0.03443649 </v>
   <v>       0.00552487       0.12532709       0.04024307 </v>
   <v>       0.06078002      -0.07297406       0.00191253 </v>
   <v>      -0.03617511       0.02924593       0.02577419 </v>
   <v>       0.03749553      -0.03079529       0.02532309 </v>
   <v>      -0.03594362       0.19526069       0.02705175 </v>
   <v>      -0.05223737      -0.10775572      -0.07242684 </v>
   <v>       0.07508855       0.28329058      -0.07011821 </v>
   <v>      -0.07826546      -0.28196948      -0.07105406 </v>
   <v>       0.05263249       0.10876038      -0.07276546 </v>
   <v>       0.03759718      -0.19465803       0.02763983 </v>
   <v>      -0.02709140       0.02455679       0.12692120 </v>
   <v>      -0.20395767      -0.67136946       0.20303195 </v>
   <v>       0.08639507       0.16959182      -0.61594415 </v>
   <v>      -0.10368150      -0.17430471      -0.61554574 </v>
   <v>       0.21055549       0.66551846       0.20231735 </v>
   <v>       0.03518497      -0.03324631       0.12896939 </v>
   <v>      -0.03690074       0.10957692      -0.04947165 </v>
   <v>       0.02835144      -0.10138823      -0.05099360 </v>
   <v>       0.16902890       0.71958319       0.07476466 </v>
   <v>      -0.22876809      -1.20247555      -0.26642424 </v>
   <v>      -0.04742704       0.16706512       0.01015341 </v>
   <v>       0.04155131      -0.15963165       0.01016978 </v>
   <v>       0.23701658       1.20091481      -0.26940811 </v>
   <v>      -0.16755019      -0.72726926       0.07492119 </v>
   <v>      -0.14752971       0.63923266      -0.13429939 </v>
   <v>       0.13555443      -0.63679958      -0.13074251 </v>
  </varray>
  <varray name="stress" >
   <v>      -1.74160369       1.44522381      -0.04381046 </v>
   <v>       1.44522392     -19.59259493      -0.01154515 </v>
   <v>      -0.04381037      -0.01154518      -2.88429383 </v>
  </varray>
  <energy>
   <i name="e_fr_energy">   -293.16504345 </i>
   <i name="e_wo_entrp">   -293.16504345 </i>
   <i name="e_0_energy">      0.00000000 </i>
  </energy>
  <time name="totalsc">  635.87  642.35</time>
 </calculation>
 <calculation>
  <scstep>
   <time name="dav">   40.01   40.85</time>
   <time name="total">   40.47   41.34</time>
   <energy>
    <i name="alphaZ">   1047.62774490 </i>
    <i name="ewald"> -29916.58476900 </i>
    <i name="hartreedc"> -12971.21436427 </i>
    <i name="XCdc">   1126.13442019 </i>
    <i name="pawpsdc">  43494.47165454 </i>
    <i name="pawaedc"> -42637.42671540 </i>
    <i name="eentropy">      0.00000000 </i>
    <i name="bandstr">  -3686.41627721 </i>
    <i name="atom">  43261.00331033 </i>
    <i name="e_fr_energy">   -282.40499592 </i>
    <i name="e_wo_entrp">   -282.40499592 </i>
    <i name="e_0_energy">   -282.40499592 </i>
   </energy>
  </scstep>
  <scstep>
   <time name="dav">   43.36   44.25</time>
   <time name="total">   43.83   44.75</time>
   <energy>
    <i name="e_fr_energy">   -282.41326787 </i>
    <i name="e_wo_entrp">   -282.41326787 </i>
    <i name="e_0_energy">   -282.41326787 </i>
   </energy>
  </scstep>
  <scstep>
   <time name="dav">   57.78   58.73</time>
   <time name="total">   58.27   59.29</time>
   <energy>
    <i name="e_fr_energy">   -282.41304524 </i>
    <i name="e_wo_entrp">   -282.41304524 </i>
    <i name="e_0_energy">   -282.41304524 </i>
   </energy>
  </scstep>
  <scstep>
   <time name="dav">   50.76   51.06</time>
   <time name="total">   51.25   51.57</time>
   <energy>
    <i name="e_fr_energy">   -282.41275958 </i>
    <i name="e_wo_entrp">   -282.41275958 </i>
    <i name="e_0_energy">   -282.41275958 </i>
   </energy>
  </scstep>
  <scstep>
   <time name="dav">   52.97   53.52</time>
   <time name="total">   53.45   54.02</time>
   <energy>
    <i name="e_fr_energy">   -282.41270886 </i>
    <i name="e_wo_entrp">   -282.41270886 </i>
    <i name="e_0_energy">   -282.41270886 </i>
   </energy>
  </scstep>
  <scstep>
   <time name="dav">   50.29   51.00</time>
   <time name="total">   50.77   51.50</time>
   <energy>
    <i name="e_fr_energy">   -282.41271217 </i>
    <i name="e_wo_entrp">   -282.41271217 </i>
    <i name="e_0_energy">   -282.41271217 </i>
   </energy>
  </scstep>
  <scstep>
   <time name="dav">   49.78   50.64</time>
   <time name="total">   50.27   51.18</time>
   <energy>
    <i name="e_fr_energy">   -282.41271100 </i>
    <i name="e_wo_entrp">   -282.41271100 </i>
    <i name="e_0_energy">   -282.41271100 </i>
   </energy>
  </scstep>
  <scstep>
   <time name="dav">   39.07   39.44</time>
   <time name="total">   39.56   39.97</time>
   <energy>
    <i name="e_fr_energy">   -282.41270981 </i>
    <i name="e_wo_entrp">   -282.41270981 </i>
    <i name="e_0_energy">   -282.41270981 </i>
   </energy>
  </scstep>
  <scstep>
   <time name="dav">   34.07   34.48</time>
   <time name="total">   34.12   34.57</time>
   <energy>
    <i name="alphaZ">   1047.62774490 </i>
    <i name="ewald"> -29916.58476900 </i>
    <i name="hartreedc"> -12971.28879164 </i>
    <i name="XCdc">   1126.13680020 </i>
    <i name="pawpsdc">  43500.85475848 </i>
    <i name="pawaedc"> -42643.97241446 </i>
    <i name="eentropy">      0.00000000 </i>
    <i name="bandstr">  -3686.18934855 </i>
    <i name="atom">  43261.00331033 </i>
    <i name="e_fr_energy">   -282.41270974 </i>
    <i name="e_wo_entrp">   -282.41270974 </i>
    <i name="e_0_energy">   -282.41270974 </i>
   </energy>
  </scstep>
  <structure>
   <crystal>
    <varray name="basis" >
     <v>      11.17850000       0.00000000       0.00000000 </v>
     <v>       0.00000000       9.57460000       0.00000000 </v>
     <v>       0.00000000       0.00000000      11.18240000 </v>
    </varray>
    <i name="volume">   1196.84853820 </i>
    <varray name="rec_basis" >
     <v>       0.08945744       0.00000000       0.00000000 </v>
     <v>       0.00000000       0.10444301       0.00000000 </v>
     <v>       0.00000000       0.00000000       0.08942624 </v>
    </varray>
   </crystal>
   <varray name="positions" >
    <v>       0.12464792       0.99985471       0.19513205 </v>
    <v>       0.62462666       0.99984598       0.68661641 </v>
    <v>       0.37919712       0.00180387       0.19007663 </v>
    <v>       0.62517907       0.99988398       0.42989231 </v>
    <v>       0.87049818      -0.00160035       0.19006776 </v>
    <v>       0.12517998       0.99988612       0.93009413 </v>
    <v>       0.36484236      -0.00097537       0.68435739 </v>
    <v>       0.62515980       0.99990479       0.94433254 </v>
    <v>       0.88479969       0.00122118       0.68440505 </v>
    <v>       0.00017384       0.30142660       0.06348369 </v>
    <v>       0.24999467       0.69846700       0.06349783 </v>
    <v>       0.24793479       0.29055887       0.31687746 </v>
    <v>       0.49824519       0.70391930       0.31364251 </v>
    <v>       0.49915545       0.29556668       0.06393652 </v>
    <v>       0.75099657       0.70432593       0.06393775 </v>
    <v>       0.75159180       0.29619364       0.31363705 </v>
    <v>       0.00192835       0.70947128       0.31686556 </v>
    <v>       0.00347387       0.28972913       0.55977178 </v>
    <v>       0.24667372       0.71023021       0.55975311 </v>
    <v>       0.24878281       0.29619978       0.81084223 </v>
    <v>       0.49767152       0.69911055       0.81261788 </v>
    <v>       0.49720174       0.30151104       0.56078604 </v>
    <v>       0.75295375       0.69838035       0.56079351 </v>
    <v>       0.75216308       0.30097358       0.81262053 </v>
    <v>       0.00106757       0.70391126       0.81084650 </v>
    <v>       0.24985190       0.32860735       0.06178447 </v>
    <v>       0.00023233       0.67137913       0.06178929 </v>
    <v>       0.50098663       0.32779685       0.31303262 </v>
    <v>       0.25165773       0.67166139       0.30933675 </v>
    <v>       0.75008483       0.32706600       0.06170661 </v>
    <v>       0.50001372       0.67291551       0.06168928 </v>
    <v>       0.99824157       0.32834560       0.30934646 </v>
[...]
       <r>    8.7540    0.0000 </r>
       <r>    8.7668    0.0000 </r>
       <r>    8.8537    0.0000 </r>
       <r>    8.9184    0.0000 </r>
       <r>    8.9588    0.0000 </r>
       <r>    8.9614    0.0000 </r>
       <r>    9.7937    0.0000 </r>
       <r>    9.8293    0.0000 </r>
       <r>    9.8954    0.0000 </r>
       <r>   10.1653    0.0000 </r>
       <r>   10.2057    0.0000 </r>
       <r>   10.2680    0.0000 </r>
      </set>
     </set>
    </set>
   </array>
  </eigenvalues>
  <separator name="orbital magnetization" >
   <v name="MAGDIPOLOUT">      0.00000000      0.00000000      0.00000000</v>
  </separator>
  <dos>
   <i name="efermi">      4.22993686 </i>
   <total>
    <array>
     <dimension dim="1">gridpoints</dimension>
     <dimension dim="2">spin</dimension>
     <field>energy</field>
     <field>total</field>
     <field>integrated</field>
     <set>
      <set comment="spin 1">
       <r>   -41.4968     0.0000     0.0000 </r>
       <r>   -41.3155     0.0000     0.0000 </r>
       <r>   -41.1343     0.0000     0.0000 </r>
       <r>   -40.9530     0.0000     0.0000 </r>
       <r>   -40.7717     0.0000     0.0000 </r>
       <r>   -40.5904     0.0000     0.0000 </r>
       <r>   -40.4092     0.0000     0.0000 </r>
       <r>   -40.2279     0.0000     0.0000 </r>
       <r>   -40.0466     0.0000     0.0000 </r>
       <r>   -39.8653     0.0000     0.0000 </r>
       <r>   -39.6841     0.0000     0.0000 </r>
       <r>   -39.5028     0.0000     0.0000 </r>
       <r>   -39.3215     0.0000     0.0000 </r>
       <r>   -39.1402     0.0000     0.0000 </r>
       <r>   -38.9590     0.0000     2.0000 </r>
       <r>   -38.7777     0.0000     2.0000 </r>
       <r>   -38.5964     0.0000     4.0000 </r>
       <r>   -38.4151     0.0000     4.0000 </r>
       <r>   -38.2339     0.0000     4.0000 </r>
       <r>   -38.0526     0.0000     4.0000 </r>
       <r>   -37.8713     0.0000     4.0000 </r>
       <r>   -37.6900     0.0000     4.0000 </r>
       <r>   -37.5088     0.0000     4.0000 </r>
       <r>   -37.3275     0.0000     4.0000 </r>
       <r>   -37.1462     0.0000     4.0000 </r>
       <r>   -36.9649     0.0000     4.0000 </r>
       <r>   -36.7837     0.0000     4.0000 </r>
       <r>   -36.6024     0.0000     4.0000 </r>
       <r>   -36.4211     0.0000     4.0000 </r>
       <r>   -36.2398     0.0000     4.0000 </r>
       <r>   -36.0586     0.0000     4.0000 </r>
       <r>   -35.8773     0.0000     4.0000 </r>
       <r>   -35.6960     0.0000     4.0000 </r>
       <r>   -35.5147     0.0000     4.0000 </r>
       <r>   -35.3335     0.0000     4.0000 </r>
       <r>   -35.1522     0.0000     4.0000 </r>
       <r>   -34.9709     0.0000     4.0000 </r>
       <r>   -34.7896     0.0000     4.0000 </r>
       <r>   -34.6083     0.0000     4.0000 </r>
       <r>   -34.4271     0.0000     4.0000 </r>
       <r>   -34.2458     0.0000     4.0000 </r>
       <r>   -34.0645     0.0000     4.0000 </r>
       <r>   -33.8832     0.0000     4.0000 </r>
       <r>   -33.7020     0.0000     4.0000 </r>
       <r>   -33.5207     0.0000     4.0000 </r>
       <r>   -33.3394     0.0000     4.0000 </r>
       <r>   -33.1581     0.0000     4.0000 </r>
       <r>   -32.9769     0.0000     4.0000 </r>
       <r>   -32.7956     0.0000     4.0000 </r>
       <r>   -32.6143     0.0000     4.0000 </r>
       <r>   -32.4330     0.0000     4.0000 </r>
       <r>   -32.2518     0.0000     4.0000 </r>
       <r>   -32.0705     0.0000     4.0000 </r>
       <r>   -31.8892     0.0000     4.0000 </r>
       <r>   -31.7079     0.0000     4.0000 </r>
       <r>   -31.5267     0.0000     4.0000 </r>
       <r>   -31.3454     0.0000     4.0000 </r>
       <r>   -31.1641     0.0000     4.0000 </r>
       <r>   -30.9828     0.0000     4.0000 </r>
       <r>   -30.8016     0.0000     4.0000 </r>
       <r>   -30.6203     0.0000     4.0000 </r>
       <r>   -30.4390     0.0000     4.0000 </r>
       <r>   -30.2577     0.0000     4.0000 </r>
       <r>   -30.0765     0.0000     4.0000 </r>
       <r>   -29.8952     0.0000     4.0000 </r>
       <r>   -29.7139     0.0000     4.0000 </r>
       <r>   -29.5326     0.0000     4.0000 </r>
       <r>   -29.3514     0.0000     4.0000 </r>
       <r>   -29.1701     0.0000     4.0000 </r>
       <r>   -28.9888     0.0000     4.0000 </r>
       <r>   -28.8075     0.0000     4.0000 </r>
       <r>   -28.6263     0.0000     4.0000 </r>
       <r>   -28.4450     0.0000     4.0000 </r>
       <r>   -28.2637     0.0000     4.0000 </r>
       <r>   -28.0824     0.0000     4.0000 </r>
       <r>   -27.9012     0.0000     4.0000 </r>
       <r>   -27.7199     0.0000     4.0000 </r>
       <r>   -27.5386     0.0000     4.0000 </r>
       <r>   -27.3573     0.0000     4.0000 </r>
       <r>   -27.1761     0.0000     4.0000 </r>
       <r>   -26.9948     0.0000     4.0000 </r>
       <r>   -26.8135     0.0000     4.0000 </r>
       <r>   -26.6322     0.0000     4.0000 </r>
       <r>   -26.4509     0.0000     4.0000 </r>
       <r>   -26.2697     0.0000     4.0000 </r>
       <r>   -26.0884     0.0000     4.0000 </r>
       <r>   -25.9071     0.0000     4.0000 </r>
       <r>   -25.7258     0.0000     4.0000 </r>
       <r>   -25.5446     0.0000     4.0000 </r>
       <r>   -25.3633     0.0000     4.0000 </r>
       <r>   -25.1820     0.0000     4.0000 </r>
       <r>   -25.0007     0.0000     4.0000 </r>
       <r>   -24.8195     0.0000     4.0000 </r>
       <r>   -24.6382     0.0000     4.0000 </r>
       <r>   -24.4569     0.0000     4.0000 </r>
       <r>   -24.2756     0.0000     4.0000 </r>
       <r>   -24.0944     0.0000     4.0000 </r>
       <r>   -23.9131     0.0000     4.0000 </r>
       <r>   -23.7318     0.0000     4.0000 </r>
       <r>   -23.5505     0.0000     4.0000 </r>
       <r>   -23.3693     0.0000     4.0000 </r>
       <r>   -23.1880     0.0000     4.0000 </r>
       <r>   -23.0067     0.0000     4.0000 </r>
       <r>   -22.8254     0.0000     4.0000 </r>
       <r>   -22.6442     0.0000     4.0000 </r>
       <r>   -22.4629     0.0000     4.0000 </r>
       <r>   -22.2816     0.0000     4.0000 </r>
       <r>   -22.1003     0.0000     4.0000 </r>
       <r>   -21.9191     0.0000     4.0000 </r>
       <r>   -21.7378     0.0000     4.0000 </r>
       <r>   -21.5565     0.0000     4.0000 </r>
       <r>   -21.3752     0.0000     4.0000 </r>
       <r>   -21.1940     0.0000     4.0000 </r>
       <r>   -21.0127     0.0000     4.0000 </r>
       <r>   -20.8314     0.0000     4.0000 </r>
       <r>   -20.6501     0.0000     4.0000 </r>
       <r>   -20.4689     0.0000     4.0000 </r>
       <r>   -20.2876     0.0000     4.0000 </r>
       <r>   -20.1063     0.0000     4.0000 </r>
       <r>   -19.9250     0.0000     4.0000 </r>
       <r>   -19.7438     0.0000     4.0000 </r>
       <r>   -19.5625     0.0000     4.0000 </r>
       <r>   -19.3812     0.0000     4.0000 </r>
       <r>   -19.1999     0.0000     4.0000 </r>
       <r>   -19.0187     0.0000     4.0000 </r>
       <r>   -18.8374     0.0000    24.0000 </r>
       <r>   -18.6561     0.0000    96.0000 </r>
       <r>   -18.4748     0.0000   150.0000 </r>
       <r>   -18.2935     0.0000   156.0000 </r>
       <r>   -18.1123     0.0000   164.0000 </r>
       <r>   -17.9310     0.0000   164.0000 </r>
       <r>   -17.7497     0.0000   164.0000 </r>
       <r>   -17.5684     0.0000   164.0000 </r>
       <r>   -17.3872     0.0000   164.0000 </r>
       <r>   -17.2059     0.0000   164.0000 </r>
       <r>   -17.0246     0.0000   164.0000 </r>
       <r>   -16.8433     0.0000   164.0000 </r>
       <r>   -16.6621     0.0000   164.0000 </r>
       <r>   -16.4808     0.0000   164.0000 </r>
       <r>   -16.2995     0.0000   164.0000 </r>
       <r>   -16.1182     0.0000   164.0000 </r>
       <r>   -15.9370     0.0000   164.0000 </r>
       <r>   -15.7557     0.0000   164.0000 </r>
       <r>   -15.5744     0.0000   164.0000 </r>
       <r>   -15.3931     0.0000   164.0000 </r>
       <r>   -15.2119     0.0000   164.0000 </r>
       <r>   -15.0306     0.0000   164.0000 </r>
       <r>   -14.8493     0.0000   164.0000 </r>
       <r>   -14.6680     0.0000   164.0000 </r>
       <r>   -14.4868     0.0000   164.0000 </r>
       <r>   -14.3055     0.0000   164.0000 </r>
       <r>   -14.1242     0.0000   164.0000 </r>
       <r>   -13.9429     0.0000   164.0000 </r>
       <r>   -13.7617     0.0000   164.0000 </r>
       <r>   -13.5804     0.0000   164.0000 </r>
       <r>   -13.3991     0.0000   164.0000 </r>
       <r>   -13.2178     0.0000   166.0000 </r>
       <r>   -13.0366     0.0000   170.0000 </r>
       <r>   -12.8553     0.0000   180.0000 </r>
       <r>   -12.6740     0.0000   188.0000 </r>
       <r>   -12.4927     0.0000   192.0000 </r>
       <r>   -12.3115     0.0000   192.0000 </r>
       <r>   -12.1302     0.0000   196.0000 </r>
       <r>   -11.9489     0.0000   196.0000 </r>
       <r>   -11.7676     0.0000   196.0000 </r>
       <r>   -11.5864     0.0000   196.0000 </r>
       <r>   -11.4051     0.0000   196.0000 </r>
       <r>   -11.2238     0.0000   196.0000 </r>
       <r>   -11.0425     0.0000   196.0000 </r>
       <r>   -10.8613     0.0000   196.0000 </r>
       <r>   -10.6800     0.0000   196.0000 </r>
       <r>   -10.4987     0.0000   196.0000 </r>
       <r>   -10.3174     0.0000   196.0000 </r>
       <r>   -10.1362     0.0000   196.0000 </r>
       <r>    -9.9549     0.0000   196.0000 </r>
       <r>    -9.7736     0.0000   196.0000 </r>
       <r>    -9.5923     0.0000   196.0000 </r>
       <r>    -9.4110     5.1241   196.1725 </r>
       <r>    -9.2298     5.7599   197.7765 </r>
       <r>    -9.0485     2.4005   200.0254 </r>
       <r>    -8.8672    28.2494   201.9136 </r>
       <r>    -8.6859    12.5445   204.3632 </r>
       <r>    -8.5047    41.1816   208.6804 </r>
       <r>    -8.3234     1.3524   212.0059 </r>
       <r>    -8.1421    60.5727   215.6674 </r>
       <r>    -7.9608    21.2653   220.3340 </r>
       <r>    -7.7796     1.8649   224.0079 </r>
       <r>    -7.5983    14.8948   227.0804 </r>
       <r>    -7.4170     0.0000   228.0000 </r>
       <r>    -7.2357     0.0000   228.0000 </r>
       <r>    -7.0545     0.0000   228.0000 </r>
       <r>    -6.8732     0.0000   228.0000 </r>
       <r>    -6.6919     0.0000   228.0000 </r>
       <r>    -6.5106     0.0000   228.0000 </r>
       <r>    -6.3294    13.4914   228.8769 </r>
       <r>    -6.1481    28.9545   233.2097 </r>
       <r>    -5.9668    13.2236   236.6546 </r>
       <r>    -5.7855    37.6088   240.5885 </r>
       <r>    -5.6043    15.7434   245.1326 </r>
       <r>    -5.4230    22.9992   248.1691 </r>
       <r>    -5.2417    11.4930   251.2920 </r>
       <r>    -5.0604     3.8645   252.1422 </r>
       <r>    -4.8792     9.2224   253.4933 </r>
       <r>    -4.6979    11.3820   255.3450 </r>
       <r>    -4.5166     4.8380   256.7862 </r>
       <r>    -4.3353     7.6801   257.9110 </r>
       <r>    -4.1541     5.1981   259.1856 </r>
       <r>    -3.9728     1.7207   259.7743 </r>
       <r>    -3.7915     0.5176   259.9768 </r>
       <r>    -3.6102     0.0000   260.0000 </r>
       <r>    -3.4290     0.0000   260.0000 </r>
       <r>    -3.2477     0.0000   260.0000 </r>
       <r>    -3.0664     0.0000   260.0000 </r>
       <r>    -2.8851     0.0000   260.0000 </r>
       <r>    -2.7039     0.0000   260.0000 </r>
       <r>    -2.5226     0.0000   260.0000 </r>
       <r>    -2.3413     0.0000   260.0000 </r>
       <r>    -2.1600     0.0000   260.0000 </r>
       <r>    -1.9788     0.0000   260.0000 </r>
       <r>    -1.7975     0.0000   260.0000 </r>
       <r>    -1.6162     0.0000   260.0000 </r>
       <r>    -1.4349     2.4451   260.1323 </r>
       <r>    -1.2536     7.2830   261.0448 </r>
       <r>    -1.0724    10.3135   262.7795 </r>
       <r>    -0.8911    14.0416   264.9600 </r>
       <r>    -0.7098     7.5903   266.9197 </r>
       <r>    -0.5285     9.8559   268.1741 </r>
       <r>    -0.3473    27.0231   271.5695 </r>
       <r>    -0.1660    42.1832   277.4836 </r>
       <r>     0.0153    39.9680   284.5782 </r>
       <r>     0.1966    43.9602   290.8691 </r>
       <r>     0.3778    37.9148   298.7212 </r>
       <r>     0.5591    37.5075   305.9938 </r>
       <r>     0.7404    43.0869   313.4510 </r>
       <r>     0.9217    38.4979   321.6516 </r>
       <r>     1.1029    26.8638   329.6500 </r>
       <r>     1.2842    51.6307   337.6798 </r>
       <r>     1.4655    55.1784   345.0956 </r>
       <r>     1.6468    33.4427   352.7403 </r>
       <r>     1.8280    44.5864   360.1918 </r>
       <r>     2.0093    42.6976   367.4722 </r>
       <r>     2.1906    46.0231   375.7212 </r>
       <r>     2.3719    53.3352   384.5628 </r>
       <r>     2.5531    56.4162   394.7952 </r>
       <r>     2.7344    70.5882   406.1749 </r>
       <r>     2.9157    68.0730   419.4921 </r>
       <r>     3.0970    44.6022   430.0819 </r>
       <r>     3.2782    45.5355   436.6803 </r>
       <r>     3.4595    38.3195   443.7269 </r>
       <r>     3.6408    19.3365   447.8240 </r>
       <r>     3.8221    10.5597   450.3627 </r>
       <r>     4.0033     4.2668   451.7069 </r>
       <r>     4.1846     0.0150   451.9999 </r>
       <r>     4.3659     0.0000   452.0000 </r>
       <r>     4.5472     0.0000   452.0000 </r>
       <r>     4.7284     0.0000   452.0000 </r>
       <r>     4.9097     0.0000   452.0000 </r>
       <r>     5.0910     0.9776   452.0461 </r>
       <r>     5.2723     4.9807   452.5371 </r>
       <r>     5.4535     9.9580   453.8916 </r>
       <r>     5.6348    15.9949   455.9315 </r>
       <r>     5.8161    27.2924   459.0655 </r>
       <r>     5.9974    13.1462   462.1837 </r>
       <r>     6.1786    12.3542   464.4605 </r>
       <r>     6.3599    13.9503   466.8179 </r>
       <r>     6.5412    16.0306   469.5358 </r>
       <r>     6.7225    18.4492   472.6468 </r>
       <r>     6.9038    22.7000   476.3327 </r>
       <r>     7.0850    26.8295   480.9584 </r>
       <r>     7.2663    30.7814   486.3124 </r>
       <r>     7.4476    29.5741   492.4088 </r>
       <r>     7.6289    30.4693   497.6160 </r>
       <r>     7.8101    58.0137   505.0037 </r>
       <r>     7.9914    20.2919   512.4400 </r>
       <r>     8.1727    22.4600   516.1939 </r>
       <r>     8.3540    19.5029   519.8683 </r>
       <r>     8.5352    25.7754   523.8786 </r>
       <r>     8.7165    28.0164   528.8561 </r>
       <r>     8.8978    36.8313   536.3921 </r>
       <r>     9.0791    20.1008   541.8058 </r>
       <r>     9.2603    15.0869   544.7867 </r>
       <r>     9.4416    11.9973   547.6500 </r>
       <r>     9.6229    10.9225   549.3877 </r>
       <r>     9.8042    12.0024   551.6127 </r>
       <r>     9.9854    13.4129   553.6827 </r>
       <r>    10.1667    19.8959   556.9175 </r>
       <r>    10.3480     3.1265   559.9313 </r>
       <r>    10.5293     0.0000   560.0000 </r>
       <r>    10.7105     0.0000   560.0000 </r>
       <r>    10.8918     0.0000   560.0000 </r>
       <r>    11.0731     0.0000   560.0000 </r>
       <r>    11.2544     0.0000   560.0000 </r>
       <r>    11.4356     0.0000   560.0000 </r>
       <r>    11.6169     0.0000   560.0000 </r>
       <r>    11.7982     0.0000   560.0000 </r>
       <r>    11.9795     0.0000   560.0000 </r>
       <r>    12.1607     0.0000   560.0000 </r>
       <r>    12.3420     0.0000   560.0000 </r>
       <r>    12.5233     0.0000   560.0000 </r>
       <r>    12.7046     0.0000   560.0000 </r>
       <r>    12.8858     0.0000   560.0000 </r>
      </set>
     </set>
    </array>
   </total>
  </dos>
 </calculation>
 <structure name="finalpos" >
  <crystal>
   <varray name="basis" >
    <v>      11.17850000       0.00000000       0.00000000 </v>
    <v>       0.00000000       9.57460000       0.00000000 </v>
    <v>       0.00000000       0.00000000      11.18240000 </v>
   </varray>
   <i name="volume">   1196.84853820 </i>
   <varray name="rec_basis" >
    <v>       0.08945744       0.00000000       0.00000000 </v>
    <v>       0.00000000       0.10444301       0.00000000 </v>
    <v>       0.00000000       0.00000000       0.08942624 </v>
   </varray>
  </crystal>
  <varray name="positions" >
   <v>       0.12500062       0.00000852       0.20559049 </v>
   <v>       0.62499921       0.99992759       0.68688378 </v>
   <v>       0.39244093      -0.00283191       0.18254695 </v>
   <v>       0.62491697       0.00001607       0.42810529 </v>
   <v>       0.85755063       0.00288934       0.18246111 </v>
   <v>       0.12490867       0.00001756       0.93069244 </v>
   <v>       0.37187534       0.00680291       0.69638692 </v>
   <v>       0.62489041      -0.00000985       0.94808896 </v>
   <v>       0.87811460      -0.00675564       0.69654316 </v>
   <v>       0.00262116       0.30462023       0.06241039 </v>
   <v>       0.24733345       0.69527670       0.06242713 </v>
   <v>       0.24909247       0.29149955       0.31461716 </v>
   <v>       0.49818895       0.69702689       0.31539449 </v>
   <v>       0.49696954       0.30205450       0.06225433 </v>
   <v>       0.75300638       0.69783907       0.06229919 </v>
   <v>       0.75185297       0.30309050       0.31543099 </v>
   <v>       0.00089754       0.70841170       0.31462661 </v>
   <v>       0.00202554       0.29025551       0.55955409 </v>
   <v>       0.24787732       0.70970441       0.55955327 </v>
   <v>       0.24937413       0.30411621       0.81431687 </v>
   <v>       0.49866018       0.69726399       0.81011887 </v>
   <v>       0.50159287       0.30513966       0.56230511 </v>
   <v>       0.74836255       0.69476530       0.56233982 </v>
   <v>       0.75135485       0.30274795       0.81011919 </v>
   <v>       0.00066084       0.69600019       0.81426676 </v>
   <v>       0.25076064       0.34076166       0.06171809 </v>
   <v>      -0.00069928       0.65919621       0.06169445 </v>
   <v>       0.49955971       0.33106454       0.31272368 </v>
   <v>       0.25235670       0.66614008       0.30858794 </v>
   <v>       0.74889148       0.32709815       0.06170272 </v>
   <v>       0.50115641       0.67285324       0.06169176 </v>
   <v>       0.99759875       0.33389885       0.30855973 </v>
   <v>       0.75036920       0.66896288       0.31277346 </v>
   <v>       0.25519750       0.32764552       0.56683797 </v>
   <v>      -0.00511797       0.67227489       0.56680762 </v>
   <v>       0.50094553       0.33473387       0.81372604 </v>
   <v>       0.25040199       0.66789602       0.81430237 </v>
   <v>       0.74847226       0.33992717       0.56294972 </v>
   <v>       0.50155328       0.66009132       0.56292125 </v>
   <v>       0.99953307       0.33216543       0.81427994 </v>
   <v>       0.74901981       0.66532536       0.81375897 </v>
   <v>       0.50156011       0.08292104       0.06109788 </v>
   <v>       0.23551981       0.91558558       0.07189512 </v>
   <v>       0.26113982       0.08498093       0.27082551 </v>
   <v>      -0.01138351       0.91505121       0.27085497 </v>
   <v>       0.01454552       0.08430707       0.07183260 </v>
   <v>       0.74849311       0.91698282       0.06111102 </v>
   <v>       0.74664484       0.08501433       0.31241750 </v>
   <v>       0.50325128       0.91510075       0.31237973 </v>
   <v>       0.51576021       0.08360903       0.57440237 </v>
   <v>       0.27027863       0.91479756       0.58005498 </v>
   <v>       0.25032293       0.08563580       0.81658012 </v>
   <v>      -0.00039845       0.91448822       0.81655710 </v>
   <v>       0.97959647       0.08518114       0.58003111 </v>
   <v>       0.73419582       0.91627989       0.57447188 </v>
   <v>       0.73615201       0.08004514       0.80154646 </v>
   <v>       0.51358418       0.91998735       0.80156258 </v>
  </varray>
 </structure>
</modeling>
