<?xml version="1.0" encoding="ISO-8859-1"?>
<modeling>
 <generator>
  <i name="program" type="string">vasp </i>
  <i name="version" type="string">5.4.4.18Apr17-6-g9f103f2a35  </i>
  <i name="subversion" type="string">(build Jul 31 2017 11:33:29) complex            parallel </i>
  <i name="platform" type="string">LinuxIFC </i>
  <i name="date" type="string">2021 09 20 </i>
  <i name="time" type="string">19:41:23 </i>
 </generator>
 <incar>
  <i type="string" name="SYSTEM"> La2O2S</i>
  <i type="string" name="PREC">normal</i>
  <i type="int" name="NELMIN">     4</i>
  <i type="int" name="IBRION">     2</i>
  <i type="int" name="NFREE">    10</i>
  <i name="EDIFF">      0.00000100</i>
  <i name="EDIFFG">     -0.01000000</i>
  <i type="int" name="NSW">   200</i>
  <i type="int" name="ISIF">     3</i>
  <i name="ENCUT">    600.00000000</i>
  <i name="ENAUG">    900.00000000</i>
  <i type="int" name="ISMEAR">    -5</i>
  <i type="logical" name="LWAVE"> F  </i>
  <i type="logical" name="LCHARG"> F  </i>
  <v type="int" name="KPOINT_BSE">    -1     0     0     0</v>
 </incar>
 <structure name="primitive_cell" >
  <crystal>
   <varray name="basis" >
    <v>      11.17850000       0.00000000       0.00000000 </v>
    <v>       0.00000000       9.57460000       0.00000000 </v>
    <v>       0.00000000       0.00000000      11.18240000 </v>
   </varray>
   <i name="volume">   1196.84853820 </i>
   <varray name="rec_basis" >
    <v>       0.08945744       0.00000000       0.00000000 </v>
    <v>       0.00000000       0.10444301       0.00000000 </v>
    <v>       0.00000000       0.00000000       0.08942624 </v>
   </varray>
  </crystal>
  <varray name="positions" >
   <v>      -0.37461000      -0.00016000       0.43687000 </v>
   <v>      -0.24987000       0.07798000       0.31246000 </v>
   <v>      -0.49987000      -0.07798000       0.31246000 </v>
   <v>      -0.25013000      -0.07798000      -0.43754000 </v>
   <v>       0.49987000       0.07798000      -0.43754000 </v>
   <v>      -0.37539000      -0.00016000       0.18687000 </v>
   <v>      -0.37539000      -0.00016000      -0.31313000 </v>
   <v>      -0.25013000       0.29519000       0.31282000 </v>
   <v>       0.49987000      -0.29519000       0.31282000 </v>
   <v>      -0.24987000      -0.29519000      -0.43719000 </v>
   <v>      -0.49987000       0.29519000      -0.43719000 </v>
   <v>      -0.25005000      -0.32677000       0.31286000 </v>
   <v>       0.49995000       0.32677000       0.31286000 </v>
   <v>      -0.24995000       0.32677000      -0.43714000 </v>
   <v>      -0.49995000      -0.32677000      -0.43714000 </v>
   <v>      -0.12539000       0.00017000       0.18687000 </v>
   <v>      -0.12539000       0.00017000      -0.31313000 </v>
   <v>       0.37461000       0.00017000       0.18687000 </v>
   <v>      -0.25013000      -0.07798000       0.06246000 </v>
   <v>       0.00013000      -0.07798000       0.31246000 </v>
   <v>      -0.00013000       0.07798000      -0.43754000 </v>
   <v>       0.49987000       0.07798000       0.06246000 </v>
   <v>       0.25013000       0.07798000       0.31246000 </v>
   <v>      -0.24987000       0.07798000      -0.18754000 </v>
   <v>       0.24987000      -0.07798000      -0.43754000 </v>
   <v>      -0.49987000      -0.07798000      -0.18754000 </v>
   <v>      -0.24987000      -0.29519000       0.06281000 </v>
   <v>      -0.00013000      -0.29519000       0.31282000 </v>
   <v>      -0.49987000       0.29519000       0.06281000 </v>
   <v>       0.00013000       0.29519000      -0.43719000 </v>
   <v>       0.24987000       0.29519000       0.31282000 </v>
   <v>       0.25013000      -0.29519000      -0.43719000 </v>
   <v>      -0.25013000       0.29519000      -0.18718000 </v>
   <v>       0.49987000      -0.29519000      -0.18718000 </v>
   <v>      -0.24995000       0.32677000       0.06286000 </v>
   <v>      -0.49995000      -0.32677000       0.06286000 </v>
   <v>      -0.00005000       0.32677000       0.31286000 </v>
   <v>       0.00005000      -0.32677000      -0.43714000 </v>
   <v>       0.24995000      -0.32677000       0.31286000 </v>
   <v>       0.25005000       0.32677000      -0.43714000 </v>
   <v>      -0.25005000      -0.32677000      -0.18714000 </v>
   <v>       0.49995000       0.32677000      -0.18714000 </v>
   <v>      -0.37461000      -0.00016000      -0.06313000 </v>
   <v>      -0.00013000       0.07798000       0.06246000 </v>
   <v>       0.24987000      -0.07798000       0.06246000 </v>
   <v>       0.00013000      -0.07798000      -0.18754000 </v>
   <v>       0.25013000       0.07798000      -0.18754000 </v>
   <v>       0.12461000      -0.00016000      -0.31313000 </v>
   <v>      -0.12461000       0.00017000      -0.06313000 </v>
   <v>       0.00013000       0.29519000       0.06281000 </v>
   <v>       0.25013000      -0.29519000       0.06281000 </v>
   <v>      -0.00013000      -0.29519000      -0.18718000 </v>
   <v>       0.24987000       0.29519000      -0.18718000 </v>
   <v>       0.00005000      -0.32677000       0.06286000 </v>
   <v>       0.25005000       0.32677000       0.06286000 </v>
   <v>      -0.00005000       0.32677000      -0.18714000 </v>
   <v>       0.24995000      -0.32677000      -0.18714000 </v>
   <v>       0.12539000      -0.00016000      -0.06313000 </v>
  </varray>
 </structure>
 <varray name="primitive_index" >
  <v type="int" >        1 </v>
  <v type="int" >       49 </v>
  <v type="int" >       50 </v>
  <v type="int" >       56 </v>
  <v type="int" >       51 </v>
  <v type="int" >        2 </v>
  <v type="int" >        9 </v>
  <v type="int" >       17 </v>
  <v type="int" >       14 </v>
  <v type="int" >       24 </v>
  <v type="int" >       23 </v>
  <v type="int" >       34 </v>
  <v type="int" >       29 </v>
  <v type="int" >       39 </v>
  <v type="int" >       40 </v>
  <v type="int" >        6 </v>
  <v type="int" >       10 </v>
  <v type="int" >        5 </v>
  <v type="int" >       48 </v>
  <v type="int" >       46 </v>
  <v type="int" >       55 </v>
  <v type="int" >       43 </v>
  <v type="int" >       45 </v>
  <v type="int" >       57 </v>
  <v type="int" >       52 </v>
  <v type="int" >       58 </v>
  <v type="int" >       16 </v>
  <v type="int" >       18 </v>
  <v type="int" >       15 </v>
  <v type="int" >       19 </v>
  <v type="int" >       13 </v>
  <v type="int" >       20 </v>
  <v type="int" >       25 </v>
  <v type="int" >       22 </v>
  <v type="int" >       31 </v>
  <v type="int" >       32 </v>
  <v type="int" >       33 </v>
  <v type="int" >       36 </v>
  <v type="int" >       30 </v>
  <v type="int" >       35 </v>
  <v type="int" >       42 </v>
  <v type="int" >       37 </v>
  <v type="int" >        8 </v>
  <v type="int" >       47 </v>
  <v type="int" >       44 </v>
  <v type="int" >       54 </v>
  <v type="int" >       53 </v>
  <v type="int" >        3 </v>
  <v type="int" >        4 </v>
  <v type="int" >       11 </v>
  <v type="int" >       12 </v>
  <v type="int" >       26 </v>
  <v type="int" >       21 </v>
  <v type="int" >       28 </v>
  <v type="int" >       27 </v>
  <v type="int" >       41 </v>
  <v type="int" >       38 </v>
  <v type="int" >        7 </v>
 </varray>
 <kpoints>
  <generation param="Gamma">
   <v type="int" name="divisions">       2        2        2 </v>
   <v name="usershift">      0.00000000       0.00000000       0.00000000 </v>
   <v name="genvec1">      0.50000000       0.00000000       0.00000000 </v>
   <v name="genvec2">      0.00000000       0.50000000       0.00000000 </v>
   <v name="genvec3">      0.00000000       0.00000000       0.50000000 </v>
   <v name="shift">      0.00000000       0.00000000       0.00000000 </v>
  </generation>
  <varray name="kpointlist" >
   <v>       0.00000000       0.00000000       0.00000000 </v>
   <v>       0.50000000       0.00000000       0.00000000 </v>
   <v>       0.00000000       0.50000000       0.00000000 </v>
   <v>       0.50000000       0.50000000       0.00000000 </v>
   <v>       0.00000000       0.00000000       0.50000000 </v>
   <v>       0.50000000       0.00000000       0.50000000 </v>
   <v>       0.00000000       0.50000000       0.50000000 </v>
   <v>       0.50000000       0.50000000       0.50000000 </v>
  </varray>
  <varray name="weights" >
   <v>       0.12500000 </v>
   <v>       0.12500000 </v>
   <v>       0.12500000 </v>
   <v>       0.12500000 </v>
   <v>       0.12500000 </v>
   <v>       0.12500000 </v>
   <v>       0.12500000 </v>
   <v>       0.12500000 </v>
  </varray>
  <varray name="tetrahedronlist"  type="int" >
   <v type="int" >        2        1        2        4        5 </v>
   <v type="int" >        2        1        3        4        5 </v>
   <v type="int" >        2        3        4        5        7 </v>
   <v type="int" >        2        2        4        5        6 </v>
   <v type="int" >        2        4        5        6        8 </v>
   <v type="int" >        2        4        5        7        8 </v>
   <v type="int" >        2        1        2        3        6 </v>
   <v type="int" >        2        2        3        4        6 </v>
   <v type="int" >        2        3        4        6        8 </v>
   <v type="int" >        2        1        3        5        6 </v>
   <v type="int" >        2        3        5        6        7 </v>
   <v type="int" >        2        3        6        7        8 </v>
   <v type="int" >        2        2        3        4        7 </v>
   <v type="int" >        2        1        2        3        7 </v>
   <v type="int" >        2        1        2        5        7 </v>
   <v type="int" >        2        2        4        7        8 </v>
   <v type="int" >        2        2        6        7        8 </v>
   <v type="int" >        2        2        5        6        7 </v>
   <v type="int" >        2        1        3        4        8 </v>
   <v type="int" >        2        1        2        4        8 </v>
   <v type="int" >        2        1        2        6        8 </v>
   <v type="int" >        2        1        3        7        8 </v>
   <v type="int" >        2        1        5        7        8 </v>
   <v type="int" >        2        1        5        6        8 </v>
  </varray>
  <i name="volumeweight">      0.02083333 </i>
 </kpoints>
 <parameters>
  <separator name="general" >
   <i type="string" name="SYSTEM">La2O2S</i>
   <i type="logical" name="LCOMPAT"> F  </i>
  </separator>
  <separator name="electronic" >
   <i type="string" name="PREC">normal</i>
   <i name="ENMAX">    600.00000000</i>
   <i name="ENAUG">    900.00000000</i>
   <i name="EDIFF">      0.00000100</i>
   <i type="int" name="IALGO">    38</i>
   <i type="int" name="IWAVPR">    11</i>
   <i type="int" name="NBANDS">   280</i>
   <i name="NELECT">    456.00000000</i>
   <i type="int" name="TURBO">     0</i>
   <i type="int" name="IRESTART">     0</i>
   <i type="int" name="NREBOOT">     0</i>
   <i type="int" name="NMIN">     0</i>
   <i name="EREF">      0.00000000</i>
   <separator name="electronic smearing" >
    <i type="int" name="ISMEAR">    -5</i>
    <i name="SIGMA">      0.20000000</i>
    <i name="KSPACING">      0.50000000</i>
    <i type="logical" name="KGAMMA"> T  </i>
   </separator>
   <separator name="electronic projectors" >
    <i type="logical" name="LREAL"> F  </i>
    <v name="ROPT">      0.00000000      0.00000000      0.00000000      0.00000000      0.00000000</v>
    <i type="int" name="LMAXPAW">  -100</i>
    <i type="int" name="LMAXMIX">     2</i>
    <i type="logical" name="NLSPLINE"> F  </i>
   </separator>
   <separator name="electronic startup" >
    <i type="int" name="ISTART">     0</i>
    <i type="int" name="ICHARG">     2</i>
    <i type="int" name="INIWAV">     1</i>
   </separator>
   <separator name="electronic spin" >
    <i type="int" name="ISPIN">     1</i>
    <i type="logical" name="LNONCOLLINEAR"> F  </i>
    <v name="MAGMOM">      1.00000000      1.00000000      1.00000000      1.00000000      1.00000000      1.00000000      1.00000000      1.00000000      1.00000000      1.00000000      1.00000000      1.00000000      1.00000000      1.00000000      1.00000000      1.00000000      1.00000000      1.00000000      1.00000000      1.00000000
      1.00000000      1.00000000      1.00000000      1.00000000      1.00000000      1.00000000      1.00000000      1.00000000      1.00000000      1.00000000      1.00000000      1.00000000      1.00000000      1.00000000      1.00000000      1.00000000      1.00000000      1.00000000      1.00000000      1.00000000
      1.00000000      1.00000000      1.00000000      1.00000000      1.00000000      1.00000000      1.00000000      1.00000000      1.00000000      1.00000000      1.00000000      1.00000000      1.00000000      1.00000000      1.00000000      1.00000000      1.00000000      1.00000000</v>
    <i name="NUPDOWN">     -1.00000000</i>
    <i type="logical" name="LSORBIT"> F  </i>
    <v name="SAXIS">      0.00000000      0.00000000      1.00000000</v>
    <i type="logical" name="LSPIRAL"> F  </i>
    <v name="QSPIRAL">      0.00000000      0.00000000      0.00000000</v>
    <i type="logical" name="LZEROZ"> F  </i>
   </separator>
   <separator name="electronic exchange-correlation" >
    <i type="logical" name="LASPH"> F  </i>
    <i type="logical" name="LMETAGGA"> F  </i>
   </separator>
   <separator name="electronic convergence" >
    <i type="int" name="NELM">    60</i>
    <i type="int" name="NELMDL">    -5</i>
    <i type="int" name="NELMIN">     4</i>
    <i name="ENINI">    600.00000000</i>
    <separator name="electronic convergence detail" >
     <i type="logical" name="LDIAG"> T  </i>
     <i type="logical" name="LSUBROT"> F  </i>
     <i name="WEIMIN">      0.00100000</i>
     <i name="EBREAK">      0.00000000</i>
     <i name="DEPER">      0.30000000</i>
     <i type="int" name="NRMM">     4</i>
     <i name="TIME">      0.40000000</i>
    </separator>
   </separator>
   <separator name="electronic mixer" >
    <i name="AMIX">      0.40000000</i>
    <i name="BMIX">      1.00000000</i>
    <i name="AMIN">      0.10000000</i>
    <i name="AMIX_MAG">      1.60000000</i>
    <i name="BMIX_MAG">      1.00000000</i>
    <separator name="electronic mixer details" >
     <i type="int" name="IMIX">     4</i>
     <i type="logical" name="MIXFIRST"> F  </i>
     <i type="int" name="MAXMIX">   -45</i>
     <i name="WC">    100.00000000</i>
     <i type="int" name="INIMIX">     1</i>
     <i type="int" name="MIXPRE">     1</i>
     <i type="int" name="MREMOVE">     5</i>
    </separator>
   </separator>
   <separator name="electronic dipolcorrection" >
    <i type="logical" name="LDIPOL"> F  </i>
    <i type="logical" name="LMONO"> F  </i>
    <i type="int" name="IDIPOL">     0</i>
    <i name="EPSILON">      1.00000000</i>
    <v name="DIPOL">   -100.00000000   -100.00000000   -100.00000000</v>
    <i name="EFIELD">      0.00000000</i>
   </separator>
  </separator>
  <separator name="grids" >
   <i type="int" name="NGX">    70</i>
   <i type="int" name="NGY">    60</i>
   <i type="int" name="NGZ">    70</i>
   <i type="int" name="NGXF">   140</i>
   <i type="int" name="NGYF">   120</i>
   <i type="int" name="NGZF">   140</i>
   <i type="logical" name="ADDGRID"> F  </i>
  </separator>
  <separator name="ionic" >
   <i type="int" name="NSW">   200</i>
   <i type="int" name="IBRION">     2</i>
   <i type="int" name="MDALGO">     0</i>
   <i type="int" name="ISIF">     3</i>
   <i name="PSTRESS">      0.00000000</i>
   <i name="EDIFFG">     -0.01000000</i>
   <i type="int" name="NFREE">    10</i>
   <i name="POTIM">      0.50000000</i>
   <i name="SMASS">     -3.00000000</i>
   <i name="SCALEE">      1.00000000</i>
  </separator>
  <separator name="ionic md" >
   <i name="TEBEG">      0.00010000</i>
   <i name="TEEND">      0.00010000</i>
   <i type="int" name="NBLOCK">     1</i>
   <i type="int" name="KBLOCK">   200</i>
   <i type="int" name="NPACO">   256</i>
   <i name="APACO">     16.00000000</i>
  </separator>
  <separator name="symmetry" >
   <i type="int" name="ISYM">     2</i>
   <i name="SYMPREC">      0.00001000</i>
  </separator>
  <separator name="dos" >
   <i type="int" name="LORBIT">     0</i>
   <v name="RWIGS">     -1.00000000     -1.00000000     -1.00000000     -1.00000000     -1.00000000</v>
   <i type="int" name="NEDOS">   301</i>
   <i name="EMIN">     10.00000000</i>
   <i name="EMAX">    -10.00000000</i>
   <i name="EFERMI">      0.00000000</i>
  </separator>
  <separator name="writing" >
   <i type="int" name="NWRITE">     2</i>
   <i type="logical" name="LWAVE"> F  </i>
   <i type="logical" name="LDOWNSAMPLE"> F  </i>
   <i type="logical" name="LCHARG"> F  </i>
   <i type="logical" name="LPARD"> F  </i>
   <i type="logical" name="LVTOT"> F  </i>
   <i type="logical" name="LVHAR"> F  </i>
   <i type="logical" name="LELF"> F  </i>
   <i type="logical" name="LOPTICS"> F  </i>
   <v name="STM">      0.00000000      0.00000000      0.00000000      0.00000000      0.00000000      0.00000000      0.00000000</v>
  </separator>
  <separator name="performance" >
   <i type="int" name="NPAR">    28</i>
   <i type="int" name="NSIM">     4</i>
   <i type="int" name="NBLK">    -1</i>
   <i type="logical" name="LPLANE"> T  </i>
   <i type="logical" name="LSCALAPACK"> T  </i>
   <i type="logical" name="LSCAAWARE"> F  </i>
   <i type="logical" name="LSCALU"> F  </i>
   <i type="logical" name="LASYNC"> F  </i>
   <i type="logical" name="LORBITALREAL"> F  </i>
  </separator>
  <separator name="miscellaneous" >
   <i type="int" name="IDIOT">     3</i>
   <i type="int" name="ISPECIAL">     0</i>
   <i type="logical" name="LMUSIC"> F  </i>
   <v name="POMASS">      7.01000000     24.30500000    208.98000000     32.06600000     16.00000000</v>
   <v name="DARWINR">      0.00000000      0.00000000      0.00000000      0.00000000      0.00000000</v>
   <v name="DARWINV">      1.00000000      1.00000000      1.00000000      1.00000000      1.00000000</v>
   <i type="logical" name="LCORR"> T  </i>
  </separator>
  <i type="logical" name="GGA_COMPAT"> T  </i>
  <i type="logical" name="LBERRY"> F  </i>
  <i type="int" name="ICORELEVEL">     0</i>
  <i type="logical" name="LDAU"> F  </i>
  <i type="int" name="I_CONSTRAINED_M">     0</i>
  <separator name="electronic exchange-correlation" >
   <i type="string" name="GGA">--</i>
   <i type="int" name="VOSKOWN">     0</i>
   <i type="logical" name="LHFCALC"> F  </i>
   <i type="string" name="PRECFOCK"></i>
   <i type="logical" name="LSYMGRAD"> F  </i>
   <i type="logical" name="LHFONE"> F  </i>
   <i type="logical" name="LRHFCALC"> F  </i>
   <i type="logical" name="LTHOMAS"> F  </i>
   <i type="logical" name="LMODELHF"> F  </i>
   <i name="ENCUT4O">     -1.00000000</i>
   <i type="int" name="EXXOEP">     0</i>
   <i type="int" name="FOURORBIT">     0</i>
   <i name="AEXX">      0.00000000</i>
   <i name="HFALPHA">      0.00000000</i>
   <i name="MCALPHA">      0.00000000</i>
   <i name="ALDAX">      1.00000000</i>
   <i name="AGGAX">      1.00000000</i>
   <i name="ALDAC">      1.00000000</i>
   <i name="AGGAC">      1.00000000</i>
   <i type="int" name="NKREDX">     1</i>
   <i type="int" name="NKREDY">     1</i>
   <i type="int" name="NKREDZ">     1</i>
   <i type="logical" name="SHIFTRED"> F  </i>
   <i type="logical" name="ODDONLY"> F  </i>
   <i type="logical" name="EVENONLY"> F  </i>
   <i type="int" name="LMAXFOCK">     0</i>
   <i type="int" name="NMAXFOCKAE">     0</i>
   <i type="logical" name="LFOCKAEDFT"> F  </i>
   <i name="HFSCREEN">      0.00000000</i>
   <i name="HFSCREENC">      0.00000000</i>
   <i type="int" name="NBANDSGWLOW">     0</i>
  </separator>
  <separator name="vdW DFT" >
   <i type="logical" name="LUSE_VDW"> F  </i>
   <i name="Zab_VDW">     -0.84910000</i>
   <i name="PARAM1">      0.12340000</i>
   <i name="PARAM2">      1.00000000</i>
   <i name="PARAM3">      0.00000000</i>
  </separator>
  <separator name="model GW" >
   <i type="int" name="MODEL_GW">     0</i>
   <i name="MODEL_EPS0">     12.38119177</i>
   <i name="MODEL_ALPHA">      1.00000000</i>
  </separator>
  <separator name="linear response parameters" >
   <i type="logical" name="LEPSILON"> F  </i>
   <i type="logical" name="LRPA"> F  </i>
   <i type="logical" name="LNABLA"> F  </i>
   <i type="logical" name="LVEL"> F  </i>
   <i type="int" name="KINTER">     0</i>
   <i name="CSHIFT">      0.10000000</i>
   <i name="OMEGAMAX">     -1.00000000</i>
   <i name="DEG_THRESHOLD">      0.00200000</i>
   <i name="RTIME">     -0.10000000</i>
   <i name="WPLASMAI">      0.00000000</i>
   <v name="DFIELD">      0.00000000      0.00000000      0.00000000</v>
   <v name="WPLASMA">      0.00000000      0.00000000      0.00000000      0.00000000      0.00000000      0.00000000      0.00000000      0.00000000      0.00000000</v>
  </separator>
  <separator name="orbital magnetization" >
   <i type="logical" name="NUCIND"> F  </i>
   <v name="MAGPOS">      0.00000000      0.00000000      0.00000000</v>
   <i type="logical" name="LNICSALL"> T  </i>
   <i type="logical" name="ORBITALMAG"> F  </i>
   <i type="logical" name="LMAGBLOCH"> F  </i>
   <i type="logical" name="LCHIMAG"> F  </i>
   <i type="logical" name="LGAUGE"> T  </i>
   <i type="int" name="MAGATOM">     0</i>
   <v name="MAGDIPOL">      0.00000000      0.00000000      0.00000000</v>
   <v name="AVECCONST">      0.00000000      0.00000000      0.00000000</v>
  </separator>
  <separator name="response functions" >
   <i type="logical" name="LADDER"> F  </i>
   <i type="logical" name="LRPAFORCE"> F  </i>
   <i type="logical" name="LFXC"> F  </i>
   <i type="logical" name="LHARTREE"> T  </i>
   <i type="int" name="IBSE">     0</i>
   <v type="int" name="KPOINT">    -1     0     0     0</v>
   <i type="logical" name="LTCTE"> F  </i>
   <i type="logical" name="LTETE"> F  </i>
   <i type="logical" name="LTRIPLET"> F  </i>
   <i type="logical" name="LFXCEPS"> F  </i>
   <i type="logical" name="LFXHEG"> F  </i>
   <i type="int" name="NATURALO">     2</i>
   <i type="logical" name="L2ORDER"> F  </i>
   <i type="logical" name="LMP2LT"> F  </i>
   <i type="logical" name="LUSEW"> F  </i>
   <i name="ENCUTGW">     -2.00000000</i>
   <i name="ENCUTGWSOFT">     -2.00000000</i>
   <i name="ENCUTLF">     -1.00000000</i>
   <i type="int" name="LMAXMP2">    -1</i>
   <i name="SCISSOR">      0.00000000</i>
   <i type="int" name="NOMEGA">     0</i>
   <i type="int" name="NOMEGAR">     0</i>
   <i type="int" name="NBANDSGW">    -1</i>
   <i type="int" name="NBANDSO">    -1</i>
   <i type="int" name="NBANDSV">    -1</i>
   <i type="int" name="NELM">     1</i>
   <i type="int" name="NELMHF">     1</i>
   <i type="int" name="DIM">     3</i>
   <i type="int" name="ANTIRES">     0</i>
   <i name="OMEGAMAX">    -30.00000000</i>
   <i name="OMEGAMIN">    -30.00000000</i>
   <i name="OMEGATL">   -200.00000000</i>
   <i type="int" name="OMEGAGRID">   140</i>
   <i name="CSHIFT">     -0.10000000</i>
   <i type="logical" name="SELFENERGY"> F  </i>
   <i type="logical" name="LSPECTRAL"> F  </i>
   <i type="logical" name="LSPECTRALGW"> F  </i>
   <i type="logical" name="LSINGLES"> F  </i>
   <i type="logical" name="LFERMIGW"> F  </i>
   <i type="logical" name="ODDONLYGW"> F  </i>
   <i type="logical" name="EVENONLYGW"> F  </i>
   <i type="int" name="NKREDLFX">     1</i>
   <i type="int" name="NKREDLFY">     1</i>
   <i type="int" name="NKREDLFZ">     1</i>
   <i type="int" name="MAXMEM">  2800</i>
   <i type="int" name="TELESCOPE">     0</i>
   <i type="int" name="TAUPAR">     1</i>
   <i type="int" name="OMEGAPAR">    -1</i>
   <i name="LAMBDA">      1.00000000</i>
  </separator>
  <separator name="External order field" >
   <i name="OFIELD_KAPPA">      0.00000000</i>
   <v name="OFIELD_K">      0.00000000      0.00000000      0.00000000</v>
   <i name="OFIELD_Q6_NEAR">      0.00000000</i>
   <i name="OFIELD_Q6_FAR">      0.00000000</i>
   <i name="OFIELD_A">      0.00000000</i>
  </separator>
 </parameters>
 <atominfo>
  <atoms>      58 </atoms>
  <types>       5 </types>
  <array name="atoms" >
   <dimension dim="1">ion</dimension>
   <field type="string">element</field>
   <field type="int">atomtype</field>
   <set>
    <rc><c>Li</c><c>   1</c></rc>
    <rc><c>Li</c><c>   1</c></rc>
    <rc><c>Li</c><c>   1</c></rc>
    <rc><c>Li</c><c>   1</c></rc>
    <rc><c>Mg</c><c>   2</c></rc>
    <rc><c>Mg</c><c>   2</c></rc>
    <rc><c>Mg</c><c>   2</c></rc>
    <rc><c>Mg</c><c>   2</c></rc>
    <rc><c>Mg</c><c>   2</c></rc>
    <rc><c>Mg</c><c>   2</c></rc>
    <rc><c>Bi</c><c>   3</c></rc>
    <rc><c>Bi</c><c>   3</c></rc>
    <rc><c>Bi</c><c>   3</c></rc>
    <rc><c>Bi</c><c>   3</c></rc>
    <rc><c>Bi</c><c>   3</c></rc>
    <rc><c>Bi</c><c>   3</c></rc>
    <rc><c>Bi</c><c>   3</c></rc>
    <rc><c>Bi</c><c>   3</c></rc>
    <rc><c>Bi</c><c>   3</c></rc>
    <rc><c>Bi</c><c>   3</c></rc>
    <rc><c>Bi</c><c>   3</c></rc>
    <rc><c>Bi</c><c>   3</c></rc>
    <rc><c>Bi</c><c>   3</c></rc>
    <rc><c>Bi</c><c>   3</c></rc>
    <rc><c>Bi</c><c>   3</c></rc>
    <rc><c>Bi</c><c>   3</c></rc>
    <rc><c>S </c><c>   4</c></rc>
    <rc><c>S </c><c>   4</c></rc>
    <rc><c>S </c><c>   4</c></rc>
    <rc><c>S </c><c>   4</c></rc>
    <rc><c>S </c><c>   4</c></rc>
    <rc><c>S </c><c>   4</c></rc>
    <rc><c>S </c><c>   4</c></rc>
    <rc><c>S </c><c>   4</c></rc>
    <rc><c>S </c><c>   4</c></rc>
    <rc><c>S </c><c>   4</c></rc>
    <rc><c>S </c><c>   4</c></rc>
    <rc><c>S </c><c>   4</c></rc>
    <rc><c>S </c><c>   4</c></rc>
    <rc><c>S </c><c>   4</c></rc>
    <rc><c>S </c><c>   4</c></rc>
    <rc><c>S </c><c>   4</c></rc>
    <rc><c>O </c><c>   5</c></rc>
    <rc><c>O </c><c>   5</c></rc>
    <rc><c>O </c><c>   5</c></rc>
    <rc><c>O </c><c>   5</c></rc>
    <rc><c>O </c><c>   5</c></rc>
    <rc><c>O </c><c>   5</c></rc>
    <rc><c>O </c><c>   5</c></rc>
    <rc><c>O </c><c>   5</c></rc>
    <rc><c>O </c><c>   5</c></rc>
    <rc><c>O </c><c>   5</c></rc>
    <rc><c>O </c><c>   5</c></rc>
    <rc><c>O </c><c>   5</c></rc>
    <rc><c>O </c><c>   5</c></rc>
    <rc><c>O </c><c>   5</c></rc>
    <rc><c>O </c><c>   5</c></rc>
    <rc><c>O </c><c>   5</c></rc>
   </set>
  </array>
  <array name="atomtypes" >
   <dimension dim="1">type</dimension>
   <field type="int">atomspertype</field>
   <field type="string">element</field>
   <field>mass</field>
   <field>valence</field>
   <field type="string">pseudopotential</field>
   <set>
    <rc><c>   4</c><c>Li</c><c>      7.01000000</c><c>      3.00000000</c><c>  PAW_PBE Li_sv 10Sep2004               </c></rc>
    <rc><c>   6</c><c>Mg</c><c>     24.30500000</c><c>      2.00000000</c><c>  PAW_PBE Mg 13Apr2007                  </c></rc>
    <rc><c>  16</c><c>Bi</c><c>    208.98000000</c><c>     15.00000000</c><c>  PAW_PBE Bi_d 06Sep2000                </c></rc>
    <rc><c>  16</c><c>S </c><c>     32.06600000</c><c>      6.00000000</c><c>  PAW_PBE S 06Sep2000                   </c></rc>
    <rc><c>  16</c><c>O </c><c>     16.00000000</c><c>      6.00000000</c><c>  PAW_PBE O 08Apr2002                   </c></rc>
   </set>
  </array>
 </atominfo>
 <structure name="initialpos" >
  <crystal>
   <varray name="basis" >
    <v>      11.17850000       0.00000000       0.00000000 </v>
    <v>       0.00000000       9.57460000       0.00000000 </v>
    <v>       0.00000000       0.00000000      11.18240000 </v>
   </varray>
   <i name="volume">   1196.84853820 </i>
   <varray name="rec_basis" >
    <v>       0.08945744       0.00000000       0.00000000 </v>
    <v>       0.00000000       0.10444301       0.00000000 </v>
    <v>       0.00000000       0.00000000       0.08942624 </v>
   </varray>
  </crystal>
  <varray name="positions" >
   <v>       0.62539000       0.99984000       0.43687000 </v>
   <v>       0.62461000       0.99984000       0.18687000 </v>
   <v>       0.12461000       0.99984000       0.68687000 </v>
   <v>       0.87539000       0.00017000       0.93687000 </v>
   <v>       0.37461000       0.00017000       0.18687000 </v>
   <v>       0.87461000       0.00017000       0.18687000 </v>
   <v>       0.12539000       0.99984000       0.93687000 </v>
   <v>       0.62539000       0.99984000       0.93687000 </v>
   <v>       0.62461000       0.99984000       0.68687000 </v>
   <v>       0.87461000       0.00017000       0.68687000 </v>
   <v>       0.00013000       0.29519000       0.06281000 </v>
   <v>       0.25013000       0.70481000       0.06281000 </v>
   <v>       0.24987000       0.29519000       0.31282000 </v>
   <v>       0.49987000       0.70481000       0.31282000 </v>
   <v>       0.50013000       0.29519000       0.06281000 </v>
   <v>       0.75013000       0.70481000       0.06281000 </v>
   <v>       0.74987000       0.29519000       0.31282000 </v>
   <v>       0.99987000       0.70481000       0.31282000 </v>
   <v>       0.00013000       0.29519000       0.56281000 </v>
   <v>       0.25013000       0.70481000       0.56281000 </v>
   <v>       0.24987000       0.29519000       0.81282000 </v>
   <v>       0.49987000       0.70481000       0.81282000 </v>
   <v>       0.50013000       0.29519000       0.56281000 </v>
   <v>       0.75013000       0.70481000       0.56281000 </v>
   <v>       0.74987000       0.29519000       0.81282000 </v>
   <v>       0.99987000       0.70481000       0.81282000 </v>
   <v>       0.25005000       0.32677000       0.06286000 </v>
   <v>       0.00005000       0.67323000       0.06286000 </v>
   <v>       0.49995000       0.32677000       0.31286000 </v>
   <v>       0.24995000       0.67323000       0.31286000 </v>
   <v>       0.75005000       0.32677000       0.06286000 </v>
   <v>       0.50005000       0.67323000       0.06286000 </v>
   <v>       0.99995000       0.32677000       0.31286000 </v>
   <v>       0.74995000       0.67323000       0.31286000 </v>
   <v>       0.25005000       0.32677000       0.56286000 </v>
   <v>       0.00005000       0.67323000       0.56286000 </v>
   <v>       0.49995000       0.32677000       0.81286000 </v>
   <v>       0.24995000       0.67323000       0.81286000 </v>
   <v>       0.75005000       0.32677000       0.56286000 </v>
   <v>       0.50005000       0.67323000       0.56286000 </v>
   <v>       0.99995000       0.32677000       0.81286000 </v>
   <v>       0.74995000       0.67323000       0.81286000 </v>
   <v>       0.49987000       0.07798000       0.06246000 </v>
   <v>       0.24987000       0.92202000       0.06246000 </v>
   <v>       0.25013000       0.07798000       0.31246000 </v>
   <v>       0.00013000       0.92202000       0.31246000 </v>
   <v>       0.99987000       0.07798000       0.06246000 </v>
   <v>       0.74987000       0.92202000       0.06246000 </v>
   <v>       0.75013000       0.07798000       0.31246000 </v>
   <v>       0.50013000       0.92202000       0.31246000 </v>
   <v>       0.49987000       0.07798000       0.56246000 </v>
   <v>       0.24987000       0.92202000       0.56246000 </v>
   <v>       0.25013000       0.07798000       0.81246000 </v>
   <v>       0.00013000       0.92202000       0.81246000 </v>
   <v>       0.99987000       0.07798000       0.56246000 </v>
   <v>       0.74987000       0.92202000       0.56246000 </v>
   <v>       0.75013000       0.07798000       0.81246000 </v>
   <v>       0.50013000       0.92202000       0.81246000 </v>
  </varray>
 </structure>
 <calculation>
  <scstep>
   <time name="dav">   61.55   61.71</time>
   <time name="total">   61.63   61.80</time>
   <energy>
    <i name="alphaZ">   1054.17224280 </i>
    <i name="ewald"> -30149.88841304 </i>
    <i name="hartreedc"> -12730.20060864 </i>
    <i name="XCdc">   1173.54104974 </i>
    <i name="pawpsdc">  36541.05238669 </i>
    <i name="pawaedc"> -35795.85877930 </i>
    <i name="eentropy">      0.00000000 </i>
    <i name="bandstr">   1911.97974717 </i>
    <i name="atom">  43643.51795008 </i>
    <i name="e_fr_energy">   5648.31557551 </i>
    <i name="e_wo_entrp">   5648.31557551 </i>
    <i name="e_0_energy">   5648.31557551 </i>
   </energy>
  </scstep>
  <scstep>
   <time name="dav">   62.66   62.75</time>
   <time name="total">   62.67   62.76</time>
   <energy>
    <i name="e_fr_energy">    733.34526618 </i>
    <i name="e_wo_entrp">    733.34526618 </i>
    <i name="e_0_energy">    733.34526618 </i>
   </energy>
  </scstep>
  <scstep>
   <time name="dav">   70.34   70.43</time>
   <time name="total">   70.34   70.43</time>
   <energy>
    <i name="e_fr_energy">   -241.73092575 </i>
    <i name="e_wo_entrp">   -241.73092575 </i>
    <i name="e_0_energy">   -241.73092575 </i>
   </energy>
  </scstep>
  <scstep>
   <time name="dav">   73.20   73.36</time>
   <time name="total">   73.20   73.36</time>
   <energy>
    <i name="e_fr_energy">   -328.84598705 </i>
    <i name="e_wo_entrp">   -328.84598705 </i>
    <i name="e_0_energy">   -328.84598705 </i>
   </energy>
  </scstep>
  <scstep>
   <time name="dav">   92.50   92.71</time>
   <time name="total">   93.22   93.44</time>
   <energy>
    <i name="e_fr_energy">   -334.65872580 </i>
    <i name="e_wo_entrp">   -334.65872580 </i>
    <i name="e_0_energy">   -334.65872580 </i>
   </energy>
  </scstep>
  <scstep>
   <time name="dav">   85.47   85.71</time>
   <time name="total">   86.26   86.51</time>
   <energy>
    <i name="e_fr_energy">   -281.09413580 </i>
    <i name="e_wo_entrp">   -281.09413580 </i>
    <i name="e_0_energy">   -281.09413580 </i>
   </energy>
  </scstep>
  <scstep>
   <time name="dav">   66.17   66.30</time>
   <time name="total">   66.96   67.09</time>
   <energy>
    <i name="e_fr_energy">   -282.75824072 </i>
    <i name="e_wo_entrp">   -282.75824072 </i>
    <i name="e_0_energy">   -282.75824072 </i>
   </energy>
  </scstep>
  <scstep>
   <time name="dav">   82.16   82.41</time>
   <time name="total">   82.95   83.20</time>
   <energy>
    <i name="e_fr_energy">   -281.54755707 </i>
    <i name="e_wo_entrp">   -281.54755707 </i>
    <i name="e_0_energy">   -281.54755707 </i>
   </energy>
  </scstep>
  <scstep>
   <time name="dav">   71.03   71.21</time>
   <time name="total">   71.81   72.00</time>
   <energy>
    <i name="e_fr_energy">   -281.02433281 </i>
    <i name="e_wo_entrp">   -281.02433281 </i>
    <i name="e_0_energy">   -281.02433281 </i>
   </energy>
  </scstep>
  <scstep>
   <time name="dav">   79.86   80.54</time>
   <time name="total">   80.65   81.33</time>
   <energy>
    <i name="e_fr_energy">   -280.98362798 </i>
    <i name="e_wo_entrp">   -280.98362798 </i>
    <i name="e_0_energy">   -280.98362798 </i>
   </energy>
  </scstep>
  <scstep>
   <time name="dav">   73.01   73.40</time>
   <time name="total">   73.80   74.19</time>
   <energy>
    <i name="e_fr_energy">   -280.95864182 </i>
    <i name="e_wo_entrp">   -280.95864182 </i>
    <i name="e_0_energy">   -280.95864182 </i>
   </energy>
  </scstep>
  <scstep>
   <time name="dav">   73.04   73.47</time>
   <time name="total">   73.83   74.27</time>
   <energy>
    <i name="e_fr_energy">   -280.95898295 </i>
    <i name="e_wo_entrp">   -280.95898295 </i>
    <i name="e_0_energy">   -280.95898295 </i>
   </energy>
  </scstep>
  <scstep>
   <time name="dav">   82.54   82.96</time>
   <time name="total">   83.41   83.83</time>
   <energy>
    <i name="e_fr_energy">   -280.96112915 </i>
    <i name="e_wo_entrp">   -280.96112915 </i>
    <i name="e_0_energy">   -280.96112915 </i>
   </energy>
  </scstep>
  <scstep>
   <time name="dav">   73.53   73.78</time>
   <time name="total">   74.31   74.58</time>
   <energy>
    <i name="e_fr_energy">   -280.96098380 </i>
    <i name="e_wo_entrp">   -280.96098380 </i>
    <i name="e_0_energy">   -280.96098380 </i>
   </energy>
  </scstep>
  <scstep>
   <time name="dav">   70.12   70.37</time>
   <time name="total">   70.91   71.16</time>
   <energy>
    <i name="e_fr_energy">   -280.96109290 </i>
    <i name="e_wo_entrp">   -280.96109290 </i>
    <i name="e_0_energy">   -280.96109290 </i>
   </energy>
  </scstep>
  <scstep>
   <time name="dav">   75.25   75.37</time>
   <time name="total">   76.04   76.16</time>
   <energy>
    <i name="e_fr_energy">   -280.96117092 </i>
    <i name="e_wo_entrp">   -280.96117092 </i>
    <i name="e_0_energy">   -280.96117092 </i>
   </energy>
  </scstep>
  <scstep>
   <time name="dav">   78.08   78.22</time>
   <time name="total">   78.86   79.01</time>
   <energy>
    <i name="e_fr_energy">   -280.96117846 </i>
    <i name="e_wo_entrp">   -280.96117846 </i>
    <i name="e_0_energy">   -280.96117846 </i>
   </energy>
  </scstep>
  <scstep>
   <time name="dav">   73.02   73.17</time>
   <time name="total">   73.81   73.96</time>
   <energy>
    <i name="e_fr_energy">   -280.96118878 </i>
    <i name="e_wo_entrp">   -280.96118878 </i>
    <i name="e_0_energy">   -280.96118878 </i>
   </energy>
  </scstep>
  <scstep>
   <time name="dav">   65.95   66.10</time>
   <time name="total">   66.66   66.91</time>
   <energy>
    <i name="e_fr_energy">   -280.96119108 </i>
    <i name="e_wo_entrp">   -280.96119108 </i>
    <i name="e_0_energy">   -280.96119108 </i>
   </energy>
  </scstep>
  <scstep>
   <time name="dav">   55.98   56.08</time>
   <time name="total">   56.77   56.87</time>
   <energy>
    <i name="e_fr_energy">   -280.96119219 </i>
    <i name="e_wo_entrp">   -280.96119219 </i>
    <i name="e_0_energy">   -280.96119219 </i>
   </energy>
  </scstep>
  <scstep>
   <time name="dav">   45.07   45.06</time>
   <time name="total">   45.13   45.13</time>
   <energy>
    <i name="alphaZ">   1054.17224280 </i>
    <i name="ewald"> -30149.88841304 </i>
    <i name="hartreedc"> -12952.96968416 </i>
    <i name="XCdc">   1198.11781273 </i>
    <i name="pawpsdc">  43562.41289402 </i>
    <i name="pawaedc"> -42790.40447531 </i>
    <i name="eentropy">      0.00000000 </i>
    <i name="bandstr">  -3845.91951983 </i>
    <i name="atom">  43643.51795008 </i>
    <i name="e_fr_energy">   -280.96119271 </i>
    <i name="e_wo_entrp">   -280.96119271 </i>
    <i name="e_0_energy">   -280.96119271 </i>
   </energy>
  </scstep>
  <structure>
   <crystal>
    <varray name="basis" >
     <v>      11.17850000       0.00000000       0.00000000 </v>
     <v>       0.00000000       9.57460000       0.00000000 </v>
     <v>       0.00000000       0.00000000      11.18240000 </v>
    </varray>
    <i name="volume">   1196.84853820 </i>
    <varray name="rec_basis" >
     <v>       0.08945744       0.00000000       0.00000000 </v>
     <v>       0.00000000       0.10444301       0.00000000 </v>
     <v>       0.00000000       0.00000000       0.08942624 </v>
    </varray>
   </crystal>
   <varray name="positions" >
    <v>       0.62539000       0.99984000       0.43687000 </v>
    <v>       0.62461000       0.99984000       0.18687000 </v>
    <v>       0.12461000       0.99984000       0.68687000 </v>
    <v>       0.87539000       0.00017000       0.93687000 </v>
    <v>       0.37461000       0.00017000       0.18687000 </v>
    <v>       0.87461000       0.00017000       0.18687000 </v>
    <v>       0.12539000       0.99984000       0.93687000 </v>
    <v>       0.62539000       0.99984000       0.93687000 </v>
    <v>       0.62461000       0.99984000       0.68687000 </v>
    <v>       0.87461000       0.00017000       0.68687000 </v>
    <v>       0.00013000       0.29519000       0.06281000 </v>
    <v>       0.25013000       0.70481000       0.06281000 </v>
    <v>       0.24987000       0.29519000       0.31282000 </v>
    <v>       0.49987000       0.70481000       0.31282000 </v>
    <v>       0.50013000       0.29519000       0.06281000 </v>
    <v>       0.75013000       0.70481000       0.06281000 </v>
    <v>       0.74987000       0.29519000       0.31282000 </v>
    <v>       0.99987000       0.70481000       0.31282000 </v>
    <v>       0.00013000       0.29519000       0.56281000 </v>
    <v>       0.25013000       0.70481000       0.56281000 </v>
    <v>       0.24987000       0.29519000       0.81282000 </v>
    <v>       0.49987000       0.70481000       0.81282000 </v>
    <v>       0.50013000       0.29519000       0.56281000 </v>
    <v>       0.75013000       0.70481000       0.56281000 </v>
    <v>       0.74987000       0.29519000       0.81282000 </v>
    <v>       0.99987000       0.70481000       0.81282000 </v>
    <v>       0.25005000       0.32677000       0.06286000 </v>
    <v>       0.00005000       0.67323000       0.06286000 </v>
    <v>       0.49995000       0.32677000       0.31286000 </v>
    <v>       0.24995000       0.67323000       0.31286000 </v>
    <v>       0.75005000       0.32677000       0.06286000 </v>
    <v>       0.50005000       0.67323000       0.06286000 </v>
    <v>       0.99995000       0.32677000       0.31286000 </v>
    <v>       0.74995000       0.67323000       0.31286000 </v>
    <v>       0.25005000       0.32677000       0.56286000 </v>
    <v>       0.00005000       0.67323000       0.56286000 </v>
    <v>       0.49995000       0.32677000       0.81286000 </v>
    <v>       0.24995000       0.67323000       0.81286000 </v>
    <v>       0.75005000       0.32677000       0.56286000 </v>
    <v>       0.50005000       0.67323000       0.56286000 </v>
    <v>       0.99995000       0.32677000       0.81286000 </v>
    <v>       0.74995000       0.67323000       0.81286000 </v>
    <v>       0.49987000       0.07798000       0.06246000 </v>
    <v>       0.24987000       0.92202000       0.06246000 </v>
    <v>       0.25013000       0.07798000       0.31246000 </v>
    <v>       0.00013000       0.92202000       0.31246000 </v>
    <v>       0.99987000       0.07798000       0.06246000 </v>
    <v>       0.74987000       0.92202000       0.06246000 </v>
    <v>       0.75013000       0.07798000       0.31246000 </v>
    <v>       0.50013000       0.92202000       0.31246000 </v>
    <v>       0.49987000       0.07798000       0.56246000 </v>
    <v>       0.24987000       0.92202000       0.56246000 </v>
    <v>       0.25013000       0.07798000       0.81246000 </v>
    <v>       0.00013000       0.92202000       0.81246000 </v>
    <v>       0.99987000       0.07798000       0.56246000 </v>
    <v>       0.74987000       0.92202000       0.56246000 </v>
    <v>       0.75013000       0.07798000       0.81246000 </v>
    <v>       0.50013000       0.92202000       0.81246000 </v>
   </varray>
  </structure>
  <varray name="forces" >
   <v>      -0.32850673       0.12230030      -0.24818794 </v>
   <v>      -0.26433375       0.06439105       0.79161533 </v>
   <v>       1.18280905       0.10993845      -1.18724881 </v>
   <v>       0.35176119      -0.00345596       0.27333582 </v>
   <v>      -1.33915873       0.04779980       0.78454374 </v>
   <v>       1.37513284      -0.09100214       1.83790360 </v>
   <v>       1.60497225       0.21346412       0.67165478 </v>
   <v>      -1.63935946      -0.21289995       0.64683975 </v>
   <v>      -2.35154067      -0.11731708      -1.42228385 </v>
   <v>       1.40240527       0.08229099      -1.81269604 </v>
   <v>       0.63670295       1.08960054       0.61947821 </v>
   <v>      -0.03751157      -0.01057772       0.34945995 </v>
   <v>      -0.22645837      -1.89919876       0.52764201 </v>
   <v>      -0.54512664      -0.04933122       0.51463609 </v>
   <v>      -0.62305635       1.04498248       0.21294314 </v>
   <v>       0.01129754      -2.15462872       0.48908434 </v>
   <v>       0.13990715       0.13722338       0.44624565 </v>
   <v>       0.62065442       1.87071011       0.44837978 </v>
   <v>       0.65459253      -0.83341169      -0.67629393 </v>
   <v>       0.08297389       2.57914619      -0.37403013 </v>
   <v>       0.33858335      -0.82819462      -0.51437408 </v>
   <v>      -0.96478493      -0.23166386      -0.39416521 </v>
   <v>      -0.89658883      -0.88741022      -0.32796337 </v>
   <v>       0.14378732      -1.22140998      -0.68341214 </v>
   <v>       0.01125988       3.06035240      -0.28080631 </v>
   <v>       0.64772462      -2.14110394      -0.43579271 </v>
   <v>       0.00054976       0.14017422      -0.23071378 </v>
   <v>      -0.39551856      -0.01291395      -0.45984964 </v>
   <v>       0.37089679       0.20818654      -0.38097352 </v>
   <v>       0.30681278      -0.19637665      -0.49253107 </v>
   <v>      -0.00685012      -0.10581463      -0.31931369 </v>
   <v>       0.39883923      -0.02294317      -0.13516656 </v>
   <v>      -0.46625733       0.11996378      -0.40216255 </v>
   <v>      -0.16959460      -0.12430529      -0.31447083 </v>
   <v>      -0.02272192       0.25986616       0.27845316 </v>
   <v>      -0.62551319      -0.10020340       0.61760535 </v>
   <v>       0.63648602      -0.04192092       0.27119089 </v>
   <v>      -0.24546052      -0.11786934       0.42502543 </v>
   <v>       0.01196912       0.05102411       0.49618094 </v>
   <v>       0.63115754      -0.12286919       0.22858591 </v>
   <v>      -0.50940619       0.05547128       0.26295881 </v>
   <v>       0.08206720       0.16851204       0.14325492 </v>
   <v>       1.11129486      -0.80330399       0.35452728 </v>
   <v>      -0.05642892      -0.25102830      -0.21694709 </v>
   <v>       1.09138951       1.61540772      -1.20839333 </v>
   <v>      -1.27714768      -1.47774952      -1.27114042 </v>
   <v>      -0.98279742      -0.88285957      -1.04289735 </v>
   <v>      -0.03776583       1.82446855      -0.47828142 </v>
   <v>      -0.25767466      -0.10843965      -1.38823284 </v>
   <v>       0.44174776      -0.02937279      -1.36594855 </v>
   <v>       1.99676362       0.62999533       0.61148979 </v>
   <v>      -0.53678777      -2.24415564       0.66549986 </v>
   <v>      -1.85336854       0.60239947       0.69840608 </v>
   <v>      -0.60384551       1.63765837       0.28469991 </v>
   <v>      -0.87261682       0.54821286       2.03084352 </v>
   <v>      -0.50060003       1.02599351       1.96473774 </v>
   <v>      -0.23340552      -2.44051565      -0.14961836 </v>
   <v>       2.58564877       0.45471376       0.26667375 </v>
  </varray>
  <varray name="stress" >
   <v>      -2.82380217       0.49301529      -0.01182086 </v>
   <v>       0.49301528     -11.12095527       0.31224542 </v>
   <v>      -0.01182082       0.31224526      -1.78441119 </v>
  </varray>
  <energy>
   <i name="e_fr_energy">   -292.57210591 </i>
   <i name="e_wo_entrp">   -292.57210591 </i>
   <i name="e_0_energy">      0.00000000 </i>
  </energy>
  <time name="totalsc"> 1644.14 1649.20</time>
 </calculation>
 <calculation>
  <scstep>
   <time name="dav">   65.09   66.16</time>
   <time name="total">   65.88   66.95</time>
   <energy>
    <i name="alphaZ">   1064.55337579 </i>
    <i name="ewald"> -30227.14331801 </i>
    <i name="hartreedc"> -12997.77106184 </i>
    <i name="XCdc">   1203.90805930 </i>
    <i name="pawpsdc">  43562.45936347 </i>
    <i name="pawaedc"> -42790.45126856 </i>
    <i name="eentropy">      0.00000000 </i>
    <i name="bandstr">  -3738.65533721 </i>
    <i name="atom">  43643.51795008 </i>
    <i name="e_fr_energy">   -279.58223698 </i>
    <i name="e_wo_entrp">   -279.58223698 </i>
    <i name="e_0_energy">   -279.58223698 </i>
   </energy>
  </scstep>
  <scstep>
   <time name="dav">   72.87   73.05</time>
   <time name="total">   73.66   73.84</time>
   <energy>
    <i name="e_fr_energy">   -284.54295912 </i>
    <i name="e_wo_entrp">   -284.54295912 </i>
    <i name="e_0_energy">   -284.54295912 </i>
   </energy>
  </scstep>
  <scstep>
   <time name="dav">   87.79   87.76</time>
   <time name="total">   88.58   88.55</time>
   <energy>
    <i name="e_fr_energy">   -284.29608207 </i>
    <i name="e_wo_entrp">   -284.29608207 </i>
    <i name="e_0_energy">   -284.29608207 </i>
   </energy>
  </scstep>
  <scstep>
   <time name="dav">   78.07   78.04</time>
   <time name="total">   78.95   78.92</time>
   <energy>
    <i name="e_fr_energy">   -284.12864686 </i>
    <i name="e_wo_entrp">   -284.12864686 </i>
    <i name="e_0_energy">   -284.12864686 </i>
   </energy>
  </scstep>
  <scstep>
   <time name="dav">   79.87   80.05</time>
   <time name="total">   80.66   80.84</time>
   <energy>
    <i name="e_fr_energy">   -284.07803885 </i>
    <i name="e_wo_entrp">   -284.07803885 </i>
    <i name="e_0_energy">   -284.07803885 </i>
   </energy>
  </scstep>
  <scstep>
   <time name="dav">   87.20   87.39</time>
   <time name="total">   87.94   88.19</time>
   <energy>
    <i name="e_fr_energy">   -284.07592550 </i>
    <i name="e_wo_entrp">   -284.07592550 </i>
    <i name="e_0_energy">   -284.07592550 </i>
   </energy>
  </scstep>
  <scstep>
   <time name="dav">   77.73   78.24</time>
   <time name="total">   78.53   79.05</time>
   <energy>
    <i name="e_fr_energy">   -284.07480246 </i>
    <i name="e_wo_entrp">   -284.07480246 </i>
    <i name="e_0_energy">   -284.07480246 </i>
   </energy>
  </scstep>
  <scstep>
   <time name="dav">   70.18   70.16</time>
   <time name="total">   70.99   70.98</time>
   <energy>
    <i name="e_fr_energy">   -284.07379072 </i>
    <i name="e_wo_entrp">   -284.07379072 </i>
    <i name="e_0_energy">   -284.07379072 </i>
   </energy>
  </scstep>
  <scstep>
   <time name="dav">   88.57   88.56</time>
   <time name="total">   89.36   89.35</time>
   <energy>
    <i name="e_fr_energy">   -284.07380292 </i>
    <i name="e_wo_entrp">   -284.07380292 </i>
    <i name="e_0_energy">   -284.07380292 </i>
   </energy>
  </scstep>
  <scstep>
   <time name="dav">   69.87   70.53</time>
   <time name="total">   70.66   71.32</time>
   <energy>
    <i name="e_fr_energy">   -284.07384279 </i>
    <i name="e_wo_entrp">   -284.07384279 </i>
    <i name="e_0_energy">   -284.07384279 </i>
   </energy>
  </scstep>
  <scstep>
   <time name="dav">   80.19   80.48</time>
   <time name="total">   80.98   81.28</time>
   <energy>
    <i name="e_fr_energy">   -284.07385440 </i>
    <i name="e_wo_entrp">   -284.07385440 </i>
    <i name="e_0_energy">   -284.07385440 </i>
   </energy>
  </scstep>
  <scstep>
   <time name="dav">   69.79   70.13</time>
   <time name="total">   70.58   70.92</time>
   <energy>
    <i name="e_fr_energy">   -284.07385809 </i>
    <i name="e_wo_entrp">   -284.07385809 </i>
    <i name="e_0_energy">   -284.07385809 </i>
   </energy>
  </scstep>
  <scstep>
   <time name="dav">   65.11   65.35</time>
   <time name="total">   65.19   65.42</time>
   <energy>
    <i name="alphaZ">   1064.55337579 </i>
    <i name="ewald"> -30227.14331801 </i>
    <i name="hartreedc"> -12925.76598888 </i>
    <i name="XCdc">   1201.07797848 </i>
    <i name="pawpsdc">  43883.66886865 </i>
    <i name="pawaedc"> -43114.31691801 </i>
    <i name="eentropy">      0.00000000 </i>
    <i name="bandstr">  -3809.66580675 </i>
    <i name="atom">  43643.51795008 </i>
    <i name="e_fr_energy">   -284.07385866 </i>
    <i name="e_wo_entrp">   -284.07385866 </i>
    <i name="e_0_energy">   -284.07385866 </i>
   </energy>
  </scstep>
  <structure>
   <crystal>
    <varray name="basis" >
     <v>      11.15888675       0.00342433      -0.00008210 </v>
     <v>       0.00293301       9.50844015       0.00185758 </v>
     <v>      -0.00008213       0.00216952      11.17000171 </v>
    </varray>
    <i name="volume">   1185.17731144 </i>
    <varray name="rec_basis" >
     <v>       0.08961468      -0.00002764       0.00000066 </v>
     <v>      -0.00003227       0.10516974      -0.00002043 </v>
     <v>       0.00000066      -0.00001749       0.08952550 </v>
    </varray>
   </crystal>
   <varray name="positions" >
    <v>       0.62397228       0.00045622       0.43579928 </v>
    <v>       0.62346922       0.00016444       0.19028515 </v>
    <v>       0.12971461       0.00039394       0.68174802 </v>
    <v>       0.87690808       0.00015259       0.93804921 </v>
    <v>       0.36883064       0.00041084       0.19025465 </v>
    <v>       0.88054461      -0.00028852       0.19479901 </v>
    <v>       0.13231652       0.00091556       0.93976763 </v>
    <v>       0.61831507       0.99876728       0.93966057 </v>
    <v>       0.61446154       0.99924889       0.68073404 </v>
    <v>       0.88066231       0.00058463       0.67904974 </v>
    <v>       0.00287780       0.30068007       0.06548253 </v>
    <v>       0.24996811       0.70475670       0.06431763 </v>
    <v>       0.24889268       0.28562068       0.31509633 </v>
    <v>       0.49751742       0.70456144       0.31504022 </v>
    <v>       0.49744110       0.30045526       0.06372867 </v>
    <v>       0.75017876       0.69395367       0.06491999 </v>
    <v>       0.75047379       0.29588141       0.31474517 </v>
    <v>       0.00254854       0.71423577       0.31475438 </v>
    <v>       0.00295500       0.29099077       0.55989236 </v>
    <v>       0.25048809       0.71780531       0.56119637 </v>
    <v>       0.25133121       0.29101705       0.81060091 </v>
    <v>       0.49570631       0.70364274       0.81111951 </v>
    <v>       0.49626062       0.29071869       0.56139511 </v>
    <v>       0.75075054       0.69865579       0.55986165 </v>
    <v>       0.74991859       0.31060992       0.81160856 </v>
    <v>       0.00266536       0.69402182       0.81093992 </v>
    <v>       0.25005237       0.32747628       0.06186466 </v>
    <v>      -0.00165693       0.67316493       0.06087614 </v>
    <v>       0.50155067       0.32781897       0.31121642 </v>
    <v>       0.25127410       0.67224054       0.31073514 </v>
    <v>       0.75002044       0.32623684       0.06148243 </v>
    <v>       0.50177126       0.67311440       0.06227687 </v>
    <v>       0.99793779       0.32737445       0.31112501 </v>
    <v>       0.74921809       0.67260367       0.31150332 </v>
    <v>       0.24995194       0.32807936       0.56406129 </v>
    <v>      -0.00264950       0.67272511       0.56552445 </v>
    <v>       0.50269686       0.32655878       0.81402996 </v>
    <v>       0.24889067       0.67263610       0.81469363 </v>
    <v>       0.75010165       0.32702709       0.56500060 </v>
    <v>       0.50277386       0.67261091       0.56384616 </v>
    <v>       0.99775157       0.32704950       0.81399445 </v>
    <v>       0.75030417       0.67407907       0.81347802 </v>
    <v>       0.50466598       0.07393247       0.06398949 </v>
    <v>       0.24962647       0.92075517       0.06152406 </v>
    <v>       0.25484007       0.08611941       0.30724680 </v>
    <v>      -0.00538174       0.91457420       0.30697610 </v>
    <v>       0.99562858       0.07353162       0.05796077 </v>
    <v>       0.74970702       0.93121278       0.06039662 </v>
    <v>       0.74901796       0.07743362       0.30647094 </v>
    <v>       0.50203644       0.92187200       0.30656708 </v>
    <v>       0.50848736       0.08115430       0.56509806 </v>
    <v>       0.24755340       0.91071258       0.56533107 </v>
    <v>       0.24213148       0.08101525       0.81547304 </v>
    <v>      -0.00247599       0.93027152       0.81368824 </v>
    <v>       0.99610408       0.08074223       0.57122138 </v>
    <v>       0.74770958       0.92718958       0.57093619 </v>
    <v>       0.74912270       0.06568320       0.81181452 </v>
    <v>       0.51128879       0.92431112       0.81361047 </v>
   </varray>
  </structure>
  <varray name="forces" >
   <v>      -0.11053391       0.06861875      -0.23777415 </v>
   <v>      -0.02147035       0.04698860       0.33117942 </v>
   <v>       0.77611968       0.07288054      -0.64857685 </v>
   <v>      -0.01030814      -0.00425422      -0.01028302 </v>
   <v>      -0.39980120      -0.12725899       0.07201218 </v>
   <v>       0.31913244       0.19632348       0.24125634 </v>
   <v>       0.25298276       0.03081485       0.40439789 </v>
   <v>      -0.09115165      -0.00049251       0.29158675 </v>
   <v>      -0.22926705      -0.27968942       0.22981050 </v>
   <v>      -0.20678754      -0.24968877       0.04170463 </v>
   <v>       0.12593561      -0.16905151       0.11583932 </v>
   <v>      -0.03730702      -0.55980801       0.16012262 </v>
   <v>      -0.21870346       2.28075143       0.39532426 </v>
   <v>      -0.23665894      -0.23223822       0.17504390 </v>
   <v>      -0.11764444      -0.07017149       0.07740453 </v>
   <v>       0.01571170       0.24617629       0.04502490 </v>
   <v>       0.01523004       0.09546361       0.11600339 </v>
   <v>       0.45130690      -2.00300403       0.33013196 </v>
   <v>       0.24317530       0.55242429      -0.27049361 </v>
   <v>       0.16329758      -3.76994318      -0.29738627 </v>
   <v>       0.18244242       0.60366753      -0.24209706 </v>
   <v>      -0.31736125       0.23246304      -0.12626144 </v>
   <v>      -0.46084177       0.69945980      -0.17767007 </v>
   <v>       0.07969218       0.19491831      -0.10164547 </v>
   <v>       0.07603613      -0.14412282      -0.07355653 </v>
   <v>       0.10006717       0.12921875      -0.14010791 </v>
   <v>       0.00398832       0.09938368      -0.08682247 </v>
   <v>      -0.14885478      -0.15351508      -0.13671523 </v>
   <v>       0.13949365       0.19100887      -0.17029364 </v>
   <v>       0.22133295      -0.06964656      -0.35230571 </v>
   <v>      -0.01154277       0.22825230      -0.07070510 </v>
   <v>       0.15161854      -0.13328106      -0.07569909 </v>
   <v>      -0.25539502       0.00839941      -0.23461494 </v>
   <v>      -0.04296782      -0.14821182      -0.15630335 </v>
   <v>      -0.02944886       0.08061878       0.15927093 </v>
   <v>      -0.35847655      -0.08810469       0.31880571 </v>
   <v>       0.26715574       0.04689573       0.08133106 </v>
   <v>      -0.12679678      -0.10355213       0.23124856 </v>
   <v>       0.01714967       0.19733389       0.19565663 </v>
   <v>       0.36447341      -0.07142808       0.15712602 </v>
   <v>      -0.16367808       0.31381471       0.07908498 </v>
   <v>       0.00030946      -0.31875708       0.03638972 </v>
   <v>       0.13565697       0.46331024       0.71178933 </v>
   <v>       0.13554426       0.19597662       0.11503445 </v>
   <v>       0.75989411      -2.36473805      -0.85853795 </v>
   <v>      -0.66216507       2.01411140      -0.65277158 </v>
   <v>      -0.33270766       0.45326527      -0.39175691 </v>
   <v>       0.06194658      -0.67378049       0.14628744 </v>
   <v>      -0.18499689       0.03595601      -0.71555993 </v>
   <v>       0.11813740       0.11994836      -0.83458443 </v>
   <v>       0.82668273      -0.41949692      -0.29914115 </v>
   <v>      -0.54614320       4.17227336       0.62862954 </v>
   <v>      -1.14833932      -0.57918573       0.24729050 </v>
   <v>       0.12595993      -0.62727475       0.04605025 </v>
   <v>       0.14126332      -0.29699466       0.83624458 </v>
   <v>      -0.47755903      -0.62244094       0.72696636 </v>
   <v>      -0.33037984       0.76632388      -0.33460773 </v>
   <v>       1.00555146      -0.55691059      -0.04777707 </v>
  </varray>
  <varray name="stress" >
   <v>       7.59145399      -1.23722868      -0.03107883 </v>
   <v>      -1.23722850      13.18569474      -1.57800690 </v>
   <v>      -0.03107870      -1.57800693       8.29634692 </v>
  </varray>
  <energy>
   <i name="e_fr_energy">   -295.81497627 </i>
   <i name="e_wo_entrp">   -295.81497627 </i>
   <i name="e_0_energy">      0.00000000 </i>
  </energy>
  <time name="totalsc"> 1110.42 1114.67</time>
 </calculation>
 <calculation>
  <scstep>
   <time name="dav">   65.79   65.91</time>
   <time name="total">   66.58   66.70</time>
   <energy>
    <i name="alphaZ">   1063.46838668 </i>
    <i name="ewald"> -30223.50300858 </i>
    <i name="hartreedc"> -12917.39760646 </i>
    <i name="XCdc">   1200.41675642 </i>
    <i name="pawpsdc">  43883.75580012 </i>
    <i name="pawaedc"> -43114.40395287 </i>
    <i name="eentropy">      0.00000000 </i>
    <i name="bandstr">  -3819.93678437 </i>
    <i name="atom">  43643.51795008 </i>
    <i name="e_fr_energy">   -284.08245897 </i>
    <i name="e_wo_entrp">   -284.08245897 </i>
    <i name="e_0_energy">   -284.08245897 </i>
   </energy>
  </scstep>
  <scstep>
   <time name="dav">   69.14   69.51</time>
   <time name="total">   69.92   70.30</time>
   <energy>
    <i name="e_fr_energy">   -284.14314920 </i>
    <i name="e_wo_entrp">   -284.14314920 </i>
    <i name="e_0_energy">   -284.14314920 </i>
   </energy>
  </scstep>
  <scstep>
   <time name="dav">   83.93   84.02</time>
   <time name="total">   84.72   84.81</time>
   <energy>
    <i name="e_fr_energy">   -284.14129112 </i>
    <i name="e_wo_entrp">   -284.14129112 </i>
    <i name="e_0_energy">   -284.14129112 </i>
   </energy>
  </scstep>
  <scstep>
   <time name="dav">   69.85   69.86</time>
   <time name="total">   70.73   70.75</time>
   <energy>
    <i name="e_fr_energy">   -284.13842852 </i>
    <i name="e_wo_entrp">   -284.13842852 </i>
    <i name="e_0_energy">   -284.13842852 </i>
   </energy>
  </scstep>
  <scstep>
   <time name="dav">   83.19   83.18</time>
   <time name="total">   83.98   83.98</time>
   <energy>
    <i name="e_fr_energy">   -284.13788388 </i>
    <i name="e_wo_entrp">   -284.13788388 </i>
    <i name="e_0_energy">   -284.13788388 </i>
   </energy>
  </scstep>
  <scstep>
   <time name="dav">   75.26   75.25</time>
   <time name="total">   76.05   76.04</time>
   <energy>
    <i name="e_fr_energy">   -284.13785162 </i>
    <i name="e_wo_entrp">   -284.13785162 </i>
    <i name="e_0_energy">   -284.13785162 </i>
   </energy>
  </scstep>
  <scstep>
   <time name="dav">   85.52   85.60</time>
   <time name="total">   86.32   86.39</time>
   <energy>
    <i name="e_fr_energy">   -284.13782542 </i>
    <i name="e_wo_entrp">   -284.13782542 </i>
    <i name="e_0_energy">   -284.13782542 </i>
   </energy>
  </scstep>
  <scstep>
   <time name="dav">   73.99   74.49</time>
   <time name="total">   74.78   75.28</time>
   <energy>
    <i name="e_fr_energy">   -284.13781176 </i>
    <i name="e_wo_entrp">   -284.13781176 </i>
    <i name="e_0_energy">   -284.13781176 </i>
   </energy>
  </scstep>
  <scstep>
   <time name="dav">   77.86   77.85</time>
   <time name="total">   78.65   78.64</time>
   <energy>
    <i name="e_fr_energy">   -284.13781220 </i>
    <i name="e_wo_entrp">   -284.13781220 </i>
    <i name="e_0_energy">   -284.13781220 </i>
   </energy>
  </scstep>
  <scstep>
   <time name="dav">   59.23   59.22</time>
   <time name="total">   59.30   59.29</time>
   <energy>
    <i name="alphaZ">   1063.46838668 </i>
    <i name="ewald"> -30223.50300858 </i>
    <i name="hartreedc"> -12925.12106424 </i>
    <i name="XCdc">   1200.73092942 </i>
    <i name="pawpsdc">  43834.05961077 </i>
    <i name="pawaedc"> -43064.16713542 </i>
    <i name="eentropy">      0.00000000 </i>
    <i name="bandstr">  -3813.12348190 </i>
    <i name="atom">  43643.51795008 </i>
    <i name="e_fr_energy">   -284.13781318 </i>
    <i name="e_wo_entrp">   -284.13781318 </i>
    <i name="e_0_energy">   -284.13781318 </i>
   </energy>
  </scstep>
  <structure>
   <crystal>
    <varray name="basis" >
     <v>      11.16092275       0.00306886      -0.00007358 </v>
     <v>       0.00262854       9.51530805       0.00166475 </v>
     <v>      -0.00007361       0.00194430      11.17128875 </v>
    </varray>
    <i name="volume">   1186.38647242 </i>
    <varray name="rec_basis" >
     <v>       0.08959833      -0.00002475       0.00000059 </v>
     <v>      -0.00002890       0.10509382      -0.00001829 </v>
     <v>       0.00000059      -0.00001566       0.08951519 </v>
    </varray>
   </crystal>
   <varray name="positions" >
    <v>       0.62411972       0.00039173       0.43591056 </v>
    <v>       0.62358786       0.00013057       0.18993025 </v>
    <v>       0.12918380       0.00033610       0.68228032 </v>
    <v>       0.87675022       0.00015449       0.93792667 </v>
    <v>       0.36943164       0.00038553       0.18990291 </v>
    <v>       0.87992745      -0.00024018       0.19397499 </v>
    <v>       0.13159626       0.00080346       0.93946651 </v>
    <v>       0.61905077       0.99887921       0.93937055 </v>
    <v>       0.61551687       0.99931015       0.68137171 </v>
    <v>       0.88003295       0.00054133       0.67986245 </v>
    <v>       0.00259220       0.30010636       0.06520488 </v>
    <v>       0.24998494       0.70476230       0.06416095 </v>
    <v>       0.24899405       0.28662098       0.31485960 </v>
    <v>       0.49776205       0.70458739       0.31480949 </v>
    <v>       0.49772086       0.29990480       0.06363329 </v>
    <v>       0.75017339       0.69508853       0.06470052 </v>
    <v>       0.75041102       0.29580921       0.31454512 </v>
    <v>       0.00227025       0.71325064       0.31455352 </v>
    <v>       0.00266112       0.29142975       0.56019549 </v>
    <v>       0.25045121       0.71644688       0.56136429 </v>
    <v>       0.25117915       0.29145325       0.81083145 </v>
    <v>       0.49613926       0.70376455       0.81129621 </v>
    <v>       0.49666288       0.29118590       0.56154208 </v>
    <v>       0.75068584       0.69929905       0.56016794 </v>
    <v>       0.74991397       0.30899804       0.81173472 </v>
    <v>       0.00237438       0.69514957       0.81113511 </v>
    <v>       0.25005215       0.32740243       0.06196811 </v>
    <v>      -0.00147942       0.67317162       0.06108230 </v>
    <v>       0.50138424       0.32770934       0.31138724 </v>
    <v>       0.25113638       0.67234396       0.31095595 </v>
    <v>       0.75002350       0.32629254       0.06162558 </v>
    <v>       0.50159226       0.67312653       0.06233747 </v>
    <v>       0.99814706       0.32731115       0.31130532 </v>
    <v>       0.74929418       0.67266908       0.31164430 </v>
    <v>       0.24996217       0.32794252       0.56393647 </v>
    <v>      -0.00236880       0.67277785       0.56524754 </v>
    <v>       0.50241121       0.32658099       0.81390837 </v>
    <v>       0.24900082       0.67269819       0.81450306 </v>
    <v>       0.75009629       0.32700027       0.56477815 </v>
    <v>       0.50249059       0.67267575       0.56374366 </v>
    <v>       0.99798020       0.32702023       0.81387656 </v>
    <v>       0.75026737       0.67399034       0.81341381 </v>
    <v>       0.50416713       0.07435577       0.06383046 </v>
    <v>       0.24965176       0.92088735       0.06162130 </v>
    <v>       0.25435050       0.08526865       0.30778871 </v>
    <v>      -0.00480877       0.91535217       0.30754588 </v>
    <v>       0.99606952       0.07399634       0.05842827 </v>
    <v>       0.74972422       0.93025180       0.06061121 </v>
    <v>       0.74913359       0.07749055       0.30709333 </v>
    <v>       0.50183819       0.92188740       0.30717949 </v>
    <v>       0.50759133       0.08082288       0.56482396 </v>
    <v>       0.24779399       0.91189453       0.56503251 </v>
    <v>       0.24296333       0.08069775       0.81515997 </v>
    <v>      -0.00220477       0.92940892       0.81356074 </v>
    <v>       0.99649577       0.08045356       0.57031092 </v>
    <v>       0.74793438       0.92664932       0.57005541 </v>
    <v>       0.74922711       0.06696853       0.81188139 </v>
    <v>       0.51012845       0.92407208       0.81349094 </v>
   </varray>
  </structure>
  <varray name="forces" >
   <v>      -0.13432669       0.07440207      -0.23793778 </v>
   <v>      -0.04748419       0.04811714       0.38172287 </v>
   <v>       0.82117579       0.07086904      -0.70698313 </v>
   <v>       0.02963384      -0.00288193       0.02099237 </v>
   <v>      -0.50625390      -0.09354435       0.15681289 </v>
   <v>       0.44794473       0.14000927       0.42584816 </v>
   <v>       0.40048376       0.05051838       0.42262645 </v>
   <v>      -0.26798764      -0.02308809       0.31648575 </v>
   <v>      -0.47508565      -0.23018404       0.03012864 </v>
   <v>      -0.01078335      -0.18212841      -0.18370179 </v>
   <v>       0.18160911      -0.06099737       0.17270891 </v>
   <v>      -0.03724883      -0.49803686       0.18199428 </v>
   <v>      -0.20120052       1.65972946       0.38683558 </v>
   <v>      -0.27272369      -0.21228397       0.21049364 </v>
   <v>      -0.17272650       0.02707260       0.09362257 </v>
   <v>       0.01523349       0.07552193       0.09240786 </v>
   <v>       0.02926056       0.10013755       0.14913506 </v>
   <v>       0.45003271      -1.44041162       0.32225626 </v>
   <v>       0.28533020       0.38818298      -0.30513051 </v>
   <v>       0.13746769      -2.68336687      -0.27971425 </v>
   <v>       0.19032375       0.43036390      -0.27033675 </v>
   <v>      -0.38848553       0.18535695      -0.15798823 </v>
   <v>      -0.50125929       0.50988406      -0.19079627 </v>
   <v>       0.08797964       0.07562865      -0.16309996 </v>
   <v>       0.06952854       0.05554970      -0.09667817 </v>
   <v>       0.16115796      -0.03443785      -0.17501973 </v>
   <v>       0.00352039       0.10489446      -0.10205723 </v>
   <v>      -0.17636335      -0.14106284      -0.17022658 </v>
   <v>       0.16529106       0.19440817      -0.19373758 </v>
   <v>       0.23142940      -0.08672256      -0.37178515 </v>
   <v>      -0.01143064       0.19731093      -0.09626424 </v>
   <v>       0.17957461      -0.12240961      -0.08135663 </v>
   <v>      -0.27901377       0.02176770      -0.25471340 </v>
   <v>      -0.05606858      -0.14643539      -0.17519656 </v>
   <v>      -0.02735385       0.10206897       0.17257729 </v>
   <v>      -0.39269826      -0.09282276       0.35367179 </v>
   <v>       0.30898825       0.03909040       0.10084171 </v>
   <v>      -0.14077508      -0.10747977       0.25427255 </v>
   <v>       0.01585829       0.18293275       0.23016740 </v>
   <v>       0.39695415      -0.07932115       0.16536584 </v>
   <v>      -0.20150591       0.28889061       0.09756078 </v>
   <v>       0.00726778      -0.27488706       0.04711192 </v>
   <v>       0.24792025       0.34109042       0.66644892 </v>
   <v>       0.11134567       0.14682675       0.07455624 </v>
   <v>       0.78645345      -1.77958653      -0.88357240 </v>
   <v>      -0.72773750       1.51678858      -0.71879985 </v>
   <v>      -0.40715437       0.33529590      -0.46739639 </v>
   <v>       0.05467516      -0.48822051       0.08332733 </v>
   <v>      -0.19382555       0.01925174      -0.78799571 </v>
   <v>       0.15708972       0.10525433      -0.89329585 </v>
   <v>       0.97774398      -0.31910644      -0.16442688 </v>
   <v>      -0.52900416       3.08850179       0.60931791 </v>
   <v>      -1.22230527      -0.43897994       0.30319280 </v>
   <v>       0.04846356      -0.45807226       0.07460651 </v>
   <v>      -0.00443240      -0.21939776       0.99090441 </v>
   <v>      -0.48214975      -0.47504639       0.86506176 </v>
   <v>      -0.32538935       0.55276479      -0.32160819 </v>
   <v>       1.19303608      -0.43756962      -0.00323723 </v>
  </varray>
  <varray name="stress" >
   <v>       6.18894558      -0.90209332      -0.00921838 </v>
   <v>      -0.90209339       8.04862585      -1.31052717 </v>
   <v>      -0.00921846      -1.31052703       6.88958823 </v>
  </varray>
  <energy>
   <i name="e_fr_energy">   -295.86435057 </i>
   <i name="e_wo_entrp">   -295.86435057 </i>
   <i name="e_0_energy">      0.00000000 </i>
  </energy>
  <time name="totalsc">  859.56  861.58</time>
 </calculation>
 <calculation>
  <scstep>
   <time name="dav">   67.04   67.89</time>
   <time name="total">   67.73   68.72</time>
   <energy>
    <i name="alphaZ">   1053.31393462 </i>
    <i name="ewald"> -30226.38908321 </i>
    <i name="hartreedc"> -12789.29489624 </i>
    <i name="XCdc">   1194.69318163 </i>
    <i name="pawpsdc">  43834.19266321 </i>
    <i name="pawaedc"> -43064.29945354 </i>
    <i name="eentropy">      0.00000000 </i>
    <i name="bandstr">  -3928.64739649 </i>
    <i name="atom">  43643.51795008 </i>
    <i name="e_fr_energy">   -282.91309995 </i>
    <i name="e_wo_entrp">   -282.91309995 </i>
    <i name="e_0_energy">   -282.91309995 </i>
   </energy>
  </scstep>
  <scstep>
   <time name="dav">   67.86   68.50</time>
   <time name="total">   68.65   69.29</time>
   <energy>
    <i name="e_fr_energy">   -284.96229470 </i>
    <i name="e_wo_entrp">   -284.96229470 </i>
    <i name="e_0_energy">   -284.96229470 </i>
   </energy>
  </scstep>
  <scstep>
   <time name="dav">   81.32   81.61</time>
   <time name="total">   82.11   82.41</time>
   <energy>
    <i name="e_fr_energy">   -284.89663415 </i>
    <i name="e_wo_entrp">   -284.89663415 </i>
    <i name="e_0_energy">   -284.89663415 </i>
   </energy>
  </scstep>
  <scstep>
   <time name="dav">   78.12   78.47</time>
   <time name="total">   78.91   79.26</time>
   <energy>
    <i name="e_fr_energy">   -284.85486881 </i>
    <i name="e_wo_entrp">   -284.85486881 </i>
    <i name="e_0_energy">   -284.85486881 </i>
   </energy>
  </scstep>
  <scstep>
   <time name="dav">   76.46   76.97</time>
   <time name="total">   77.25   77.76</time>
   <energy>
    <i name="e_fr_energy">   -284.82607709 </i>
    <i name="e_wo_entrp">   -284.82607709 </i>
    <i name="e_0_energy">   -284.82607709 </i>
   </energy>
  </scstep>
  <scstep>
   <time name="dav">   75.77   75.79</time>
   <time name="total">   76.55   76.58</time>
   <energy>
    <i name="e_fr_energy">   -284.82024539 </i>
    <i name="e_wo_entrp">   -284.82024539 </i>
    <i name="e_0_energy">   -284.82024539 </i>
   </energy>
  </scstep>
  <scstep>
   <time name="dav">   75.23   75.26</time>
   <time name="total">   76.04   76.09</time>
   <energy>
    <i name="e_fr_energy">   -284.82038405 </i>
    <i name="e_wo_entrp">   -284.82038405 </i>
    <i name="e_0_energy">   -284.82038405 </i>
   </energy>
  </scstep>
  <scstep>
   <time name="dav">   88.73   88.88</time>
   <time name="total">   89.52   89.67</time>
   <energy>
    <i name="e_fr_energy">   -284.82014960 </i>
    <i name="e_wo_entrp">   -284.82014960 </i>
    <i name="e_0_energy">   -284.82014960 </i>
   </energy>
  </scstep>
  <scstep>
   <time name="dav">   80.00   79.99</time>
   <time name="total">   80.79   80.78</time>
   <energy>
    <i name="e_fr_energy">   -284.82003602 </i>
    <i name="e_wo_entrp">   -284.82003602 </i>
    <i name="e_0_energy">   -284.82003602 </i>
   </energy>
  </scstep>
  <scstep>
   <time name="dav">   72.45   72.48</time>
   <time name="total">   73.22   73.26</time>
   <energy>
    <i name="e_fr_energy">   -284.82005210 </i>
    <i name="e_wo_entrp">   -284.82005210 </i>
    <i name="e_0_energy">   -284.82005210 </i>
   </energy>
  </scstep>
  <scstep>
   <time name="dav">   79.48   79.49</time>
   <time name="total">   80.28   80.28</time>
   <energy>
    <i name="e_fr_energy">   -284.82005631 </i>
    <i name="e_wo_entrp">   -284.82005631 </i>
    <i name="e_0_energy">   -284.82005631 </i>
   </energy>
  </scstep>
  <scstep>
   <time name="dav">   59.02   59.21</time>
   <time name="total">   59.81   60.00</time>
   <energy>
    <i name="e_fr_energy">   -284.82005992 </i>
    <i name="e_wo_entrp">   -284.82005992 </i>
    <i name="e_0_energy">   -284.82005992 </i>
   </energy>
  </scstep>
  <scstep>
   <time name="dav">   61.60   61.59</time>
   <time name="total">   62.41   62.40</time>
   <energy>
    <i name="e_fr_energy">   -284.82006272 </i>
    <i name="e_wo_entrp">   -284.82006272 </i>
    <i name="e_0_energy">   -284.82006272 </i>
   </energy>
  </scstep>
  <scstep>
   <time name="dav">   53.27   53.26</time>
   <time name="total">   53.35   53.33</time>
   <energy>
    <i name="alphaZ">   1053.31393462 </i>
    <i name="ewald"> -30226.38908321 </i>
    <i name="hartreedc"> -12875.82823451 </i>
    <i name="XCdc">   1198.68072585 </i>
    <i name="pawpsdc">  43465.91693237 </i>
    <i name="pawaedc"> -42690.69438416 </i>
    <i name="eentropy">      0.00000000 </i>
    <i name="bandstr">  -3853.33790425 </i>
    <i name="atom">  43643.51795008 </i>
    <i name="e_fr_energy">   -284.82006321 </i>
    <i name="e_wo_entrp">   -284.82006321 </i>
    <i name="e_0_energy">   -284.82006321 </i>
   </energy>
  </scstep>
  <structure>
   <crystal>
    <varray name="basis" >
     <v>      11.19630714      -0.00189985      -0.00016442 </v>
     <v>      -0.00160619       9.54042805      -0.00525842 </v>
     <v>      -0.00016311      -0.00618597      11.21373841 </v>
    </varray>
    <i name="volume">   1197.82380764 </i>
    <varray name="rec_basis" >
     <v>       0.08931517       0.00001504       0.00000131 </v>
     <v>       0.00001779       0.10481713       0.00005782 </v>
     <v>       0.00000132       0.00004915       0.08917635 </v>
    </varray>
   </crystal>
   <varray name="positions" >
    <v>       0.62309602       0.00096041       0.43456085 </v>
    <v>       0.62302070       0.00047369       0.19263981 </v>
    <v>       0.13429767       0.00086585       0.67764774 </v>
    <v>       0.87736285       0.00013428       0.93839367 </v>
    <v>       0.36543414      -0.00000031       0.19165168 </v>
    <v>       0.88372797       0.00030497       0.19831894 </v>
    <v>       0.13551420       0.00139924       0.94218304 </v>
    <v>       0.61564602       0.99841936       0.94160401 </v>
    <v>       0.61024932       0.99797883       0.67953120 </v>
    <v>       0.88192983      -0.00022914       0.67657744 </v>
    <v>       0.00424242       0.30157279       0.06679222 </v>
    <v>       0.24977592       0.70227231       0.06541450 </v>
    <v>       0.24782757       0.29177564       0.31722479 </v>
    <v>       0.49585295       0.70345360       0.31641190 </v>
    <v>       0.49612638       0.30173722       0.06432358 </v>
    <v>       0.75025426       0.69196292       0.06576853 </v>
    <v>       0.75072849       0.29652894       0.31579316 </v>
    <v>       0.00503572       0.70913715       0.31653734 </v>
    <v>       0.00477532       0.29200282       0.55796927 </v>
    <v>       0.25115013       0.70731475       0.55966524 </v>
    <v>       0.25245348       0.29224442       0.80897638 </v>
    <v>       0.49315852       0.70430966       0.81008259 </v>
    <v>       0.49329912       0.29227703       0.56028124 </v>
    <v>       0.75125775       0.69769042       0.55853281 </v>
    <v>       0.75022261       0.31424562       0.81093655 </v>
    <v>       0.00395448       0.69150001       0.80979252 </v>
    <v>       0.25006763       0.32815108       0.06121718 </v>
    <v>      -0.00277356       0.67245100       0.05972624 </v>
    <v>       0.50259726       0.32901262       0.31004061 </v>
    <v>       0.25254106       0.67159439       0.30870233 </v>
    <v>       0.74996543       0.32710043       0.06077653 </v>
    <v>       0.50290490       0.67248121       0.06180650 </v>
    <v>       0.99632021       0.32761503       0.30967165 </v>
    <v>       0.74882218       0.67174052       0.31046842 </v>
    <v>       0.24981471       0.32887125       0.56505143 </v>
    <v>      -0.00489717       0.67215456       0.56759783 </v>
    <v>       0.50460059       0.32670609       0.81471006 </v>
    <v>       0.24806517       0.67197305       0.81616656 </v>
    <v>       0.75017977       0.32799101       0.56643792 </v>
    <v>       0.50504510       0.67208130       0.56475937 </v>
    <v>       0.99642138       0.32854495       0.81465275 </v>
    <v>       0.75041205       0.67289923       0.81381143 </v>
    <v>       0.50675561       0.07474267       0.06713927 </v>
    <v>       0.25004483       0.92120837       0.06163634 </v>
    <v>       0.25919237       0.07905732       0.30238112 </v>
    <v>      -0.00965921       0.92048449       0.30274649 </v>
    <v>       0.99298488       0.07422844       0.05500860 </v>
[...]
       <r>    8.5789    0.0000 </r>
       <r>    8.6643    0.0000 </r>
       <r>    8.6877    0.0000 </r>
       <r>    8.7092    0.0000 </r>
       <r>    8.8328    0.0000 </r>
       <r>    8.9391    0.0000 </r>
       <r>    9.2159    0.0000 </r>
       <r>    9.6248    0.0000 </r>
       <r>    9.9409    0.0000 </r>
       <r>   10.1024    0.0000 </r>
       <r>   10.2285    0.0000 </r>
      </set>
     </set>
    </set>
   </array>
  </eigenvalues>
  <separator name="orbital magnetization" >
   <v name="MAGDIPOLOUT">      0.00000000      0.00000000      0.00000000</v>
  </separator>
  <dos>
   <i name="efermi">      3.94392060 </i>
   <total>
    <array>
     <dimension dim="1">gridpoints</dimension>
     <dimension dim="2">spin</dimension>
     <field>energy</field>
     <field>total</field>
     <field>integrated</field>
     <set>
      <set comment="spin 1">
       <r>   -42.5267     0.0000     0.0000 </r>
       <r>   -42.3425     0.0000     0.0000 </r>
       <r>   -42.1582     0.0000     0.0000 </r>
       <r>   -41.9740     0.0000     0.0000 </r>
       <r>   -41.7898     0.0000     0.0000 </r>
       <r>   -41.6056     0.0000     0.0000 </r>
       <r>   -41.4213     0.0000     0.0000 </r>
       <r>   -41.2371     0.0000     0.0000 </r>
       <r>   -41.0529     0.0000     0.0000 </r>
       <r>   -40.8687     0.0000     0.0000 </r>
       <r>   -40.6844     0.0000     0.0000 </r>
       <r>   -40.5002     0.0000     0.0000 </r>
       <r>   -40.3160     0.0000     0.0000 </r>
       <r>   -40.1318     0.0000     0.0000 </r>
       <r>   -39.9475     0.0000     2.0000 </r>
       <r>   -39.7633     0.0000     4.0000 </r>
       <r>   -39.5791     0.0000     4.0000 </r>
       <r>   -39.3949     0.0000     6.0000 </r>
       <r>   -39.2106     0.0000     6.0000 </r>
       <r>   -39.0264     0.0000     8.0000 </r>
       <r>   -38.8422     0.0000     8.0000 </r>
       <r>   -38.6580     0.0000     8.0000 </r>
       <r>   -38.4738     0.0000     8.0000 </r>
       <r>   -38.2895     0.0000     8.0000 </r>
       <r>   -38.1053     0.0000     8.0000 </r>
       <r>   -37.9211     0.0000     8.0000 </r>
       <r>   -37.7369     0.0000     8.0000 </r>
       <r>   -37.5526     0.0000     8.0000 </r>
       <r>   -37.3684     0.0000     8.0000 </r>
       <r>   -37.1842     0.0000     8.0000 </r>
       <r>   -37.0000     0.0000     8.0000 </r>
       <r>   -36.8157     0.0000     8.0000 </r>
       <r>   -36.6315     0.0000     8.0000 </r>
       <r>   -36.4473     0.0000     8.0000 </r>
       <r>   -36.2631     0.0000     8.0000 </r>
       <r>   -36.0788     0.0000     8.0000 </r>
       <r>   -35.8946     0.0000     8.0000 </r>
       <r>   -35.7104     0.0000     8.0000 </r>
       <r>   -35.5262     0.0000     8.0000 </r>
       <r>   -35.3419     0.0000     8.0000 </r>
       <r>   -35.1577     0.0000     8.0000 </r>
       <r>   -34.9735     0.0000     8.0000 </r>
       <r>   -34.7893     0.0000     8.0000 </r>
       <r>   -34.6050     0.0000     8.0000 </r>
       <r>   -34.4208     0.0000     8.0000 </r>
       <r>   -34.2366     0.0000     8.0000 </r>
       <r>   -34.0524     0.0000     8.0000 </r>
       <r>   -33.8681     0.0000     8.0000 </r>
       <r>   -33.6839     0.0000     8.0000 </r>
       <r>   -33.4997     0.0000     8.0000 </r>
       <r>   -33.3155     0.0000     8.0000 </r>
       <r>   -33.1312     0.0000     8.0000 </r>
       <r>   -32.9470     0.0000     8.0000 </r>
       <r>   -32.7628     0.0000     8.0000 </r>
       <r>   -32.5786     0.0000     8.0000 </r>
       <r>   -32.3943     0.0000     8.0000 </r>
       <r>   -32.2101     0.0000     8.0000 </r>
       <r>   -32.0259     0.0000     8.0000 </r>
       <r>   -31.8417     0.0000     8.0000 </r>
       <r>   -31.6574     0.0000     8.0000 </r>
       <r>   -31.4732     0.0000     8.0000 </r>
       <r>   -31.2890     0.0000     8.0000 </r>
       <r>   -31.1048     0.0000     8.0000 </r>
       <r>   -30.9206     0.0000     8.0000 </r>
       <r>   -30.7363     0.0000     8.0000 </r>
       <r>   -30.5521     0.0000     8.0000 </r>
       <r>   -30.3679     0.0000     8.0000 </r>
       <r>   -30.1837     0.0000     8.0000 </r>
       <r>   -29.9994     0.0000     8.0000 </r>
       <r>   -29.8152     0.0000     8.0000 </r>
       <r>   -29.6310     0.0000     8.0000 </r>
       <r>   -29.4468     0.0000     8.0000 </r>
       <r>   -29.2625     0.0000     8.0000 </r>
       <r>   -29.0783     0.0000     8.0000 </r>
       <r>   -28.8941     0.0000     8.0000 </r>
       <r>   -28.7099     0.0000     8.0000 </r>
       <r>   -28.5256     0.0000     8.0000 </r>
       <r>   -28.3414     0.0000     8.0000 </r>
       <r>   -28.1572     0.0000     8.0000 </r>
       <r>   -27.9730     0.0000     8.0000 </r>
       <r>   -27.7887     0.0000     8.0000 </r>
       <r>   -27.6045     0.0000     8.0000 </r>
       <r>   -27.4203     0.0000     8.0000 </r>
       <r>   -27.2361     0.0000     8.0000 </r>
       <r>   -27.0518     0.0000     8.0000 </r>
       <r>   -26.8676     0.0000     8.0000 </r>
       <r>   -26.6834     0.0000     8.0000 </r>
       <r>   -26.4992     0.0000     8.0000 </r>
       <r>   -26.3149     0.0000     8.0000 </r>
       <r>   -26.1307     0.0000     8.0000 </r>
       <r>   -25.9465     0.0000     8.0000 </r>
       <r>   -25.7623     0.0000     8.0000 </r>
       <r>   -25.5780     0.0000     8.0000 </r>
       <r>   -25.3938     0.0000     8.0000 </r>
       <r>   -25.2096     0.0000     8.0000 </r>
       <r>   -25.0254     0.0000     8.0000 </r>
       <r>   -24.8411     0.0000     8.0000 </r>
       <r>   -24.6569     0.0000     8.0000 </r>
       <r>   -24.4727     0.0000     8.0000 </r>
       <r>   -24.2885     0.0000     8.0000 </r>
       <r>   -24.1042     0.0000     8.0000 </r>
       <r>   -23.9200     0.0000     8.0000 </r>
       <r>   -23.7358     0.0000     8.0000 </r>
       <r>   -23.5516     0.0000     8.0000 </r>
       <r>   -23.3673     0.0000     8.0000 </r>
       <r>   -23.1831     0.0000     8.0000 </r>
       <r>   -22.9989     0.0000     8.0000 </r>
       <r>   -22.8147     0.0000     8.0000 </r>
       <r>   -22.6305     0.0000     8.0000 </r>
       <r>   -22.4462     0.0000     8.0000 </r>
       <r>   -22.2620     0.0000     8.0000 </r>
       <r>   -22.0778     0.0000     8.0000 </r>
       <r>   -21.8936     0.0000     8.0000 </r>
       <r>   -21.7093     0.0000     8.0000 </r>
       <r>   -21.5251     0.0000     8.0000 </r>
       <r>   -21.3409     0.0000     8.0000 </r>
       <r>   -21.1567     0.0000     8.0000 </r>
       <r>   -20.9724     0.0000     8.0000 </r>
       <r>   -20.7882     0.0000     8.0000 </r>
       <r>   -20.6040     0.0000     8.0000 </r>
       <r>   -20.4198     0.0000     8.0000 </r>
       <r>   -20.2355     0.0000     8.0000 </r>
       <r>   -20.0513     0.0000     8.0000 </r>
       <r>   -19.8671     0.0000     8.0000 </r>
       <r>   -19.6829     0.0000     8.0000 </r>
       <r>   -19.4986     0.0000     8.0000 </r>
       <r>   -19.3144     0.0000     8.0000 </r>
       <r>   -19.1302     0.0000     8.0000 </r>
       <r>   -18.9460     0.0000    42.0000 </r>
       <r>   -18.7617     0.0000   110.0000 </r>
       <r>   -18.5775     0.0000   152.0000 </r>
       <r>   -18.3933     0.0000   168.0000 </r>
       <r>   -18.2091     0.0000   168.0000 </r>
       <r>   -18.0248     0.0000   168.0000 </r>
       <r>   -17.8406     0.0000   168.0000 </r>
       <r>   -17.6564     0.0000   168.0000 </r>
       <r>   -17.4722     0.0000   168.0000 </r>
       <r>   -17.2879     0.0000   168.0000 </r>
       <r>   -17.1037     0.0000   168.0000 </r>
       <r>   -16.9195     0.0000   168.0000 </r>
       <r>   -16.7353     0.0000   168.0000 </r>
       <r>   -16.5510     0.0000   168.0000 </r>
       <r>   -16.3668     0.0000   168.0000 </r>
       <r>   -16.1826     0.0000   168.0000 </r>
       <r>   -15.9984     0.0000   168.0000 </r>
       <r>   -15.8141     0.0000   168.0000 </r>
       <r>   -15.6299     0.0000   168.0000 </r>
       <r>   -15.4457     0.0000   168.0000 </r>
       <r>   -15.2615     0.0000   168.0000 </r>
       <r>   -15.0773     0.0000   168.0000 </r>
       <r>   -14.8930     0.0000   168.0000 </r>
       <r>   -14.7088     0.0000   168.0000 </r>
       <r>   -14.5246     0.0000   168.0000 </r>
       <r>   -14.3404     0.0000   168.0000 </r>
       <r>   -14.1561     0.0000   168.0000 </r>
       <r>   -13.9719     0.0000   168.0000 </r>
       <r>   -13.7877     0.0000   168.0000 </r>
       <r>   -13.6035     0.0000   170.0000 </r>
       <r>   -13.4192   236.5394   171.6932 </r>
       <r>   -13.2350     0.0000   178.0000 </r>
       <r>   -13.0508     0.0000   186.0000 </r>
       <r>   -12.8666     0.0000   190.0000 </r>
       <r>   -12.6823     0.0000   196.0000 </r>
       <r>   -12.4981  3626.5035   198.0483 </r>
       <r>   -12.3139     0.0000   200.0000 </r>
       <r>   -12.1297     0.0000   200.0000 </r>
       <r>   -11.9454     0.0000   200.0000 </r>
       <r>   -11.7612     0.0000   200.0000 </r>
       <r>   -11.5770     0.0000   200.0000 </r>
       <r>   -11.3928     0.0000   200.0000 </r>
       <r>   -11.2085     0.0000   200.0000 </r>
       <r>   -11.0243     0.0000   200.0000 </r>
       <r>   -10.8401     0.0000   200.0000 </r>
       <r>   -10.6559     0.0000   200.0000 </r>
       <r>   -10.4716     0.0000   200.0000 </r>
       <r>   -10.2874     0.0000   200.0000 </r>
       <r>   -10.1032     0.0000   200.0000 </r>
       <r>    -9.9190     0.0000   200.0000 </r>
       <r>    -9.7347     0.0000   200.0000 </r>
       <r>    -9.5505     9.6531   200.2520 </r>
       <r>    -9.3663     0.0000   202.0000 </r>
       <r>    -9.1821    13.2395   203.0964 </r>
       <r>    -8.9978     8.0036   204.3728 </r>
       <r>    -8.8136    31.9484   207.3626 </r>
       <r>    -8.6294    14.4495   210.4327 </r>
       <r>    -8.4452    13.5320   214.7086 </r>
       <r>    -8.2609    15.4464   217.0097 </r>
       <r>    -8.0767    32.2159   222.9280 </r>
       <r>    -7.8925    23.8024   227.7357 </r>
       <r>    -7.7083    26.8293   230.5220 </r>
       <r>    -7.5240     0.0000   232.0000 </r>
       <r>    -7.3398     0.0000   232.0000 </r>
       <r>    -7.1556     0.0000   232.0000 </r>
       <r>    -6.9714     0.0000   232.0000 </r>
       <r>    -6.7872     0.0000   232.0000 </r>
       <r>    -6.6029     0.5381   232.0029 </r>
       <r>    -6.4187    12.9141   233.0592 </r>
       <r>    -6.2345    24.5433   236.4887 </r>
       <r>    -6.0503    12.0438   240.3252 </r>
       <r>    -5.8660    14.5049   245.5915 </r>
       <r>    -5.6818    21.1890   249.3047 </r>
       <r>    -5.4976    17.0199   252.5746 </r>
       <r>    -5.3134     7.9581   255.5950 </r>
       <r>    -5.1291     5.3051   256.5496 </r>
       <r>    -4.9449    13.4557   258.3957 </r>
       <r>    -4.7607     8.7279   260.2753 </r>
       <r>    -4.5765     8.0594   261.4607 </r>
       <r>    -4.3922     6.9567   263.1240 </r>
       <r>    -4.2080     2.0318   263.7843 </r>
       <r>    -4.0238     0.2677   263.9934 </r>
       <r>    -3.8396     0.0000   264.0000 </r>
       <r>    -3.6553     0.0000   264.0000 </r>
       <r>    -3.4711     0.0000   264.0000 </r>
       <r>    -3.2869     0.0000   264.0000 </r>
       <r>    -3.1027     0.0000   264.0000 </r>
       <r>    -2.9184     0.0000   264.0000 </r>
       <r>    -2.7342     0.0000   264.0000 </r>
       <r>    -2.5500     0.0000   264.0000 </r>
       <r>    -2.3658     0.0000   264.0000 </r>
       <r>    -2.1815     0.0000   264.0000 </r>
       <r>    -1.9973     0.0000   264.0000 </r>
       <r>    -1.8131     0.0000   264.0000 </r>
       <r>    -1.6289     0.0000   264.0000 </r>
       <r>    -1.4446     0.0178   264.0000 </r>
       <r>    -1.2604     6.7476   264.6460 </r>
       <r>    -1.0762     8.8591   266.3569 </r>
       <r>    -0.8920    11.0727   267.9868 </r>
       <r>    -0.7077    14.1187   270.9476 </r>
       <r>    -0.5235    21.8704   274.7543 </r>
       <r>    -0.3393    34.6103   280.9857 </r>
       <r>    -0.1551    41.1791   287.8728 </r>
       <r>     0.0292    44.1957   294.7252 </r>
       <r>     0.2134    34.7147   301.9069 </r>
       <r>     0.3976    33.2297   309.0086 </r>
       <r>     0.5818    39.7288   316.0995 </r>
       <r>     0.7660    39.7682   323.5998 </r>
       <r>     0.9503    58.1099   332.6938 </r>
       <r>     1.1345    61.8403   341.3747 </r>
       <r>     1.3187    29.2938   349.4679 </r>
       <r>     1.5029    33.6862   357.9694 </r>
       <r>     1.6872    24.7687   365.7767 </r>
       <r>     1.8714    40.8568   373.7644 </r>
       <r>     2.0556    47.9062   381.9317 </r>
       <r>     2.2398    57.9883   391.8027 </r>
       <r>     2.4241    51.4189   402.5992 </r>
       <r>     2.6083    60.9640   413.5655 </r>
       <r>     2.7925    57.6290   423.3867 </r>
       <r>     2.9767    54.9823   433.1035 </r>
       <r>     3.1610    38.7741   441.6157 </r>
       <r>     3.3452    31.5041   448.1906 </r>
       <r>     3.5294    22.5816   452.9944 </r>
       <r>     3.7136     6.0150   455.6753 </r>
       <r>     3.8979     0.0000   456.0000 </r>
       <r>     4.0821     0.0000   456.0000 </r>
       <r>     4.2663     0.0000   456.0000 </r>
       <r>     4.4505     0.0000   456.0000 </r>
       <r>     4.6348     0.0000   456.0000 </r>
       <r>     4.8190     0.0000   456.0000 </r>
       <r>     5.0032     0.0000   456.0000 </r>
       <r>     5.1874     5.2201   456.3581 </r>
       <r>     5.3717    12.4446   458.0918 </r>
       <r>     5.5559    12.5019   460.3931 </r>
       <r>     5.7401    19.5979   463.7657 </r>
       <r>     5.9243    19.8435   467.2839 </r>
       <r>     6.1086    16.3498   470.4824 </r>
       <r>     6.2928    17.1274   473.5345 </r>
       <r>     6.4770    20.0910   476.9444 </r>
       <r>     6.6612    22.5452   480.9119 </r>
       <r>     6.8455    21.5487   485.0230 </r>
       <r>     7.0297    24.3922   489.0320 </r>
       <r>     7.2139    33.0312   494.6204 </r>
       <r>     7.3981    35.4191   500.1816 </r>
       <r>     7.5824    28.5690   505.4769 </r>
       <r>     7.7666    39.4956   511.1881 </r>
       <r>     7.9508    30.1778   517.3327 </r>
       <r>     8.1350    29.7410   522.8841 </r>
       <r>     8.3193    25.8823   528.1134 </r>
       <r>     8.5035    25.6218   533.4813 </r>
       <r>     8.6877    27.5287   538.7073 </r>
       <r>     8.8719    22.0087   543.3711 </r>
       <r>     9.0561    17.3763   547.0709 </r>
       <r>     9.2404    15.3957   549.9921 </r>
       <r>     9.4246     0.0468   552.0000 </r>
       <r>     9.6088     8.3804   553.8270 </r>
       <r>     9.7930     8.6232   555.4750 </r>
       <r>     9.9773    18.6636   557.4445 </r>
       <r>    10.1615     3.8264   559.8896 </r>
       <r>    10.3457     0.0000   560.0000 </r>
       <r>    10.5299     0.0000   560.0000 </r>
       <r>    10.7142     0.0000   560.0000 </r>
       <r>    10.8984     0.0000   560.0000 </r>
       <r>    11.0826     0.0000   560.0000 </r>
       <r>    11.2668     0.0000   560.0000 </r>
       <r>    11.4511     0.0000   560.0000 </r>
       <r>    11.6353     0.0000   560.0000 </r>
       <r>    11.8195     0.0000   560.0000 </r>
       <r>    12.0037     0.0000   560.0000 </r>
       <r>    12.1880     0.0000   560.0000 </r>
       <r>    12.3722     0.0000   560.0000 </r>
       <r>    12.5564     0.0000   560.0000 </r>
       <r>    12.7406     0.0000   560.0000 </r>
      </set>
     </set>
    </array>
   </total>
  </dos>
 </calculation>
 <structure name="finalpos" >
  <crystal>
   <varray name="basis" >
    <v>      11.20598388      -0.06645628      -0.03383475 </v>
    <v>      -0.05654680       9.69567387       0.50133814 </v>
    <v>      -0.03114245       0.59508429      11.23636474 </v>
   </varray>
   <i name="volume">   1217.43270105 </i>
   <varray name="rec_basis" >
    <v>       0.08924172       0.00050908       0.00022038 </v>
    <v>       0.00059682       0.10342540      -0.00547581 </v>
    <v>       0.00024209      -0.00461305       0.08924174 </v>
   </varray>
  </crystal>
  <varray name="positions" >
   <v>       0.40754248       0.01591828       0.47703922 </v>
   <v>       0.62692571      -0.02960926       0.19754996 </v>
   <v>       0.16781428       0.06561391       0.66938059 </v>
   <v>       0.87181380      -0.00267914       0.93926639 </v>
   <v>       0.37700392      -0.02316888       0.15606159 </v>
   <v>       0.88320842      -0.02335124       0.17578941 </v>
   <v>       0.11886959      -0.00138905       0.95188515 </v>
   <v>       0.62732369      -0.00347748       0.94905198 </v>
   <v>       0.62381968       0.01777529       0.68690441 </v>
   <v>       0.88976945       0.02084687       0.70830906 </v>
   <v>       0.00190010       0.30205614       0.06417373 </v>
   <v>       0.24938399       0.68223057       0.06868387 </v>
   <v>       0.26373843       0.24510698       0.31617107 </v>
   <v>       0.49623128       0.65958903       0.31853661 </v>
   <v>       0.50625290       0.30017612       0.06017869 </v>
   <v>       0.74723765       0.67336899       0.06837763 </v>
   <v>       0.75427592       0.24457857       0.31780070 </v>
   <v>       0.00140572       0.66362540       0.31491738 </v>
   <v>       0.00712824       0.33597783       0.55847891 </v>
   <v>       0.24558765       0.76674616       0.55722043 </v>
   <v>       0.24523785       0.32036935       0.81306988 </v>
   <v>       0.50273578       0.69639947       0.80706256 </v>
   <v>       0.50381354       0.32821891       0.55787655 </v>
   <v>       0.75653059       0.74498311       0.55824034 </v>
   <v>       0.75319065       0.32910493       0.80851222 </v>
   <v>       0.00165254       0.69458178       0.81654493 </v>
   <v>       0.24760666       0.31970782       0.07939022 </v>
   <v>       0.00055075       0.62363136       0.05969666 </v>
   <v>       0.49632853       0.33637412       0.31542578 </v>
   <v>       0.24940894       0.62831606       0.30476068 </v>
   <v>       0.74786676       0.34506168       0.07971395 </v>
   <v>       0.50033061       0.62302154       0.04655502 </v>
   <v>      -0.00730992       0.28282829       0.31933844 </v>
   <v>       0.74810037       0.62599170       0.30044646 </v>
   <v>       0.25367427       0.35914229       0.57418395 </v>
   <v>      -0.00305995       0.70069104       0.56133537 </v>
   <v>       0.50490631       0.33950681       0.81808745 </v>
   <v>       0.24530120       0.68580039       0.79805812 </v>
   <v>       0.75291310       0.36608497       0.57412870 </v>
   <v>       0.50055692       0.74417442       0.54563456 </v>
   <v>       0.00035177       0.38128886       0.81798445 </v>
   <v>       0.74644812       0.63946058       0.79096440 </v>
   <v>       0.52080775       0.07880478       0.06477421 </v>
   <v>       0.24585459       0.90042139       0.05661967 </v>
   <v>       0.33267704       0.05486233       0.30410585 </v>
   <v>      -0.00170069       0.86570824       0.26469599 </v>
   <v>       0.98277452       0.08305852       0.04380941 </v>
   <v>       0.75594810       0.90242884       0.05610115 </v>
   <v>       0.75731139       0.04668253       0.27273782 </v>
   <v>       0.49862252       0.85423751       0.23388380 </v>
   <v>       0.51827355       0.11767216       0.57189511 </v>
   <v>       0.26068887       0.97143126       0.56517231 </v>
   <v>       0.20452636       0.11418561       0.82743339 </v>
   <v>      -0.01418737       0.91492879       0.84079897 </v>
   <v>       0.00870612       0.13223237       0.62134714 </v>
   <v>       0.76428453       0.94234640       0.61281757 </v>
   <v>       0.74928079       0.09336800       0.81726131 </v>
   <v>       0.55098364       0.90267670       0.82261880 </v>
  </varray>
 </structure>
</modeling>
