<?xml version="1.0" encoding="ISO-8859-1"?>
<modeling>
 <generator>
  <i name="program" type="string">vasp </i>
  <i name="version" type="string">5.4.4.18Apr17-6-g9f103f2a35  </i>
  <i name="subversion" type="string">(build Jul 31 2017 11:33:29) complex            parallel </i>
  <i name="platform" type="string">LinuxIFC </i>
  <i name="date" type="string">2021 09 23 </i>
  <i name="time" type="string">18:00:42 </i>
 </generator>
 <incar>
  <i type="string" name="SYSTEM"> La2O2S</i>
  <i type="string" name="PREC">normal</i>
  <i type="int" name="NELMIN">     4</i>
  <i type="int" name="IBRION">     2</i>
  <i type="int" name="NFREE">    10</i>
  <i name="EDIFF">      0.00000100</i>
  <i name="EDIFFG">     -0.01000000</i>
  <i type="int" name="NSW">   200</i>
  <i type="int" name="ISIF">     3</i>
  <i name="ENCUT">    600.00000000</i>
  <i name="ENAUG">    900.00000000</i>
  <i type="int" name="ISMEAR">    -5</i>
  <i type="logical" name="LWAVE"> F  </i>
  <i type="logical" name="LCHARG"> F  </i>
  <v type="int" name="KPOINT_BSE">    -1     0     0     0</v>
 </incar>
 <structure name="primitive_cell" >
  <crystal>
   <varray name="basis" >
    <v>      11.17850000       0.00000000       0.00000000 </v>
    <v>       0.00000000       9.57460000       0.00000000 </v>
    <v>       0.00000000       0.00000000      11.18240000 </v>
   </varray>
   <i name="volume">   1196.84853820 </i>
   <varray name="rec_basis" >
    <v>       0.08945744       0.00000000       0.00000000 </v>
    <v>       0.00000000       0.10444301       0.00000000 </v>
    <v>       0.00000000       0.00000000       0.08942624 </v>
   </varray>
  </crystal>
  <varray name="positions" >
   <v>       0.37461000       0.00017000       0.18687000 </v>
   <v>       0.24987000      -0.07798000       0.06246000 </v>
   <v>       0.49987000       0.07798000       0.06246000 </v>
   <v>       0.25013000       0.07798000       0.31246000 </v>
   <v>      -0.49987000      -0.07798000       0.31246000 </v>
   <v>      -0.37539000      -0.00016000       0.18687000 </v>
   <v>       0.12461000      -0.00016000       0.18687000 </v>
   <v>       0.37539000       0.00017000      -0.06313000 </v>
   <v>       0.25013000      -0.29519000       0.06281000 </v>
   <v>      -0.49987000       0.29519000       0.06281000 </v>
   <v>       0.24987000       0.29519000       0.31282000 </v>
   <v>       0.49987000      -0.29519000       0.31282000 </v>
   <v>       0.25005000       0.32677000       0.06286000 </v>
   <v>      -0.49995000      -0.32677000       0.06286000 </v>
   <v>       0.24995000      -0.32677000       0.31286000 </v>
   <v>       0.49995000       0.32677000       0.31286000 </v>
   <v>       0.12539000      -0.00016000      -0.06313000 </v>
   <v>      -0.37461000      -0.00016000      -0.06313000 </v>
   <v>      -0.37461000      -0.00016000       0.43687000 </v>
   <v>       0.25013000       0.07798000      -0.18754000 </v>
   <v>      -0.00013000       0.07798000       0.06246000 </v>
   <v>       0.00013000      -0.07798000       0.31246000 </v>
   <v>      -0.49987000      -0.07798000      -0.18754000 </v>
   <v>      -0.25013000      -0.07798000       0.06246000 </v>
   <v>       0.24987000      -0.07798000      -0.43754000 </v>
   <v>      -0.24987000       0.07798000       0.31246000 </v>
   <v>       0.49987000       0.07798000      -0.43754000 </v>
   <v>       0.24987000       0.29519000      -0.18718000 </v>
   <v>       0.00013000       0.29519000       0.06281000 </v>
   <v>       0.49987000      -0.29519000      -0.18718000 </v>
   <v>      -0.00013000      -0.29519000       0.31282000 </v>
   <v>      -0.24987000      -0.29519000       0.06281000 </v>
   <v>      -0.25013000       0.29519000       0.31282000 </v>
   <v>       0.25013000      -0.29519000      -0.43719000 </v>
   <v>      -0.49987000       0.29519000      -0.43719000 </v>
   <v>       0.24995000      -0.32677000      -0.18714000 </v>
   <v>       0.49995000       0.32677000      -0.18714000 </v>
   <v>       0.00005000      -0.32677000       0.06286000 </v>
   <v>      -0.00005000       0.32677000       0.31286000 </v>
   <v>      -0.24995000       0.32677000       0.06286000 </v>
   <v>      -0.25005000      -0.32677000       0.31286000 </v>
   <v>       0.25005000       0.32677000      -0.43714000 </v>
   <v>      -0.49995000      -0.32677000      -0.43714000 </v>
   <v>      -0.12539000       0.00017000       0.18687000 </v>
   <v>       0.37461000       0.00017000      -0.31313000 </v>
   <v>       0.00013000      -0.07798000      -0.18754000 </v>
   <v>      -0.24987000       0.07798000      -0.18754000 </v>
   <v>      -0.00013000       0.07798000      -0.43754000 </v>
   <v>      -0.25013000      -0.07798000      -0.43754000 </v>
   <v>      -0.12461000       0.00017000       0.43687000 </v>
   <v>      -0.12461000       0.00017000      -0.06313000 </v>
   <v>      -0.37539000      -0.00016000      -0.31313000 </v>
   <v>      -0.00013000      -0.29519000      -0.18718000 </v>
   <v>      -0.25013000       0.29519000      -0.18718000 </v>
   <v>       0.00013000       0.29519000      -0.43719000 </v>
   <v>      -0.24987000      -0.29519000      -0.43719000 </v>
   <v>      -0.00005000       0.32677000      -0.18714000 </v>
   <v>      -0.25005000      -0.32677000      -0.18714000 </v>
   <v>       0.00005000      -0.32677000      -0.43714000 </v>
   <v>      -0.24995000       0.32677000      -0.43714000 </v>
   <v>      -0.12539000       0.00017000      -0.31313000 </v>
  </varray>
 </structure>
 <varray name="primitive_index" >
  <v type="int" >        1 </v>
  <v type="int" >       47 </v>
  <v type="int" >       46 </v>
  <v type="int" >       48 </v>
  <v type="int" >       53 </v>
  <v type="int" >        3 </v>
  <v type="int" >       11 </v>
  <v type="int" >        6 </v>
  <v type="int" >       15 </v>
  <v type="int" >       18 </v>
  <v type="int" >       16 </v>
  <v type="int" >       17 </v>
  <v type="int" >       30 </v>
  <v type="int" >       35 </v>
  <v type="int" >       33 </v>
  <v type="int" >       32 </v>
  <v type="int" >        5 </v>
  <v type="int" >        8 </v>
  <v type="int" >       12 </v>
  <v type="int" >       56 </v>
  <v type="int" >       50 </v>
  <v type="int" >       49 </v>
  <v type="int" >       61 </v>
  <v type="int" >       51 </v>
  <v type="int" >       55 </v>
  <v type="int" >       52 </v>
  <v type="int" >       54 </v>
  <v type="int" >       24 </v>
  <v type="int" >       14 </v>
  <v type="int" >       25 </v>
  <v type="int" >       21 </v>
  <v type="int" >       19 </v>
  <v type="int" >       20 </v>
  <v type="int" >       23 </v>
  <v type="int" >       26 </v>
  <v type="int" >       41 </v>
  <v type="int" >       40 </v>
  <v type="int" >       31 </v>
  <v type="int" >       36 </v>
  <v type="int" >       34 </v>
  <v type="int" >       37 </v>
  <v type="int" >       38 </v>
  <v type="int" >       43 </v>
  <v type="int" >        4 </v>
  <v type="int" >        7 </v>
  <v type="int" >       57 </v>
  <v type="int" >       60 </v>
  <v type="int" >       58 </v>
  <v type="int" >       59 </v>
  <v type="int" >        2 </v>
  <v type="int" >        9 </v>
  <v type="int" >       13 </v>
  <v type="int" >       29 </v>
  <v type="int" >       28 </v>
  <v type="int" >       22 </v>
  <v type="int" >       27 </v>
  <v type="int" >       44 </v>
  <v type="int" >       45 </v>
  <v type="int" >       39 </v>
  <v type="int" >       42 </v>
  <v type="int" >       10 </v>
 </varray>
 <kpoints>
  <generation param="Gamma">
   <v type="int" name="divisions">       2        2        2 </v>
   <v name="usershift">      0.00000000       0.00000000       0.00000000 </v>
   <v name="genvec1">      0.50000000       0.00000000       0.00000000 </v>
   <v name="genvec2">      0.00000000       0.50000000       0.00000000 </v>
   <v name="genvec3">      0.00000000       0.00000000       0.50000000 </v>
   <v name="shift">      0.00000000       0.00000000       0.00000000 </v>
  </generation>
  <varray name="kpointlist" >
   <v>       0.00000000       0.00000000       0.00000000 </v>
   <v>       0.50000000       0.00000000       0.00000000 </v>
   <v>       0.00000000       0.50000000       0.00000000 </v>
   <v>       0.50000000       0.50000000       0.00000000 </v>
   <v>       0.00000000       0.00000000       0.50000000 </v>
   <v>       0.50000000       0.00000000       0.50000000 </v>
   <v>       0.00000000       0.50000000       0.50000000 </v>
   <v>       0.50000000       0.50000000       0.50000000 </v>
  </varray>
  <varray name="weights" >
   <v>       0.12500000 </v>
   <v>       0.12500000 </v>
   <v>       0.12500000 </v>
   <v>       0.12500000 </v>
   <v>       0.12500000 </v>
   <v>       0.12500000 </v>
   <v>       0.12500000 </v>
   <v>       0.12500000 </v>
  </varray>
  <varray name="tetrahedronlist"  type="int" >
   <v type="int" >        2        1        2        4        5 </v>
   <v type="int" >        2        1        3        4        5 </v>
   <v type="int" >        2        3        4        5        7 </v>
   <v type="int" >        2        2        4        5        6 </v>
   <v type="int" >        2        4        5        6        8 </v>
   <v type="int" >        2        4        5        7        8 </v>
   <v type="int" >        2        1        2        3        6 </v>
   <v type="int" >        2        2        3        4        6 </v>
   <v type="int" >        2        3        4        6        8 </v>
   <v type="int" >        2        1        3        5        6 </v>
   <v type="int" >        2        3        5        6        7 </v>
   <v type="int" >        2        3        6        7        8 </v>
   <v type="int" >        2        2        3        4        7 </v>
   <v type="int" >        2        1        2        3        7 </v>
   <v type="int" >        2        1        2        5        7 </v>
   <v type="int" >        2        2        4        7        8 </v>
   <v type="int" >        2        2        6        7        8 </v>
   <v type="int" >        2        2        5        6        7 </v>
   <v type="int" >        2        1        3        4        8 </v>
   <v type="int" >        2        1        2        4        8 </v>
   <v type="int" >        2        1        2        6        8 </v>
   <v type="int" >        2        1        3        7        8 </v>
   <v type="int" >        2        1        5        7        8 </v>
   <v type="int" >        2        1        5        6        8 </v>
  </varray>
  <i name="volumeweight">      0.02083333 </i>
 </kpoints>
 <parameters>
  <separator name="general" >
   <i type="string" name="SYSTEM">La2O2S</i>
   <i type="logical" name="LCOMPAT"> F  </i>
  </separator>
  <separator name="electronic" >
   <i type="string" name="PREC">normal</i>
   <i name="ENMAX">    600.00000000</i>
   <i name="ENAUG">    900.00000000</i>
   <i name="EDIFF">      0.00000100</i>
   <i type="int" name="IALGO">    38</i>
   <i type="int" name="IWAVPR">    11</i>
   <i type="int" name="NBANDS">   280</i>
   <i name="NELECT">    468.00000000</i>
   <i type="int" name="TURBO">     0</i>
   <i type="int" name="IRESTART">     0</i>
   <i type="int" name="NREBOOT">     0</i>
   <i type="int" name="NMIN">     0</i>
   <i name="EREF">      0.00000000</i>
   <separator name="electronic smearing" >
    <i type="int" name="ISMEAR">    -5</i>
    <i name="SIGMA">      0.20000000</i>
    <i name="KSPACING">      0.50000000</i>
    <i type="logical" name="KGAMMA"> T  </i>
   </separator>
   <separator name="electronic projectors" >
    <i type="logical" name="LREAL"> F  </i>
    <v name="ROPT">      0.00000000      0.00000000      0.00000000      0.00000000      0.00000000</v>
    <i type="int" name="LMAXPAW">  -100</i>
    <i type="int" name="LMAXMIX">     2</i>
    <i type="logical" name="NLSPLINE"> F  </i>
   </separator>
   <separator name="electronic startup" >
    <i type="int" name="ISTART">     0</i>
    <i type="int" name="ICHARG">     2</i>
    <i type="int" name="INIWAV">     1</i>
   </separator>
   <separator name="electronic spin" >
    <i type="int" name="ISPIN">     1</i>
    <i type="logical" name="LNONCOLLINEAR"> F  </i>
    <v name="MAGMOM">      1.00000000      1.00000000      1.00000000      1.00000000      1.00000000      1.00000000      1.00000000      1.00000000      1.00000000      1.00000000      1.00000000      1.00000000      1.00000000      1.00000000      1.00000000      1.00000000      1.00000000      1.00000000      1.00000000      1.00000000
      1.00000000      1.00000000      1.00000000      1.00000000      1.00000000      1.00000000      1.00000000      1.00000000      1.00000000      1.00000000      1.00000000      1.00000000      1.00000000      1.00000000      1.00000000      1.00000000      1.00000000      1.00000000      1.00000000      1.00000000
      1.00000000      1.00000000      1.00000000      1.00000000      1.00000000      1.00000000      1.00000000      1.00000000      1.00000000      1.00000000      1.00000000      1.00000000      1.00000000      1.00000000      1.00000000      1.00000000      1.00000000      1.00000000      1.00000000      1.00000000
      1.00000000</v>
    <i name="NUPDOWN">     -1.00000000</i>
    <i type="logical" name="LSORBIT"> F  </i>
    <v name="SAXIS">      0.00000000      0.00000000      1.00000000</v>
    <i type="logical" name="LSPIRAL"> F  </i>
    <v name="QSPIRAL">      0.00000000      0.00000000      0.00000000</v>
    <i type="logical" name="LZEROZ"> F  </i>
   </separator>
   <separator name="electronic exchange-correlation" >
    <i type="logical" name="LASPH"> F  </i>
    <i type="logical" name="LMETAGGA"> F  </i>
   </separator>
   <separator name="electronic convergence" >
    <i type="int" name="NELM">    60</i>
    <i type="int" name="NELMDL">    -5</i>
    <i type="int" name="NELMIN">     4</i>
    <i name="ENINI">    600.00000000</i>
    <separator name="electronic convergence detail" >
     <i type="logical" name="LDIAG"> T  </i>
     <i type="logical" name="LSUBROT"> F  </i>
     <i name="WEIMIN">      0.00100000</i>
     <i name="EBREAK">      0.00000000</i>
     <i name="DEPER">      0.30000000</i>
     <i type="int" name="NRMM">     4</i>
     <i name="TIME">      0.40000000</i>
    </separator>
   </separator>
   <separator name="electronic mixer" >
    <i name="AMIX">      0.40000000</i>
    <i name="BMIX">      1.00000000</i>
    <i name="AMIN">      0.10000000</i>
    <i name="AMIX_MAG">      1.60000000</i>
    <i name="BMIX_MAG">      1.00000000</i>
    <separator name="electronic mixer details" >
     <i type="int" name="IMIX">     4</i>
     <i type="logical" name="MIXFIRST"> F  </i>
     <i type="int" name="MAXMIX">   -45</i>
     <i name="WC">    100.00000000</i>
     <i type="int" name="INIMIX">     1</i>
     <i type="int" name="MIXPRE">     1</i>
     <i type="int" name="MREMOVE">     5</i>
    </separator>
   </separator>
   <separator name="electronic dipolcorrection" >
    <i type="logical" name="LDIPOL"> F  </i>
    <i type="logical" name="LMONO"> F  </i>
    <i type="int" name="IDIPOL">     0</i>
    <i name="EPSILON">      1.00000000</i>
    <v name="DIPOL">   -100.00000000   -100.00000000   -100.00000000</v>
    <i name="EFIELD">      0.00000000</i>
   </separator>
  </separator>
  <separator name="grids" >
   <i type="int" name="NGX">    70</i>
   <i type="int" name="NGY">    60</i>
   <i type="int" name="NGZ">    70</i>
   <i type="int" name="NGXF">   140</i>
   <i type="int" name="NGYF">   120</i>
   <i type="int" name="NGZF">   140</i>
   <i type="logical" name="ADDGRID"> F  </i>
  </separator>
  <separator name="ionic" >
   <i type="int" name="NSW">   200</i>
   <i type="int" name="IBRION">     2</i>
   <i type="int" name="MDALGO">     0</i>
   <i type="int" name="ISIF">     3</i>
   <i name="PSTRESS">      0.00000000</i>
   <i name="EDIFFG">     -0.01000000</i>
   <i type="int" name="NFREE">    10</i>
   <i name="POTIM">      0.50000000</i>
   <i name="SMASS">     -3.00000000</i>
   <i name="SCALEE">      1.00000000</i>
  </separator>
  <separator name="ionic md" >
   <i name="TEBEG">      0.00010000</i>
   <i name="TEEND">      0.00010000</i>
   <i type="int" name="NBLOCK">     1</i>
   <i type="int" name="KBLOCK">   200</i>
   <i type="int" name="NPACO">   256</i>
   <i name="APACO">     16.00000000</i>
  </separator>
  <separator name="symmetry" >
   <i type="int" name="ISYM">     2</i>
   <i name="SYMPREC">      0.00001000</i>
  </separator>
  <separator name="dos" >
   <i type="int" name="LORBIT">     0</i>
   <v name="RWIGS">     -1.00000000     -1.00000000     -1.00000000     -1.00000000     -1.00000000</v>
   <i type="int" name="NEDOS">   301</i>
   <i name="EMIN">     10.00000000</i>
   <i name="EMAX">    -10.00000000</i>
   <i name="EFERMI">      0.00000000</i>
  </separator>
  <separator name="writing" >
   <i type="int" name="NWRITE">     2</i>
   <i type="logical" name="LWAVE"> F  </i>
   <i type="logical" name="LDOWNSAMPLE"> F  </i>
   <i type="logical" name="LCHARG"> F  </i>
   <i type="logical" name="LPARD"> F  </i>
   <i type="logical" name="LVTOT"> F  </i>
   <i type="logical" name="LVHAR"> F  </i>
   <i type="logical" name="LELF"> F  </i>
   <i type="logical" name="LOPTICS"> F  </i>
   <v name="STM">      0.00000000      0.00000000      0.00000000      0.00000000      0.00000000      0.00000000      0.00000000</v>
  </separator>
  <separator name="performance" >
   <i type="int" name="NPAR">    28</i>
   <i type="int" name="NSIM">     4</i>
   <i type="int" name="NBLK">    -1</i>
   <i type="logical" name="LPLANE"> T  </i>
   <i type="logical" name="LSCALAPACK"> T  </i>
   <i type="logical" name="LSCAAWARE"> F  </i>
   <i type="logical" name="LSCALU"> F  </i>
   <i type="logical" name="LASYNC"> F  </i>
   <i type="logical" name="LORBITALREAL"> F  </i>
  </separator>
  <separator name="miscellaneous" >
   <i type="int" name="IDIOT">     3</i>
   <i type="int" name="ISPECIAL">     0</i>
   <i type="logical" name="LMUSIC"> F  </i>
   <v name="POMASS">      7.01000000     24.30500000    208.98000000     32.06600000     16.00000000</v>
   <v name="DARWINR">      0.00000000      0.00000000      0.00000000      0.00000000      0.00000000</v>
   <v name="DARWINV">      1.00000000      1.00000000      1.00000000      1.00000000      1.00000000</v>
   <i type="logical" name="LCORR"> T  </i>
  </separator>
  <i type="logical" name="GGA_COMPAT"> T  </i>
  <i type="logical" name="LBERRY"> F  </i>
  <i type="int" name="ICORELEVEL">     0</i>
  <i type="logical" name="LDAU"> F  </i>
  <i type="int" name="I_CONSTRAINED_M">     0</i>
  <separator name="electronic exchange-correlation" >
   <i type="string" name="GGA">--</i>
   <i type="int" name="VOSKOWN">     0</i>
   <i type="logical" name="LHFCALC"> F  </i>
   <i type="string" name="PRECFOCK"></i>
   <i type="logical" name="LSYMGRAD"> F  </i>
   <i type="logical" name="LHFONE"> F  </i>
   <i type="logical" name="LRHFCALC"> F  </i>
   <i type="logical" name="LTHOMAS"> F  </i>
   <i type="logical" name="LMODELHF"> F  </i>
   <i name="ENCUT4O">     -1.00000000</i>
   <i type="int" name="EXXOEP">     0</i>
   <i type="int" name="FOURORBIT">     0</i>
   <i name="AEXX">      0.00000000</i>
   <i name="HFALPHA">      0.00000000</i>
   <i name="MCALPHA">      0.00000000</i>
   <i name="ALDAX">      1.00000000</i>
   <i name="AGGAX">      1.00000000</i>
   <i name="ALDAC">      1.00000000</i>
   <i name="AGGAC">      1.00000000</i>
   <i type="int" name="NKREDX">     1</i>
   <i type="int" name="NKREDY">     1</i>
   <i type="int" name="NKREDZ">     1</i>
   <i type="logical" name="SHIFTRED"> F  </i>
   <i type="logical" name="ODDONLY"> F  </i>
   <i type="logical" name="EVENONLY"> F  </i>
   <i type="int" name="LMAXFOCK">     0</i>
   <i type="int" name="NMAXFOCKAE">     0</i>
   <i type="logical" name="LFOCKAEDFT"> F  </i>
   <i name="HFSCREEN">      0.00000000</i>
   <i name="HFSCREENC">      0.00000000</i>
   <i type="int" name="NBANDSGWLOW">     0</i>
  </separator>
  <separator name="vdW DFT" >
   <i type="logical" name="LUSE_VDW"> F  </i>
   <i name="Zab_VDW">     -0.84910000</i>
   <i name="PARAM1">      0.12340000</i>
   <i name="PARAM2">      1.00000000</i>
   <i name="PARAM3">      0.00000000</i>
  </separator>
  <separator name="model GW" >
   <i type="int" name="MODEL_GW">     0</i>
   <i name="MODEL_EPS0">     11.77228070</i>
   <i name="MODEL_ALPHA">      1.00000000</i>
  </separator>
  <separator name="linear response parameters" >
   <i type="logical" name="LEPSILON"> F  </i>
   <i type="logical" name="LRPA"> F  </i>
   <i type="logical" name="LNABLA"> F  </i>
   <i type="logical" name="LVEL"> F  </i>
   <i type="int" name="KINTER">     0</i>
   <i name="CSHIFT">      0.10000000</i>
   <i name="OMEGAMAX">     -1.00000000</i>
   <i name="DEG_THRESHOLD">      0.00200000</i>
   <i name="RTIME">     -0.10000000</i>
   <i name="WPLASMAI">      0.00000000</i>
   <v name="DFIELD">      0.00000000      0.00000000      0.00000000</v>
   <v name="WPLASMA">      0.00000000      0.00000000      0.00000000      0.00000000      0.00000000      0.00000000      0.00000000      0.00000000      0.00000000</v>
  </separator>
  <separator name="orbital magnetization" >
   <i type="logical" name="NUCIND"> F  </i>
   <v name="MAGPOS">      0.00000000      0.00000000      0.00000000</v>
   <i type="logical" name="LNICSALL"> T  </i>
   <i type="logical" name="ORBITALMAG"> F  </i>
   <i type="logical" name="LMAGBLOCH"> F  </i>
   <i type="logical" name="LCHIMAG"> F  </i>
   <i type="logical" name="LGAUGE"> T  </i>
   <i type="int" name="MAGATOM">     0</i>
   <v name="MAGDIPOL">      0.00000000      0.00000000      0.00000000</v>
   <v name="AVECCONST">      0.00000000      0.00000000      0.00000000</v>
  </separator>
  <separator name="response functions" >
   <i type="logical" name="LADDER"> F  </i>
   <i type="logical" name="LRPAFORCE"> F  </i>
   <i type="logical" name="LFXC"> F  </i>
   <i type="logical" name="LHARTREE"> T  </i>
   <i type="int" name="IBSE">     0</i>
   <v type="int" name="KPOINT">    -1     0     0     0</v>
   <i type="logical" name="LTCTE"> F  </i>
   <i type="logical" name="LTETE"> F  </i>
   <i type="logical" name="LTRIPLET"> F  </i>
   <i type="logical" name="LFXCEPS"> F  </i>
   <i type="logical" name="LFXHEG"> F  </i>
   <i type="int" name="NATURALO">     2</i>
   <i type="logical" name="L2ORDER"> F  </i>
   <i type="logical" name="LMP2LT"> F  </i>
   <i type="logical" name="LUSEW"> F  </i>
   <i name="ENCUTGW">     -2.00000000</i>
   <i name="ENCUTGWSOFT">     -2.00000000</i>
   <i name="ENCUTLF">     -1.00000000</i>
   <i type="int" name="LMAXMP2">    -1</i>
   <i name="SCISSOR">      0.00000000</i>
   <i type="int" name="NOMEGA">     0</i>
   <i type="int" name="NOMEGAR">     0</i>
   <i type="int" name="NBANDSGW">    -1</i>
   <i type="int" name="NBANDSO">    -1</i>
   <i type="int" name="NBANDSV">    -1</i>
   <i type="int" name="NELM">     1</i>
   <i type="int" name="NELMHF">     1</i>
   <i type="int" name="DIM">     3</i>
   <i type="int" name="ANTIRES">     0</i>
   <i name="OMEGAMAX">    -30.00000000</i>
   <i name="OMEGAMIN">    -30.00000000</i>
   <i name="OMEGATL">   -200.00000000</i>
   <i type="int" name="OMEGAGRID">   140</i>
   <i name="CSHIFT">     -0.10000000</i>
   <i type="logical" name="SELFENERGY"> F  </i>
   <i type="logical" name="LSPECTRAL"> F  </i>
   <i type="logical" name="LSPECTRALGW"> F  </i>
   <i type="logical" name="LSINGLES"> F  </i>
   <i type="logical" name="LFERMIGW"> F  </i>
   <i type="logical" name="ODDONLYGW"> F  </i>
   <i type="logical" name="EVENONLYGW"> F  </i>
   <i type="int" name="NKREDLFX">     1</i>
   <i type="int" name="NKREDLFY">     1</i>
   <i type="int" name="NKREDLFZ">     1</i>
   <i type="int" name="MAXMEM">  2800</i>
   <i type="int" name="TELESCOPE">     0</i>
   <i type="int" name="TAUPAR">     1</i>
   <i type="int" name="OMEGAPAR">    -1</i>
   <i name="LAMBDA">      1.00000000</i>
  </separator>
  <separator name="External order field" >
   <i name="OFIELD_KAPPA">      0.00000000</i>
   <v name="OFIELD_K">      0.00000000      0.00000000      0.00000000</v>
   <i name="OFIELD_Q6_NEAR">      0.00000000</i>
   <i name="OFIELD_Q6_FAR">      0.00000000</i>
   <i name="OFIELD_A">      0.00000000</i>
  </separator>
 </parameters>
 <atominfo>
  <atoms>      61 </atoms>
  <types>       5 </types>
  <array name="atoms" >
   <dimension dim="1">ion</dimension>
   <field type="string">element</field>
   <field type="int">atomtype</field>
   <set>
    <rc><c>Li</c><c>   1</c></rc>
    <rc><c>Li</c><c>   1</c></rc>
    <rc><c>Li</c><c>   1</c></rc>
    <rc><c>Li</c><c>   1</c></rc>
    <rc><c>Li</c><c>   1</c></rc>
    <rc><c>Li</c><c>   1</c></rc>
    <rc><c>Li</c><c>   1</c></rc>
    <rc><c>Li</c><c>   1</c></rc>
    <rc><c>Li</c><c>   1</c></rc>
    <rc><c>Li</c><c>   1</c></rc>
    <rc><c>Mg</c><c>   2</c></rc>
    <rc><c>Mg</c><c>   2</c></rc>
    <rc><c>Mg</c><c>   2</c></rc>
    <rc><c>Bi</c><c>   3</c></rc>
    <rc><c>Bi</c><c>   3</c></rc>
    <rc><c>Bi</c><c>   3</c></rc>
    <rc><c>Bi</c><c>   3</c></rc>
    <rc><c>Bi</c><c>   3</c></rc>
    <rc><c>Bi</c><c>   3</c></rc>
    <rc><c>Bi</c><c>   3</c></rc>
    <rc><c>Bi</c><c>   3</c></rc>
    <rc><c>Bi</c><c>   3</c></rc>
    <rc><c>Bi</c><c>   3</c></rc>
    <rc><c>Bi</c><c>   3</c></rc>
    <rc><c>Bi</c><c>   3</c></rc>
    <rc><c>Bi</c><c>   3</c></rc>
    <rc><c>Bi</c><c>   3</c></rc>
    <rc><c>Bi</c><c>   3</c></rc>
    <rc><c>Bi</c><c>   3</c></rc>
    <rc><c>S </c><c>   4</c></rc>
    <rc><c>S </c><c>   4</c></rc>
    <rc><c>S </c><c>   4</c></rc>
    <rc><c>S </c><c>   4</c></rc>
    <rc><c>S </c><c>   4</c></rc>
    <rc><c>S </c><c>   4</c></rc>
    <rc><c>S </c><c>   4</c></rc>
    <rc><c>S </c><c>   4</c></rc>
    <rc><c>S </c><c>   4</c></rc>
    <rc><c>S </c><c>   4</c></rc>
    <rc><c>S </c><c>   4</c></rc>
    <rc><c>S </c><c>   4</c></rc>
    <rc><c>S </c><c>   4</c></rc>
    <rc><c>S </c><c>   4</c></rc>
    <rc><c>S </c><c>   4</c></rc>
    <rc><c>S </c><c>   4</c></rc>
    <rc><c>O </c><c>   5</c></rc>
    <rc><c>O </c><c>   5</c></rc>
    <rc><c>O </c><c>   5</c></rc>
    <rc><c>O </c><c>   5</c></rc>
    <rc><c>O </c><c>   5</c></rc>
    <rc><c>O </c><c>   5</c></rc>
    <rc><c>O </c><c>   5</c></rc>
    <rc><c>O </c><c>   5</c></rc>
    <rc><c>O </c><c>   5</c></rc>
    <rc><c>O </c><c>   5</c></rc>
    <rc><c>O </c><c>   5</c></rc>
    <rc><c>O </c><c>   5</c></rc>
    <rc><c>O </c><c>   5</c></rc>
    <rc><c>O </c><c>   5</c></rc>
    <rc><c>O </c><c>   5</c></rc>
    <rc><c>O </c><c>   5</c></rc>
   </set>
  </array>
  <array name="atomtypes" >
   <dimension dim="1">type</dimension>
   <field type="int">atomspertype</field>
   <field type="string">element</field>
   <field>mass</field>
   <field>valence</field>
   <field type="string">pseudopotential</field>
   <set>
    <rc><c>  10</c><c>Li</c><c>      7.01000000</c><c>      3.00000000</c><c>  PAW_PBE Li_sv 10Sep2004               </c></rc>
    <rc><c>   3</c><c>Mg</c><c>     24.30500000</c><c>      2.00000000</c><c>  PAW_PBE Mg 13Apr2007                  </c></rc>
    <rc><c>  16</c><c>Bi</c><c>    208.98000000</c><c>     15.00000000</c><c>  PAW_PBE Bi_d 06Sep2000                </c></rc>
    <rc><c>  16</c><c>S </c><c>     32.06600000</c><c>      6.00000000</c><c>  PAW_PBE S 06Sep2000                   </c></rc>
    <rc><c>  16</c><c>O </c><c>     16.00000000</c><c>      6.00000000</c><c>  PAW_PBE O 08Apr2002                   </c></rc>
   </set>
  </array>
 </atominfo>
 <structure name="initialpos" >
  <crystal>
   <varray name="basis" >
    <v>      11.17850000       0.00000000       0.00000000 </v>
    <v>       0.00000000       9.57460000       0.00000000 </v>
    <v>       0.00000000       0.00000000      11.18240000 </v>
   </varray>
   <i name="volume">   1196.84853820 </i>
   <varray name="rec_basis" >
    <v>       0.08945744       0.00000000       0.00000000 </v>
    <v>       0.00000000       0.10444301       0.00000000 </v>
    <v>       0.00000000       0.00000000       0.08942624 </v>
   </varray>
  </crystal>
  <varray name="positions" >
   <v>       0.37461000       0.00017000       0.18687000 </v>
   <v>       0.87539000       0.00017000       0.43687000 </v>
   <v>       0.62461000       0.99984000       0.18687000 </v>
   <v>       0.87461000       0.00017000       0.18687000 </v>
   <v>       0.12539000       0.99984000       0.93687000 </v>
   <v>       0.37539000       0.00017000       0.93687000 </v>
   <v>       0.37461000       0.00017000       0.68687000 </v>
   <v>       0.62539000       0.99984000       0.93687000 </v>
   <v>       0.87539000       0.00017000       0.93687000 </v>
   <v>       0.87461000       0.00017000       0.68687000 </v>
   <v>       0.12461000       0.99984000       0.18687000 </v>
   <v>       0.62539000       0.99984000       0.43687000 </v>
   <v>       0.62461000       0.99984000       0.68687000 </v>
   <v>       0.00013000       0.29519000       0.06281000 </v>
   <v>       0.25013000       0.70481000       0.06281000 </v>
   <v>       0.24987000       0.29519000       0.31282000 </v>
   <v>       0.49987000       0.70481000       0.31282000 </v>
   <v>       0.50013000       0.29519000       0.06281000 </v>
   <v>       0.75013000       0.70481000       0.06281000 </v>
   <v>       0.74987000       0.29519000       0.31282000 </v>
   <v>       0.99987000       0.70481000       0.31282000 </v>
   <v>       0.00013000       0.29519000       0.56281000 </v>
   <v>       0.25013000       0.70481000       0.56281000 </v>
   <v>       0.24987000       0.29519000       0.81282000 </v>
   <v>       0.49987000       0.70481000       0.81282000 </v>
   <v>       0.50013000       0.29519000       0.56281000 </v>
   <v>       0.75013000       0.70481000       0.56281000 </v>
   <v>       0.74987000       0.29519000       0.81282000 </v>
   <v>       0.99987000       0.70481000       0.81282000 </v>
   <v>       0.25005000       0.32677000       0.06286000 </v>
   <v>       0.00005000       0.67323000       0.06286000 </v>
   <v>       0.49995000       0.32677000       0.31286000 </v>
   <v>       0.24995000       0.67323000       0.31286000 </v>
   <v>       0.75005000       0.32677000       0.06286000 </v>
   <v>       0.50005000       0.67323000       0.06286000 </v>
   <v>       0.99995000       0.32677000       0.31286000 </v>
   <v>       0.74995000       0.67323000       0.31286000 </v>
   <v>       0.25005000       0.32677000       0.56286000 </v>
   <v>       0.00005000       0.67323000       0.56286000 </v>
   <v>       0.49995000       0.32677000       0.81286000 </v>
   <v>       0.24995000       0.67323000       0.81286000 </v>
   <v>       0.75005000       0.32677000       0.56286000 </v>
   <v>       0.50005000       0.67323000       0.56286000 </v>
   <v>       0.99995000       0.32677000       0.81286000 </v>
   <v>       0.74995000       0.67323000       0.81286000 </v>
   <v>       0.49987000       0.07798000       0.06246000 </v>
   <v>       0.24987000       0.92202000       0.06246000 </v>
   <v>       0.25013000       0.07798000       0.31246000 </v>
   <v>       0.00013000       0.92202000       0.31246000 </v>
   <v>       0.99987000       0.07798000       0.06246000 </v>
   <v>       0.74987000       0.92202000       0.06246000 </v>
   <v>       0.75013000       0.07798000       0.31246000 </v>
   <v>       0.50013000       0.92202000       0.31246000 </v>
   <v>       0.49987000       0.07798000       0.56246000 </v>
   <v>       0.24987000       0.92202000       0.56246000 </v>
   <v>       0.25013000       0.07798000       0.81246000 </v>
   <v>       0.00013000       0.92202000       0.81246000 </v>
   <v>       0.99987000       0.07798000       0.56246000 </v>
   <v>       0.74987000       0.92202000       0.56246000 </v>
   <v>       0.75013000       0.07798000       0.81246000 </v>
   <v>       0.50013000       0.92202000       0.81246000 </v>
  </varray>
 </structure>
 <calculation>
  <scstep>
   <time name="dav">   60.43   60.81</time>
   <time name="total">   60.52   60.94</time>
   <energy>
    <i name="alphaZ">   1073.51873187 </i>
    <i name="ewald"> -30854.10480789 </i>
    <i name="hartreedc"> -12732.74220194 </i>
    <i name="XCdc">   1395.10895803 </i>
    <i name="pawpsdc">  36823.70205594 </i>
    <i name="pawaedc"> -36326.52930246 </i>
    <i name="eentropy">      0.00000000 </i>
    <i name="bandstr">   1806.21352644 </i>
    <i name="atom">  44791.06186932 </i>
    <i name="e_fr_energy">   5976.22882932 </i>
    <i name="e_wo_entrp">   5976.22882932 </i>
    <i name="e_0_energy">   5976.22882932 </i>
   </energy>
  </scstep>
  <scstep>
   <time name="dav">   60.82   60.88</time>
   <time name="total">   60.83   60.89</time>
   <energy>
    <i name="e_fr_energy">    806.64285129 </i>
    <i name="e_wo_entrp">    806.64285129 </i>
    <i name="e_0_energy">    806.64285129 </i>
   </energy>
  </scstep>
  <scstep>
   <time name="dav">   69.69   69.71</time>
   <time name="total">   69.70   69.71</time>
   <energy>
    <i name="e_fr_energy">   -238.28850270 </i>
    <i name="e_wo_entrp">   -238.28850270 </i>
    <i name="e_0_energy">   -238.28850270 </i>
   </energy>
  </scstep>
  <scstep>
   <time name="dav">   72.80   72.87</time>
   <time name="total">   72.80   72.87</time>
   <energy>
    <i name="e_fr_energy">   -344.36632152 </i>
    <i name="e_wo_entrp">   -344.36632152 </i>
    <i name="e_0_energy">   -344.36632152 </i>
   </energy>
  </scstep>
  <scstep>
   <time name="dav">   96.92   97.41</time>
   <time name="total">   97.67   98.17</time>
   <energy>
    <i name="e_fr_energy">   -353.21408493 </i>
    <i name="e_wo_entrp">   -353.21408493 </i>
    <i name="e_0_energy">   -353.21408493 </i>
   </energy>
  </scstep>
  <scstep>
   <time name="dav">   85.13   85.24</time>
   <time name="total">   85.93   86.04</time>
   <energy>
    <i name="e_fr_energy">   -294.74830197 </i>
    <i name="e_wo_entrp">   -294.74830197 </i>
    <i name="e_0_energy">   -294.74830197 </i>
   </energy>
  </scstep>
  <scstep>
   <time name="dav">   65.53   65.64</time>
   <time name="total">   66.33   66.44</time>
   <energy>
    <i name="e_fr_energy">   -297.44150822 </i>
    <i name="e_wo_entrp">   -297.44150822 </i>
    <i name="e_0_energy">   -297.44150822 </i>
   </energy>
  </scstep>
  <scstep>
   <time name="dav">   85.90   86.20</time>
   <time name="total">   86.70   87.00</time>
   <energy>
    <i name="e_fr_energy">   -295.96516833 </i>
    <i name="e_wo_entrp">   -295.96516833 </i>
    <i name="e_0_energy">   -295.96516833 </i>
   </energy>
  </scstep>
  <scstep>
   <time name="dav">   66.95   67.65</time>
   <time name="total">   67.75   68.44</time>
   <energy>
    <i name="e_fr_energy">   -295.22090792 </i>
    <i name="e_wo_entrp">   -295.22090792 </i>
    <i name="e_0_energy">   -295.22090792 </i>
   </energy>
  </scstep>
  <scstep>
   <time name="dav">   80.49   81.25</time>
   <time name="total">   81.32   82.08</time>
   <energy>
    <i name="e_fr_energy">   -295.13149123 </i>
    <i name="e_wo_entrp">   -295.13149123 </i>
    <i name="e_0_energy">   -295.13149123 </i>
   </energy>
  </scstep>
  <scstep>
   <time name="dav">   68.33   68.63</time>
   <time name="total">   69.10   69.44</time>
   <energy>
    <i name="e_fr_energy">   -295.12822791 </i>
    <i name="e_wo_entrp">   -295.12822791 </i>
    <i name="e_0_energy">   -295.12822791 </i>
   </energy>
  </scstep>
  <scstep>
   <time name="dav">   83.54   83.95</time>
   <time name="total">   84.40   84.82</time>
   <energy>
    <i name="e_fr_energy">   -295.13037825 </i>
    <i name="e_wo_entrp">   -295.13037825 </i>
    <i name="e_0_energy">   -295.13037825 </i>
   </energy>
  </scstep>
  <scstep>
   <time name="dav">   77.63   77.91</time>
   <time name="total">   78.43   78.70</time>
   <energy>
    <i name="e_fr_energy">   -295.13324105 </i>
    <i name="e_wo_entrp">   -295.13324105 </i>
    <i name="e_0_energy">   -295.13324105 </i>
   </energy>
  </scstep>
  <scstep>
   <time name="dav">   75.98   76.00</time>
   <time name="total">   76.77   76.80</time>
   <energy>
    <i name="e_fr_energy">   -295.13363256 </i>
    <i name="e_wo_entrp">   -295.13363256 </i>
    <i name="e_0_energy">   -295.13363256 </i>
   </energy>
  </scstep>
  <scstep>
   <time name="dav">   73.22   73.69</time>
   <time name="total">   74.03   74.50</time>
   <energy>
    <i name="e_fr_energy">   -295.13369036 </i>
    <i name="e_wo_entrp">   -295.13369036 </i>
    <i name="e_0_energy">   -295.13369036 </i>
   </energy>
  </scstep>
  <scstep>
   <time name="dav">   72.76   72.98</time>
   <time name="total">   73.54   73.79</time>
   <energy>
    <i name="e_fr_energy">   -295.13380610 </i>
    <i name="e_wo_entrp">   -295.13380610 </i>
    <i name="e_0_energy">   -295.13380610 </i>
   </energy>
  </scstep>
  <scstep>
   <time name="dav">   71.82   71.85</time>
   <time name="total">   72.62   72.65</time>
   <energy>
    <i name="e_fr_energy">   -295.13378068 </i>
    <i name="e_wo_entrp">   -295.13378068 </i>
    <i name="e_0_energy">   -295.13378068 </i>
   </energy>
  </scstep>
  <scstep>
   <time name="dav">   64.73   64.79</time>
   <time name="total">   65.52   65.59</time>
   <energy>
    <i name="e_fr_energy">   -295.13378582 </i>
    <i name="e_wo_entrp">   -295.13378582 </i>
    <i name="e_0_energy">   -295.13378582 </i>
   </energy>
  </scstep>
  <scstep>
   <time name="dav">   59.63   60.15</time>
   <time name="total">   60.42   60.95</time>
   <energy>
    <i name="e_fr_energy">   -295.13378846 </i>
    <i name="e_wo_entrp">   -295.13378846 </i>
    <i name="e_0_energy">   -295.13378846 </i>
   </energy>
  </scstep>
  <scstep>
   <time name="dav">   59.26   59.43</time>
   <time name="total">   59.33   59.51</time>
   <energy>
    <i name="alphaZ">   1073.51873187 </i>
    <i name="ewald"> -30854.10480789 </i>
    <i name="hartreedc"> -12960.66357534 </i>
    <i name="XCdc">   1418.26775333 </i>
    <i name="pawpsdc">  43859.97434380 </i>
    <i name="pawaedc"> -43338.02922303 </i>
    <i name="eentropy">      0.00000000 </i>
    <i name="bandstr">  -4285.15888110 </i>
    <i name="atom">  44791.06186932 </i>
    <i name="e_fr_energy">   -295.13378904 </i>
    <i name="e_wo_entrp">   -295.13378904 </i>
    <i name="e_0_energy">   -295.13378904 </i>
   </energy>
  </scstep>
  <structure>
   <crystal>
    <varray name="basis" >
     <v>      11.17850000       0.00000000       0.00000000 </v>
     <v>       0.00000000       9.57460000       0.00000000 </v>
     <v>       0.00000000       0.00000000      11.18240000 </v>
    </varray>
    <i name="volume">   1196.84853820 </i>
    <varray name="rec_basis" >
     <v>       0.08945744       0.00000000       0.00000000 </v>
     <v>       0.00000000       0.10444301       0.00000000 </v>
     <v>       0.00000000       0.00000000       0.08942624 </v>
    </varray>
   </crystal>
   <varray name="positions" >
    <v>       0.37461000       0.00017000       0.18687000 </v>
    <v>       0.87539000       0.00017000       0.43687000 </v>
    <v>       0.62461000       0.99984000       0.18687000 </v>
    <v>       0.87461000       0.00017000       0.18687000 </v>
    <v>       0.12539000       0.99984000       0.93687000 </v>
    <v>       0.37539000       0.00017000       0.93687000 </v>
    <v>       0.37461000       0.00017000       0.68687000 </v>
    <v>       0.62539000       0.99984000       0.93687000 </v>
    <v>       0.87539000       0.00017000       0.93687000 </v>
    <v>       0.87461000       0.00017000       0.68687000 </v>
    <v>       0.12461000       0.99984000       0.18687000 </v>
    <v>       0.62539000       0.99984000       0.43687000 </v>
    <v>       0.62461000       0.99984000       0.68687000 </v>
    <v>       0.00013000       0.29519000       0.06281000 </v>
    <v>       0.25013000       0.70481000       0.06281000 </v>
    <v>       0.24987000       0.29519000       0.31282000 </v>
    <v>       0.49987000       0.70481000       0.31282000 </v>
    <v>       0.50013000       0.29519000       0.06281000 </v>
    <v>       0.75013000       0.70481000       0.06281000 </v>
    <v>       0.74987000       0.29519000       0.31282000 </v>
    <v>       0.99987000       0.70481000       0.31282000 </v>
    <v>       0.00013000       0.29519000       0.56281000 </v>
    <v>       0.25013000       0.70481000       0.56281000 </v>
    <v>       0.24987000       0.29519000       0.81282000 </v>
    <v>       0.49987000       0.70481000       0.81282000 </v>
    <v>       0.50013000       0.29519000       0.56281000 </v>
    <v>       0.75013000       0.70481000       0.56281000 </v>
    <v>       0.74987000       0.29519000       0.81282000 </v>
    <v>       0.99987000       0.70481000       0.81282000 </v>
    <v>       0.25005000       0.32677000       0.06286000 </v>
    <v>       0.00005000       0.67323000       0.06286000 </v>
    <v>       0.49995000       0.32677000       0.31286000 </v>
    <v>       0.24995000       0.67323000       0.31286000 </v>
    <v>       0.75005000       0.32677000       0.06286000 </v>
    <v>       0.50005000       0.67323000       0.06286000 </v>
    <v>       0.99995000       0.32677000       0.31286000 </v>
    <v>       0.74995000       0.67323000       0.31286000 </v>
    <v>       0.25005000       0.32677000       0.56286000 </v>
    <v>       0.00005000       0.67323000       0.56286000 </v>
    <v>       0.49995000       0.32677000       0.81286000 </v>
    <v>       0.24995000       0.67323000       0.81286000 </v>
    <v>       0.75005000       0.32677000       0.56286000 </v>
    <v>       0.50005000       0.67323000       0.56286000 </v>
    <v>       0.99995000       0.32677000       0.81286000 </v>
    <v>       0.74995000       0.67323000       0.81286000 </v>
    <v>       0.49987000       0.07798000       0.06246000 </v>
    <v>       0.24987000       0.92202000       0.06246000 </v>
    <v>       0.25013000       0.07798000       0.31246000 </v>
    <v>       0.00013000       0.92202000       0.31246000 </v>
    <v>       0.99987000       0.07798000       0.06246000 </v>
    <v>       0.74987000       0.92202000       0.06246000 </v>
    <v>       0.75013000       0.07798000       0.31246000 </v>
    <v>       0.50013000       0.92202000       0.31246000 </v>
    <v>       0.49987000       0.07798000       0.56246000 </v>
    <v>       0.24987000       0.92202000       0.56246000 </v>
    <v>       0.25013000       0.07798000       0.81246000 </v>
    <v>       0.00013000       0.92202000       0.81246000 </v>
    <v>       0.99987000       0.07798000       0.56246000 </v>
    <v>       0.74987000       0.92202000       0.56246000 </v>
    <v>       0.75013000       0.07798000       0.81246000 </v>
    <v>       0.50013000       0.92202000       0.81246000 </v>
   </varray>
  </structure>
  <varray name="forces" >
   <v>       0.13943630       0.12221598       0.60650829 </v>
   <v>       1.24011280       0.17152450       0.17006814 </v>
   <v>      -0.19266313      -0.06899041      -0.29353451 </v>
   <v>      -0.12672017      -0.13518011       0.10022915 </v>
   <v>       0.02029120      -0.00581336      -0.98910182 </v>
   <v>      -0.27359482       0.18647044      -0.16986348 </v>
   <v>      -1.26694503      -0.09330615      -0.53984395 </v>
   <v>      -0.03049558      -0.00432082       0.47333474 </v>
   <v>       0.25803941      -0.19821163      -0.17637879 </v>
   <v>       1.31914427       0.11047864      -0.07055222 </v>
   <v>       0.30190098       0.10218980       1.27754619 </v>
   <v>      -1.08321487      -0.01256226      -0.91936239 </v>
   <v>      -0.25928441       0.09934054       0.75645858 </v>
   <v>       0.14046716       1.04451078      -0.14550395 </v>
   <v>      -0.00775965      -1.07101129      -0.10824931 </v>
   <v>      -0.07217209      -0.98066621       0.59025147 </v>
   <v>      -0.56810575      -0.05701537       0.09943740 </v>
   <v>      -0.23632768       0.07040315       0.03308846 </v>
   <v>       0.08568070      -0.10458509      -0.01019116 </v>
   <v>       0.25693910       1.11090053      -0.07289155 </v>
   <v>       0.41674534      -0.01909748       0.47188366 </v>
   <v>       0.67782099      -1.87691097       0.05909355 </v>
   <v>      -0.37996323       2.64886699      -0.08305498 </v>
   <v>      -0.33493579      -0.94741209      -0.42999537 </v>
   <v>      -0.49409319      -1.09085937       0.01104418 </v>
   <v>      -0.87410139       1.15286815      -0.16634569 </v>
   <v>       0.53112625      -2.14855777       0.01117916 </v>
   <v>       0.36386363       1.09261214       0.05639178 </v>
   <v>       0.47720424       0.96163585      -0.39747408 </v>
   <v>      -0.03894318       0.19800861       0.02561360 </v>
   <v>      -0.04243330      -0.14677306       0.13039566 </v>
   <v>       0.37762498       0.07647340       0.04051027 </v>
   <v>       0.03605886      -0.12788011      -0.52582804 </v>
   <v>       0.00100267       0.07066986       0.00298487 </v>
   <v>       0.07412323      -0.11390061      -0.08042947 </v>
   <v>      -0.31065777       0.15174132      -0.40336911 </v>
   <v>      -0.11027880      -0.06341200       0.10494051 </v>
   <v>       0.41207228       0.18683547       0.02102410 </v>
   <v>      -0.65779931      -0.15536304      -0.10122713 </v>
   <v>       0.35706375       0.09008252      -0.05558149 </v>
   <v>       0.29649027      -0.19892287       0.48368958 </v>
   <v>      -0.42272059       0.02819326      -0.00146773 </v>
   <v>       0.66728671      -0.00775486       0.09759920 </v>
   <v>      -0.35629313       0.17607652       0.36860281 </v>
   <v>      -0.28181263      -0.05255289      -0.10559770 </v>
   <v>       0.10882528      -0.14517530      -0.07914769 </v>
   <v>      -0.47690773       0.76594274       0.43657329 </v>
   <v>      -0.42554540       0.70382820      -1.87952747 </v>
   <v>      -0.40785285       0.00500325      -1.31848298 </v>
   <v>       0.38092199      -0.79523539       0.51304679 </v>
   <v>      -0.00945476       0.22717020       0.00023189 </v>
   <v>      -0.55780556      -0.93243885       0.56746072 </v>
   <v>       1.38378455       0.09996990      -0.08987214 </v>
   <v>       1.97903890      -1.00754444       0.62231051 </v>
   <v>       0.73082814      -2.23357867       0.54511750 </v>
   <v>       0.78373022       0.76916892       0.86917218 </v>
   <v>      -0.86010748      -0.73669686       0.82105968 </v>
   <v>      -1.53473123       1.46320111      -0.04708866 </v>
   <v>      -1.18636423       1.69281786      -0.00720518 </v>
   <v>      -0.73464462      -0.95722093      -0.59248909 </v>
   <v>       0.79710516       0.90974966      -0.50719082 </v>
  </varray>
  <varray name="stress" >
   <v>      -6.02242935      -0.49508962      -1.08191820 </v>
   <v>      -0.49508973     -12.82359789      -0.28428032 </v>
   <v>      -1.08191796      -0.28428030      -4.03066733 </v>
  </varray>
  <energy>
   <i name="e_fr_energy">   -309.79625339 </i>
   <i name="e_wo_entrp">   -309.79625339 </i>
   <i name="e_0_energy">      0.00000000 </i>
  </energy>
  <time name="totalsc"> 1580.39 1586.61</time>
 </calculation>
 <calculation>
  <scstep>
   <time name="dav">   64.80   64.87</time>
   <time name="total">   65.59   65.67</time>
   <energy>
    <i name="alphaZ">   1088.16801863 </i>
    <i name="ewald"> -30995.58739384 </i>
    <i name="hartreedc"> -13006.96316426 </i>
    <i name="XCdc">   1426.28378054 </i>
    <i name="pawpsdc">  43860.08906085 </i>
    <i name="pawaedc"> -43338.14499796 </i>
    <i name="eentropy">      0.00000000 </i>
    <i name="bandstr">  -4119.14337188 </i>
    <i name="atom">  44791.06186932 </i>
    <i name="e_fr_energy">   -294.23619861 </i>
    <i name="e_wo_entrp">   -294.23619861 </i>
    <i name="e_0_energy">   -294.23619861 </i>
   </energy>
  </scstep>
  <scstep>
   <time name="dav">   71.08   71.28</time>
   <time name="total">   71.87   72.09</time>
   <energy>
    <i name="e_fr_energy">   -297.04821860 </i>
    <i name="e_wo_entrp">   -297.04821860 </i>
    <i name="e_0_energy">   -297.04821860 </i>
   </energy>
  </scstep>
  <scstep>
   <time name="dav">   91.90   92.84</time>
   <time name="total">   92.69   93.65</time>
   <energy>
    <i name="e_fr_energy">   -296.87284101 </i>
    <i name="e_wo_entrp">   -296.87284101 </i>
    <i name="e_0_energy">   -296.87284101 </i>
   </energy>
  </scstep>
  <scstep>
   <time name="dav">   74.00   75.04</time>
   <time name="total">   74.81   75.87</time>
   <energy>
    <i name="e_fr_energy">   -296.75365542 </i>
    <i name="e_wo_entrp">   -296.75365542 </i>
    <i name="e_0_energy">   -296.75365542 </i>
   </energy>
  </scstep>
  <scstep>
   <time name="dav">   78.02   78.50</time>
   <time name="total">   78.82   79.31</time>
   <energy>
    <i name="e_fr_energy">   -296.74215558 </i>
    <i name="e_wo_entrp">   -296.74215558 </i>
    <i name="e_0_energy">   -296.74215558 </i>
   </energy>
  </scstep>
  <scstep>
   <time name="dav">   75.30   75.83</time>
   <time name="total">   76.10   76.66</time>
   <energy>
    <i name="e_fr_energy">   -296.74018294 </i>
    <i name="e_wo_entrp">   -296.74018294 </i>
    <i name="e_0_energy">   -296.74018294 </i>
   </energy>
  </scstep>
  <scstep>
   <time name="dav">   84.55   85.25</time>
   <time name="total">   85.36   86.06</time>
   <energy>
    <i name="e_fr_energy">   -296.73944646 </i>
    <i name="e_wo_entrp">   -296.73944646 </i>
    <i name="e_0_energy">   -296.73944646 </i>
   </energy>
  </scstep>
  <scstep>
   <time name="dav">   71.57   72.33</time>
   <time name="total">   72.37   73.14</time>
   <energy>
    <i name="e_fr_energy">   -296.73923886 </i>
    <i name="e_wo_entrp">   -296.73923886 </i>
    <i name="e_0_energy">   -296.73923886 </i>
   </energy>
  </scstep>
  <scstep>
   <time name="dav">   82.40   82.81</time>
   <time name="total">   83.21   83.63</time>
   <energy>
    <i name="e_fr_energy">   -296.73929674 </i>
    <i name="e_wo_entrp">   -296.73929674 </i>
    <i name="e_0_energy">   -296.73929674 </i>
   </energy>
  </scstep>
  <scstep>
   <time name="dav">   70.35   71.04</time>
   <time name="total">   71.15   71.85</time>
   <energy>
    <i name="e_fr_energy">   -296.73930629 </i>
    <i name="e_wo_entrp">   -296.73930629 </i>
    <i name="e_0_energy">   -296.73930629 </i>
   </energy>
  </scstep>
  <scstep>
   <time name="dav">   68.01   68.13</time>
   <time name="total">   68.82   68.94</time>
   <energy>
    <i name="e_fr_energy">   -296.73931398 </i>
    <i name="e_wo_entrp">   -296.73931398 </i>
    <i name="e_0_energy">   -296.73931398 </i>
   </energy>
  </scstep>
  <scstep>
   <time name="dav">   67.54   67.91</time>
   <time name="total">   68.34   68.72</time>
   <energy>
    <i name="e_fr_energy">   -296.73931424 </i>
    <i name="e_wo_entrp">   -296.73931424 </i>
    <i name="e_0_energy">   -296.73931424 </i>
   </energy>
  </scstep>
  <scstep>
   <time name="dav">   57.93   58.14</time>
   <time name="total">   58.01   58.22</time>
   <energy>
    <i name="alphaZ">   1088.16801863 </i>
    <i name="ewald"> -30995.58739384 </i>
    <i name="hartreedc"> -12888.02424515 </i>
    <i name="XCdc">   1420.94906216 </i>
    <i name="pawpsdc">  44190.57703722 </i>
    <i name="pawaedc"> -43671.57288229 </i>
    <i name="eentropy">      0.00000000 </i>
    <i name="bandstr">  -4232.31078063 </i>
    <i name="atom">  44791.06186932 </i>
    <i name="e_fr_energy">   -296.73931459 </i>
    <i name="e_wo_entrp">   -296.73931459 </i>
    <i name="e_0_energy">   -296.73931459 </i>
   </energy>
  </scstep>
  <structure>
   <crystal>
    <varray name="basis" >
     <v>      11.13872729      -0.00326962      -0.00714509 </v>
     <v>      -0.00280049       9.50206285      -0.00160804 </v>
     <v>      -0.00714758      -0.00187807      11.15577179 </v>
    </varray>
    <i name="volume">   1180.73615744 </i>
    <varray name="rec_basis" >
     <v>       0.08977691       0.00002647       0.00005753 </v>
     <v>       0.00003090       0.10524032       0.00001774 </v>
     <v>       0.00005751       0.00001519       0.08963974 </v>
    </varray>
   </crystal>
   <varray name="positions" >
    <v>       0.37521176       0.00078580       0.18948657 </v>
    <v>       0.88074191       0.00103424       0.43760370 </v>
    <v>       0.62377853       0.99949238       0.18560365 </v>
    <v>       0.87406312      -0.00051112       0.18730240 </v>
    <v>       0.12547757       0.99981071       0.93260286 </v>
    <v>       0.37420926       0.00110955       0.93613718 </v>
    <v>       0.36914229      -0.00030013       0.68454103 </v>
    <v>       0.62525839       0.99981823       0.93891204 </v>
    <v>       0.87650361      -0.00082871       0.93610907 </v>
    <v>       0.88030298       0.00072666       0.68656563 </v>
    <v>       0.12591290       0.00035489       0.19238154 </v>
    <v>       0.62071521       0.99977670       0.43290372 </v>
    <v>       0.62349102       0.00034054       0.69013348 </v>
    <v>       0.00073621       0.30045288       0.06218227 </v>
    <v>       0.25009651       0.69941359       0.06234300 </v>
    <v>       0.24955853       0.29024881       0.31536644 </v>
    <v>       0.49741825       0.70452272       0.31324899 </v>
    <v>       0.49911009       0.29554473       0.06295275 </v>
    <v>       0.75049977       0.70428304       0.06276603 </v>
    <v>       0.75097886       0.30078739       0.31250553 </v>
    <v>       0.00166853       0.70471378       0.31485578 </v>
    <v>       0.00305525       0.28573298       0.56306494 </v>
    <v>       0.24849021       0.71815660       0.56245169 </v>
    <v>       0.24842453       0.29041636       0.81096493 </v>
    <v>       0.49773766       0.69931359       0.81286765 </v>
    <v>       0.49635767       0.30099885       0.56209236 </v>
    <v>       0.75242216       0.69398426       0.56285823 </v>
    <v>       0.75144031       0.30069524       0.81306328 </v>
    <v>       0.00192945       0.70965531       0.81110523 </v>
    <v>       0.24988193       0.32776769       0.06297050 </v>
    <v>      -0.00013313       0.67249047       0.06342255 </v>
    <v>       0.50157970       0.32715532       0.31303477 </v>
    <v>       0.25010562       0.67258566       0.31059149 </v>
    <v>       0.75005433       0.32712608       0.06287288 </v>
    <v>       0.50036989       0.67265610       0.06251301 </v>
    <v>       0.99860931       0.32753457       0.31111980 </v>
    <v>       0.74947407       0.67291049       0.31331273 </v>
    <v>       0.25182837       0.32771139       0.56295070 </v>
    <v>      -0.00278884       0.67244719       0.56242329 </v>
    <v>       0.50149097       0.32722389       0.81262021 </v>
    <v>       0.25122955       0.67222771       0.81494671 </v>
    <v>       0.74822568       0.32691205       0.56285367 </v>
    <v>       0.50292979       0.67319093       0.56328106 </v>
    <v>       0.99841236       0.32765718       0.81445021 </v>
    <v>       0.74873379       0.67296521       0.81240443 </v>
    <v>       0.50033965       0.07724852       0.06211854 </v>
    <v>       0.24781183       0.92587929       0.06434345 </v>
    <v>       0.24829349       0.08152631       0.30435142 </v>
    <v>      -0.00163016       0.92204521       0.30677185 </v>
    <v>       0.00151393       0.07397312       0.06467337 </v>
    <v>       0.74982920       0.92316462       0.06246100 </v>
    <v>       0.74772270       0.07328181       0.31490812 </v>
    <v>       0.50610195       0.92252371       0.31207228 </v>
    <v>       0.50841087       0.07290338       0.56514475 </v>
    <v>       0.25302401       0.91076587       0.56481172 </v>
    <v>       0.25351232       0.08185554       0.81620975 </v>
    <v>      -0.00358194       0.91830807       0.81600218 </v>
    <v>       0.99324662       0.08535250       0.56225685 </v>
    <v>       0.74475005       0.93054945       0.56242892 </v>
    <v>       0.74695952       0.07315694       0.80990391 </v>
    <v>       0.50357004       0.92660387       0.81027190 </v>
   </varray>
  </structure>
  <varray name="forces" >
   <v>       0.12681315       0.05771800       0.37573582 </v>
   <v>       0.61268287       0.07765391       0.11544293 </v>
   <v>      -0.03198757      -0.03932234      -0.21027259 </v>
   <v>      -0.12881805      -0.07305553       0.05411445 </v>
   <v>       0.00971076      -0.00385206      -0.46263980 </v>
   <v>      -0.13366281       0.09292727      -0.06632583 </v>
   <v>      -0.71542107      -0.03438112      -0.45076445 </v>
   <v>      -0.01257423      -0.00180190       0.24419551 </v>
   <v>       0.10877678      -0.10460001      -0.05618153 </v>
   <v>       0.64864248       0.04517392      -0.10901330 </v>
   <v>      -0.05776321      -0.04919637       0.30307893 </v>
   <v>      -0.28521450       0.06550962       0.00559569 </v>
   <v>       0.15185204      -0.00312987       0.18493094 </v>
   <v>       0.10141463      -0.05101530      -0.03318661 </v>
   <v>      -0.06315254      -0.00459256      -0.04536984 </v>
   <v>       0.00379897       0.83062981       0.30035096 </v>
   <v>      -0.22693586      -0.20716307       0.09767807 </v>
   <v>      -0.13882685       0.12399330      -0.04049239 </v>
   <v>       0.08227245      -0.04037254      -0.00831392 </v>
   <v>       0.12048148      -0.10792861       0.05521204 </v>
   <v>       0.12485219      -0.26343065       0.14546657 </v>
   <v>       0.35573774       2.01149354       0.01866361 </v>
   <v>      -0.26598917      -3.94455437      -0.15733112 </v>
   <v>      -0.13339372       0.92495218      -0.12865724 </v>
   <v>      -0.15232985       0.05788782      -0.05208939 </v>
   <v>      -0.22451649      -0.17486821      -0.03166988 </v>
   <v>       0.10545606       0.10452978       0.00204663 </v>
   <v>       0.09538392      -0.10409046      -0.06906056 </v>
   <v>       0.20245224      -0.88939862      -0.14563207 </v>
   <v>      -0.00948455       0.28474609       0.02275510 </v>
   <v>      -0.02027249      -0.24911091       0.06197184 </v>
   <v>       0.15364058       0.09225197       0.02236579 </v>
   <v>       0.00916949      -0.08514777      -0.30940144 </v>
   <v>      -0.01014763       0.11421915       0.00030440 </v>
   <v>       0.03379262      -0.13459366      -0.02069655 </v>
   <v>      -0.11483240       0.14994709      -0.18712722 </v>
   <v>      -0.04928957      -0.19571408       0.03570845 </v>
   <v>       0.24351292       0.04057511       0.02137250 </v>
   <v>      -0.36505047      -0.07664465      -0.05124133 </v>
   <v>       0.14547142       0.20431787      -0.02996147 </v>
   <v>       0.16261058      -0.14700723       0.25917661 </v>
   <v>      -0.16167074       0.30633464      -0.00301859 </v>
   <v>       0.29273609      -0.18825748       0.02286213 </v>
   <v>      -0.18365067       0.11157677       0.17398290 </v>
   <v>      -0.10851157      -0.18996293      -0.03298884 </v>
   <v>       0.02098530      -0.12514026       0.00043349 </v>
   <v>      -0.25724784      -0.29072158       0.30398820 </v>
   <v>      -0.10777897      -0.83190318      -1.16190034 </v>
   <v>      -0.28080526       0.11985706      -0.72770843 </v>
   <v>       0.27656120       0.31258407       0.31216888 </v>
   <v>      -0.01133986       0.06615294      -0.00742479 </v>
   <v>      -0.25138612       0.39473955       0.17898605 </v>
   <v>       0.58349503      -0.01595272      -0.42745717 </v>
   <v>       0.75585767       0.60799213       0.32464174 </v>
   <v>       0.66707363       4.39464310       0.56397287 </v>
   <v>       0.53612266      -1.03868565       0.55580426 </v>
   <v>      -0.55057917       1.03382757       0.54321739 </v>
   <v>      -1.16142560      -2.32260278      -0.02239382 </v>
   <v>      -0.47570057      -0.64383655      -0.05661001 </v>
   <v>      -0.17276804       0.40961810      -0.12404521 </v>
   <v>       0.13117052      -0.40381735      -0.07724899 </v>
  </varray>
  <varray name="stress" >
   <v>       6.81530312       1.58023028       0.68247818 </v>
   <v>       1.58023043       9.94919933       0.81095811 </v>
   <v>       0.68247800       0.81095765       4.79690462 </v>
  </varray>
  <energy>
   <i name="e_fr_energy">   -311.57411097 </i>
   <i name="e_wo_entrp">   -311.57411097 </i>
   <i name="e_0_energy">      0.00000000 </i>
  </energy>
  <time name="totalsc"> 1071.71 1078.97</time>
 </calculation>
 <calculation>
  <scstep>
   <time name="dav">   65.19   65.41</time>
   <time name="total">   65.99   66.21</time>
   <energy>
    <i name="alphaZ">   1085.94428481 </i>
    <i name="ewald"> -30978.33701515 </i>
    <i name="hartreedc"> -12877.62934254 </i>
    <i name="XCdc">   1419.68218796 </i>
    <i name="pawpsdc">  44190.66598066 </i>
    <i name="pawaedc"> -43671.66273666 </i>
    <i name="eentropy">      0.00000000 </i>
    <i name="bandstr">  -4256.49373434 </i>
    <i name="atom">  44791.06186932 </i>
    <i name="e_fr_energy">   -296.76850594 </i>
    <i name="e_wo_entrp">   -296.76850594 </i>
    <i name="e_0_energy">   -296.76850594 </i>
   </energy>
  </scstep>
  <scstep>
   <time name="dav">   66.64   67.26</time>
   <time name="total">   67.42   68.06</time>
   <energy>
    <i name="e_fr_energy">   -296.83980724 </i>
    <i name="e_wo_entrp">   -296.83980724 </i>
    <i name="e_0_energy">   -296.83980724 </i>
   </energy>
  </scstep>
  <scstep>
   <time name="dav">   82.50   82.83</time>
   <time name="total">   83.30   83.63</time>
   <energy>
    <i name="e_fr_energy">   -296.83599291 </i>
    <i name="e_wo_entrp">   -296.83599291 </i>
    <i name="e_0_energy">   -296.83599291 </i>
   </energy>
  </scstep>
  <scstep>
   <time name="dav">   74.75   75.02</time>
   <time name="total">   75.55   75.82</time>
   <energy>
    <i name="e_fr_energy">   -296.83308361 </i>
    <i name="e_wo_entrp">   -296.83308361 </i>
    <i name="e_0_energy">   -296.83308361 </i>
   </energy>
  </scstep>
  <scstep>
   <time name="dav">   75.19   75.66</time>
   <time name="total">   76.01   76.48</time>
   <energy>
    <i name="e_fr_energy">   -296.83282439 </i>
    <i name="e_wo_entrp">   -296.83282439 </i>
    <i name="e_0_energy">   -296.83282439 </i>
   </energy>
  </scstep>
  <scstep>
   <time name="dav">   72.83   73.00</time>
   <time name="total">   73.63   73.81</time>
   <energy>
    <i name="e_fr_energy">   -296.83277122 </i>
    <i name="e_wo_entrp">   -296.83277122 </i>
    <i name="e_0_energy">   -296.83277122 </i>
   </energy>
  </scstep>
  <scstep>
   <time name="dav">   86.23   86.26</time>
   <time name="total">   87.03   87.06</time>
   <energy>
    <i name="e_fr_energy">   -296.83274218 </i>
    <i name="e_wo_entrp">   -296.83274218 </i>
    <i name="e_0_energy">   -296.83274218 </i>
   </energy>
  </scstep>
  <scstep>
   <time name="dav">   72.44   72.49</time>
   <time name="total">   73.24   73.29</time>
   <energy>
    <i name="e_fr_energy">   -296.83272707 </i>
    <i name="e_wo_entrp">   -296.83272707 </i>
    <i name="e_0_energy">   -296.83272707 </i>
   </energy>
  </scstep>
  <scstep>
   <time name="dav">   75.76   75.90</time>
   <time name="total">   76.56   76.72</time>
   <energy>
    <i name="e_fr_energy">   -296.83272526 </i>
    <i name="e_wo_entrp">   -296.83272526 </i>
    <i name="e_0_energy">   -296.83272526 </i>
   </energy>
  </scstep>
  <scstep>
   <time name="dav">   63.20   63.31</time>
   <time name="total">   63.27   63.39</time>
   <energy>
    <i name="alphaZ">   1085.94428481 </i>
    <i name="ewald"> -30978.33701515 </i>
    <i name="hartreedc"> -12895.74299987 </i>
    <i name="XCdc">   1420.50077619 </i>
    <i name="pawpsdc">  44123.70362993 </i>
    <i name="pawaedc"> -43603.97828625 </i>
    <i name="eentropy">      0.00000000 </i>
    <i name="bandstr">  -4239.98498514 </i>
    <i name="atom">  44791.06186932 </i>
    <i name="e_fr_energy">   -296.83272616 </i>
    <i name="e_wo_entrp">   -296.83272616 </i>
    <i name="e_0_energy">   -296.83272616 </i>
   </energy>
  </scstep>
  <structure>
   <crystal>
    <varray name="basis" >
     <v>      11.14471559      -0.00277734      -0.00606931 </v>
     <v>      -0.00237884       9.51298427      -0.00136593 </v>
     <v>      -0.00607142      -0.00159530      11.15978102 </v>
    </varray>
    <i name="volume">   1183.15400057 </i>
    <varray name="rec_basis" >
     <v>       0.08972866       0.00002244       0.00004882 </v>
     <v>       0.00002620       0.10511949       0.00001504 </v>
     <v>       0.00004880       0.00001288       0.08960752 </v>
    </varray>
   </crystal>
   <varray name="positions" >
    <v>       0.37512056       0.00069226       0.18909160 </v>
    <v>       0.87993313       0.00090283       0.43749243 </v>
    <v>       0.62390430       0.99954520       0.18579485 </v>
    <v>       0.87414574      -0.00040777       0.18723721 </v>
    <v>       0.12546475       0.99981528       0.93324686 </v>
    <v>       0.37438770       0.00096709       0.93624787 </v>
    <v>       0.36996871      -0.00022845       0.68489306 </v>
    <v>       0.62527808       0.99982148       0.93860386 </v>
    <v>       0.87633546      -0.00067723       0.93622383 </v>
    <v>       0.87944278       0.00064192       0.68661100 </v>
    <v>       0.12571548       0.00027655       0.19154958 </v>
    <v>       0.62142196       0.99978667       0.43350278 </v>
    <v>       0.62365976       0.00026456       0.68964105 </v>
    <v>       0.00064447       0.29965442       0.06227684 </v>
    <v>       0.25010182       0.70023231       0.06241360 </v>
    <v>       0.24960553       0.29099839       0.31498226 </v>
    <v>       0.49778868       0.70456642       0.31318449 </v>
    <v>       0.49926417       0.29549097       0.06293130 </v>
    <v>       0.75044392       0.70436297       0.06277264 </v>
    <v>       0.75081113       0.29993815       0.31255276 </v>
    <v>       0.00139658       0.70472822       0.31454836 </v>
    <v>       0.00261358       0.28716757       0.56302639 </v>
    <v>       0.24873751       0.71613185       0.56250563 </v>
    <v>       0.24864330       0.29114071       0.81124515 </v>
    <v>       0.49806006       0.70014757       0.81286078 </v>
    <v>       0.49692752       0.30011779       0.56220090 </v>
    <v>       0.75207622       0.69562654       0.56285097 </v>
    <v>       0.75120280       0.29985994       0.81302629 </v>
    <v>       0.00161825       0.70892016       0.81136373 </v>
    <v>       0.24990728       0.32761633       0.06295382 </v>
    <v>      -0.00010548       0.67260266       0.06333768 </v>
    <v>       0.50133342       0.32709677       0.31300823 </v>
    <v>       0.25008235       0.67268348       0.31093386 </v>
    <v>       0.75005366       0.32707206       0.06287093 </v>
    <v>       0.50032161       0.67274316       0.06256536 </v>
    <v>       0.99881202       0.32741869       0.31138255 </v>
    <v>       0.74954595       0.67295898       0.31324446 </v>
    <v>       0.25155961       0.32756847       0.56293682 </v>
    <v>      -0.00235982       0.67256611       0.56248949 </v>
    <v>       0.50125813       0.32715496       0.81265624 </v>
    <v>       0.25103605       0.67237964       0.81463168 </v>
    <v>       0.74850133       0.32689060       0.56285480 </v>
    <v>       0.50249461       0.67319669       0.56321723 </v>
    <v>       0.99864451       0.32752262       0.81421034 </v>
    <v>       0.74891762       0.67300546       0.81247331 </v>
    <v>       0.50026875       0.07735948       0.06217005 </v>
    <v>       0.24812249       0.92529383       0.06405931 </v>
    <v>       0.24857164       0.08098863       0.30557529 </v>
    <v>      -0.00136365       0.92204165       0.30763049 </v>
    <v>       0.00126547       0.07458086       0.06433925 </v>
    <v>       0.74983532       0.92299097       0.06246083 </v>
    <v>       0.74808639       0.07399463       0.31453898 </v>
    <v>       0.50519960       0.92244699       0.31213020 </v>
    <v>       0.50712027       0.07367304       0.56473884 </v>
    <v>       0.25254764       0.91247303       0.56445674 </v>
    <v>       0.25300073       0.08126728       0.81564341 </v>
    <v>      -0.00302126       0.91887131       0.81546803 </v>
    <v>       0.99424715       0.08423435       0.56228799 </v>
    <v>       0.74552336       0.92925569       0.56243392 </v>
    <v>       0.74743901       0.07388890       0.81029009 </v>
    <v>       0.50305028       0.92590833       0.81060170 </v>
   </varray>
  </structure>
  <varray name="forces" >
   <v>       0.12648720       0.06839257       0.41250225 </v>
   <v>       0.70882138       0.09529860       0.12955112 </v>
   <v>      -0.05748660      -0.04365497      -0.22196652 </v>
   <v>      -0.12641152      -0.08286898       0.06256435 </v>
   <v>       0.01160007      -0.00407502      -0.54201169 </v>
   <v>      -0.15700561       0.10841915      -0.08466624 </v>
   <v>      -0.80310434      -0.04903294      -0.47064061 </v>
   <v>      -0.01580982      -0.00196455       0.27880464 </v>
   <v>       0.13344069      -0.11958416      -0.07681933 </v>
   <v>       0.75216162       0.05708405      -0.10749547 </v>
   <v>       0.01105099      -0.01523362       0.46721759 </v>
   <v>      -0.41912951       0.04408857      -0.14486451 </v>
   <v>       0.08106367       0.01477793       0.27323078 </v>
   <v>       0.10790471       0.09036729      -0.05157151 </v>
   <v>      -0.05478629      -0.14158326      -0.05639266 </v>
   <v>      -0.00998937       0.50866271       0.33307141 </v>
   <v>      -0.28078075      -0.18401890       0.09885053 </v>
   <v>      -0.15444046       0.11502647      -0.02972111 </v>
   <v>       0.08322850      -0.04848084      -0.00857871 </v>
   <v>       0.14307746       0.04618932       0.03638694 </v>
   <v>       0.17062629      -0.22511986       0.19547628 </v>
   <v>       0.37015330       1.19824981       0.02235856 </v>
   <v>      -0.24443127      -2.35775215      -0.12318301 </v>
   <v>      -0.15736908       0.58353437      -0.16916941 </v>
   <v>      -0.20880555      -0.08544324      -0.04243004 </v>
   <v>      -0.33240160      -0.01105270      -0.05343920 </v>
   <v>       0.17545996      -0.13521026       0.00263053 </v>
   <v>       0.13881566       0.04634607      -0.05027454 </v>
   <v>       0.23855370      -0.55258724      -0.17861744 </v>
   <v>      -0.01439565       0.27219649       0.02350615 </v>
   <v>      -0.02373217      -0.23432345       0.07251343 </v>
   <v>       0.18891986       0.09092401       0.02523175 </v>
   <v>       0.01394997      -0.09455446      -0.34614262 </v>
   <v>      -0.00830268       0.10865968       0.00081984 </v>
   <v>       0.03994846      -0.13200011      -0.03006873 </v>
   <v>      -0.14669847       0.15208322      -0.22168405 </v>
   <v>      -0.05872331      -0.17684665       0.04699715 </v>
   <v>       0.27403968       0.06482046       0.02037004 </v>
   <v>      -0.41902976      -0.09212387      -0.05968639 </v>
   <v>       0.17843839       0.18831159      -0.03363728 </v>
   <v>       0.18481716      -0.15833300       0.29851653 </v>
   <v>      -0.20114988       0.26792176      -0.00291395 </v>
   <v>       0.35442439      -0.16577901       0.03434017 </v>
   <v>      -0.21210330       0.12330056       0.20568427 </v>
   <v>      -0.13495157      -0.17079037      -0.04486539 </v>
   <v>       0.03491232      -0.12739398      -0.01147034 </v>
   <v>      -0.29183216      -0.15322880       0.32629983 </v>
   <v>      -0.17020319      -0.56693020      -1.27458949 </v>
   <v>      -0.29840829       0.10518605      -0.82407650 </v>
   <v>       0.29289910       0.16699603       0.34497876 </v>
   <v>      -0.01131741       0.08852792      -0.00614332 </v>
   <v>      -0.30427611       0.22071039       0.24176888 </v>
   <v>       0.72237525       0.01351475      -0.36048610 </v>
   <v>       0.96533100       0.38938477       0.38114946 </v>
   <v>       0.64130367       2.81438938       0.54078882 </v>
   <v>       0.56934138      -0.70900279       0.60046902 </v>
   <v>      -0.59294887       0.71254604       0.58217241 </v>
   <v>      -1.18715722      -1.53436524      -0.02505257 </v>
   <v>      -0.59336820      -0.38340948      -0.04668450 </v>
   <v>      -0.27004791       0.22733818      -0.20458660 </v>
   <v>       0.24745209      -0.22650407      -0.15432164 </v>
  </varray>
  <varray name="stress" >
   <v>       4.62310363       1.03615359       0.38631602 </v>
   <v>       1.03615354       3.79866678       0.51449526 </v>
   <v>       0.38631581       0.51449552       3.24809194 </v>
  </varray>
  <energy>
   <i name="e_fr_energy">   -311.64081703 </i>
   <i name="e_wo_entrp">   -311.64081703 </i>
   <i name="e_0_energy">      0.00000000 </i>
  </energy>
  <time name="totalsc">  846.87  849.58</time>
 </calculation>
 <calculation>
  <scstep>
   <time name="dav">   65.04   65.09</time>
   <time name="total">   65.95   66.00</time>
   <energy>
    <i name="alphaZ">   1084.43485382 </i>
    <i name="ewald"> -31075.85188542 </i>
    <i name="hartreedc"> -12785.32867014 </i>
    <i name="XCdc">   1419.01404755 </i>
    <i name="pawpsdc">  44123.76207816 </i>
    <i name="pawaedc"> -43604.03524190 </i>
    <i name="eentropy">      0.00000000 </i>
    <i name="bandstr">  -4249.01430754 </i>
    <i name="atom">  44791.06186932 </i>
    <i name="e_fr_energy">   -295.95725614 </i>
    <i name="e_wo_entrp">   -295.95725614 </i>
    <i name="e_0_energy">   -295.95725614 </i>
   </energy>
  </scstep>
  <scstep>
   <time name="dav">   69.92   70.02</time>
   <time name="total">   70.72   70.82</time>
   <energy>
    <i name="e_fr_energy">   -297.62556354 </i>
    <i name="e_wo_entrp">   -297.62556354 </i>
    <i name="e_0_energy">   -297.62556354 </i>
   </energy>
  </scstep>
  <scstep>
   <time name="dav">   86.83   87.39</time>
   <time name="total">   87.62   88.19</time>
   <energy>
    <i name="e_fr_energy">   -297.60804583 </i>
    <i name="e_wo_entrp">   -297.60804583 </i>
    <i name="e_0_energy">   -297.60804583 </i>
   </energy>
  </scstep>
  <scstep>
   <time name="dav">   70.45   71.13</time>
   <time name="total">   71.31   71.99</time>
   <energy>
    <i name="e_fr_energy">   -297.58051478 </i>
    <i name="e_wo_entrp">   -297.58051478 </i>
    <i name="e_0_energy">   -297.58051478 </i>
   </energy>
  </scstep>
  <scstep>
   <time name="dav">   76.49   77.53</time>
   <time name="total">   77.31   78.35</time>
   <energy>
    <i name="e_fr_energy">   -297.56022719 </i>
    <i name="e_wo_entrp">   -297.56022719 </i>
    <i name="e_0_energy">   -297.56022719 </i>
   </energy>
  </scstep>
  <scstep>
   <time name="dav">   77.72   78.03</time>
   <time name="total">   78.53   78.83</time>
   <energy>
    <i name="e_fr_energy">   -297.55779489 </i>
    <i name="e_wo_entrp">   -297.55779489 </i>
    <i name="e_0_energy">   -297.55779489 </i>
   </energy>
  </scstep>
  <scstep>
   <time name="dav">   68.78   69.35</time>
   <time name="total">   69.58   70.16</time>
   <energy>
    <i name="e_fr_energy">   -297.55814310 </i>
    <i name="e_wo_entrp">   -297.55814310 </i>
    <i name="e_0_energy">   -297.55814310 </i>
   </energy>
  </scstep>
  <scstep>
   <time name="dav">   88.63   89.24</time>
   <time name="total">   89.42   90.04</time>
   <energy>
    <i name="e_fr_energy">   -297.55805961 </i>
    <i name="e_wo_entrp">   -297.55805961 </i>
    <i name="e_0_energy">   -297.55805961 </i>
   </energy>
  </scstep>
  <scstep>
   <time name="dav">   75.64   75.85</time>
   <time name="total">   76.44   76.66</time>
   <energy>
    <i name="e_fr_energy">   -297.55797595 </i>
    <i name="e_wo_entrp">   -297.55797595 </i>
    <i name="e_0_energy">   -297.55797595 </i>
   </energy>
  </scstep>
  <scstep>
   <time name="dav">   70.90   71.00</time>
   <time name="total">   71.70   71.81</time>
   <energy>
    <i name="e_fr_energy">   -297.55799329 </i>
    <i name="e_wo_entrp">   -297.55799329 </i>
    <i name="e_0_energy">   -297.55799329 </i>
   </energy>
  </scstep>
  <scstep>
   <time name="dav">   73.44   73.56</time>
   <time name="total">   74.24   74.37</time>
   <energy>
    <i name="e_fr_energy">   -297.55799477 </i>
    <i name="e_wo_entrp">   -297.55799477 </i>
    <i name="e_0_energy">   -297.55799477 </i>
   </energy>
  </scstep>
  <scstep>
   <time name="dav">   58.53   58.63</time>
   <time name="total">   59.35   59.45</time>
   <energy>
    <i name="e_fr_energy">   -297.55799624 </i>
    <i name="e_wo_entrp">   -297.55799624 </i>
    <i name="e_0_energy">   -297.55799624 </i>
   </energy>
  </scstep>
  <scstep>
   <time name="dav">   58.81   58.90</time>
   <time name="total">   58.88   58.97</time>
   <energy>
    <i name="alphaZ">   1084.43485382 </i>
    <i name="ewald"> -31075.85188542 </i>
    <i name="hartreedc"> -12794.26825168 </i>
    <i name="XCdc">   1419.46264920 </i>
    <i name="pawpsdc">  43913.74542792 </i>
    <i name="pawaedc"> -43390.48023626 </i>
    <i name="eentropy">      0.00000000 </i>
    <i name="bandstr">  -4245.66242362 </i>
    <i name="atom">  44791.06186932 </i>
    <i name="e_fr_energy">   -297.55799672 </i>
    <i name="e_wo_entrp">   -297.55799672 </i>
    <i name="e_0_energy">   -297.55799672 </i>
   </energy>
  </scstep>
  <structure>
   <crystal>
    <varray name="basis" >
     <v>      11.15859133       0.00250605      -0.00638681 </v>
     <v>       0.00212740       9.50562927       0.00078846 </v>
     <v>      -0.00639145       0.00093179      11.17005408 </v>
    </varray>
    <i name="volume">   1184.80083929 </i>
    <varray name="rec_basis" >
     <v>       0.08961708      -0.00002006       0.00005128 </v>
     <v>      -0.00002363       0.10520083      -0.00000879 </v>
     <v>       0.00005124      -0.00000744       0.08952511 </v>
    </varray>
   </crystal>
   <varray name="positions" >
    <v>       0.37588623       0.00126861       0.19183378 </v>
    <v>       0.88498204       0.00170897       0.43832227 </v>
    <v>       0.62334014       0.99919502       0.18437399 </v>
    <v>       0.87340334      -0.00108016       0.18766631 </v>
    <v>       0.12554522       0.99978322       0.92932372 </v>
    <v>       0.37327117       0.00186499       0.93560892 </v>
    <v>       0.36447809      -0.00065438       0.68201583 </v>
    <v>       0.62516181       0.99980365       0.94056268 </v>
    <v>       0.87732636      -0.00165327       0.93560781 </v>
    <v>       0.88480489       0.00114045       0.68604554 </v>
    <v>       0.12626864       0.00040253       0.19564086 </v>
    <v>       0.61785098       0.99997752       0.43135920 </v>
    <v>       0.62356817       0.00053211       0.69204903 </v>
    <v>       0.00133252       0.30214392       0.06181847 </v>
    <v>       0.24985802       0.69743901       0.06199603 </v>
    <v>       0.24944441       0.29158071       0.31736377 </v>
    <v>       0.49566058       0.70354917       0.31376361 </v>
    <v>       0.49822095       0.29619424       0.06286142 </v>
    <v>       0.75093641       0.70391989       0.06271988 </v>
    <v>       0.75184173       0.30234051       0.31258453 </v>
    <v>       0.00281000       0.70358425       0.31615608 </v>
    <v>       0.00530092       0.28938749       0.56322048 </v>
    <v>       0.24707460       0.70972040       0.56184886 </v>
    <v>       0.24742233       0.29215545       0.80981772 </v>
    <v>       0.49635710       0.69759116       0.81270008 </v>
    <v>       0.49407144       0.30231955       0.56169796 </v>
    <v>       0.75369942       0.69075563       0.56288094 </v>
    <v>       0.75239411       0.30222729       0.81291055 </v>
[...]
       <r>    8.8686    0.0000 </r>
       <r>    8.8852    0.0000 </r>
       <r>    8.9051    0.0000 </r>
       <r>    8.9401    0.0000 </r>
       <r>    8.9961    0.0000 </r>
      </set>
     </set>
    </set>
   </array>
  </eigenvalues>
  <separator name="orbital magnetization" >
   <v name="MAGDIPOLOUT">      0.00000000      0.00000000      0.00000000</v>
  </separator>
  <dos>
   <i name="efermi">      4.32316605 </i>
   <total>
    <array>
     <dimension dim="1">gridpoints</dimension>
     <dimension dim="2">spin</dimension>
     <field>energy</field>
     <field>total</field>
     <field>integrated</field>
     <set>
      <set comment="spin 1">
       <r>   -42.4299     0.0000     0.0000 </r>
       <r>   -42.2489     0.0000     0.0000 </r>
       <r>   -42.0678     0.0000     0.0000 </r>
       <r>   -41.8868     0.0000     0.0000 </r>
       <r>   -41.7057     0.0000     0.0000 </r>
       <r>   -41.5247     0.0000     0.0000 </r>
       <r>   -41.3437     0.0000     0.0000 </r>
       <r>   -41.1626     0.0000     0.0000 </r>
       <r>   -40.9816     0.0000     0.0000 </r>
       <r>   -40.8006     0.0000     0.0000 </r>
       <r>   -40.6195     0.0000     0.0000 </r>
       <r>   -40.4385     0.0000     0.0000 </r>
       <r>   -40.2574     0.0000     0.0000 </r>
       <r>   -40.0764     0.0000     0.0000 </r>
       <r>   -39.8954     0.0000     2.0000 </r>
       <r>   -39.7143     0.0000     6.0000 </r>
       <r>   -39.5333     0.0000    12.0000 </r>
       <r>   -39.3522     0.0000    20.0000 </r>
       <r>   -39.1712     0.0000    20.0000 </r>
       <r>   -38.9902     0.0000    20.0000 </r>
       <r>   -38.8091     0.0000    20.0000 </r>
       <r>   -38.6281     0.0000    20.0000 </r>
       <r>   -38.4471     0.0000    20.0000 </r>
       <r>   -38.2660     0.0000    20.0000 </r>
       <r>   -38.0850     0.0000    20.0000 </r>
       <r>   -37.9039     0.0000    20.0000 </r>
       <r>   -37.7229     0.0000    20.0000 </r>
       <r>   -37.5419     0.0000    20.0000 </r>
       <r>   -37.3608     0.0000    20.0000 </r>
       <r>   -37.1798     0.0000    20.0000 </r>
       <r>   -36.9988     0.0000    20.0000 </r>
       <r>   -36.8177     0.0000    20.0000 </r>
       <r>   -36.6367     0.0000    20.0000 </r>
       <r>   -36.4556     0.0000    20.0000 </r>
       <r>   -36.2746     0.0000    20.0000 </r>
       <r>   -36.0936     0.0000    20.0000 </r>
       <r>   -35.9125     0.0000    20.0000 </r>
       <r>   -35.7315     0.0000    20.0000 </r>
       <r>   -35.5505     0.0000    20.0000 </r>
       <r>   -35.3694     0.0000    20.0000 </r>
       <r>   -35.1884     0.0000    20.0000 </r>
       <r>   -35.0073     0.0000    20.0000 </r>
       <r>   -34.8263     0.0000    20.0000 </r>
       <r>   -34.6453     0.0000    20.0000 </r>
       <r>   -34.4642     0.0000    20.0000 </r>
       <r>   -34.2832     0.0000    20.0000 </r>
       <r>   -34.1021     0.0000    20.0000 </r>
       <r>   -33.9211     0.0000    20.0000 </r>
       <r>   -33.7401     0.0000    20.0000 </r>
       <r>   -33.5590     0.0000    20.0000 </r>
       <r>   -33.3780     0.0000    20.0000 </r>
       <r>   -33.1970     0.0000    20.0000 </r>
       <r>   -33.0159     0.0000    20.0000 </r>
       <r>   -32.8349     0.0000    20.0000 </r>
       <r>   -32.6538     0.0000    20.0000 </r>
       <r>   -32.4728     0.0000    20.0000 </r>
       <r>   -32.2918     0.0000    20.0000 </r>
       <r>   -32.1107     0.0000    20.0000 </r>
       <r>   -31.9297     0.0000    20.0000 </r>
       <r>   -31.7487     0.0000    20.0000 </r>
       <r>   -31.5676     0.0000    20.0000 </r>
       <r>   -31.3866     0.0000    20.0000 </r>
       <r>   -31.2055     0.0000    20.0000 </r>
       <r>   -31.0245     0.0000    20.0000 </r>
       <r>   -30.8435     0.0000    20.0000 </r>
       <r>   -30.6624     0.0000    20.0000 </r>
       <r>   -30.4814     0.0000    20.0000 </r>
       <r>   -30.3003     0.0000    20.0000 </r>
       <r>   -30.1193     0.0000    20.0000 </r>
       <r>   -29.9383     0.0000    20.0000 </r>
       <r>   -29.7572     0.0000    20.0000 </r>
       <r>   -29.5762     0.0000    20.0000 </r>
       <r>   -29.3952     0.0000    20.0000 </r>
       <r>   -29.2141     0.0000    20.0000 </r>
       <r>   -29.0331     0.0000    20.0000 </r>
       <r>   -28.8520     0.0000    20.0000 </r>
       <r>   -28.6710     0.0000    20.0000 </r>
       <r>   -28.4900     0.0000    20.0000 </r>
       <r>   -28.3089     0.0000    20.0000 </r>
       <r>   -28.1279     0.0000    20.0000 </r>
       <r>   -27.9469     0.0000    20.0000 </r>
       <r>   -27.7658     0.0000    20.0000 </r>
       <r>   -27.5848     0.0000    20.0000 </r>
       <r>   -27.4037     0.0000    20.0000 </r>
       <r>   -27.2227     0.0000    20.0000 </r>
       <r>   -27.0417     0.0000    20.0000 </r>
       <r>   -26.8606     0.0000    20.0000 </r>
       <r>   -26.6796     0.0000    20.0000 </r>
       <r>   -26.4986     0.0000    20.0000 </r>
       <r>   -26.3175     0.0000    20.0000 </r>
       <r>   -26.1365     0.0000    20.0000 </r>
       <r>   -25.9554     0.0000    20.0000 </r>
       <r>   -25.7744     0.0000    20.0000 </r>
       <r>   -25.5934     0.0000    20.0000 </r>
       <r>   -25.4123     0.0000    20.0000 </r>
       <r>   -25.2313     0.0000    20.0000 </r>
       <r>   -25.0502     0.0000    20.0000 </r>
       <r>   -24.8692     0.0000    20.0000 </r>
       <r>   -24.6882     0.0000    20.0000 </r>
       <r>   -24.5071     0.0000    20.0000 </r>
       <r>   -24.3261     0.0000    20.0000 </r>
       <r>   -24.1451     0.0000    20.0000 </r>
       <r>   -23.9640     0.0000    20.0000 </r>
       <r>   -23.7830     0.0000    20.0000 </r>
       <r>   -23.6019     0.0000    20.0000 </r>
       <r>   -23.4209     0.0000    20.0000 </r>
       <r>   -23.2399     0.0000    20.0000 </r>
       <r>   -23.0588     0.0000    20.0000 </r>
       <r>   -22.8778     0.0000    20.0000 </r>
       <r>   -22.6968     0.0000    20.0000 </r>
       <r>   -22.5157     0.0000    20.0000 </r>
       <r>   -22.3347     0.0000    20.0000 </r>
       <r>   -22.1536     0.0000    20.0000 </r>
       <r>   -21.9726     0.0000    20.0000 </r>
       <r>   -21.7916     0.0000    20.0000 </r>
       <r>   -21.6105     0.0000    20.0000 </r>
       <r>   -21.4295     0.0000    20.0000 </r>
       <r>   -21.2484     0.0000    20.0000 </r>
       <r>   -21.0674     0.0000    20.0000 </r>
       <r>   -20.8864     0.0000    20.0000 </r>
       <r>   -20.7053     0.0000    20.0000 </r>
       <r>   -20.5243     0.0000    20.0000 </r>
       <r>   -20.3433     0.0000    20.0000 </r>
       <r>   -20.1622     0.0000    20.0000 </r>
       <r>   -19.9812     0.0000    20.0000 </r>
       <r>   -19.8001     0.0000    20.0000 </r>
       <r>   -19.6191     0.0000    20.0000 </r>
       <r>   -19.4381     0.0000    20.0000 </r>
       <r>   -19.2570     0.0000    20.0000 </r>
       <r>   -19.0760     0.0000    20.0000 </r>
       <r>   -18.8950     0.0000    20.0000 </r>
       <r>   -18.7139     0.0000    20.0000 </r>
       <r>   -18.5329  4524.0467   113.9384 </r>
       <r>   -18.3518     0.0000   172.0000 </r>
       <r>   -18.1708     0.0000   180.0000 </r>
       <r>   -17.9898     0.0000   180.0000 </r>
       <r>   -17.8087     0.0000   180.0000 </r>
       <r>   -17.6277     0.0000   180.0000 </r>
       <r>   -17.4467     0.0000   180.0000 </r>
       <r>   -17.2656     0.0000   180.0000 </r>
       <r>   -17.0846     0.0000   180.0000 </r>
       <r>   -16.9035     0.0000   180.0000 </r>
       <r>   -16.7225     0.0000   180.0000 </r>
       <r>   -16.5415     0.0000   180.0000 </r>
       <r>   -16.3604     0.0000   180.0000 </r>
       <r>   -16.1794     0.0000   180.0000 </r>
       <r>   -15.9983     0.0000   180.0000 </r>
       <r>   -15.8173     0.0000   180.0000 </r>
       <r>   -15.6363     0.0000   180.0000 </r>
       <r>   -15.4552     0.0000   180.0000 </r>
       <r>   -15.2742     0.0000   180.0000 </r>
       <r>   -15.0932     0.0000   180.0000 </r>
       <r>   -14.9121     0.0000   180.0000 </r>
       <r>   -14.7311     0.0000   180.0000 </r>
       <r>   -14.5500     0.0000   180.0000 </r>
       <r>   -14.3690     0.0000   180.0000 </r>
       <r>   -14.1880     0.0000   180.0000 </r>
       <r>   -14.0069     0.0000   180.0000 </r>
       <r>   -13.8259     0.0000   180.0000 </r>
       <r>   -13.6449     0.0000   180.0000 </r>
       <r>   -13.4638     0.0000   180.0000 </r>
       <r>   -13.2828     0.0000   180.0000 </r>
       <r>   -13.1017     0.0000   180.0000 </r>
       <r>   -12.9207     1.8146   183.9998 </r>
       <r>   -12.7397     0.0000   192.0000 </r>
       <r>   -12.5586     0.0000   204.0000 </r>
       <r>   -12.3776     0.0000   208.0000 </r>
       <r>   -12.1966     0.0000   212.0000 </r>
       <r>   -12.0155     0.0000   212.0000 </r>
       <r>   -11.8345     0.0000   212.0000 </r>
       <r>   -11.6534     0.0000   212.0000 </r>
       <r>   -11.4724     0.0000   212.0000 </r>
       <r>   -11.2914     0.0000   212.0000 </r>
       <r>   -11.1103     0.0000   212.0000 </r>
       <r>   -10.9293     0.0000   212.0000 </r>
       <r>   -10.7482     0.0000   212.0000 </r>
       <r>   -10.5672     0.0000   212.0000 </r>
       <r>   -10.3862     0.0000   212.0000 </r>
       <r>   -10.2051     0.0000   212.0000 </r>
       <r>   -10.0241     0.0000   212.0000 </r>
       <r>    -9.8431     0.0000   212.0000 </r>
       <r>    -9.6620     0.0000   212.0000 </r>
       <r>    -9.4810     0.0000   212.0000 </r>
       <r>    -9.2999     6.6208   212.3080 </r>
       <r>    -9.1189    17.4645   213.9753 </r>
       <r>    -8.9379     5.9938   215.9323 </r>
       <r>    -8.7568    13.1468   217.0849 </r>
       <r>    -8.5758     0.3560   219.9995 </r>
       <r>    -8.3948    15.4421   224.5757 </r>
       <r>    -8.2137     8.2105   227.7355 </r>
       <r>    -8.0327    40.8457   229.5281 </r>
       <r>    -7.8516    27.8104   236.3308 </r>
       <r>    -7.6706     2.6885   240.0312 </r>
       <r>    -7.4896    18.2375   243.0920 </r>
       <r>    -7.3085     0.0000   244.0000 </r>
       <r>    -7.1275     0.0000   244.0000 </r>
       <r>    -6.9464     0.0000   244.0000 </r>
       <r>    -6.7654     0.0000   244.0000 </r>
       <r>    -6.5844     0.0000   244.0000 </r>
       <r>    -6.4033     0.0000   244.0000 </r>
       <r>    -6.2223     7.6675   244.2865 </r>
       <r>    -6.0413    38.0716   247.9421 </r>
       <r>    -5.8602     6.3527   252.1646 </r>
       <r>    -5.6792    33.6095   255.8358 </r>
       <r>    -5.4981    24.1878   260.6663 </r>
       <r>    -5.3171    22.8122   264.8995 </r>
       <r>    -5.1361     8.0145   267.3558 </r>
       <r>    -4.9550     3.1791   268.1061 </r>
       <r>    -4.7740    12.6742   269.5773 </r>
       <r>    -4.5930     8.1257   271.7431 </r>
       <r>    -4.4119     4.8006   272.7372 </r>
       <r>    -4.2309     8.0847   273.8688 </r>
       <r>    -4.0498     4.2510   275.3162 </r>
       <r>    -3.8688     1.7649   275.7784 </r>
       <r>    -3.6878     0.4755   275.9811 </r>
       <r>    -3.5067     0.0000   276.0000 </r>
       <r>    -3.3257     0.0000   276.0000 </r>
       <r>    -3.1447     0.0000   276.0000 </r>
       <r>    -2.9636     0.0000   276.0000 </r>
       <r>    -2.7826     0.0000   276.0000 </r>
       <r>    -2.6015     0.0000   276.0000 </r>
       <r>    -2.4205     0.0000   276.0000 </r>
       <r>    -2.2395     0.0000   276.0000 </r>
       <r>    -2.0584     0.0000   276.0000 </r>
       <r>    -1.8774     0.0000   276.0000 </r>
       <r>    -1.6963     0.0000   276.0000 </r>
       <r>    -1.5153     0.0000   276.0000 </r>
       <r>    -1.3343     0.0050   276.0000 </r>
       <r>    -1.1532     8.3821   276.6668 </r>
       <r>    -0.9722     5.6369   278.0427 </r>
       <r>    -0.7912    10.0884   279.2188 </r>
       <r>    -0.6101    11.7361   281.6293 </r>
       <r>    -0.4291     9.4142   283.3873 </r>
       <r>    -0.2480    28.7592   286.8490 </r>
       <r>    -0.0670    23.1714   291.7729 </r>
       <r>     0.1140    38.8149   299.6344 </r>
       <r>     0.2951    39.2077   306.2926 </r>
       <r>     0.4761    29.0556   313.6057 </r>
       <r>     0.6571    39.1443   319.0753 </r>
       <r>     0.8382    36.9161   325.8430 </r>
       <r>     1.0192    42.4111   332.0022 </r>
       <r>     1.2003    56.9337   340.2701 </r>
       <r>     1.3813    30.2406   348.4716 </r>
       <r>     1.5623    56.7418   357.4647 </r>
       <r>     1.7434    51.9929   366.7382 </r>
       <r>     1.9244    51.4697   375.4677 </r>
       <r>     2.1055    42.6976   383.2363 </r>
       <r>     2.2865    46.0754   390.8819 </r>
       <r>     2.4675    74.5379   401.9834 </r>
       <r>     2.6486    60.1163   415.5409 </r>
       <r>     2.8296    56.5153   426.8867 </r>
       <r>     3.0106    68.1952   438.2143 </r>
       <r>     3.1917    39.8844   447.5021 </r>
       <r>     3.3727    24.8059   453.5196 </r>
       <r>     3.5538    34.9692   459.6734 </r>
       <r>     3.7348    15.6179   464.3514 </r>
       <r>     3.9158     9.5264   466.6273 </r>
       <r>     4.0969     3.4450   467.8013 </r>
       <r>     4.2779     0.0000   468.0000 </r>
       <r>     4.4589     0.0000   468.0000 </r>
       <r>     4.6400     0.0000   468.0000 </r>
       <r>     4.8210     0.0000   468.0000 </r>
       <r>     5.0021     0.0000   468.0000 </r>
       <r>     5.1831     0.0000   468.0000 </r>
       <r>     5.3641     3.5641   468.2250 </r>
       <r>     5.5452     9.0470   469.3667 </r>
       <r>     5.7262     9.9157   471.2569 </r>
       <r>     5.9072    29.7319   474.6545 </r>
       <r>     6.0883    14.0311   477.7627 </r>
       <r>     6.2693    12.8658   480.1773 </r>
       <r>     6.4504    13.4987   482.5203 </r>
       <r>     6.6314    14.9494   485.0955 </r>
       <r>     6.8124    16.5293   487.9374 </r>
       <r>     6.9935    20.4451   491.2082 </r>
       <r>     7.1745    23.7992   495.3611 </r>
       <r>     7.3556    30.5405   499.8806 </r>
       <r>     7.5366    33.0838   506.2297 </r>
       <r>     7.7176    28.9884   511.3590 </r>
       <r>     7.8987    39.4523   517.5003 </r>
       <r>     8.0797    31.7454   523.7301 </r>
       <r>     8.2607    29.1582   529.4238 </r>
       <r>     8.4418    22.6960   534.1939 </r>
       <r>     8.6228    36.0024   538.9792 </r>
       <r>     8.8039    38.0596   545.8246 </r>
       <r>     8.9849    30.1655   552.4315 </r>
       <r>     9.1659    23.2591   557.2962 </r>
       <r>     9.3470     3.1604   559.9283 </r>
       <r>     9.5280     0.0000   560.0000 </r>
       <r>     9.7090     0.0000   560.0000 </r>
       <r>     9.8901     0.0000   560.0000 </r>
       <r>    10.0711     0.0000   560.0000 </r>
       <r>    10.2522     0.0000   560.0000 </r>
       <r>    10.4332     0.0000   560.0000 </r>
       <r>    10.6142     0.0000   560.0000 </r>
       <r>    10.7953     0.0000   560.0000 </r>
       <r>    10.9763     0.0000   560.0000 </r>
       <r>    11.1574     0.0000   560.0000 </r>
       <r>    11.3384     0.0000   560.0000 </r>
       <r>    11.5194     0.0000   560.0000 </r>
       <r>    11.7005     0.0000   560.0000 </r>
       <r>    11.8815     0.0000   560.0000 </r>
      </set>
     </set>
    </array>
   </total>
  </dos>
 </calculation>
 <structure name="finalpos" >
  <crystal>
   <varray name="basis" >
    <v>      11.19543406       0.06975487       0.00964369 </v>
    <v>       0.05731520       9.53731321       0.04355246 </v>
    <v>       0.00988063       0.05270355      11.18330655 </v>
   </varray>
   <i name="volume">   1194.01915444 </i>
   <varray name="rec_basis" >
    <v>       0.08932554      -0.00053646      -0.00007639 </v>
    <v>      -0.00065291       0.10485751      -0.00049358 </v>
    <v>      -0.00007449      -0.00040790       0.08942098 </v>
   </varray>
  </crystal>
  <varray name="positions" >
   <v>       0.39564074       0.01259494       0.21505015 </v>
   <v>       0.06545037      -0.03652989       0.48216589 </v>
   <v>       0.62870142       0.00078996       0.18111291 </v>
   <v>       0.86900507      -0.00249929       0.20475834 </v>
   <v>       0.12611329      -0.00383827       0.92401147 </v>
   <v>       0.37068633       0.00402822       0.94236827 </v>
   <v>       0.25974519       0.02539203       0.66837214 </v>
   <v>       0.62458232       0.00047119       0.94628619 </v>
   <v>       0.88211854      -0.00498193       0.95597727 </v>
   <v>       0.89490654       0.01652181       0.70977783 </v>
   <v>       0.12663934      -0.00478857       0.18035640 </v>
   <v>       0.63046021       0.00190590       0.43267340 </v>
   <v>       0.62274778       0.00505403       0.69565266 </v>
   <v>      -0.00141245       0.30610061       0.06208238 </v>
   <v>       0.24540015       0.68741084       0.05641944 </v>
   <v>       0.24776339       0.30047365       0.31055483 </v>
   <v>       0.50083889       0.69866474       0.31142128 </v>
   <v>       0.49752995       0.30007877       0.06120264 </v>
   <v>       0.74756416       0.70035488       0.06100723 </v>
   <v>       0.74846146       0.30499818       0.30977346 </v>
   <v>       0.00102668       0.69029419       0.30799608 </v>
   <v>      -0.00349556       0.29785235       0.56405381 </v>
   <v>       0.24144757       0.69541710       0.55688347 </v>
   <v>       0.24740150       0.30454298       0.81415012 </v>
   <v>       0.49980906       0.70074582       0.81269283 </v>
   <v>       0.49891577       0.31789903       0.55988856 </v>
   <v>       0.74455721       0.68633741       0.56144912 </v>
   <v>       0.74781925       0.31137465       0.80944900 </v>
   <v>      -0.00171759       0.70494818       0.81183650 </v>
   <v>       0.24925181       0.35556097       0.06067274 </v>
   <v>      -0.00558680       0.64284907       0.05764087 </v>
   <v>       0.50073101       0.34951252       0.30923031 </v>
   <v>       0.24483594       0.65260125       0.30589456 </v>
   <v>       0.74881225       0.34393717       0.06124387 </v>
   <v>       0.49651767       0.65741780       0.05751614 </v>
   <v>       0.00055621       0.33643293       0.31003414 </v>
   <v>       0.74453887       0.65233515       0.30715516 </v>
   <v>       0.25327256       0.27804503       0.56406062 </v>
   <v>      -0.00837364       0.67342376       0.55631938 </v>
   <v>       0.50046599       0.34725771       0.81087025 </v>
   <v>       0.24591186       0.66390746       0.80812909 </v>
   <v>       0.74995173       0.35898338       0.56107237 </v>
   <v>       0.49373137       0.65904952       0.55726180 </v>
   <v>      -0.00132791       0.34520795       0.81256624 </v>
   <v>       0.74530418       0.65041450       0.80861791 </v>
   <v>       0.49903202       0.08054238       0.06570168 </v>
   <v>       0.23200933       0.90790106       0.05421377 </v>
   <v>       0.25085198       0.09225785       0.26818293 </v>
   <v>       0.01003127       0.90838729       0.29351145 </v>
   <v>       0.00247104       0.08367202       0.06993884 </v>
   <v>       0.75145827       0.92031117       0.06420927 </v>
   <v>       0.73405140       0.08647577       0.30386485 </v>
   <v>       0.52415239       0.91640684       0.30701315 </v>
   <v>       0.54254793       0.10510559       0.56138478 </v>
   <v>       0.21725364       0.90400382       0.55159759 </v>
   <v>       0.25356001       0.08895152       0.83179727 </v>
   <v>      -0.01510012       0.91769979       0.83598521 </v>
   <v>       0.97634376       0.08889890       0.57618153 </v>
   <v>       0.71483313       0.90392867       0.56894400 </v>
   <v>       0.74407567       0.08856881       0.80664864 </v>
   <v>       0.51973862       0.91856885       0.82258593 </v>
  </varray>
 </structure>
</modeling>
