<?xml version="1.0" encoding="ISO-8859-1"?>
<modeling>
 <generator>
  <i name="program" type="string">vasp </i>
  <i name="version" type="string">5.3.3  </i>
  <i name="subversion" type="string">18Dez12 (build Nov 19 2020 19:34:37) complex                          parallel </i>
  <i name="platform" type="string">LinuxIFC </i>
  <i name="date" type="string">2021 09 24 </i>
  <i name="time" type="string">15:39:01 </i>
 </generator>
 <incar>
  <i type="string" name="SYSTEM"> La2O2S</i>
  <i type="string" name="PREC">normal</i>
  <i type="int" name="NELMIN">     4</i>
  <i type="int" name="IBRION">     2</i>
  <i type="int" name="NFREE">    10</i>
  <i name="EDIFF">      0.00000100</i>
  <i name="EDIFFG">     -0.01000000</i>
  <i type="int" name="NSW">   200</i>
  <i type="int" name="ISIF">     3</i>
  <i name="ENCUT">    600.00000000</i>
  <i name="ENAUG">    900.00000000</i>
  <i type="int" name="ISMEAR">    -5</i>
  <i type="logical" name="LWAVE"> F  </i>
  <i type="logical" name="LCHARG"> F  </i>
 </incar>
 <kpoints>
  <generation param="Gamma">
   <v type="int" name="divisions">       2        2        2 </v>
   <v name="usershift">      0.00000000       0.00000000       0.00000000 </v>
   <v name="genvec1">      0.50000000       0.00000000       0.00000000 </v>
   <v name="genvec2">      0.00000000       0.50000000       0.00000000 </v>
   <v name="genvec3">      0.00000000       0.00000000       0.50000000 </v>
   <v name="shift">      0.00000000       0.00000000       0.00000000 </v>
  </generation>
  <varray name="kpointlist" >
   <v>       0.00000000       0.00000000       0.00000000 </v>
   <v>       0.50000000       0.00000000       0.00000000 </v>
   <v>       0.00000000       0.50000000       0.00000000 </v>
   <v>       0.50000000       0.50000000       0.00000000 </v>
   <v>       0.00000000       0.00000000       0.50000000 </v>
   <v>       0.50000000       0.00000000       0.50000000 </v>
   <v>       0.00000000       0.50000000       0.50000000 </v>
   <v>       0.50000000       0.50000000       0.50000000 </v>
  </varray>
  <varray name="weights" >
   <v>       0.12500000 </v>
   <v>       0.12500000 </v>
   <v>       0.12500000 </v>
   <v>       0.12500000 </v>
   <v>       0.12500000 </v>
   <v>       0.12500000 </v>
   <v>       0.12500000 </v>
   <v>       0.12500000 </v>
  </varray>
  <varray name="tetrahedronlist"  type="int" >
   <v type="int" >        2        1        2        4        5 </v>
   <v type="int" >        2        1        3        4        5 </v>
   <v type="int" >        2        3        4        5        7 </v>
   <v type="int" >        2        2        4        5        6 </v>
   <v type="int" >        2        4        5        6        8 </v>
   <v type="int" >        2        4        5        7        8 </v>
   <v type="int" >        2        1        2        3        6 </v>
   <v type="int" >        2        2        3        4        6 </v>
   <v type="int" >        2        3        4        6        8 </v>
   <v type="int" >        2        1        3        5        6 </v>
   <v type="int" >        2        3        5        6        7 </v>
   <v type="int" >        2        3        6        7        8 </v>
   <v type="int" >        2        2        3        4        7 </v>
   <v type="int" >        2        1        2        3        7 </v>
   <v type="int" >        2        1        2        5        7 </v>
   <v type="int" >        2        2        4        7        8 </v>
   <v type="int" >        2        2        6        7        8 </v>
   <v type="int" >        2        2        5        6        7 </v>
   <v type="int" >        2        1        3        4        8 </v>
   <v type="int" >        2        1        2        4        8 </v>
   <v type="int" >        2        1        2        6        8 </v>
   <v type="int" >        2        1        3        7        8 </v>
   <v type="int" >        2        1        5        7        8 </v>
   <v type="int" >        2        1        5        6        8 </v>
  </varray>
  <i name="volumeweight">      0.02083333 </i>
 </kpoints>
 <parameters>
  <separator name="general" >
   <i type="string" name="SYSTEM">La2O2S</i>
   <i type="logical" name="LCOMPAT"> F  </i>
  </separator>
  <separator name="electronic" >
   <i type="string" name="PREC">normal</i>
   <i name="ENMAX">    600.00000000</i>
   <i name="ENAUG">    900.00000000</i>
   <i name="EDIFF">      0.00000100</i>
   <i type="int" name="IALGO">    38</i>
   <i type="int" name="IWAVPR">    11</i>
   <i type="int" name="NBANDS">   320</i>
   <i name="NELECT">    472.00000000</i>
   <i type="int" name="TURBO">     0</i>
   <i type="int" name="IRESTART">     0</i>
   <i type="int" name="NREBOOT">     0</i>
   <i type="int" name="NMIN">     0</i>
   <i name="EREF">      0.00000000</i>
   <separator name="electronic smearing" >
    <i type="int" name="ISMEAR">    -5</i>
    <i name="SIGMA">      0.20000000</i>
    <i name="KSPACING">      0.50000000</i>
    <i type="logical" name="KGAMMA"> T  </i>
   </separator>
   <separator name="electronic projectors" >
    <i type="logical" name="LREAL"> F  </i>
    <v name="ROPT">      0.00000000      0.00000000      0.00000000      0.00000000      0.00000000</v>
    <i type="int" name="LMAXPAW">  -100</i>
    <i type="int" name="LMAXMIX">     2</i>
    <i type="logical" name="NLSPLINE"> F  </i>
   </separator>
   <separator name="electronic startup" >
    <i type="int" name="ISTART">     0</i>
    <i type="int" name="ICHARG">     2</i>
    <i type="int" name="INIWAV">     1</i>
   </separator>
   <separator name="electronic spin" >
    <i type="int" name="ISPIN">     1</i>
    <i type="logical" name="LNONCOLLINEAR"> F  </i>
    <v name="MAGMOM">      1.00000000      1.00000000      1.00000000      1.00000000      1.00000000      1.00000000      1.00000000      1.00000000      1.00000000      1.00000000      1.00000000      1.00000000      1.00000000      1.00000000      1.00000000      1.00000000      1.00000000      1.00000000      1.00000000      1.00000000
      1.00000000      1.00000000      1.00000000      1.00000000      1.00000000      1.00000000      1.00000000      1.00000000      1.00000000      1.00000000      1.00000000      1.00000000      1.00000000      1.00000000      1.00000000      1.00000000      1.00000000      1.00000000      1.00000000      1.00000000
      1.00000000      1.00000000      1.00000000      1.00000000      1.00000000      1.00000000      1.00000000      1.00000000      1.00000000      1.00000000      1.00000000      1.00000000      1.00000000      1.00000000      1.00000000      1.00000000      1.00000000      1.00000000      1.00000000      1.00000000
      1.00000000      1.00000000</v>
    <i name="NUPDOWN">     -1.00000000</i>
    <i type="logical" name="LSORBIT"> F  </i>
    <v name="SAXIS">      0.00000000      0.00000000      1.00000000</v>
    <i type="logical" name="LSPIRAL"> F  </i>
    <v name="QSPIRAL">      0.00000000      0.00000000      0.00000000</v>
    <i type="logical" name="LZEROZ"> F  </i>
   </separator>
   <separator name="electronic exchange-correlation" >
    <i type="logical" name="LASPH"> F  </i>
    <i type="logical" name="LMETAGGA"> F  </i>
   </separator>
   <separator name="electronic convergence" >
    <i type="int" name="NELM">    60</i>
    <i type="int" name="NELMDL">    -5</i>
    <i type="int" name="NELMIN">     4</i>
    <i name="ENINI">    600.00000000</i>
    <separator name="electronic convergence detail" >
     <i type="logical" name="LDIAG"> T  </i>
     <i type="logical" name="LSUBROT"> T  </i>
     <i name="WEIMIN">      0.00100000</i>
     <i name="EBREAK">      0.00000000</i>
     <i name="DEPER">      0.30000000</i>
     <i type="int" name="NRMM">     4</i>
     <i name="TIME">      0.40000000</i>
    </separator>
   </separator>
   <separator name="electronic mixer" >
    <i name="AMIX">      0.40000000</i>
    <i name="BMIX">      1.00000000</i>
    <i name="AMIN">      0.10000000</i>
    <i name="AMIX_MAG">      1.60000000</i>
    <i name="BMIX_MAG">      1.00000000</i>
    <separator name="electronic mixer details" >
     <i type="int" name="IMIX">     4</i>
     <i type="int" name="MAXMIX">   -45</i>
     <i name="WC">    100.00000000</i>
     <i type="int" name="INIMIX">     1</i>
     <i type="int" name="MIXPRE">     1</i>
     <i type="int" name="MREMOVE">     5</i>
    </separator>
   </separator>
   <separator name="electronic dipolcorrection" >
    <i type="logical" name="LDIPOL"> F  </i>
    <i type="logical" name="LMONO"> F  </i>
    <i type="int" name="IDIPOL">     0</i>
    <i name="EPSILON">      1.00000000</i>
    <v name="DIPOL">   -100.00000000   -100.00000000   -100.00000000</v>
    <i name="EFIELD">      0.00000000</i>
   </separator>
  </separator>
  <separator name="grids" >
   <i type="int" name="NGX">    70</i>
   <i type="int" name="NGY">    60</i>
   <i type="int" name="NGZ">    70</i>
   <i type="int" name="NGXF">   140</i>
   <i type="int" name="NGYF">   120</i>
   <i type="int" name="NGZF">   140</i>
   <i type="logical" name="ADDGRID"> F  </i>
  </separator>
  <separator name="ionic" >
   <i type="int" name="NSW">   200</i>
   <i type="int" name="IBRION">     2</i>
   <i type="int" name="ISIF">     3</i>
   <i name="PSTRESS">      0.00000000</i>
   <i name="EDIFFG">     -0.01000000</i>
   <i type="int" name="NFREE">    10</i>
   <i name="POTIM">      0.50000000</i>
   <i name="SMASS">     -3.00000000</i>
   <i name="SCALEE">      1.00000000</i>
  </separator>
  <separator name="ionic md" >
   <i name="TEBEG">      0.00010000</i>
   <i name="TEEND">      0.00010000</i>
   <i type="int" name="NBLOCK">     1</i>
   <i type="int" name="KBLOCK">   200</i>
   <i type="int" name="NPACO">   256</i>
   <i name="APACO">     16.00000000</i>
  </separator>
  <separator name="symmetry" >
   <i type="int" name="ISYM">     2</i>
   <i name="SYMPREC">      0.00001000</i>
  </separator>
  <separator name="dos" >
   <i type="logical" name="LORBIT"> F  </i>
   <v name="RWIGS">     -1.00000000     -1.00000000     -1.00000000     -1.00000000     -1.00000000</v>
   <i type="int" name="NEDOS">   301</i>
   <i name="EMIN">     10.00000000</i>
   <i name="EMAX">    -10.00000000</i>
   <i name="EFERMI">      0.00000000</i>
  </separator>
  <separator name="writing" >
   <i type="int" name="NWRITE">     2</i>
   <i type="logical" name="LWAVE"> F  </i>
   <i type="logical" name="LCHARG"> F  </i>
   <i type="logical" name="LPARD"> F  </i>
   <i type="logical" name="LVTOT"> F  </i>
   <i type="logical" name="LVHAR"> F  </i>
   <i type="logical" name="LELF"> F  </i>
   <i type="logical" name="LOPTICS"> F  </i>
   <v name="STM">      0.00000000      0.00000000      0.00000000      0.00000000      0.00000000      0.00000000      0.00000000</v>
  </separator>
  <separator name="performance" >
   <i type="int" name="NPAR">    40</i>
   <i type="int" name="NSIM">     4</i>
   <i type="int" name="NBLK">    -1</i>
   <i type="logical" name="LPLANE"> T  </i>
   <i type="logical" name="LSCALAPACK"> F  </i>
   <i type="logical" name="LSCAAWARE"> F  </i>
   <i type="logical" name="LSCALU"> F  </i>
   <i type="logical" name="LASYNC"> F  </i>
   <i type="logical" name="LORBITALREAL"> F  </i>
  </separator>
  <separator name="miscellaneous" >
   <i type="int" name="IDIOT">     3</i>
   <i type="logical" name="LMUSIC"> F  </i>
   <v name="POMASS">      7.01000000     24.30500000    208.98000000     32.06600000     16.00000000</v>
   <v name="DARWINR">      0.00000000      0.00000000      0.00000000      0.00000000      0.00000000</v>
   <v name="DARWINV">      1.00000000      1.00000000      1.00000000      1.00000000      1.00000000</v>
   <i type="logical" name="LCORR"> T  </i>
  </separator>
  <i type="logical" name="GGA_COMPAT"> T  </i>
  <i type="logical" name="LBERRY"> F  </i>
  <i type="int" name="ICORELEVEL">     0</i>
  <i type="logical" name="LDAU"> F  </i>
  <i type="int" name="I_CONSTRAINED_M">     0</i>
  <separator name="electronic exchange-correlation" >
   <i type="string" name="GGA">--</i>
   <i type="int" name="VOSKOWN">     0</i>
   <i type="logical" name="LHFCALC"> F  </i>
   <i type="string" name="PRECFOCK"></i>
   <i type="logical" name="LSYMGRAD"> F  </i>
   <i type="logical" name="LHFONE"> F  </i>
   <i type="logical" name="LRHFCALC"> F  </i>
   <i type="logical" name="LTHOMAS"> F  </i>
   <i type="logical" name="LMODELHF"> F  </i>
   <i name="ENCUT4O">     -1.00000000</i>
   <i type="int" name="EXXOEP">     0</i>
   <i type="int" name="FOURORBIT">     0</i>
   <i name="AEXX">      0.00000000</i>
   <i name="HFALPHA">      0.00000000</i>
   <i name="MCALPHA">      0.00000000</i>
   <i name="ALDAX">      1.00000000</i>
   <i name="AGGAX">      1.00000000</i>
   <i name="ALDAC">      1.00000000</i>
   <i name="AGGAC">      1.00000000</i>
   <i type="int" name="NKREDX">     1</i>
   <i type="int" name="NKREDY">     1</i>
   <i type="int" name="NKREDZ">     1</i>
   <i type="logical" name="SHIFTRED"> F  </i>
   <i type="logical" name="ODDONLY"> F  </i>
   <i type="logical" name="EVENONLY"> F  </i>
   <i type="int" name="LMAXFOCK">     0</i>
   <i type="int" name="NMAXFOCKAE">     0</i>
   <i type="logical" name="LFOCKAEDFT"> F  </i>
   <i name="HFSCREEN">      0.00000000</i>
   <i name="HFSCREENC">      0.00000000</i>
   <i type="int" name="NBANDSGWLOW">     0</i>
  </separator>
  <separator name="vdW DFT" >
   <i type="logical" name="LUSE_VDW"> F  </i>
   <i name="Zab_VDW">     -0.84910000</i>
   <i name="PARAM1">      0.12340000</i>
   <i name="PARAM2">      1.00000000</i>
   <i name="PARAM3">      0.00000000</i>
  </separator>
  <separator name="model GW" >
   <i type="int" name="MODEL_GW">     0</i>
   <i name="MODEL_EPS0">     11.58240521</i>
   <i name="MODEL_ALPHA">      1.00000000</i>
  </separator>
  <separator name="linear response parameters" >
   <i type="logical" name="LEPSILON"> F  </i>
   <i type="logical" name="LRPA"> F  </i>
   <i type="logical" name="LNABLA"> F  </i>
   <i type="logical" name="LVEL"> F  </i>
   <i type="int" name="KINTER">     0</i>
   <i name="CSHIFT">      0.10000000</i>
   <i name="OMEGAMAX">     -1.00000000</i>
   <i name="DEG_THRESHOLD">      0.00200000</i>
  </separator>
  <separator name="orbital magnetization" >
   <i type="logical" name="NUCIND"> F  </i>
   <v name="MAGPOS">      0.00000000      0.00000000      0.00000000</v>
   <i type="logical" name="LNICSALL"> T  </i>
   <i type="logical" name="ORBITALMAG"> F  </i>
   <i type="logical" name="LMAGBLOCH"> F  </i>
   <i type="logical" name="LCHIMAG"> F  </i>
   <i type="logical" name="LGAUGE"> T  </i>
   <i type="int" name="MAGATOM">     0</i>
   <v name="MAGDIPOL">      0.00000000      0.00000000      0.00000000</v>
   <v name="AVECCONST">      0.00000000      0.00000000      0.00000000</v>
  </separator>
  <separator name="response functions" >
   <i type="logical" name="LADDER"> F  </i>
   <i type="logical" name="LFXC"> F  </i>
   <i type="logical" name="LHARTREE"> T  </i>
   <i type="int" name="IBSE">     0</i>
   <i type="logical" name="LTCTE"> F  </i>
   <i type="logical" name="LTETE"> F  </i>
   <i type="logical" name="LTRIPLET"> F  </i>
   <i type="logical" name="LFXCEPS"> F  </i>
   <i type="logical" name="L2ORDER"> F  </i>
   <i type="logical" name="LUSEW"> F  </i>
   <i name="ENCUTGW">     -2.00000000</i>
   <i name="ENCUTGWSOFT">     -2.00000000</i>
   <i name="ENCUTLF">     -1.00000000</i>
   <i type="int" name="LMAXMP2">    -1</i>
   <i name="SCISSOR">      0.00000000</i>
   <i type="int" name="NOMEGA">     0</i>
   <i type="int" name="NOMEGAR">     0</i>
   <i type="int" name="NBANDSGW">    -1</i>
   <i type="int" name="NBANDSO">    -1</i>
   <i type="int" name="NBANDSV">    -1</i>
   <i type="int" name="NELM">     1</i>
   <i type="int" name="DIM">     3</i>
   <i type="int" name="ANTIRES">     0</i>
   <i name="OMEGAMAX">    -30.00000000</i>
   <i name="OMEGATL">   -200.00000000</i>
   <i type="int" name="OMEGAGRID">     0</i>
   <i name="CSHIFT">     -0.10000000</i>
   <i type="logical" name="SELFENERGY"> F  </i>
   <i type="logical" name="LSPECTRAL"> F  </i>
   <i type="logical" name="ODDONLYGW"> F  </i>
   <i type="logical" name="EVENONLYGW"> F  </i>
   <i type="int" name="NKREDLFX">     1</i>
   <i type="int" name="NKREDLFY">     1</i>
   <i type="int" name="NKREDLFZ">     1</i>
   <i type="int" name="MAXMEM">  1800</i>
   <i type="int" name="TELESCOPE">     0</i>
  </separator>
 </parameters>
 <atominfo>
  <atoms>      62 </atoms>
  <types>       5 </types>
  <array name="atoms" >
   <dimension dim="1">ion</dimension>
   <field type="string">element</field>
   <field type="int">atomtype</field>
   <set>
    <rc><c>Li</c><c>   1</c></rc>
    <rc><c>Li</c><c>   1</c></rc>
    <rc><c>Li</c><c>   1</c></rc>
    <rc><c>Li</c><c>   1</c></rc>
    <rc><c>Li</c><c>   1</c></rc>
    <rc><c>Li</c><c>   1</c></rc>
    <rc><c>Li</c><c>   1</c></rc>
    <rc><c>Li</c><c>   1</c></rc>
    <rc><c>Li</c><c>   1</c></rc>
    <rc><c>Li</c><c>   1</c></rc>
    <rc><c>Li</c><c>   1</c></rc>
    <rc><c>Li</c><c>   1</c></rc>
    <rc><c>Mg</c><c>   2</c></rc>
    <rc><c>Mg</c><c>   2</c></rc>
    <rc><c>Bi</c><c>   3</c></rc>
    <rc><c>Bi</c><c>   3</c></rc>
    <rc><c>Bi</c><c>   3</c></rc>
    <rc><c>Bi</c><c>   3</c></rc>
    <rc><c>Bi</c><c>   3</c></rc>
    <rc><c>Bi</c><c>   3</c></rc>
    <rc><c>Bi</c><c>   3</c></rc>
    <rc><c>Bi</c><c>   3</c></rc>
    <rc><c>Bi</c><c>   3</c></rc>
    <rc><c>Bi</c><c>   3</c></rc>
    <rc><c>Bi</c><c>   3</c></rc>
    <rc><c>Bi</c><c>   3</c></rc>
    <rc><c>Bi</c><c>   3</c></rc>
    <rc><c>Bi</c><c>   3</c></rc>
    <rc><c>Bi</c><c>   3</c></rc>
    <rc><c>Bi</c><c>   3</c></rc>
    <rc><c>S </c><c>   4</c></rc>
    <rc><c>S </c><c>   4</c></rc>
    <rc><c>S </c><c>   4</c></rc>
    <rc><c>S </c><c>   4</c></rc>
    <rc><c>S </c><c>   4</c></rc>
    <rc><c>S </c><c>   4</c></rc>
    <rc><c>S </c><c>   4</c></rc>
    <rc><c>S </c><c>   4</c></rc>
    <rc><c>S </c><c>   4</c></rc>
    <rc><c>S </c><c>   4</c></rc>
    <rc><c>S </c><c>   4</c></rc>
    <rc><c>S </c><c>   4</c></rc>
    <rc><c>S </c><c>   4</c></rc>
    <rc><c>S </c><c>   4</c></rc>
    <rc><c>S </c><c>   4</c></rc>
    <rc><c>S </c><c>   4</c></rc>
    <rc><c>O </c><c>   5</c></rc>
    <rc><c>O </c><c>   5</c></rc>
    <rc><c>O </c><c>   5</c></rc>
    <rc><c>O </c><c>   5</c></rc>
    <rc><c>O </c><c>   5</c></rc>
    <rc><c>O </c><c>   5</c></rc>
    <rc><c>O </c><c>   5</c></rc>
    <rc><c>O </c><c>   5</c></rc>
    <rc><c>O </c><c>   5</c></rc>
    <rc><c>O </c><c>   5</c></rc>
    <rc><c>O </c><c>   5</c></rc>
    <rc><c>O </c><c>   5</c></rc>
    <rc><c>O </c><c>   5</c></rc>
    <rc><c>O </c><c>   5</c></rc>
    <rc><c>O </c><c>   5</c></rc>
    <rc><c>O </c><c>   5</c></rc>
   </set>
  </array>
  <array name="atomtypes" >
   <dimension dim="1">type</dimension>
   <field type="int">atomspertype</field>
   <field type="string">element</field>
   <field>mass</field>
   <field>valence</field>
   <field type="string">pseudopotential</field>
   <set>
    <rc><c>  12</c><c>Li</c><c>      7.01000000</c><c>      3.00000000</c><c>  PAW_PBE Li_sv 10Sep2004               </c></rc>
    <rc><c>   2</c><c>Mg</c><c>     24.30500000</c><c>      2.00000000</c><c>  PAW_PBE Mg 13Apr2007                  </c></rc>
    <rc><c>  16</c><c>Bi</c><c>    208.98000000</c><c>     15.00000000</c><c>  PAW_PBE Bi_d 06Sep2000                </c></rc>
    <rc><c>  16</c><c>S </c><c>     32.06600000</c><c>      6.00000000</c><c>  PAW_PBE S 06Sep2000                   </c></rc>
    <rc><c>  16</c><c>O </c><c>     16.00000000</c><c>      6.00000000</c><c>  PAW_PBE O 08Apr2002                   </c></rc>
   </set>
  </array>
 </atominfo>
 <structure name="initialpos" >
  <crystal>
   <varray name="basis" >
    <v>      11.17850000       0.00000000       0.00000000 </v>
    <v>       0.00000000       9.57460000       0.00000000 </v>
    <v>       0.00000000       0.00000000      11.18240000 </v>
   </varray>
   <i name="volume">   1196.84853820 </i>
   <varray name="rec_basis" >
    <v>       0.08945744       0.00000000       0.00000000 </v>
    <v>       0.00000000       0.10444301       0.00000000 </v>
    <v>       0.00000000       0.00000000       0.08942624 </v>
   </varray>
  </crystal>
  <varray name="positions" >
   <v>       0.37539000       0.00017000       0.43687000 </v>
   <v>       0.12461000       0.99984000       0.18687000 </v>
   <v>       0.62539000       0.99984000       0.43687000 </v>
   <v>       0.87539000       0.00017000       0.43687000 </v>
   <v>       0.62461000       0.99984000       0.18687000 </v>
   <v>       0.87461000       0.00017000       0.18687000 </v>
   <v>       0.12539000       0.99984000       0.93687000 </v>
   <v>       0.37539000       0.00017000       0.93687000 </v>
   <v>       0.12461000       0.99984000       0.68687000 </v>
   <v>       0.62539000       0.99984000       0.93687000 </v>
   <v>       0.87539000       0.00017000       0.93687000 </v>
   <v>       0.87461000       0.00017000       0.68687000 </v>
   <v>       0.37461000       0.00017000       0.18687000 </v>
   <v>       0.37461000       0.00017000       0.68687000 </v>
   <v>       0.00013000       0.29519000       0.06281000 </v>
   <v>       0.25013000       0.70481000       0.06281000 </v>
   <v>       0.24987000       0.29519000       0.31282000 </v>
   <v>       0.49987000       0.70481000       0.31282000 </v>
   <v>       0.50013000       0.29519000       0.06281000 </v>
   <v>       0.75013000       0.70481000       0.06281000 </v>
   <v>       0.74987000       0.29519000       0.31282000 </v>
   <v>       0.99987000       0.70481000       0.31282000 </v>
   <v>       0.00013000       0.29519000       0.56281000 </v>
   <v>       0.25013000       0.70481000       0.56281000 </v>
   <v>       0.24987000       0.29519000       0.81282000 </v>
   <v>       0.49987000       0.70481000       0.81282000 </v>
   <v>       0.50013000       0.29519000       0.56281000 </v>
   <v>       0.75013000       0.70481000       0.56281000 </v>
   <v>       0.74987000       0.29519000       0.81282000 </v>
   <v>       0.99987000       0.70481000       0.81282000 </v>
   <v>       0.25005000       0.32677000       0.06286000 </v>
   <v>       0.00005000       0.67323000       0.06286000 </v>
   <v>       0.49995000       0.32677000       0.31286000 </v>
   <v>       0.24995000       0.67323000       0.31286000 </v>
   <v>       0.75005000       0.32677000       0.06286000 </v>
   <v>       0.50005000       0.67323000       0.06286000 </v>
   <v>       0.99995000       0.32677000       0.31286000 </v>
   <v>       0.74995000       0.67323000       0.31286000 </v>
   <v>       0.25005000       0.32677000       0.56286000 </v>
   <v>       0.00005000       0.67323000       0.56286000 </v>
   <v>       0.49995000       0.32677000       0.81286000 </v>
   <v>       0.24995000       0.67323000       0.81286000 </v>
   <v>       0.75005000       0.32677000       0.56286000 </v>
   <v>       0.50005000       0.67323000       0.56286000 </v>
   <v>       0.99995000       0.32677000       0.81286000 </v>
   <v>       0.74995000       0.67323000       0.81286000 </v>
   <v>       0.49987000       0.07798000       0.06246000 </v>
   <v>       0.24987000       0.92202000       0.06246000 </v>
   <v>       0.25013000       0.07798000       0.31246000 </v>
   <v>       0.00013000       0.92202000       0.31246000 </v>
   <v>       0.99987000       0.07798000       0.06246000 </v>
   <v>       0.74987000       0.92202000       0.06246000 </v>
   <v>       0.75013000       0.07798000       0.31246000 </v>
   <v>       0.50013000       0.92202000       0.31246000 </v>
   <v>       0.49987000       0.07798000       0.56246000 </v>
   <v>       0.24987000       0.92202000       0.56246000 </v>
   <v>       0.25013000       0.07798000       0.81246000 </v>
   <v>       0.00013000       0.92202000       0.81246000 </v>
   <v>       0.99987000       0.07798000       0.56246000 </v>
   <v>       0.74987000       0.92202000       0.56246000 </v>
   <v>       0.75013000       0.07798000       0.81246000 </v>
   <v>       0.50013000       0.92202000       0.81246000 </v>
  </varray>
 </structure>
 <calculation>
  <scstep>
   <time name="dav">   44.59   44.88</time>
   <time name="total">   44.67   44.97</time>
   <energy>
    <i name="alphaZ">   1079.87189334 </i>
    <i name="ewald"> -31115.75318431 </i>
    <i name="hartreedc"> -12709.46428174 </i>
    <i name="XCdc">   1468.89317505 </i>
    <i name="pawpsdc">  36917.91861236 </i>
    <i name="pawaedc"> -36503.41947684 </i>
    <i name="eentropy">      0.00000000 </i>
    <i name="bandstr">   1395.83643310 </i>
    <i name="atom">  45173.57650906 </i>
    <i name="e_fr_energy">   5707.45968003 </i>
    <i name="e_wo_entrp">   5707.45968003 </i>
    <i name="e_0_energy">   5707.45968003 </i>
   </energy>
  </scstep>
  <scstep>
   <time name="dav">   45.28   45.38</time>
   <time name="total">   45.30   45.41</time>
   <energy>
    <i name="e_fr_energy">    651.91996505 </i>
    <i name="e_wo_entrp">    651.91996505 </i>
    <i name="e_0_energy">    651.91996505 </i>
   </energy>
  </scstep>
  <scstep>
   <time name="dav">   49.98   50.92</time>
   <time name="total">   49.99   50.99</time>
   <energy>
    <i name="e_fr_energy">   -265.70640851 </i>
    <i name="e_wo_entrp">   -265.70640851 </i>
    <i name="e_0_energy">   -265.70640851 </i>
   </energy>
  </scstep>
  <scstep>
   <time name="dav">   58.96   59.33</time>
   <time name="total">   58.96   59.36</time>
   <energy>
    <i name="e_fr_energy">   -354.65129354 </i>
    <i name="e_wo_entrp">   -354.65129354 </i>
    <i name="e_0_energy">   -354.65129354 </i>
   </energy>
  </scstep>
  <scstep>
   <time name="dav">   72.96   73.35</time>
   <time name="total">   73.42   73.97</time>
   <energy>
    <i name="e_fr_energy">   -360.95767089 </i>
    <i name="e_wo_entrp">   -360.95767089 </i>
    <i name="e_0_energy">   -360.95767089 </i>
   </energy>
  </scstep>
  <scstep>
   <time name="dav">   66.28   66.94</time>
   <time name="total">   66.80   67.54</time>
   <energy>
    <i name="e_fr_energy">   -301.50562678 </i>
    <i name="e_wo_entrp">   -301.50562678 </i>
    <i name="e_0_energy">   -301.50562678 </i>
   </energy>
  </scstep>
  <scstep>
   <time name="dav">   49.40   49.65</time>
   <time name="total">   49.93   50.26</time>
   <energy>
    <i name="e_fr_energy">   -303.12961677 </i>
    <i name="e_wo_entrp">   -303.12961677 </i>
    <i name="e_0_energy">   -303.12961677 </i>
   </energy>
  </scstep>
  <scstep>
   <time name="dav">   57.37   57.93</time>
   <time name="total">   57.89   58.50</time>
   <energy>
    <i name="e_fr_energy">   -301.65280145 </i>
    <i name="e_wo_entrp">   -301.65280145 </i>
    <i name="e_0_energy">   -301.65280145 </i>
   </energy>
  </scstep>
  <scstep>
   <time name="dav">   60.41   60.76</time>
   <time name="total">   60.93   61.41</time>
   <energy>
    <i name="e_fr_energy">   -301.08428559 </i>
    <i name="e_wo_entrp">   -301.08428559 </i>
    <i name="e_0_energy">   -301.08428559 </i>
   </energy>
  </scstep>
  <scstep>
   <time name="dav">   62.65   63.11</time>
   <time name="total">   63.18   63.79</time>
   <energy>
    <i name="e_fr_energy">   -301.08677805 </i>
    <i name="e_wo_entrp">   -301.08677805 </i>
    <i name="e_0_energy">   -301.08677805 </i>
   </energy>
  </scstep>
  <scstep>
   <time name="dav">   56.89   57.25</time>
   <time name="total">   57.41   57.87</time>
   <energy>
    <i name="e_fr_energy">   -301.09106117 </i>
    <i name="e_wo_entrp">   -301.09106117 </i>
    <i name="e_0_energy">   -301.09106117 </i>
   </energy>
  </scstep>
  <scstep>
   <time name="dav">   54.19   54.55</time>
   <time name="total">   54.70   55.13</time>
   <energy>
    <i name="e_fr_energy">   -301.09497112 </i>
    <i name="e_wo_entrp">   -301.09497112 </i>
    <i name="e_0_energy">   -301.09497112 </i>
   </energy>
  </scstep>
  <scstep>
   <time name="dav">   56.42   56.67</time>
   <time name="total">   56.92   57.22</time>
   <energy>
    <i name="e_fr_energy">   -301.09587433 </i>
    <i name="e_wo_entrp">   -301.09587433 </i>
    <i name="e_0_energy">   -301.09587433 </i>
   </energy>
  </scstep>
  <scstep>
   <time name="dav">   63.41   63.89</time>
   <time name="total">   63.93   64.54</time>
   <energy>
    <i name="e_fr_energy">   -301.09607953 </i>
    <i name="e_wo_entrp">   -301.09607953 </i>
    <i name="e_0_energy">   -301.09607953 </i>
   </energy>
  </scstep>
  <scstep>
   <time name="dav">   53.99   54.40</time>
   <time name="total">   54.54   55.01</time>
   <energy>
    <i name="e_fr_energy">   -301.09609103 </i>
    <i name="e_wo_entrp">   -301.09609103 </i>
    <i name="e_0_energy">   -301.09609103 </i>
   </energy>
  </scstep>
  <scstep>
   <time name="dav">   52.84   53.22</time>
   <time name="total">   53.35   53.81</time>
   <energy>
    <i name="e_fr_energy">   -301.09610495 </i>
    <i name="e_wo_entrp">   -301.09610495 </i>
    <i name="e_0_energy">   -301.09610495 </i>
   </energy>
  </scstep>
  <scstep>
   <time name="dav">   55.03   55.52</time>
   <time name="total">   55.55   56.12</time>
   <energy>
    <i name="e_fr_energy">   -301.09610614 </i>
    <i name="e_wo_entrp">   -301.09610614 </i>
    <i name="e_0_energy">   -301.09610614 </i>
   </energy>
  </scstep>
  <scstep>
   <time name="dav">   43.18   43.93</time>
   <time name="total">   43.24   44.04</time>
   <energy>
    <i name="alphaZ">   1079.87189334 </i>
    <i name="ewald"> -31115.75318431 </i>
    <i name="hartreedc"> -12943.30840320 </i>
    <i name="XCdc">   1491.78200920 </i>
    <i name="pawpsdc">  43943.89356819 </i>
    <i name="pawaedc"> -43504.92188316 </i>
    <i name="eentropy">      0.00000000 </i>
    <i name="bandstr">  -4426.23661593 </i>
    <i name="atom">  45173.57650906 </i>
    <i name="e_fr_energy">   -301.09610680 </i>
    <i name="e_wo_entrp">   -301.09610680 </i>
    <i name="e_0_energy">   -301.09610680 </i>
   </energy>
  </scstep>
  <structure>
   <crystal>
    <varray name="basis" >
     <v>      11.17850000       0.00000000       0.00000000 </v>
     <v>       0.00000000       9.57460000       0.00000000 </v>
     <v>       0.00000000       0.00000000      11.18240000 </v>
    </varray>
    <i name="volume">   1196.84853820 </i>
    <varray name="rec_basis" >
     <v>       0.08945744       0.00000000       0.00000000 </v>
     <v>       0.00000000       0.10444301       0.00000000 </v>
     <v>       0.00000000       0.00000000       0.08942624 </v>
    </varray>
   </crystal>
   <varray name="positions" >
    <v>       0.37539000       0.00017000       0.43687000 </v>
    <v>       0.12461000       0.99984000       0.18687000 </v>
    <v>       0.62539000       0.99984000       0.43687000 </v>
    <v>       0.87539000       0.00017000       0.43687000 </v>
    <v>       0.62461000       0.99984000       0.18687000 </v>
    <v>       0.87461000       0.00017000       0.18687000 </v>
    <v>       0.12539000       0.99984000       0.93687000 </v>
    <v>       0.37539000       0.00017000       0.93687000 </v>
    <v>       0.12461000       0.99984000       0.68687000 </v>
    <v>       0.62539000       0.99984000       0.93687000 </v>
    <v>       0.87539000       0.00017000       0.93687000 </v>
    <v>       0.87461000       0.00017000       0.68687000 </v>
    <v>       0.37461000       0.00017000       0.18687000 </v>
    <v>       0.37461000       0.00017000       0.68687000 </v>
    <v>       0.00013000       0.29519000       0.06281000 </v>
    <v>       0.25013000       0.70481000       0.06281000 </v>
    <v>       0.24987000       0.29519000       0.31282000 </v>
    <v>       0.49987000       0.70481000       0.31282000 </v>
    <v>       0.50013000       0.29519000       0.06281000 </v>
    <v>       0.75013000       0.70481000       0.06281000 </v>
    <v>       0.74987000       0.29519000       0.31282000 </v>
    <v>       0.99987000       0.70481000       0.31282000 </v>
    <v>       0.00013000       0.29519000       0.56281000 </v>
    <v>       0.25013000       0.70481000       0.56281000 </v>
    <v>       0.24987000       0.29519000       0.81282000 </v>
    <v>       0.49987000       0.70481000       0.81282000 </v>
    <v>       0.50013000       0.29519000       0.56281000 </v>
    <v>       0.75013000       0.70481000       0.56281000 </v>
    <v>       0.74987000       0.29519000       0.81282000 </v>
    <v>       0.99987000       0.70481000       0.81282000 </v>
    <v>       0.25005000       0.32677000       0.06286000 </v>
    <v>       0.00005000       0.67323000       0.06286000 </v>
    <v>       0.49995000       0.32677000       0.31286000 </v>
    <v>       0.24995000       0.67323000       0.31286000 </v>
    <v>       0.75005000       0.32677000       0.06286000 </v>
    <v>       0.50005000       0.67323000       0.06286000 </v>
    <v>       0.99995000       0.32677000       0.31286000 </v>
    <v>       0.74995000       0.67323000       0.31286000 </v>
    <v>       0.25005000       0.32677000       0.56286000 </v>
    <v>       0.00005000       0.67323000       0.56286000 </v>
    <v>       0.49995000       0.32677000       0.81286000 </v>
    <v>       0.24995000       0.67323000       0.81286000 </v>
    <v>       0.75005000       0.32677000       0.56286000 </v>
    <v>       0.50005000       0.67323000       0.56286000 </v>
    <v>       0.99995000       0.32677000       0.81286000 </v>
    <v>       0.74995000       0.67323000       0.81286000 </v>
    <v>       0.49987000       0.07798000       0.06246000 </v>
    <v>       0.24987000       0.92202000       0.06246000 </v>
    <v>       0.25013000       0.07798000       0.31246000 </v>
    <v>       0.00013000       0.92202000       0.31246000 </v>
    <v>       0.99987000       0.07798000       0.06246000 </v>
    <v>       0.74987000       0.92202000       0.06246000 </v>
    <v>       0.75013000       0.07798000       0.31246000 </v>
    <v>       0.50013000       0.92202000       0.31246000 </v>
    <v>       0.49987000       0.07798000       0.56246000 </v>
    <v>       0.24987000       0.92202000       0.56246000 </v>
    <v>       0.25013000       0.07798000       0.81246000 </v>
    <v>       0.00013000       0.92202000       0.81246000 </v>
    <v>       0.99987000       0.07798000       0.56246000 </v>
    <v>       0.74987000       0.92202000       0.56246000 </v>
    <v>       0.75013000       0.07798000       0.81246000 </v>
    <v>       0.50013000       0.92202000       0.81246000 </v>
   </varray>
  </structure>
  <varray name="forces" >
   <v>      -0.34690997       0.06346728       0.21715972 </v>
   <v>      -0.55720440       0.00268639       0.54250657 </v>
   <v>       0.23436701       0.00464510       0.54764148 </v>
   <v>       0.32628621      -0.06485349       0.19984481 </v>
   <v>       0.58231162      -0.00218647       0.03481133 </v>
   <v>       0.17394905      -0.06288443       0.19854420 </v>
   <v>      -0.25701763       0.00179283      -0.02743448 </v>
   <v>       0.16824904      -0.06449469      -0.20573478 </v>
   <v>      -0.55161778      -0.00353625      -0.53100545 </v>
   <v>       0.23644552      -0.00513977      -0.53651946 </v>
   <v>      -0.17362403       0.06056677      -0.18691977 </v>
   <v>      -0.32615295       0.06043616      -0.18714955 </v>
   <v>      -0.20690113       0.10835847       0.32623175 </v>
   <v>       0.80429876      -0.12109100      -0.26255613 </v>
   <v>      -0.22170712       0.02094838       0.03396566 </v>
   <v>      -0.30807521      -1.07533314      -0.03785679 </v>
   <v>      -0.44718828       0.05457873       0.36621620 </v>
   <v>       0.26713314      -1.05923827       0.26246754 </v>
   <v>       0.29542608       1.07430506      -0.12582423 </v>
   <v>       0.21146069      -0.02116433      -0.03936760 </v>
   <v>       0.26426408       0.00857310       0.18211867 </v>
   <v>      -0.05236125       1.03783691       0.28599880 </v>
   <v>      -0.10619975      -1.04022680      -0.15049116 </v>
   <v>      -0.42122056      -0.04465523      -0.23042635 </v>
   <v>      -0.25474642       1.05128706      -0.11805121 </v>
   <v>       0.45195108      -0.00602206      -0.24587814 </v>
   <v>       0.41363496      -0.00071549       0.09608880 </v>
   <v>       0.08555830       1.05081713       0.14720935 </v>
   <v>       0.06485525      -1.02482579      -0.30186526 </v>
   <v>      -0.24884746      -0.01036019      -0.19434803 </v>
   <v>       0.19490562       0.06362172      -0.03010610 </v>
   <v>       0.17728288      -0.18774757      -0.10462657 </v>
   <v>      -0.11093007       0.10473014      -0.21181903 </v>
   <v>       0.30756376      -0.07004705      -0.23071783 </v>
   <v>      -0.17784405       0.18704541       0.10316308 </v>
   <v>      -0.19736804      -0.05298138       0.13034296 </v>
   <v>       0.07308468       0.19398436      -0.19322840 </v>
   <v>      -0.28054418      -0.22709510      -0.18047212 </v>
   <v>       0.21206978       0.12119935       0.14793372 </v>
   <v>       0.17939801      -0.23497001       0.12254248 </v>
   <v>      -0.30153343       0.08004210       0.13536634 </v>
   <v>       0.10244681      -0.11781502       0.11746884 </v>
   <v>      -0.17369977       0.23410592      -0.12606262 </v>
   <v>      -0.21977830      -0.13136280      -0.05708123 </v>
   <v>       0.27991740       0.22517032       0.17928375 </v>
   <v>      -0.06499924      -0.19371416       0.19448021 </v>
   <v>      -0.63689234      -0.92465266       0.55011107 </v>
   <v>       0.64609867       0.90621304       0.38822131 </v>
   <v>       1.26340142      -0.18130761      -1.22886417 </v>
   <v>      -0.52733679      -0.83790685      -0.75179171 </v>
   <v>       0.16977536      -0.02985719      -0.07379127 </v>
   <v>      -0.16003669       0.03149269       0.07461062 </v>
   <v>      -0.24104554       0.02469515      -0.16528475 </v>
   <v>      -0.57402388       0.86158540      -0.67066260 </v>
   <v>      -1.20411220       0.01855531      -0.19967872 </v>
   <v>       1.16975515       0.09607463       1.13722238 </v>
   <v>       0.53922979      -0.83073160      -0.30734649 </v>
   <v>       0.22857259      -0.02138466       0.15843145 </v>
   <v>      -0.44373501       0.89737843       0.67568544 </v>
   <v>       0.45948923      -0.90128067      -0.67067573 </v>
   <v>       0.51711996       0.83607389       0.75115619 </v>
   <v>      -1.30664844       0.06731444       0.27681302 </v>
  </varray>
  <varray name="stress" >
   <v>      -8.46018318       0.09919376      -0.02309223 </v>
   <v>       0.09919370     -14.30533147       0.27835912 </v>
   <v>      -0.02309237       0.27835924      -7.40891554 </v>
  </varray>
  <energy>
   <i name="e_fr_energy">   -316.93201388 </i>
   <i name="e_wo_entrp">   -316.93201388 </i>
   <i name="e_0_energy">      0.00000000 </i>
  </energy>
  <time name="totalsc"> 1101.23 1111.66</time>
 </calculation>
 <calculation>
  <scstep>
   <time name="dav">   46.28   46.94</time>
   <time name="total">   46.80   47.47</time>
   <energy>
    <i name="alphaZ">   1099.04073024 </i>
    <i name="ewald"> -31294.45162941 </i>
    <i name="hartreedc"> -13017.39181515 </i>
    <i name="XCdc">   1502.18342874 </i>
    <i name="pawpsdc">  43943.93540350 </i>
    <i name="pawaedc"> -43504.96621532 </i>
    <i name="eentropy">      0.00000000 </i>
    <i name="bandstr">  -4203.21615314 </i>
    <i name="atom">  45173.57650906 </i>
    <i name="e_fr_energy">   -301.28974146 </i>
    <i name="e_wo_entrp">   -301.28974146 </i>
    <i name="e_0_energy">   -301.28974146 </i>
   </energy>
  </scstep>
  <scstep>
   <time name="dav">   51.18   51.58</time>
   <time name="total">   51.69   52.14</time>
   <energy>
    <i name="e_fr_energy">   -302.13248458 </i>
    <i name="e_wo_entrp">   -302.13248458 </i>
    <i name="e_0_energy">   -302.13248458 </i>
   </energy>
  </scstep>
  <scstep>
   <time name="dav">   65.81   66.24</time>
   <time name="total">   66.32   66.81</time>
   <energy>
    <i name="e_fr_energy">   -301.91183983 </i>
    <i name="e_wo_entrp">   -301.91183983 </i>
    <i name="e_0_energy">   -301.91183983 </i>
   </energy>
  </scstep>
  <scstep>
   <time name="dav">   62.46   62.96</time>
   <time name="total">   62.98   63.52</time>
   <energy>
    <i name="e_fr_energy">   -301.84433849 </i>
    <i name="e_wo_entrp">   -301.84433849 </i>
    <i name="e_0_energy">   -301.84433849 </i>
   </energy>
  </scstep>
  <scstep>
   <time name="dav">   54.64   55.02</time>
   <time name="total">   55.16   55.66</time>
   <energy>
    <i name="e_fr_energy">   -301.84647858 </i>
    <i name="e_wo_entrp">   -301.84647858 </i>
    <i name="e_0_energy">   -301.84647858 </i>
   </energy>
  </scstep>
  <scstep>
   <time name="dav">   65.65   66.12</time>
   <time name="total">   66.16   66.71</time>
   <energy>
    <i name="e_fr_energy">   -301.84522664 </i>
    <i name="e_wo_entrp">   -301.84522664 </i>
    <i name="e_0_energy">   -301.84522664 </i>
   </energy>
  </scstep>
  <scstep>
   <time name="dav">   60.66   61.10</time>
   <time name="total">   61.18   61.75</time>
   <energy>
    <i name="e_fr_energy">   -301.84483246 </i>
    <i name="e_wo_entrp">   -301.84483246 </i>
    <i name="e_0_energy">   -301.84483246 </i>
   </energy>
  </scstep>
  <scstep>
   <time name="dav">   59.65   60.08</time>
   <time name="total">   60.21   60.72</time>
   <energy>
    <i name="e_fr_energy">   -301.84487930 </i>
    <i name="e_wo_entrp">   -301.84487930 </i>
    <i name="e_0_energy">   -301.84487930 </i>
   </energy>
  </scstep>
  <scstep>
   <time name="dav">   59.87   61.35</time>
   <time name="total">   60.39   61.98</time>
   <energy>
    <i name="e_fr_energy">   -301.84489054 </i>
    <i name="e_wo_entrp">   -301.84489054 </i>
    <i name="e_0_energy">   -301.84489054 </i>
   </energy>
  </scstep>
  <scstep>
   <time name="dav">   55.75   56.73</time>
   <time name="total">   56.28   57.36</time>
   <energy>
    <i name="e_fr_energy">   -301.84489250 </i>
    <i name="e_wo_entrp">   -301.84489250 </i>
    <i name="e_0_energy">   -301.84489250 </i>
   </energy>
  </scstep>
  <scstep>
   <time name="dav">   62.02   62.22</time>
   <time name="total">   62.54   62.78</time>
   <energy>
    <i name="e_fr_energy">   -301.84489112 </i>
    <i name="e_wo_entrp">   -301.84489112 </i>
    <i name="e_0_energy">   -301.84489112 </i>
   </energy>
  </scstep>
  <scstep>
   <time name="dav">   43.40   43.61</time>
   <time name="total">   43.48   43.76</time>
   <energy>
    <i name="alphaZ">   1099.04073024 </i>
    <i name="ewald"> -31294.45162941 </i>
    <i name="hartreedc"> -12853.70703102 </i>
    <i name="XCdc">   1494.58387026 </i>
    <i name="pawpsdc">  44306.98939973 </i>
    <i name="pawaedc"> -43870.75332256 </i>
    <i name="eentropy">      0.00000000 </i>
    <i name="bandstr">  -4357.12341724 </i>
    <i name="atom">  45173.57650906 </i>
    <i name="e_fr_energy">   -301.84489094 </i>
    <i name="e_wo_entrp">   -301.84489094 </i>
    <i name="e_0_energy">   -301.84489094 </i>
   </energy>
  </scstep>
  <structure>
   <crystal>
    <varray name="basis" >
     <v>      11.12352928       0.00064452      -0.00015004 </v>
     <v>       0.00055204       9.49498651       0.00154915 </v>
     <v>      -0.00015010       0.00180929      11.13424318 </v>
    </varray>
    <i name="volume">   1175.97379372 </i>
    <varray name="rec_basis" >
     <v>       0.08989953      -0.00000523       0.00000121 </v>
     <v>      -0.00000610       0.10531874      -0.00001711 </v>
     <v>       0.00000121      -0.00001465       0.08981302 </v>
    </varray>
   </crystal>
   <varray name="positions" >
    <v>       0.37389285       0.00048979       0.43780686 </v>
    <v>       0.12220529       0.99985354       0.18921046 </v>
    <v>       0.62640145       0.99986340       0.43923261 </v>
    <v>       0.87679814      -0.00015677       0.43773216 </v>
    <v>       0.62712306       0.99982898       0.18702018 </v>
    <v>       0.87536071      -0.00014685       0.18772655 </v>
    <v>       0.12428080       0.99984903       0.93675164 </v>
    <v>       0.37611611      -0.00015496       0.93598243 </v>
    <v>       0.12222940       0.99982218       0.68457916 </v>
    <v>       0.62641042       0.99981410       0.93455537 </v>
    <v>       0.87464070       0.00047517       0.93606360 </v>
    <v>       0.87320243       0.00047451       0.68606261 </v>
    <v>       0.37371708       0.00071598       0.18827742 </v>
    <v>       0.37808108      -0.00044013       0.68573729 </v>
    <v>      -0.00082681       0.29529555       0.06295653 </v>
    <v>       0.24880045       0.69939182       0.06264668 </v>
    <v>       0.24794009       0.29546500       0.31439991 </v>
    <v>       0.50102286       0.69947291       0.31395233 </v>
    <v>       0.50140496       0.30060300       0.06226717 </v>
    <v>       0.75104259       0.70470336       0.06264016 </v>
    <v>       0.75101048       0.29523320       0.31360569 </v>
    <v>       0.99964403       0.71003925       0.31405384 </v>
    <v>      -0.00032832       0.28994871       0.56216076 </v>
    <v>       0.24831215       0.70458500       0.56181590 </v>
    <v>       0.24877060       0.30048702       0.81231071 </v>
    <v>       0.50182047       0.70477966       0.81175924 </v>
    <v>       0.50191511       0.29518639       0.56322454 </v>
    <v>       0.75049924       0.71010466       0.56344508 </v>
    <v>       0.75014989       0.29002630       0.81151771 </v>
    <v>       0.99879606       0.70475780       0.81198155 </v>
    <v>       0.25089115       0.32709056       0.06273012 </v>
    <v>       0.00081509       0.67228401       0.06240862 </v>
    <v>       0.49947126       0.32729769       0.31194618 </v>
    <v>       0.25127734       0.67287706       0.31186465 </v>
    <v>       0.74928248       0.32771245       0.06330506 </v>
    <v>       0.49919823       0.67296305       0.06342232 </v>
    <v>       0.00026541       0.32774741       0.31202638 </v>
    <v>       0.74873927       0.67208576       0.31208141 </v>
    <v>       0.25096522       0.32738068       0.56349821 </v>
    <v>       0.00082422       0.67204608       0.56338867 </v>
    <v>       0.49864868       0.32717330       0.81344399 </v>
    <v>       0.25039213       0.67263638       0.81336678 </v>
    <v>       0.74930037       0.32794957       0.56231615 </v>
    <v>       0.49910151       0.67256811       0.56261374 </v>
    <v>       0.00115803       0.32790454       0.81363346 </v>
    <v>       0.74966949       0.67225395       0.81369902 </v>
    <v>       0.49712139       0.07332104       0.06483327 </v>
    <v>       0.25265835       0.92658605       0.06413485 </v>
    <v>       0.25558242       0.07706646       0.30715848 </v>
    <v>      -0.00214581       0.91779812       0.30921665 </v>
    <v>       0.00060269       0.07782956       0.06214165 </v>
    <v>       0.74917934       0.92217868       0.06278188 </v>
    <v>       0.74908973       0.07810443       0.31174694 </v>
    <v>       0.49765271       0.92636119       0.30956665 </v>
    <v>       0.49467346       0.07807349       0.56159855 </v>
    <v>       0.25491827       0.92250408       0.56736616 </v>
    <v>       0.25245713       0.07379427       0.81113406 </v>
    <v>       0.00111644       0.92191225       0.81314350 </v>
    <v>       0.99795499       0.08250154       0.56537501 </v>
    <v>       0.75185300       0.91747880       0.55956660 </v>
    <v>       0.75236172       0.08219265       0.81570061 </v>
    <v>       0.49449094       0.92235917       0.81365422 </v>
   </varray>
  </structure>
  <varray name="forces" >
   <v>      -0.26023832       0.03168812       0.06820088 </v>
   <v>      -0.26450796       0.00937048       0.32216177 </v>
   <v>       0.02566896       0.00965277       0.32679712 </v>
   <v>       0.22897856      -0.03395289       0.09457306 </v>
   <v>       0.26673021       0.00015934       0.01515145 </v>
   <v>       0.07994611      -0.03249386       0.09054877 </v>
   <v>      -0.02156055       0.00389374      -0.01129576 </v>
   <v>       0.03887620      -0.02957998      -0.04660341 </v>
   <v>      -0.22109957      -0.01079600      -0.31446590 </v>
   <v>       0.02359367      -0.00971491      -0.31410682 </v>
   <v>      -0.07812910       0.02698411      -0.08097177 </v>
   <v>      -0.23499166       0.03196612      -0.07862015 </v>
   <v>       0.10822378      -0.02633875      -0.09183660 </v>
   <v>       0.40040715      -0.01975861       0.11837258 </v>
   <v>      -0.06473044       0.27250376      -0.02896603 </v>
   <v>      -0.08644181       0.07943291      -0.05260397 </v>
   <v>      -0.15903184       0.08150083       0.15096847 </v>
   <v>       0.11205467       0.03096543       0.03786187 </v>
   <v>       0.07514032      -0.09646615      -0.00424417 </v>
   <v>       0.05805721      -0.27229827       0.02190616 </v>
   <v>       0.05092171       0.33945101       0.03569086 </v>
   <v>       0.01995555      -1.10238521       0.14461702 </v>
   <v>       0.02914700       1.20807573      -0.07549391 </v>
   <v>      -0.20041516      -0.15758386      -0.08874814 </v>
   <v>      -0.10866003      -0.05161538      -0.02725430 </v>
   <v>       0.15796299      -0.22091005      -0.07225693 </v>
   <v>       0.17800971       0.32242323       0.01923045 </v>
   <v>      -0.02314163      -1.22041656       0.08758054 </v>
   <v>      -0.00227641       1.10546173      -0.15279482 </v>
   <v>      -0.03510286      -0.33334518      -0.05309730 </v>
   <v>       0.07754130       0.19764410       0.01880893 </v>
   <v>       0.07995239      -0.18925900      -0.04206855 </v>
   <v>      -0.05448801       0.21848133      -0.08859289 </v>
   <v>       0.13851427      -0.11316307      -0.11744204 </v>
   <v>      -0.08185612       0.18881376       0.04108705 </v>
   <v>      -0.07605840      -0.19027081       0.05410037 </v>
   <v>       0.03038075       0.11594957      -0.09700093 </v>
   <v>      -0.12957932      -0.21674611      -0.07298535 </v>
   <v>       0.10554438       0.14934872       0.07382252 </v>
   <v>       0.07437467      -0.14573471       0.07097561 </v>
   <v>      -0.12517205       0.10225158       0.03463681 </v>
   <v>       0.04752818      -0.23375251       0.02908989 </v>
   <v>      -0.07367546       0.14369403      -0.07721432 </v>
   <v>      -0.10610764      -0.13204569      -0.00480003 </v>
   <v>       0.12178805       0.21724081       0.07719206 </v>
   <v>      -0.02654158      -0.11441963       0.09713042 </v>
   <v>      -0.20520412       0.36610481       0.21726374 </v>
   <v>       0.19729170      -0.36190522       0.21126867 </v>
   <v>       0.54875280       0.05512883      -0.57266281 </v>
   <v>      -0.49806385       1.25306572      -0.52960442 </v>
   <v>       0.02252895      -0.25373030      -0.00424599 </v>
   <v>      -0.01330662       0.25269452      -0.01050271 </v>
   <v>      -0.02530379      -0.29686793      -0.00280037 </v>
   <v>      -0.20610860      -0.33239421      -0.20029923 </v>
   <v>      -0.65424965      -0.16243048      -0.27959846 </v>
   <v>       0.68514745       0.05620468       0.66540805 </v>
   <v>       0.28593555       0.31065621      -0.27473151 </v>
   <v>       0.01111054       0.29013469       0.01564084 </v>
   <v>      -0.49124702      -1.32732003       0.51067898 </v>
   <v>       0.47123128       1.34677037      -0.52816251 </v>
   <v>       0.46789978      -1.24522935       0.52715813 </v>
   <v>      -0.69190626       0.11521166       0.21814901 </v>
  </varray>
  <varray name="stress" >
   <v>       5.40415757      -0.05447153      -0.08787477 </v>
   <v>      -0.05447217       6.79416266      -0.08537528 </v>
   <v>      -0.08787489      -0.08537537       4.72292900 </v>
  </varray>
  <energy>
   <i name="e_fr_energy">   -317.89207515 </i>
   <i name="e_wo_entrp">   -317.89207515 </i>
   <i name="e_0_energy">      0.00000000 </i>
  </energy>
  <time name="totalsc">  777.12  785.25</time>
 </calculation>
 <calculation>
  <scstep>
   <time name="dav">   55.37   56.09</time>
   <time name="total">   55.89   56.62</time>
   <energy>
    <i name="alphaZ">   1098.64443782 </i>
    <i name="ewald"> -31291.01368758 </i>
    <i name="hartreedc"> -12852.02619435 </i>
    <i name="XCdc">   1494.36865135 </i>
    <i name="pawpsdc">  44307.01874250 </i>
    <i name="pawaedc"> -43870.78942631 </i>
    <i name="eentropy">      0.00000000 </i>
    <i name="bandstr">  -4361.62909382 </i>
    <i name="atom">  45173.57650906 </i>
    <i name="e_fr_energy">   -301.85006133 </i>
    <i name="e_wo_entrp">   -301.85006133 </i>
    <i name="e_0_energy">   -301.85006133 </i>
   </energy>
  </scstep>
  <scstep>
   <time name="dav">   51.29   51.90</time>
   <time name="total">   51.80   52.49</time>
   <energy>
    <i name="e_fr_energy">   -301.85026478 </i>
    <i name="e_wo_entrp">   -301.85026478 </i>
    <i name="e_0_energy">   -301.85026478 </i>
   </energy>
  </scstep>
  <scstep>
   <time name="dav">   64.42   64.75</time>
   <time name="total">   64.93   65.34</time>
   <energy>
    <i name="e_fr_energy">   -301.85016963 </i>
    <i name="e_wo_entrp">   -301.85016963 </i>
    <i name="e_0_energy">   -301.85016963 </i>
   </energy>
  </scstep>
  <scstep>
   <time name="dav">   63.02   64.10</time>
   <time name="total">   63.52   64.73</time>
   <energy>
    <i name="e_fr_energy">   -301.85014409 </i>
    <i name="e_wo_entrp">   -301.85014409 </i>
    <i name="e_0_energy">   -301.85014409 </i>
   </energy>
  </scstep>
  <scstep>
   <time name="dav">   55.98   56.95</time>
   <time name="total">   56.48   57.51</time>
   <energy>
    <i name="e_fr_energy">   -301.85013976 </i>
    <i name="e_wo_entrp">   -301.85013976 </i>
    <i name="e_0_energy">   -301.85013976 </i>
   </energy>
  </scstep>
  <scstep>
   <time name="dav">   50.73   51.56</time>
   <time name="total">   51.24   52.13</time>
   <energy>
    <i name="e_fr_energy">   -301.85013622 </i>
    <i name="e_wo_entrp">   -301.85013622 </i>
    <i name="e_0_energy">   -301.85013622 </i>
   </energy>
  </scstep>
  <scstep>
   <time name="dav">   33.89   34.49</time>
   <time name="total">   34.39   35.06</time>
   <energy>
    <i name="e_fr_energy">   -301.85013373 </i>
    <i name="e_wo_entrp">   -301.85013373 </i>
    <i name="e_0_energy">   -301.85013373 </i>
   </energy>
  </scstep>
  <scstep>
   <time name="dav">   33.85   34.72</time>
   <time name="total">   33.92   34.92</time>
   <energy>
    <i name="alphaZ">   1098.64443782 </i>
    <i name="ewald"> -31291.01368758 </i>
    <i name="hartreedc"> -12855.37720037 </i>
    <i name="XCdc">   1494.52485055 </i>
    <i name="pawpsdc">  44298.65438496 </i>
    <i name="pawaedc"> -43862.35495573 </i>
    <i name="eentropy">      0.00000000 </i>
    <i name="bandstr">  -4358.50447225 </i>
    <i name="atom">  45173.57650906 </i>
    <i name="e_fr_energy">   -301.85013353 </i>
    <i name="e_wo_entrp">   -301.85013353 </i>
    <i name="e_0_energy">   -301.85013353 </i>
   </energy>
  </scstep>
  <structure>
   <crystal>
    <varray name="basis" >
     <v>      11.12465247       0.00063135      -0.00014698 </v>
     <v>       0.00054076       9.49661320       0.00151750 </v>
     <v>      -0.00014703       0.00177232      11.13522714 </v>
    </varray>
    <i name="volume">   1176.39797963 </i>
    <varray name="rec_basis" >
     <v>       0.08989045      -0.00000512       0.00000119 </v>
     <v>      -0.00000598       0.10530070      -0.00001676 </v>
     <v>       0.00000119      -0.00001435       0.08980509 </v>
    </varray>
   </crystal>
   <varray name="positions" >
    <v>       0.37392359       0.00048320       0.43778764 </v>
    <v>       0.12225467       0.99985326       0.18916243 </v>
    <v>       0.62638068       0.99986293       0.43918413 </v>
    <v>       0.87676923      -0.00015003       0.43771447 </v>
    <v>       0.62707146       0.99982921       0.18701710 </v>
    <v>       0.87534529      -0.00014032       0.18770897 </v>
    <v>       0.12430357       0.99984885       0.93675407 </v>
    <v>       0.37610120      -0.00014827       0.93600064 </v>
    <v>       0.12227829       0.99982254       0.68462617 </v>
    <v>       0.62638947       0.99981463       0.93460287 </v>
    <v>       0.87465608       0.00046888       0.93608015 </v>
    <v>       0.87323134       0.00046823       0.68607918 </v>
    <v>       0.37373542       0.00070473       0.18824854 </v>
    <v>       0.37800981      -0.00042756       0.68576053 </v>
    <v>      -0.00080717       0.29529338       0.06295353 </v>
    <v>       0.24882775       0.69950345       0.06265002 </v>
    <v>       0.24797971       0.29545934       0.31436750 </v>
    <v>       0.50099918       0.69958288       0.31392907 </v>
    <v>       0.50137879       0.30049147       0.06227833 </v>
    <v>       0.75102385       0.70470556       0.06264365 </v>
    <v>       0.75098706       0.29523231       0.31358957 </v>
    <v>       0.99964867       0.70993152       0.31402854 </v>
    <v>      -0.00031892       0.29005669       0.56217407 </v>
    <v>       0.24834948       0.70458963       0.56183630 </v>
    <v>       0.24879318       0.30037788       0.81232117 </v>
    <v>       0.50178042       0.70478028       0.81178101 </v>
    <v>       0.50187846       0.29518647       0.56321604 </v>
    <v>       0.75049166       0.70999557       0.56343207 </v>
    <v>       0.75014414       0.29013269       0.81154441 </v>
    <v>       0.99881811       0.70475887       0.81199876 </v>
    <v>       0.25087388       0.32708396       0.06273278 </v>
    <v>       0.00079938       0.67230350       0.06241788 </v>
    <v>       0.49948109       0.32728682       0.31196493 </v>
    <v>       0.25125009       0.67288433       0.31188507 </v>
    <v>       0.74929825       0.32769303       0.06329593 </v>
    <v>       0.49921572       0.67296855       0.06341078 </v>
    <v>       0.00025893       0.32772727       0.31204349 </v>
    <v>       0.74876413       0.67210933       0.31209739 </v>
    <v>       0.25094643       0.32736810       0.56348511 </v>
    <v>       0.00080832       0.67207047       0.56337782 </v>
    <v>       0.49867540       0.32716499       0.81343201 </v>
    <v>       0.25038305       0.67264861       0.81335638 </v>
    <v>       0.74931576       0.32792526       0.56232731 </v>
    <v>       0.49912099       0.67258175       0.56261879 </v>
    <v>       0.00113323       0.32788117       0.81361759 </v>
    <v>       0.74967524       0.67227406       0.81368180 </v>
    <v>       0.49717782       0.07341704       0.06478455 </v>
    <v>       0.25260110       0.92649198       0.06410049 </v>
    <v>       0.25547046       0.07708527       0.30726727 </v>
    <v>      -0.00209908       0.91788509       0.30928320 </v>
    <v>       0.00058765       0.07783266       0.06214818 </v>
    <v>       0.74919352       0.92217541       0.06277528 </v>
    <v>       0.74911109       0.07810186       0.31176157 </v>
    <v>       0.49770358       0.92627173       0.30962604 </v>
    <v>       0.49478016       0.07807156       0.56161623 </v>
    <v>       0.25481461       0.92249413       0.56726548 </v>
    <v>       0.25240935       0.07388051       0.81116126 </v>
    <v>       0.00109619       0.92191448       0.81312947 </v>
    <v>       0.99799431       0.08240839       0.56531521 </v>
    <v>       0.75181228       0.91757236       0.55962596 </v>
    <v>       0.75231589       0.08210587       0.81563412 </v>
    <v>       0.49460673       0.92235218       0.81362971 </v>
   </varray>
  </structure>
  <varray name="forces" >
   <v>      -0.26191885       0.03238073       0.07136080 </v>
   <v>      -0.27061997       0.00902387       0.32678500 </v>
   <v>       0.02996582       0.00934039       0.33131021 </v>
   <v>       0.23097965      -0.03469064       0.09682185 </v>
   <v>       0.27329281       0.00012621       0.01560048 </v>
   <v>       0.08204954      -0.03328933       0.09296491 </v>
   <v>      -0.02681181       0.00382972      -0.01179427 </v>
   <v>       0.04182719      -0.03053400      -0.05027936 </v>
   <v>      -0.22789395      -0.01043323      -0.31899544 </v>
   <v>       0.02805686      -0.00943295      -0.31875584 </v>
   <v>      -0.08022340       0.02784781      -0.08333987 </v>
   <v>      -0.23683921       0.03264347      -0.08088258 </v>
   <v>       0.10016350      -0.02256514      -0.08118930 </v>
   <v>       0.40879022      -0.02196698       0.10977740 </v>
   <v>      -0.06794808       0.26714598      -0.02763138 </v>
   <v>      -0.09124745       0.05964362      -0.05241562 </v>
   <v>      -0.16522590       0.08164363       0.15535407 </v>
   <v>       0.11554226       0.01215285       0.04261423 </v>
   <v>       0.07991530      -0.07641347      -0.00681813 </v>
   <v>       0.06122821      -0.26695202       0.02063747 </v>
   <v>       0.05534204       0.33238964       0.03873077 </v>
   <v>       0.01796499      -1.04675829       0.14648531 </v>
   <v>       0.02590185       1.14917839      -0.07615365 </v>
   <v>      -0.20533003      -0.15583796      -0.09158080 </v>
   <v>      -0.11194808      -0.03246116      -0.02907696 </v>
   <v>       0.16414594      -0.21679280      -0.07581676 </v>
   <v>       0.18308143       0.31597496       0.02077094 </v>
   <v>      -0.02043801      -1.16091160       0.08787412 </v>
   <v>      -0.00034907       1.05023463      -0.15483095 </v>
   <v>      -0.03949080      -0.32644470      -0.05602519 </v>
   <v>       0.07999938       0.19518180       0.01780484 </v>
   <v>       0.08213188      -0.18934815      -0.04342495 </v>
   <v>      -0.05560467       0.21631907      -0.09117171 </v>
   <v>       0.14208318      -0.11245253      -0.11980837 </v>
   <v>      -0.08399503       0.18889527       0.04242982 </v>
   <v>      -0.07857001      -0.18777520       0.05573812 </v>
   <v>       0.03136282       0.11764103      -0.09893918 </v>
   <v>      -0.13303508      -0.21709406      -0.07524029 </v>
   <v>       0.10770848       0.14885915       0.07545981 </v>
   <v>       0.07688201      -0.14768063       0.07206396 </v>
   <v>      -0.12887127       0.10198917       0.03674206 </v>
   <v>       0.04864665      -0.23155951       0.03089433 </v>
   <v>      -0.07607817       0.14566344      -0.07823821 </v>
   <v>      -0.10839960      -0.13211497      -0.00598477 </v>
   <v>       0.12538965       0.21754460       0.07934950 </v>
   <v>      -0.02744985      -0.11613392       0.09909713 </v>
   <v>      -0.21491479       0.34321089       0.22488436 </v>
   <v>       0.20749071      -0.33934091       0.21577770 </v>
   <v>       0.56614389       0.04805310      -0.58881717 </v>
   <v>      -0.49833773       1.19873422      -0.53310444 </v>
   <v>       0.02545734      -0.24882977      -0.00568671 </v>
   <v>      -0.01625023       0.24786578      -0.00869295 </v>
   <v>      -0.02972091      -0.28993508      -0.00613689 </v>
   <v>      -0.21483648      -0.31083325      -0.21105128 </v>
   <v>      -0.66643665      -0.15952996      -0.27707623 </v>
   <v>       0.69617225       0.05815888       0.67595996 </v>
   <v>       0.29162690       0.29049146      -0.27567674 </v>
   <v>       0.01550560       0.28336813       0.01853541 </v>
   <v>      -0.48993672      -1.26903470       0.51324580 </v>
   <v>       0.47062654       1.28781827      -0.53018339 </v>
   <v>       0.46864785      -1.19119756       0.53079866 </v>
   <v>      -0.70540091       0.11499430       0.21895035 </v>
  </varray>
  <varray name="stress" >
   <v>       5.05883319      -0.04941097      -0.08577048 </v>
   <v>      -0.04941097       6.16523277      -0.06680068 </v>
   <v>      -0.08577068      -0.06679998       4.41434646 </v>
  </varray>
  <energy>
   <i name="e_fr_energy">   -317.89287420 </i>
   <i name="e_wo_entrp">   -317.89287420 </i>
   <i name="e_0_energy">      0.00000000 </i>
  </energy>
  <time name="totalsc">  496.23  503.33</time>
 </calculation>
 <calculation>
  <scstep>
   <time name="dav">   44.36   45.02</time>
   <time name="total">   44.84   45.54</time>
   <energy>
    <i name="alphaZ">   1098.52080857 </i>
    <i name="ewald"> -31404.23659746 </i>
    <i name="hartreedc"> -12748.27644250 </i>
    <i name="XCdc">   1493.80315964 </i>
    <i name="pawpsdc">  44298.61542617 </i>
    <i name="pawaedc"> -43862.31631598 </i>
    <i name="eentropy">      0.00000000 </i>
    <i name="bandstr">  -4351.02628863 </i>
    <i name="atom">  45173.57650906 </i>
    <i name="e_fr_energy">   -301.33974112 </i>
    <i name="e_wo_entrp">   -301.33974112 </i>
    <i name="e_0_energy">   -301.33974112 </i>
   </energy>
  </scstep>
  <scstep>
   <time name="dav">   50.95   51.64</time>
   <time name="total">   51.47   52.24</time>
   <energy>
    <i name="e_fr_energy">   -302.34914369 </i>
    <i name="e_wo_entrp">   -302.34914369 </i>
    <i name="e_0_energy">   -302.34914369 </i>
   </energy>
  </scstep>
  <scstep>
   <time name="dav">   70.79   71.36</time>
   <time name="total">   71.31   71.95</time>
   <energy>
    <i name="e_fr_energy">   -302.34236217 </i>
    <i name="e_wo_entrp">   -302.34236217 </i>
    <i name="e_0_energy">   -302.34236217 </i>
   </energy>
  </scstep>
  <scstep>
   <time name="dav">   55.74   56.68</time>
   <time name="total">   56.25   57.29</time>
   <energy>
    <i name="e_fr_energy">   -302.32255680 </i>
    <i name="e_wo_entrp">   -302.32255680 </i>
    <i name="e_0_energy">   -302.32255680 </i>
   </energy>
  </scstep>
  <scstep>
   <time name="dav">   58.92   60.01</time>
   <time name="total">   59.43   60.61</time>
   <energy>
    <i name="e_fr_energy">   -302.31325510 </i>
    <i name="e_wo_entrp">   -302.31325510 </i>
    <i name="e_0_energy">   -302.31325510 </i>
   </energy>
  </scstep>
  <scstep>
   <time name="dav">   56.08   56.89</time>
   <time name="total">   56.60   57.49</time>
   <energy>
    <i name="e_fr_energy">   -302.31394334 </i>
    <i name="e_wo_entrp">   -302.31394334 </i>
    <i name="e_0_energy">   -302.31394334 </i>
   </energy>
  </scstep>
  <scstep>
   <time name="dav">   62.38   63.33</time>
   <time name="total">   62.88   63.90</time>
   <energy>
    <i name="e_fr_energy">   -302.31388896 </i>
    <i name="e_wo_entrp">   -302.31388896 </i>
    <i name="e_0_energy">   -302.31388896 </i>
   </energy>
  </scstep>
  <scstep>
   <time name="dav">   59.52   60.46</time>
   <time name="total">   60.03   61.05</time>
   <energy>
    <i name="e_fr_energy">   -302.31383498 </i>
    <i name="e_wo_entrp">   -302.31383498 </i>
    <i name="e_0_energy">   -302.31383498 </i>
   </energy>
  </scstep>
  <scstep>
   <time name="dav">   54.97   55.34</time>
   <time name="total">   55.49   55.90</time>
   <energy>
    <i name="e_fr_energy">   -302.31383357 </i>
    <i name="e_wo_entrp">   -302.31383357 </i>
    <i name="e_0_energy">   -302.31383357 </i>
   </energy>
  </scstep>
  <scstep>
   <time name="dav">   54.17   54.65</time>
   <time name="total">   54.68   55.21</time>
   <energy>
    <i name="e_fr_energy">   -302.31383890 </i>
    <i name="e_wo_entrp">   -302.31383890 </i>
    <i name="e_0_energy">   -302.31383890 </i>
   </energy>
  </scstep>
  <scstep>
   <time name="dav">   51.34   51.68</time>
   <time name="total">   51.41   51.87</time>
   <energy>
    <i name="alphaZ">   1098.52080857 </i>
    <i name="ewald"> -31404.23659746 </i>
    <i name="hartreedc"> -12744.62335109 </i>
    <i name="XCdc">   1493.59858375 </i>
    <i name="pawpsdc">  44116.75916755 </i>
    <i name="pawaedc"> -43677.59440925 </i>
    <i name="eentropy">      0.00000000 </i>
    <i name="bandstr">  -4358.31455075 </i>
    <i name="atom">  45173.57650906 </i>
    <i name="e_fr_energy">   -302.31383962 </i>
    <i name="e_wo_entrp">   -302.31383962 </i>
    <i name="e_0_energy">   -302.31383962 </i>
   </energy>
  </scstep>
  <structure>
   <crystal>
    <varray name="basis" >
     <v>      11.12927219       0.00063945      -0.00076471 </v>
     <v>       0.00054817       9.49037400       0.00192669 </v>
     <v>      -0.00076538       0.00225036      11.13917617 </v>
    </varray>
    <i name="volume">   1176.53037331 </i>
    <varray name="rec_basis" >
     <v>       0.08985314      -0.00000519       0.00000617 </v>
     <v>      -0.00000606       0.10536993      -0.00002129 </v>
     <v>       0.00000617      -0.00001823       0.08977325 </v>
    </varray>
   </crystal>
   <varray name="positions" >
    <v>       0.37203887       0.00080849       0.43856673 </v>
    <v>       0.11987561       0.99990543       0.19174967 </v>
    <v>       0.62701921       0.99992148       0.44180207 </v>
    <v>       0.87847556      -0.00049083       0.43856598 </v>
    <v>       0.62951663       0.99982410       0.18715999 </v>
    <v>       0.87607752      -0.00046895       0.18854100 </v>
    <v>       0.12362950       0.99987285       0.93664364 </v>
    <v>       0.37664731      -0.00046677       0.93533729 </v>
    <v>       0.12009582       0.99976137       0.68209744 </v>
    <v>       0.62702420       0.99975426       0.93206325 </v>
    <v>       0.87393245       0.00076407       0.93531488 </v>
    <v>       0.87149999       0.00078742       0.68532399 </v>
    <v>       0.37371859       0.00086622       0.18860615 </v>
    <v>       0.38152238      -0.00084703       0.68566453 </v>
    <v>      -0.00158227       0.29669829       0.06290781 </v>
    <v>       0.24776459       0.69706912       0.06234202 </v>
    <v>       0.24629476       0.29601111       0.31583243 </v>
    <v>       0.50207858       0.69694890       0.31468289 </v>
    <v>       0.50236552       0.30283847       0.06197555 </v>
    <v>       0.75174768       0.70330109       0.06264746 </v>
    <v>       0.75180002       0.29693560       0.31415167 </v>
    <v>       0.99961267       0.70727630       0.31528159 </v>
    <v>      -0.00043790       0.29322389       0.56151847 </v>
    <v>       0.24654777       0.70368787       0.56094121 </v>
    <v>       0.24775622       0.30288882       0.81193918 </v>
    <v>       0.50347109       0.70366820       0.81092048 </v>
    <v>       0.50356756       0.29678307       0.56351398 </v>
    <v>       0.75058941       0.70679595       0.56413111 </v>
    <v>       0.75028336       0.29283861       0.81022092 </v>
    <v>       0.99810710       0.70308112       0.81133549 </v>
    <v>       0.25164269       0.32823326       0.06274413 </v>
    <v>       0.00153925       0.67086785       0.06200367 </v>
    <v>       0.49899991       0.32864790       0.31111169 </v>
    <v>       0.25253182       0.67213728       0.31086757 </v>
    <v>       0.74854912       0.32912461       0.06370267 </v>
    <v>       0.49844773       0.67188369       0.06393427 </v>
    <v>       0.00055307       0.32881618       0.31119713 </v>
    <v>       0.74758026       0.67043336       0.31138132 </v>
    <v>       0.25187221       0.32842942       0.56413160 </v>
    <v>       0.00153012       0.67072528       0.56395487 </v>
    <v>       0.49746383       0.32788464       0.81388418 </v>
    <v>       0.25081575       0.67117721       0.81374480 </v>
    <v>       0.74860982       0.32925806       0.56171598 </v>
    <v>       0.49817548       0.67157918       0.56246922 </v>
    <v>       0.00228271       0.32955452       0.81434881 </v>
    <v>       0.74941557       0.67119346       0.81453156 </v>
    <v>       0.49486627       0.07280036       0.06694871 </v>
    <v>       0.25490063       0.92708058       0.06587394 </v>
    <v>       0.26065978       0.07686767       0.30206004 </v>
    <v>      -0.00539702       0.92181863       0.30535096 </v>
    <v>       0.00106643       0.07649780       0.06196370 </v>
    <v>       0.74877565       0.92350956       0.06289949 </v>
    <v>       0.74845921       0.07669797       0.31137659 </v>
    <v>       0.49552881       0.92689207       0.30725990 </v>
    <v>       0.48928644       0.07731234       0.55998744 </v>
    <v>       0.26036219       0.92303146       0.57264993 </v>
    <v>       0.25484013       0.07323654       0.80930494 </v>
    <v>       0.00165959       0.92329357       0.81355308 </v>
    <v>       0.99491475       0.07827097       0.56899654 </v>
    <v>       0.75484266       0.92179489       0.55588240 </v>
    <v>       0.75546341       0.07820580       0.81955502 </v>
    <v>       0.48872198       0.92310535       0.81517495 </v>
   </varray>
  </structure>
  <varray name="forces" >
   <v>      -0.20164018       0.01560541      -0.02163470 </v>
   <v>      -0.11742737       0.00421639       0.18530668 </v>
   <v>      -0.00777951       0.00348987       0.21405343 </v>
   <v>       0.17947646      -0.03649899       0.05173347 </v>
   <v>       0.09975806       0.00348131       0.01851147 </v>
   <v>       0.00439000      -0.02115815       0.02178350 </v>
   <v>       0.05283785       0.00299742      -0.01310619 </v>
   <v>      -0.08262507       0.00328207       0.07098547 </v>
   <v>      -0.06293635      -0.00261718      -0.18507825 </v>
   <v>      -0.00967190      -0.00101158      -0.19730513 </v>
   <v>      -0.00302979       0.01300020      -0.01241369 </v>
   <v>      -0.19823460       0.03520198      -0.02948601 </v>
   <v>       0.39945207      -0.19121494      -0.45872016 </v>
   <v>       0.09737369       0.08392786       0.36039594 </v>
   <v>       0.05950604      -0.20901788      -0.09742820 </v>
   <v>       0.10662838       0.50024181      -0.06212354 </v>
   <v>       0.16172163      -0.19514198      -0.08325164 </v>
   <v>      -0.04276616       0.48761207      -0.15231910 </v>
   <v>      -0.12354960      -0.51029183       0.11115165 </v>
   <v>      -0.05540399       0.20904971       0.09362710 </v>
   <v>      -0.14598687      -0.22733291      -0.12941552 </v>
   <v>      -0.00695876       0.25699862      -0.11247428 </v>
   <v>       0.07402787      -0.30490836       0.09226176 </v>
   <v>       0.10049300       0.23195287       0.08339840 </v>
   <v>       0.03963391      -0.52511930       0.05402541 </v>
   <v>      -0.17594592       0.11020106       0.08330219 </v>
   <v>      -0.12169851      -0.10088070      -0.06638570 </v>
   <v>      -0.05780719       0.32038555      -0.08663188 </v>
   <v>       0.03030745      -0.25840454       0.09714555 </v>
   <v>       0.16373817       0.22781645       0.11375947 </v>
   <v>      -0.03364601       0.26028855       0.05151264 </v>
   <v>      -0.03481828      -0.22496061       0.02856285 </v>
   <v>       0.00382626       0.28747419       0.03815796 </v>
   <v>      -0.04997738      -0.14492644       0.01138329 </v>
   <v>       0.02770386       0.22420254      -0.02994234 </v>
   <v>       0.03844018      -0.25163401      -0.01863515 </v>
   <v>      -0.02268027       0.12946065       0.02880947 </v>
   <v>       0.05955563      -0.26325245       0.04690192 </v>
   <v>      -0.02061915       0.19747806      -0.00133493 </v>
   <v>      -0.06341740      -0.16937476      -0.01580842 </v>
   <v>       0.06773391       0.12571107      -0.07499133 </v>
   <v>      -0.00508035      -0.30478243      -0.06134366 </v>
   <v>       0.05657920       0.17014886       0.01009157 </v>
   <v>       0.02469838      -0.16319166       0.05336779 </v>
   <v>      -0.06910397       0.26252098      -0.04336779 </v>
   <v>       0.01663537      -0.12706064      -0.02867336 </v>
   <v>       0.08174653       0.81012493      -0.03291378 </v>
   <v>      -0.07774015      -0.80963972      -0.00432303 </v>
   <v>      -0.12866338       0.56545014       0.10389490 </v>
   <v>      -0.31538916      -0.18851559      -0.25225429 </v>
   <v>      -0.00968943       0.25175828      -0.00350607 </v>
   <v>       0.01913707      -0.25504459      -0.02275160 </v>
   <v>       0.00856305       0.30655091       0.03251611 </v>
   <v>       0.07205195      -0.83397906       0.09768797 </v>
   <v>      -0.13141193       0.39222613      -0.36047842 </v>
   <v>       0.16364254      -0.48621860       0.16907064 </v>
   <v>       0.08554867       0.78848959      -0.13135663 </v>
   <v>      -0.01372808      -0.30574443      -0.00777457 </v>
   <v>      -0.31771071       0.27277405       0.27860740 </v>
   <v>       0.27865418      -0.27626377      -0.30568625 </v>
   <v>       0.25864995       0.19274178       0.26215079 </v>
   <v>      -0.12537388      -0.35867428       0.23875886 </v>
  </varray>
  <varray name="stress" >
   <v>       7.89557469      -0.30207586      -0.11352689 </v>
   <v>      -0.30207564     -20.99090434       0.21972735 </v>
   <v>      -0.11352639       0.21972710       6.80078677 </v>
  </varray>
  <energy>
   <i name="e_fr_energy">   -318.37487948 </i>
   <i name="e_wo_entrp">   -318.37487948 </i>
   <i name="e_0_energy">      0.00000000 </i>
  </energy>
  <time name="totalsc">  708.10  717.98</time>
 </calculation>
 <calculation>
  <scstep>
   <time name="dav">   49.36   49.49</time>
   <time name="total">   49.87   50.02</time>
   <energy>
    <i name="alphaZ">   1098.52102548 </i>
    <i name="ewald"> -31404.05088109 </i>
    <i name="hartreedc"> -12744.86507626 </i>
    <i name="XCdc">   1493.60440666 </i>
    <i name="pawpsdc">  44116.59550846 </i>
    <i name="pawaedc"> -43677.42697365 </i>
    <i name="eentropy">      0.00000000 </i>
    <i name="bandstr">  -4358.26838936 </i>
    <i name="atom">  45173.57650906 </i>
    <i name="e_fr_energy">   -302.31387070 </i>
    <i name="e_wo_entrp">   -302.31387070 </i>
    <i name="e_0_energy">   -302.31387070 </i>
   </energy>
  </scstep>
  <scstep>
   <time name="dav">   50.08   50.33</time>
   <time name="total">   50.59   50.89</time>
   <energy>
    <i name="e_fr_energy">   -302.31387215 </i>
    <i name="e_wo_entrp">   -302.31387215 </i>
    <i name="e_0_energy">   -302.31387215 </i>
   </energy>
  </scstep>
  <scstep>
   <time name="dav">   51.30   51.69</time>
   <time name="total">   51.82   52.24</time>
   <energy>
    <i name="e_fr_energy">   -302.31387133 </i>
    <i name="e_wo_entrp">   -302.31387133 </i>
    <i name="e_0_energy">   -302.31387133 </i>
   </energy>
  </scstep>
  <scstep>
   <time name="dav">   34.80   35.14</time>
   <time name="total">   34.85   35.31</time>
   <energy>
    <i name="alphaZ">   1098.52102548 </i>
    <i name="ewald"> -31404.05088109 </i>
    <i name="hartreedc"> -12744.86023841 </i>
    <i name="XCdc">   1493.60317013 </i>
    <i name="pawpsdc">  44116.81722999 </i>
    <i name="pawaedc"> -43677.65471252 </i>
    <i name="eentropy">      0.00000000 </i>
    <i name="bandstr">  -4358.26597388 </i>
    <i name="atom">  45173.57650906 </i>
    <i name="e_fr_energy">   -302.31387124 </i>
    <i name="e_wo_entrp">   -302.31387124 </i>
    <i name="e_0_energy">   -302.31387124 </i>
   </energy>
  </scstep>
  <structure>
   <crystal>
    <varray name="basis" >
     <v>      11.12926406       0.00063943      -0.00076362 </v>
     <v>       0.00054816       9.49038499       0.00192597 </v>
     <v>      -0.00076430       0.00224952      11.13916922 </v>
    </varray>
    <i name="volume">   1176.53014099 </i>
    <varray name="rec_basis" >
     <v>       0.08985320      -0.00000519       0.00000617 </v>
     <v>      -0.00000606       0.10536981      -0.00002128 </v>
     <v>       0.00000616      -0.00001822       0.08977331 </v>
    </varray>
   </crystal>
   <varray name="positions" >
    <v>       0.37204218       0.00080792       0.43856536 </v>
    <v>       0.11987979       0.99990534       0.19174512 </v>
    <v>       0.62701808       0.99992137       0.44179747 </v>
    <v>       0.87847256      -0.00049023       0.43856448 </v>
    <v>       0.62951233       0.99982411       0.18715974 </v>
[...]
       <r>   12.5893    0.0000 </r>
       <r>   12.6531    0.0000 </r>
       <r>   12.6664    0.0000 </r>
       <r>   12.7300    0.0000 </r>
      </set>
     </set>
    </set>
   </array>
  </eigenvalues>
  <separator name="orbital magnetization" >
   <v name="MAGDIPOLOUT">      0.00000000      0.00000000      0.00000000</v>
  </separator>
  <dos>
   <i name="efermi">      4.51568028 </i>
   <total>
    <array>
     <dimension dim="1">gridpoints</dimension>
     <dimension dim="2">spin</dimension>
     <field>energy</field>
     <field>total</field>
     <field>integrated</field>
     <set>
      <set comment="spin 1">
       <r>   -42.3991     0.0000     0.0000 </r>
       <r>   -42.2048     0.0000     0.0000 </r>
       <r>   -42.0105     0.0000     0.0000 </r>
       <r>   -41.8163     0.0000     0.0000 </r>
       <r>   -41.6220     0.0000     0.0000 </r>
       <r>   -41.4278     0.0000     0.0000 </r>
       <r>   -41.2335     0.0000     0.0000 </r>
       <r>   -41.0392     0.0000     0.0000 </r>
       <r>   -40.8450     0.0000     0.0000 </r>
       <r>   -40.6507     0.0000     0.0000 </r>
       <r>   -40.4564     0.0000     0.0000 </r>
       <r>   -40.2622     0.0000     0.0000 </r>
       <r>   -40.0679     0.0000     0.0000 </r>
       <r>   -39.8736     0.0000     0.0000 </r>
       <r>   -39.6794     0.0000     4.0000 </r>
       <r>   -39.4851     0.0000    10.0000 </r>
       <r>   -39.2908     0.0000    16.0000 </r>
       <r>   -39.0966     0.0000    24.0000 </r>
       <r>   -38.9023     0.0000    24.0000 </r>
       <r>   -38.7081     0.0000    24.0000 </r>
       <r>   -38.5138     0.0000    24.0000 </r>
       <r>   -38.3195     0.0000    24.0000 </r>
       <r>   -38.1253     0.0000    24.0000 </r>
       <r>   -37.9310     0.0000    24.0000 </r>
       <r>   -37.7367     0.0000    24.0000 </r>
       <r>   -37.5425     0.0000    24.0000 </r>
       <r>   -37.3482     0.0000    24.0000 </r>
       <r>   -37.1539     0.0000    24.0000 </r>
       <r>   -36.9597     0.0000    24.0000 </r>
       <r>   -36.7654     0.0000    24.0000 </r>
       <r>   -36.5712     0.0000    24.0000 </r>
       <r>   -36.3769     0.0000    24.0000 </r>
       <r>   -36.1826     0.0000    24.0000 </r>
       <r>   -35.9884     0.0000    24.0000 </r>
       <r>   -35.7941     0.0000    24.0000 </r>
       <r>   -35.5998     0.0000    24.0000 </r>
       <r>   -35.4056     0.0000    24.0000 </r>
       <r>   -35.2113     0.0000    24.0000 </r>
       <r>   -35.0170     0.0000    24.0000 </r>
       <r>   -34.8228     0.0000    24.0000 </r>
       <r>   -34.6285     0.0000    24.0000 </r>
       <r>   -34.4342     0.0000    24.0000 </r>
       <r>   -34.2400     0.0000    24.0000 </r>
       <r>   -34.0457     0.0000    24.0000 </r>
       <r>   -33.8515     0.0000    24.0000 </r>
       <r>   -33.6572     0.0000    24.0000 </r>
       <r>   -33.4629     0.0000    24.0000 </r>
       <r>   -33.2687     0.0000    24.0000 </r>
       <r>   -33.0744     0.0000    24.0000 </r>
       <r>   -32.8801     0.0000    24.0000 </r>
       <r>   -32.6859     0.0000    24.0000 </r>
       <r>   -32.4916     0.0000    24.0000 </r>
       <r>   -32.2973     0.0000    24.0000 </r>
       <r>   -32.1031     0.0000    24.0000 </r>
       <r>   -31.9088     0.0000    24.0000 </r>
       <r>   -31.7146     0.0000    24.0000 </r>
       <r>   -31.5203     0.0000    24.0000 </r>
       <r>   -31.3260     0.0000    24.0000 </r>
       <r>   -31.1318     0.0000    24.0000 </r>
       <r>   -30.9375     0.0000    24.0000 </r>
       <r>   -30.7432     0.0000    24.0000 </r>
       <r>   -30.5490     0.0000    24.0000 </r>
       <r>   -30.3547     0.0000    24.0000 </r>
       <r>   -30.1604     0.0000    24.0000 </r>
       <r>   -29.9662     0.0000    24.0000 </r>
       <r>   -29.7719     0.0000    24.0000 </r>
       <r>   -29.5776     0.0000    24.0000 </r>
       <r>   -29.3834     0.0000    24.0000 </r>
       <r>   -29.1891     0.0000    24.0000 </r>
       <r>   -28.9949     0.0000    24.0000 </r>
       <r>   -28.8006     0.0000    24.0000 </r>
       <r>   -28.6063     0.0000    24.0000 </r>
       <r>   -28.4121     0.0000    24.0000 </r>
       <r>   -28.2178     0.0000    24.0000 </r>
       <r>   -28.0235     0.0000    24.0000 </r>
       <r>   -27.8293     0.0000    24.0000 </r>
       <r>   -27.6350     0.0000    24.0000 </r>
       <r>   -27.4407     0.0000    24.0000 </r>
       <r>   -27.2465     0.0000    24.0000 </r>
       <r>   -27.0522     0.0000    24.0000 </r>
       <r>   -26.8580     0.0000    24.0000 </r>
       <r>   -26.6637     0.0000    24.0000 </r>
       <r>   -26.4694     0.0000    24.0000 </r>
       <r>   -26.2752     0.0000    24.0000 </r>
       <r>   -26.0809     0.0000    24.0000 </r>
       <r>   -25.8866     0.0000    24.0000 </r>
       <r>   -25.6924     0.0000    24.0000 </r>
       <r>   -25.4981     0.0000    24.0000 </r>
       <r>   -25.3038     0.0000    24.0000 </r>
       <r>   -25.1096     0.0000    24.0000 </r>
       <r>   -24.9153     0.0000    24.0000 </r>
       <r>   -24.7210     0.0000    24.0000 </r>
       <r>   -24.5268     0.0000    24.0000 </r>
       <r>   -24.3325     0.0000    24.0000 </r>
       <r>   -24.1383     0.0000    24.0000 </r>
       <r>   -23.9440     0.0000    24.0000 </r>
       <r>   -23.7497     0.0000    24.0000 </r>
       <r>   -23.5555     0.0000    24.0000 </r>
       <r>   -23.3612     0.0000    24.0000 </r>
       <r>   -23.1669     0.0000    24.0000 </r>
       <r>   -22.9727     0.0000    24.0000 </r>
       <r>   -22.7784     0.0000    24.0000 </r>
       <r>   -22.5841     0.0000    24.0000 </r>
       <r>   -22.3899     0.0000    24.0000 </r>
       <r>   -22.1956     0.0000    24.0000 </r>
       <r>   -22.0014     0.0000    24.0000 </r>
       <r>   -21.8071     0.0000    24.0000 </r>
       <r>   -21.6128     0.0000    24.0000 </r>
       <r>   -21.4186     0.0000    24.0000 </r>
       <r>   -21.2243     0.0000    24.0000 </r>
       <r>   -21.0300     0.0000    24.0000 </r>
       <r>   -20.8358     0.0000    24.0000 </r>
       <r>   -20.6415     0.0000    24.0000 </r>
       <r>   -20.4472     0.0000    24.0000 </r>
       <r>   -20.2530     0.0000    24.0000 </r>
       <r>   -20.0587     0.0000    24.0000 </r>
       <r>   -19.8645     0.0000    24.0000 </r>
       <r>   -19.6702     0.0000    24.0000 </r>
       <r>   -19.4759     0.0000    24.0000 </r>
       <r>   -19.2817     0.0000    24.0000 </r>
       <r>   -19.0874     0.0000    24.0000 </r>
       <r>   -18.8931     0.0000    24.0000 </r>
       <r>   -18.6989     0.0000    24.0000 </r>
       <r>   -18.5046     0.0000    28.0000 </r>
       <r>   -18.3103     0.0000   132.0000 </r>
       <r>   -18.1161     0.0000   178.0000 </r>
       <r>   -17.9218     0.0000   184.0000 </r>
       <r>   -17.7275     0.0000   184.0000 </r>
       <r>   -17.5333     0.0000   184.0000 </r>
       <r>   -17.3390     0.0000   184.0000 </r>
       <r>   -17.1448     0.0000   184.0000 </r>
       <r>   -16.9505     0.0000   184.0000 </r>
       <r>   -16.7562     0.0000   184.0000 </r>
       <r>   -16.5620     0.0000   184.0000 </r>
       <r>   -16.3677     0.0000   184.0000 </r>
       <r>   -16.1734     0.0000   184.0000 </r>
       <r>   -15.9792     0.0000   184.0000 </r>
       <r>   -15.7849     0.0000   184.0000 </r>
       <r>   -15.5906     0.0000   184.0000 </r>
       <r>   -15.3964     0.0000   184.0000 </r>
       <r>   -15.2021     0.0000   184.0000 </r>
       <r>   -15.0079     0.0000   184.0000 </r>
       <r>   -14.8136     0.0000   184.0000 </r>
       <r>   -14.6193     0.0000   184.0000 </r>
       <r>   -14.4251     0.0000   184.0000 </r>
       <r>   -14.2308     0.0000   184.0000 </r>
       <r>   -14.0365     0.0000   184.0000 </r>
       <r>   -13.8423     0.0000   184.0000 </r>
       <r>   -13.6480     0.0000   184.0000 </r>
       <r>   -13.4537     0.0000   184.0000 </r>
       <r>   -13.2595     0.0000   184.0000 </r>
       <r>   -13.0652     0.0000   184.0000 </r>
       <r>   -12.8709    12.4156   184.0043 </r>
       <r>   -12.6767     0.0000   188.0000 </r>
       <r>   -12.4824     0.0000   200.0000 </r>
       <r>   -12.2882     0.0000   210.0000 </r>
       <r>   -12.0939     0.0000   216.0000 </r>
       <r>   -11.8996     0.0000   216.0000 </r>
       <r>   -11.7054     0.0000   216.0000 </r>
       <r>   -11.5111     0.0000   216.0000 </r>
       <r>   -11.3168     0.0000   216.0000 </r>
       <r>   -11.1226     0.0000   216.0000 </r>
       <r>   -10.9283     0.0000   216.0000 </r>
       <r>   -10.7340     0.0000   216.0000 </r>
       <r>   -10.5398     0.0000   216.0000 </r>
       <r>   -10.3455     0.0000   216.0000 </r>
       <r>   -10.1513     0.0000   216.0000 </r>
       <r>    -9.9570     0.0000   216.0000 </r>
       <r>    -9.7627     0.0000   216.0000 </r>
       <r>    -9.5685     0.0000   216.0000 </r>
       <r>    -9.3742     0.0000   216.0000 </r>
       <r>    -9.1799     7.6425   216.3816 </r>
       <r>    -8.9857    14.0668   218.2002 </r>
       <r>    -8.7914     3.6150   219.9679 </r>
       <r>    -8.5971    17.8012   221.6038 </r>
       <r>    -8.4029    19.9789   224.3794 </r>
       <r>    -8.2086    24.4474   229.7749 </r>
       <r>    -8.0143     0.4176   231.9984 </r>
       <r>    -7.8201    35.2629   236.9418 </r>
       <r>    -7.6258    30.6503   242.5717 </r>
       <r>    -7.4316    18.7340   245.0664 </r>
       <r>    -7.2373     0.9091   247.9964 </r>
       <r>    -7.0430     0.0000   248.0000 </r>
       <r>    -6.8488     0.0000   248.0000 </r>
       <r>    -6.6545     0.0000   248.0000 </r>
       <r>    -6.4602     0.0000   248.0000 </r>
       <r>    -6.2660     0.0000   248.0000 </r>
       <r>    -6.0717     7.4715   248.2346 </r>
       <r>    -5.8774    44.5046   252.2550 </r>
       <r>    -5.6832     4.2634   256.0393 </r>
       <r>    -5.4889    29.1016   260.1203 </r>
       <r>    -5.2947    24.9188   265.4155 </r>
       <r>    -5.1004    14.9018   269.6669 </r>
       <r>    -4.9061     7.8089   271.7536 </r>
       <r>    -4.7119     6.3555   272.4024 </r>
       <r>    -4.5176    13.5097   274.4751 </r>
       <r>    -4.3233     3.2990   276.2618 </r>
       <r>    -4.1291     5.9170   277.1173 </r>
       <r>    -3.9348     9.5135   278.6544 </r>
       <r>    -3.7405     2.3205   279.5979 </r>
       <r>    -3.5463     1.0127   279.9216 </r>
       <r>    -3.3520     0.0000   280.0000 </r>
       <r>    -3.1577     0.0000   280.0000 </r>
       <r>    -2.9635     0.0000   280.0000 </r>
       <r>    -2.7692     0.0000   280.0000 </r>
       <r>    -2.5750     0.0000   280.0000 </r>
       <r>    -2.3807     0.0000   280.0000 </r>
       <r>    -2.1864     0.0000   280.0000 </r>
       <r>    -1.9922     0.0000   280.0000 </r>
       <r>    -1.7979     0.0000   280.0000 </r>
       <r>    -1.6036     0.0000   280.0000 </r>
       <r>    -1.4094     0.0000   280.0000 </r>
       <r>    -1.2151     0.1408   280.0009 </r>
       <r>    -1.0208     8.3651   280.8387 </r>
       <r>    -0.8266     5.2388   282.1533 </r>
       <r>    -0.6323    11.6758   283.5771 </r>
       <r>    -0.4381    10.1427   286.0055 </r>
       <r>    -0.2438    12.6361   287.7643 </r>
       <r>    -0.0495    25.6156   291.7757 </r>
       <r>     0.1447    37.4640   297.5057 </r>
       <r>     0.3390    39.9384   305.3982 </r>
       <r>     0.5333    50.0109   312.9405 </r>
       <r>     0.7275    29.4241   320.1880 </r>
       <r>     0.9218    36.0366   326.7165 </r>
       <r>     1.1161    41.5347   332.8064 </r>
       <r>     1.3103    48.7975   340.6067 </r>
       <r>     1.5046    48.3835   349.3899 </r>
       <r>     1.6989    43.1111   357.8811 </r>
       <r>     1.8931    62.9862   368.0522 </r>
       <r>     2.0874    63.6142   378.6994 </r>
       <r>     2.2816    51.3630   388.6523 </r>
       <r>     2.4759    43.8548   396.4521 </r>
       <r>     2.6702    75.7479   406.8451 </r>
       <r>     2.8644    52.6804   421.4698 </r>
       <r>     3.0587    62.1602   433.3939 </r>
       <r>     3.2530    59.5284   447.1371 </r>
       <r>     3.4472    21.6297   455.6482 </r>
       <r>     3.6415    33.0367   460.3015 </r>
       <r>     3.8358    16.8070   467.0465 </r>
       <r>     4.0300    10.9582   469.7396 </r>
       <r>     4.2243     5.7727   471.3646 </r>
       <r>     4.4185     0.6979   471.9847 </r>
       <r>     4.6128     0.0000   472.0000 </r>
       <r>     4.8071     0.0000   472.0000 </r>
       <r>     5.0013     0.0000   472.0000 </r>
       <r>     5.1956     0.0000   472.0000 </r>
       <r>     5.3899     0.0011   472.0000 </r>
       <r>     5.5841     4.6777   472.3703 </r>
       <r>     5.7784    10.2829   473.8424 </r>
       <r>     5.9727     8.0033   475.7612 </r>
       <r>     6.1669    15.1274   479.9898 </r>
       <r>     6.3612    12.8435   482.6806 </r>
       <r>     6.5555    12.3060   485.1068 </r>
       <r>     6.7497    13.9049   487.6364 </r>
       <r>     6.9440    15.7101   490.5125 </r>
       <r>     7.1382    18.5089   493.7979 </r>
       <r>     7.3325    23.6884   497.8255 </r>
       <r>     7.5268    31.1678   503.1102 </r>
       <r>     7.7210    36.1743   510.7884 </r>
       <r>     7.9153    30.8894   516.3082 </r>
       <r>     8.1096    27.0722   522.0869 </r>
       <r>     8.3038    38.7918   528.7922 </r>
       <r>     8.4981    31.4459   536.4237 </r>
       <r>     8.6924    16.8857   540.5699 </r>
       <r>     8.8866    25.9138   544.7670 </r>
       <r>     9.0809    36.4388   551.2818 </r>
       <r>     9.2751    26.5652   559.3880 </r>
       <r>     9.4694    27.3244   564.7502 </r>
       <r>     9.6637     3.7840   567.9147 </r>
       <r>     9.8579     0.0000   568.0000 </r>
       <r>    10.0522    10.9954   568.8178 </r>
       <r>    10.2465    15.4622   571.5182 </r>
       <r>    10.4407    15.6167   573.2611 </r>
       <r>    10.6350    17.7978   577.6535 </r>
       <r>    10.8293    25.5593   582.5339 </r>
       <r>    11.0235    39.1780   590.2017 </r>
       <r>    11.2178    18.5431   596.4994 </r>
       <r>    11.4121    24.2253   600.9651 </r>
       <r>    11.6063    27.8404   605.7033 </r>
       <r>    11.8006    21.5438   610.5222 </r>
       <r>    11.9948    16.6151   613.9577 </r>
       <r>    12.1891    22.2899   617.6326 </r>
       <r>    12.3834    31.4157   622.8182 </r>
       <r>    12.5776    32.8233   629.3826 </r>
       <r>    12.7719    26.3641   635.2785 </r>
       <r>    12.9662    11.1329   639.0140 </r>
       <r>    13.1604     0.6211   639.9872 </r>
       <r>    13.3547     0.0000   640.0000 </r>
       <r>    13.5490     0.0000   640.0000 </r>
       <r>    13.7432     0.0000   640.0000 </r>
       <r>    13.9375     0.0000   640.0000 </r>
       <r>    14.1317     0.0000   640.0000 </r>
       <r>    14.3260     0.0000   640.0000 </r>
       <r>    14.5203     0.0000   640.0000 </r>
       <r>    14.7145     0.0000   640.0000 </r>
       <r>    14.9088     0.0000   640.0000 </r>
       <r>    15.1031     0.0000   640.0000 </r>
       <r>    15.2973     0.0000   640.0000 </r>
       <r>    15.4916     0.0000   640.0000 </r>
       <r>    15.6859     0.0000   640.0000 </r>
       <r>    15.8801     0.0000   640.0000 </r>
      </set>
     </set>
    </array>
   </total>
  </dos>
 </calculation>
 <structure name="finalpos" >
  <crystal>
   <varray name="basis" >
    <v>      11.14909811       0.00004321       0.00205366 </v>
    <v>       0.00028664       9.45021160      -0.01186961 </v>
    <v>       0.00203424      -0.01484779      11.14956959 </v>
   </varray>
   <i name="volume">   1174.73154558 </i>
   <varray name="rec_basis" >
    <v>       0.08969336      -0.00000274      -0.00001637 </v>
    <v>      -0.00000044       0.10581791       0.00014092 </v>
    <v>      -0.00001652       0.00011265       0.08968971 </v>
   </varray>
  </crystal>
  <varray name="positions" >
   <v>       0.35737951       0.00607485       0.44036120 </v>
   <v>       0.10485327       0.01623152       0.21200904 </v>
   <v>       0.62881803       0.00656884       0.45494931 </v>
   <v>       0.88842356      -0.00464665       0.44110078 </v>
   <v>       0.62868535       0.99962361       0.18914222 </v>
   <v>       0.86525060      -0.00106183       0.18775194 </v>
   <v>       0.12587982       0.99758172       0.93962713 </v>
   <v>       0.37362003      -0.00133814       0.93837264 </v>
   <v>       0.11412997       0.99190092       0.67653729 </v>
   <v>       0.63591965       0.98871713       0.91199848 </v>
   <v>       0.88260360       0.00002356       0.93819906 </v>
   <v>       0.85515809       0.00564276       0.68229035 </v>
   <v>       0.37458445      -0.00270690       0.18394561 </v>
   <v>       0.38768526       0.00209053       0.69144476 </v>
   <v>      -0.00085069       0.30053712       0.06232542 </v>
   <v>       0.25073476       0.69113829       0.06106556 </v>
   <v>       0.24916211       0.30794447       0.31157757 </v>
   <v>       0.50024296       0.69249209       0.31113618 </v>
   <v>       0.50077050       0.30684483       0.06263493 </v>
   <v>       0.75218452       0.69976744       0.06242033 </v>
   <v>       0.74963578       0.30086912       0.31217690 </v>
   <v>       0.99644229       0.70380036       0.31176800 </v>
   <v>      -0.00260034       0.29486456       0.56466183 </v>
   <v>       0.25081676       0.69608717       0.56381882 </v>
   <v>       0.25207506       0.30718711       0.81160147 </v>
   <v>       0.50196520       0.69225046       0.81220232 </v>
   <v>       0.49939453       0.30719170       0.56078006 </v>
   <v>       0.75308825       0.70315229       0.56030665 </v>
   <v>       0.75499942       0.29652552       0.81333336 </v>
   <v>       0.00205603       0.69821042       0.81324386 </v>
   <v>       0.25151255       0.34876485       0.06253134 </v>
   <v>       0.00121394       0.65283796       0.06343198 </v>
   <v>       0.49897195       0.35123647       0.31013457 </v>
   <v>       0.25162492       0.66560907       0.31019526 </v>
   <v>       0.75028571       0.34609973       0.06129128 </v>
   <v>       0.50017207       0.64951846       0.06277497 </v>
   <v>       0.00099277       0.33096880       0.31068976 </v>
   <v>       0.75012318       0.64865976       0.31193103 </v>
   <v>       0.25121077       0.34408489       0.56268419 </v>
   <v>       0.00172916       0.66120592       0.56331997 </v>
   <v>       0.50079748       0.33593746       0.81029217 </v>
   <v>       0.25279896       0.64552027       0.81138721 </v>
   <v>       0.74979838       0.34027793       0.56144511 </v>
   <v>       0.50015324       0.66040931       0.56313579 </v>
   <v>       0.00189887       0.34902158       0.81210822 </v>
   <v>       0.75087857       0.66910083       0.81355081 </v>
   <v>       0.49166271       0.08361384       0.06968342 </v>
   <v>       0.26145795       0.91545057       0.06014602 </v>
   <v>       0.26126549       0.08726599       0.29670360 </v>
   <v>      -0.01996187       0.91913456       0.30065249 </v>
   <v>       0.00319461       0.07988048       0.06327197 </v>
   <v>       0.74822809       0.92018729       0.06288653 </v>
   <v>       0.74092847       0.08183430       0.30942840 </v>
   <v>       0.49285028       0.91570635       0.30053195 </v>
   <v>       0.48139335       0.08630112       0.55349253 </v>
   <v>       0.26555294       0.91484326       0.58325006 </v>
   <v>       0.26381009       0.08355961       0.81043080 </v>
   <v>       0.01220029       0.91707553       0.81981174 </v>
   <v>       0.98533629       0.08001934       0.57975877 </v>
   <v>       0.76060753       0.91854692       0.54631792 </v>
   <v>       0.76728409       0.08057555       0.82483395 </v>
   <v>       0.48691883       0.91358712       0.82145308 </v>
  </varray>
 </structure>
</modeling>
