<?xml version="1.0" encoding="ISO-8859-1"?>
<modeling>
 <generator>
  <i name="program" type="string">vasp </i>
  <i name="version" type="string">5.4.4.18Apr17-6-g9f103f2a35  </i>
  <i name="subversion" type="string">(build Jul 31 2017 11:33:29) complex            parallel </i>
  <i name="platform" type="string">LinuxIFC </i>
  <i name="date" type="string">2021 09 24 </i>
  <i name="time" type="string">00:09:40 </i>
 </generator>
 <incar>
  <i type="string" name="SYSTEM"> La2O2S</i>
  <i type="string" name="PREC">normal</i>
  <i type="int" name="NELMIN">     4</i>
  <i type="int" name="IBRION">     2</i>
  <i type="int" name="NFREE">    10</i>
  <i name="EDIFF">      0.00000100</i>
  <i name="EDIFFG">     -0.01000000</i>
  <i type="int" name="NSW">   200</i>
  <i type="int" name="ISIF">     3</i>
  <i name="ENCUT">    600.00000000</i>
  <i name="ENAUG">    900.00000000</i>
  <i type="int" name="ISMEAR">    -5</i>
  <i type="logical" name="LWAVE"> F  </i>
  <i type="logical" name="LCHARG"> F  </i>
  <v type="int" name="KPOINT_BSE">    -1     0     0     0</v>
 </incar>
 <structure name="primitive_cell" >
  <crystal>
   <varray name="basis" >
    <v>      11.17850000       0.00000000       0.00000000 </v>
    <v>       0.00000000       9.57460000       0.00000000 </v>
    <v>       0.00000000       0.00000000      11.18240000 </v>
   </varray>
   <i name="volume">   1196.84853820 </i>
   <varray name="rec_basis" >
    <v>       0.08945744       0.00000000       0.00000000 </v>
    <v>       0.00000000       0.10444301       0.00000000 </v>
    <v>       0.00000000       0.00000000       0.08942624 </v>
   </varray>
  </crystal>
  <varray name="positions" >
   <v>       0.37539000       0.00017000       0.43687000 </v>
   <v>      -0.49987000      -0.07798000       0.31246000 </v>
   <v>       0.25013000       0.07798000       0.31246000 </v>
   <v>       0.49987000       0.07798000      -0.43754000 </v>
   <v>       0.24987000      -0.07798000      -0.43754000 </v>
   <v>      -0.37461000      -0.00016000       0.43687000 </v>
   <v>       0.37461000       0.00017000       0.18687000 </v>
   <v>       0.37461000       0.00017000      -0.31313000 </v>
   <v>       0.49987000      -0.29519000       0.31282000 </v>
   <v>       0.24987000       0.29519000       0.31282000 </v>
   <v>      -0.49987000       0.29519000      -0.43719000 </v>
   <v>       0.25013000      -0.29519000      -0.43719000 </v>
   <v>       0.49995000       0.32677000       0.31286000 </v>
   <v>       0.24995000      -0.32677000       0.31286000 </v>
   <v>      -0.49995000      -0.32677000      -0.43714000 </v>
   <v>       0.25005000       0.32677000      -0.43714000 </v>
   <v>      -0.37539000      -0.00016000       0.18687000 </v>
   <v>       0.12461000      -0.00016000       0.18687000 </v>
   <v>       0.49987000       0.07798000       0.06246000 </v>
   <v>      -0.24987000       0.07798000       0.31246000 </v>
   <v>      -0.25013000      -0.07798000      -0.43754000 </v>
   <v>       0.24987000      -0.07798000       0.06246000 </v>
   <v>       0.00013000      -0.07798000       0.31246000 </v>
   <v>      -0.49987000      -0.07798000      -0.18754000 </v>
   <v>      -0.00013000       0.07798000      -0.43754000 </v>
   <v>       0.25013000       0.07798000      -0.18754000 </v>
   <v>      -0.49987000       0.29519000       0.06281000 </v>
   <v>      -0.25013000       0.29519000       0.31282000 </v>
   <v>       0.25013000      -0.29519000       0.06281000 </v>
   <v>      -0.24987000      -0.29519000      -0.43719000 </v>
   <v>      -0.00013000      -0.29519000       0.31282000 </v>
   <v>       0.00013000       0.29519000      -0.43719000 </v>
   <v>       0.49987000      -0.29519000      -0.18718000 </v>
   <v>       0.24987000       0.29519000      -0.18718000 </v>
   <v>      -0.49995000      -0.32677000       0.06286000 </v>
   <v>       0.25005000       0.32677000       0.06286000 </v>
   <v>      -0.25005000      -0.32677000       0.31286000 </v>
   <v>      -0.24995000       0.32677000      -0.43714000 </v>
   <v>      -0.00005000       0.32677000       0.31286000 </v>
   <v>       0.00005000      -0.32677000      -0.43714000 </v>
   <v>       0.49995000       0.32677000      -0.18714000 </v>
   <v>       0.24995000      -0.32677000      -0.18714000 </v>
   <v>      -0.12461000       0.00017000       0.43687000 </v>
   <v>       0.37539000       0.00017000      -0.06313000 </v>
   <v>      -0.25013000      -0.07798000       0.06246000 </v>
   <v>      -0.00013000       0.07798000       0.06246000 </v>
   <v>      -0.24987000       0.07798000      -0.18754000 </v>
   <v>       0.00013000      -0.07798000      -0.18754000 </v>
   <v>      -0.12539000       0.00017000      -0.31313000 </v>
   <v>      -0.37461000      -0.00016000      -0.06313000 </v>
   <v>       0.12539000      -0.00016000      -0.06313000 </v>
   <v>      -0.24987000      -0.29519000       0.06281000 </v>
   <v>       0.00013000       0.29519000       0.06281000 </v>
   <v>      -0.25013000       0.29519000      -0.18718000 </v>
   <v>      -0.00013000      -0.29519000      -0.18718000 </v>
   <v>      -0.24995000       0.32677000       0.06286000 </v>
   <v>       0.00005000      -0.32677000       0.06286000 </v>
   <v>      -0.25005000      -0.32677000      -0.18714000 </v>
   <v>      -0.00005000       0.32677000      -0.18714000 </v>
   <v>      -0.12461000       0.00017000      -0.06313000 </v>
  </varray>
 </structure>
 <varray name="primitive_index" >
  <v type="int" >        1 </v>
  <v type="int" >       52 </v>
  <v type="int" >       47 </v>
  <v type="int" >       53 </v>
  <v type="int" >       54 </v>
  <v type="int" >        9 </v>
  <v type="int" >        3 </v>
  <v type="int" >        6 </v>
  <v type="int" >       16 </v>
  <v type="int" >       15 </v>
  <v type="int" >       25 </v>
  <v type="int" >       22 </v>
  <v type="int" >       31 </v>
  <v type="int" >       32 </v>
  <v type="int" >       42 </v>
  <v type="int" >       37 </v>
  <v type="int" >       10 </v>
  <v type="int" >        2 </v>
  <v type="int" >       45 </v>
  <v type="int" >       51 </v>
  <v type="int" >       58 </v>
  <v type="int" >       46 </v>
  <v type="int" >       48 </v>
  <v type="int" >       60 </v>
  <v type="int" >       57 </v>
  <v type="int" >       55 </v>
  <v type="int" >       17 </v>
  <v type="int" >       19 </v>
  <v type="int" >       14 </v>
  <v type="int" >       26 </v>
  <v type="int" >       20 </v>
  <v type="int" >       21 </v>
  <v type="int" >       24 </v>
  <v type="int" >       23 </v>
  <v type="int" >       34 </v>
  <v type="int" >       29 </v>
  <v type="int" >       36 </v>
  <v type="int" >       41 </v>
  <v type="int" >       35 </v>
  <v type="int" >       38 </v>
  <v type="int" >       39 </v>
  <v type="int" >       40 </v>
  <v type="int" >        4 </v>
  <v type="int" >        5 </v>
  <v type="int" >       50 </v>
  <v type="int" >       49 </v>
  <v type="int" >       59 </v>
  <v type="int" >       56 </v>
  <v type="int" >       12 </v>
  <v type="int" >        7 </v>
  <v type="int" >       11 </v>
  <v type="int" >       18 </v>
  <v type="int" >       13 </v>
  <v type="int" >       27 </v>
  <v type="int" >       28 </v>
  <v type="int" >       33 </v>
  <v type="int" >       30 </v>
  <v type="int" >       44 </v>
  <v type="int" >       43 </v>
  <v type="int" >        8 </v>
 </varray>
 <kpoints>
  <generation param="Gamma">
   <v type="int" name="divisions">       2        2        2 </v>
   <v name="usershift">      0.00000000       0.00000000       0.00000000 </v>
   <v name="genvec1">      0.50000000       0.00000000       0.00000000 </v>
   <v name="genvec2">      0.00000000       0.50000000       0.00000000 </v>
   <v name="genvec3">      0.00000000       0.00000000       0.50000000 </v>
   <v name="shift">      0.00000000       0.00000000       0.00000000 </v>
  </generation>
  <varray name="kpointlist" >
   <v>       0.00000000       0.00000000       0.00000000 </v>
   <v>       0.50000000       0.00000000       0.00000000 </v>
   <v>       0.00000000       0.50000000       0.00000000 </v>
   <v>       0.50000000       0.50000000       0.00000000 </v>
   <v>       0.00000000       0.00000000       0.50000000 </v>
   <v>       0.50000000       0.00000000       0.50000000 </v>
   <v>       0.00000000       0.50000000       0.50000000 </v>
   <v>       0.50000000       0.50000000       0.50000000 </v>
  </varray>
  <varray name="weights" >
   <v>       0.12500000 </v>
   <v>       0.12500000 </v>
   <v>       0.12500000 </v>
   <v>       0.12500000 </v>
   <v>       0.12500000 </v>
   <v>       0.12500000 </v>
   <v>       0.12500000 </v>
   <v>       0.12500000 </v>
  </varray>
  <varray name="tetrahedronlist"  type="int" >
   <v type="int" >        2        1        2        4        5 </v>
   <v type="int" >        2        1        3        4        5 </v>
   <v type="int" >        2        3        4        5        7 </v>
   <v type="int" >        2        2        4        5        6 </v>
   <v type="int" >        2        4        5        6        8 </v>
   <v type="int" >        2        4        5        7        8 </v>
   <v type="int" >        2        1        2        3        6 </v>
   <v type="int" >        2        2        3        4        6 </v>
   <v type="int" >        2        3        4        6        8 </v>
   <v type="int" >        2        1        3        5        6 </v>
   <v type="int" >        2        3        5        6        7 </v>
   <v type="int" >        2        3        6        7        8 </v>
   <v type="int" >        2        2        3        4        7 </v>
   <v type="int" >        2        1        2        3        7 </v>
   <v type="int" >        2        1        2        5        7 </v>
   <v type="int" >        2        2        4        7        8 </v>
   <v type="int" >        2        2        6        7        8 </v>
   <v type="int" >        2        2        5        6        7 </v>
   <v type="int" >        2        1        3        4        8 </v>
   <v type="int" >        2        1        2        4        8 </v>
   <v type="int" >        2        1        2        6        8 </v>
   <v type="int" >        2        1        3        7        8 </v>
   <v type="int" >        2        1        5        7        8 </v>
   <v type="int" >        2        1        5        6        8 </v>
  </varray>
  <i name="volumeweight">      0.02083333 </i>
 </kpoints>
 <parameters>
  <separator name="general" >
   <i type="string" name="SYSTEM">La2O2S</i>
   <i type="logical" name="LCOMPAT"> F  </i>
  </separator>
  <separator name="electronic" >
   <i type="string" name="PREC">normal</i>
   <i name="ENMAX">    600.00000000</i>
   <i name="ENAUG">    900.00000000</i>
   <i name="EDIFF">      0.00000100</i>
   <i type="int" name="IALGO">    38</i>
   <i type="int" name="IWAVPR">    11</i>
   <i type="int" name="NBANDS">   280</i>
   <i name="NELECT">    464.00000000</i>
   <i type="int" name="TURBO">     0</i>
   <i type="int" name="IRESTART">     0</i>
   <i type="int" name="NREBOOT">     0</i>
   <i type="int" name="NMIN">     0</i>
   <i name="EREF">      0.00000000</i>
   <separator name="electronic smearing" >
    <i type="int" name="ISMEAR">    -5</i>
    <i name="SIGMA">      0.20000000</i>
    <i name="KSPACING">      0.50000000</i>
    <i type="logical" name="KGAMMA"> T  </i>
   </separator>
   <separator name="electronic projectors" >
    <i type="logical" name="LREAL"> F  </i>
    <v name="ROPT">      0.00000000      0.00000000      0.00000000      0.00000000      0.00000000</v>
    <i type="int" name="LMAXPAW">  -100</i>
    <i type="int" name="LMAXMIX">     2</i>
    <i type="logical" name="NLSPLINE"> F  </i>
   </separator>
   <separator name="electronic startup" >
    <i type="int" name="ISTART">     0</i>
    <i type="int" name="ICHARG">     2</i>
    <i type="int" name="INIWAV">     1</i>
   </separator>
   <separator name="electronic spin" >
    <i type="int" name="ISPIN">     1</i>
    <i type="logical" name="LNONCOLLINEAR"> F  </i>
    <v name="MAGMOM">      1.00000000      1.00000000      1.00000000      1.00000000      1.00000000      1.00000000      1.00000000      1.00000000      1.00000000      1.00000000      1.00000000      1.00000000      1.00000000      1.00000000      1.00000000      1.00000000      1.00000000      1.00000000      1.00000000      1.00000000
      1.00000000      1.00000000      1.00000000      1.00000000      1.00000000      1.00000000      1.00000000      1.00000000      1.00000000      1.00000000      1.00000000      1.00000000      1.00000000      1.00000000      1.00000000      1.00000000      1.00000000      1.00000000      1.00000000      1.00000000
      1.00000000      1.00000000      1.00000000      1.00000000      1.00000000      1.00000000      1.00000000      1.00000000      1.00000000      1.00000000      1.00000000      1.00000000      1.00000000      1.00000000      1.00000000      1.00000000      1.00000000      1.00000000      1.00000000      1.00000000
</v>
    <i name="NUPDOWN">     -1.00000000</i>
    <i type="logical" name="LSORBIT"> F  </i>
    <v name="SAXIS">      0.00000000      0.00000000      1.00000000</v>
    <i type="logical" name="LSPIRAL"> F  </i>
    <v name="QSPIRAL">      0.00000000      0.00000000      0.00000000</v>
    <i type="logical" name="LZEROZ"> F  </i>
   </separator>
   <separator name="electronic exchange-correlation" >
    <i type="logical" name="LASPH"> F  </i>
    <i type="logical" name="LMETAGGA"> F  </i>
   </separator>
   <separator name="electronic convergence" >
    <i type="int" name="NELM">    60</i>
    <i type="int" name="NELMDL">    -5</i>
    <i type="int" name="NELMIN">     4</i>
    <i name="ENINI">    600.00000000</i>
    <separator name="electronic convergence detail" >
     <i type="logical" name="LDIAG"> T  </i>
     <i type="logical" name="LSUBROT"> F  </i>
     <i name="WEIMIN">      0.00100000</i>
     <i name="EBREAK">      0.00000000</i>
     <i name="DEPER">      0.30000000</i>
     <i type="int" name="NRMM">     4</i>
     <i name="TIME">      0.40000000</i>
    </separator>
   </separator>
   <separator name="electronic mixer" >
    <i name="AMIX">      0.40000000</i>
    <i name="BMIX">      1.00000000</i>
    <i name="AMIN">      0.10000000</i>
    <i name="AMIX_MAG">      1.60000000</i>
    <i name="BMIX_MAG">      1.00000000</i>
    <separator name="electronic mixer details" >
     <i type="int" name="IMIX">     4</i>
     <i type="logical" name="MIXFIRST"> F  </i>
     <i type="int" name="MAXMIX">   -45</i>
     <i name="WC">    100.00000000</i>
     <i type="int" name="INIMIX">     1</i>
     <i type="int" name="MIXPRE">     1</i>
     <i type="int" name="MREMOVE">     5</i>
    </separator>
   </separator>
   <separator name="electronic dipolcorrection" >
    <i type="logical" name="LDIPOL"> F  </i>
    <i type="logical" name="LMONO"> F  </i>
    <i type="int" name="IDIPOL">     0</i>
    <i name="EPSILON">      1.00000000</i>
    <v name="DIPOL">   -100.00000000   -100.00000000   -100.00000000</v>
    <i name="EFIELD">      0.00000000</i>
   </separator>
  </separator>
  <separator name="grids" >
   <i type="int" name="NGX">    70</i>
   <i type="int" name="NGY">    60</i>
   <i type="int" name="NGZ">    70</i>
   <i type="int" name="NGXF">   140</i>
   <i type="int" name="NGYF">   120</i>
   <i type="int" name="NGZF">   140</i>
   <i type="logical" name="ADDGRID"> F  </i>
  </separator>
  <separator name="ionic" >
   <i type="int" name="NSW">   200</i>
   <i type="int" name="IBRION">     2</i>
   <i type="int" name="MDALGO">     0</i>
   <i type="int" name="ISIF">     3</i>
   <i name="PSTRESS">      0.00000000</i>
   <i name="EDIFFG">     -0.01000000</i>
   <i type="int" name="NFREE">    10</i>
   <i name="POTIM">      0.50000000</i>
   <i name="SMASS">     -3.00000000</i>
   <i name="SCALEE">      1.00000000</i>
  </separator>
  <separator name="ionic md" >
   <i name="TEBEG">      0.00010000</i>
   <i name="TEEND">      0.00010000</i>
   <i type="int" name="NBLOCK">     1</i>
   <i type="int" name="KBLOCK">   200</i>
   <i type="int" name="NPACO">   256</i>
   <i name="APACO">     16.00000000</i>
  </separator>
  <separator name="symmetry" >
   <i type="int" name="ISYM">     2</i>
   <i name="SYMPREC">      0.00001000</i>
  </separator>
  <separator name="dos" >
   <i type="int" name="LORBIT">     0</i>
   <v name="RWIGS">     -1.00000000     -1.00000000     -1.00000000     -1.00000000     -1.00000000</v>
   <i type="int" name="NEDOS">   301</i>
   <i name="EMIN">     10.00000000</i>
   <i name="EMAX">    -10.00000000</i>
   <i name="EFERMI">      0.00000000</i>
  </separator>
  <separator name="writing" >
   <i type="int" name="NWRITE">     2</i>
   <i type="logical" name="LWAVE"> F  </i>
   <i type="logical" name="LDOWNSAMPLE"> F  </i>
   <i type="logical" name="LCHARG"> F  </i>
   <i type="logical" name="LPARD"> F  </i>
   <i type="logical" name="LVTOT"> F  </i>
   <i type="logical" name="LVHAR"> F  </i>
   <i type="logical" name="LELF"> F  </i>
   <i type="logical" name="LOPTICS"> F  </i>
   <v name="STM">      0.00000000      0.00000000      0.00000000      0.00000000      0.00000000      0.00000000      0.00000000</v>
  </separator>
  <separator name="performance" >
   <i type="int" name="NPAR">    28</i>
   <i type="int" name="NSIM">     4</i>
   <i type="int" name="NBLK">    -1</i>
   <i type="logical" name="LPLANE"> T  </i>
   <i type="logical" name="LSCALAPACK"> T  </i>
   <i type="logical" name="LSCAAWARE"> F  </i>
   <i type="logical" name="LSCALU"> F  </i>
   <i type="logical" name="LASYNC"> F  </i>
   <i type="logical" name="LORBITALREAL"> F  </i>
  </separator>
  <separator name="miscellaneous" >
   <i type="int" name="IDIOT">     3</i>
   <i type="int" name="ISPECIAL">     0</i>
   <i type="logical" name="LMUSIC"> F  </i>
   <v name="POMASS">      7.01000000     24.30500000    208.98000000     32.06600000     16.00000000</v>
   <v name="DARWINR">      0.00000000      0.00000000      0.00000000      0.00000000      0.00000000</v>
   <v name="DARWINV">      1.00000000      1.00000000      1.00000000      1.00000000      1.00000000</v>
   <i type="logical" name="LCORR"> T  </i>
  </separator>
  <i type="logical" name="GGA_COMPAT"> T  </i>
  <i type="logical" name="LBERRY"> F  </i>
  <i type="int" name="ICORELEVEL">     0</i>
  <i type="logical" name="LDAU"> F  </i>
  <i type="int" name="I_CONSTRAINED_M">     0</i>
  <separator name="electronic exchange-correlation" >
   <i type="string" name="GGA">--</i>
   <i type="int" name="VOSKOWN">     0</i>
   <i type="logical" name="LHFCALC"> F  </i>
   <i type="string" name="PRECFOCK"></i>
   <i type="logical" name="LSYMGRAD"> F  </i>
   <i type="logical" name="LHFONE"> F  </i>
   <i type="logical" name="LRHFCALC"> F  </i>
   <i type="logical" name="LTHOMAS"> F  </i>
   <i type="logical" name="LMODELHF"> F  </i>
   <i name="ENCUT4O">     -1.00000000</i>
   <i type="int" name="EXXOEP">     0</i>
   <i type="int" name="FOURORBIT">     0</i>
   <i name="AEXX">      0.00000000</i>
   <i name="HFALPHA">      0.00000000</i>
   <i name="MCALPHA">      0.00000000</i>
   <i name="ALDAX">      1.00000000</i>
   <i name="AGGAX">      1.00000000</i>
   <i name="ALDAC">      1.00000000</i>
   <i name="AGGAC">      1.00000000</i>
   <i type="int" name="NKREDX">     1</i>
   <i type="int" name="NKREDY">     1</i>
   <i type="int" name="NKREDZ">     1</i>
   <i type="logical" name="SHIFTRED"> F  </i>
   <i type="logical" name="ODDONLY"> F  </i>
   <i type="logical" name="EVENONLY"> F  </i>
   <i type="int" name="LMAXFOCK">     0</i>
   <i type="int" name="NMAXFOCKAE">     0</i>
   <i type="logical" name="LFOCKAEDFT"> F  </i>
   <i name="HFSCREEN">      0.00000000</i>
   <i name="HFSCREENC">      0.00000000</i>
   <i type="int" name="NBANDSGWLOW">     0</i>
  </separator>
  <separator name="vdW DFT" >
   <i type="logical" name="LUSE_VDW"> F  </i>
   <i name="Zab_VDW">     -0.84910000</i>
   <i name="PARAM1">      0.12340000</i>
   <i name="PARAM2">      1.00000000</i>
   <i name="PARAM3">      0.00000000</i>
  </separator>
  <separator name="model GW" >
   <i type="int" name="MODEL_GW">     0</i>
   <i name="MODEL_EPS0">     11.96848538</i>
   <i name="MODEL_ALPHA">      1.00000000</i>
  </separator>
  <separator name="linear response parameters" >
   <i type="logical" name="LEPSILON"> F  </i>
   <i type="logical" name="LRPA"> F  </i>
   <i type="logical" name="LNABLA"> F  </i>
   <i type="logical" name="LVEL"> F  </i>
   <i type="int" name="KINTER">     0</i>
   <i name="CSHIFT">      0.10000000</i>
   <i name="OMEGAMAX">     -1.00000000</i>
   <i name="DEG_THRESHOLD">      0.00200000</i>
   <i name="RTIME">     -0.10000000</i>
   <i name="WPLASMAI">      0.00000000</i>
   <v name="DFIELD">      0.00000000      0.00000000      0.00000000</v>
   <v name="WPLASMA">      0.00000000      0.00000000      0.00000000      0.00000000      0.00000000      0.00000000      0.00000000      0.00000000      0.00000000</v>
  </separator>
  <separator name="orbital magnetization" >
   <i type="logical" name="NUCIND"> F  </i>
   <v name="MAGPOS">      0.00000000      0.00000000      0.00000000</v>
   <i type="logical" name="LNICSALL"> T  </i>
   <i type="logical" name="ORBITALMAG"> F  </i>
   <i type="logical" name="LMAGBLOCH"> F  </i>
   <i type="logical" name="LCHIMAG"> F  </i>
   <i type="logical" name="LGAUGE"> T  </i>
   <i type="int" name="MAGATOM">     0</i>
   <v name="MAGDIPOL">      0.00000000      0.00000000      0.00000000</v>
   <v name="AVECCONST">      0.00000000      0.00000000      0.00000000</v>
  </separator>
  <separator name="response functions" >
   <i type="logical" name="LADDER"> F  </i>
   <i type="logical" name="LRPAFORCE"> F  </i>
   <i type="logical" name="LFXC"> F  </i>
   <i type="logical" name="LHARTREE"> T  </i>
   <i type="int" name="IBSE">     0</i>
   <v type="int" name="KPOINT">    -1     0     0     0</v>
   <i type="logical" name="LTCTE"> F  </i>
   <i type="logical" name="LTETE"> F  </i>
   <i type="logical" name="LTRIPLET"> F  </i>
   <i type="logical" name="LFXCEPS"> F  </i>
   <i type="logical" name="LFXHEG"> F  </i>
   <i type="int" name="NATURALO">     2</i>
   <i type="logical" name="L2ORDER"> F  </i>
   <i type="logical" name="LMP2LT"> F  </i>
   <i type="logical" name="LUSEW"> F  </i>
   <i name="ENCUTGW">     -2.00000000</i>
   <i name="ENCUTGWSOFT">     -2.00000000</i>
   <i name="ENCUTLF">     -1.00000000</i>
   <i type="int" name="LMAXMP2">    -1</i>
   <i name="SCISSOR">      0.00000000</i>
   <i type="int" name="NOMEGA">     0</i>
   <i type="int" name="NOMEGAR">     0</i>
   <i type="int" name="NBANDSGW">    -1</i>
   <i type="int" name="NBANDSO">    -1</i>
   <i type="int" name="NBANDSV">    -1</i>
   <i type="int" name="NELM">     1</i>
   <i type="int" name="NELMHF">     1</i>
   <i type="int" name="DIM">     3</i>
   <i type="int" name="ANTIRES">     0</i>
   <i name="OMEGAMAX">    -30.00000000</i>
   <i name="OMEGAMIN">    -30.00000000</i>
   <i name="OMEGATL">   -200.00000000</i>
   <i type="int" name="OMEGAGRID">   140</i>
   <i name="CSHIFT">     -0.10000000</i>
   <i type="logical" name="SELFENERGY"> F  </i>
   <i type="logical" name="LSPECTRAL"> F  </i>
   <i type="logical" name="LSPECTRALGW"> F  </i>
   <i type="logical" name="LSINGLES"> F  </i>
   <i type="logical" name="LFERMIGW"> F  </i>
   <i type="logical" name="ODDONLYGW"> F  </i>
   <i type="logical" name="EVENONLYGW"> F  </i>
   <i type="int" name="NKREDLFX">     1</i>
   <i type="int" name="NKREDLFY">     1</i>
   <i type="int" name="NKREDLFZ">     1</i>
   <i type="int" name="MAXMEM">  2800</i>
   <i type="int" name="TELESCOPE">     0</i>
   <i type="int" name="TAUPAR">     1</i>
   <i type="int" name="OMEGAPAR">    -1</i>
   <i name="LAMBDA">      1.00000000</i>
  </separator>
  <separator name="External order field" >
   <i name="OFIELD_KAPPA">      0.00000000</i>
   <v name="OFIELD_K">      0.00000000      0.00000000      0.00000000</v>
   <i name="OFIELD_Q6_NEAR">      0.00000000</i>
   <i name="OFIELD_Q6_FAR">      0.00000000</i>
   <i name="OFIELD_A">      0.00000000</i>
  </separator>
 </parameters>
 <atominfo>
  <atoms>      60 </atoms>
  <types>       5 </types>
  <array name="atoms" >
   <dimension dim="1">ion</dimension>
   <field type="string">element</field>
   <field type="int">atomtype</field>
   <set>
    <rc><c>Li</c><c>   1</c></rc>
    <rc><c>Li</c><c>   1</c></rc>
    <rc><c>Li</c><c>   1</c></rc>
    <rc><c>Li</c><c>   1</c></rc>
    <rc><c>Li</c><c>   1</c></rc>
    <rc><c>Li</c><c>   1</c></rc>
    <rc><c>Li</c><c>   1</c></rc>
    <rc><c>Li</c><c>   1</c></rc>
    <rc><c>Mg</c><c>   2</c></rc>
    <rc><c>Mg</c><c>   2</c></rc>
    <rc><c>Mg</c><c>   2</c></rc>
    <rc><c>Mg</c><c>   2</c></rc>
    <rc><c>Bi</c><c>   3</c></rc>
    <rc><c>Bi</c><c>   3</c></rc>
    <rc><c>Bi</c><c>   3</c></rc>
    <rc><c>Bi</c><c>   3</c></rc>
    <rc><c>Bi</c><c>   3</c></rc>
    <rc><c>Bi</c><c>   3</c></rc>
    <rc><c>Bi</c><c>   3</c></rc>
    <rc><c>Bi</c><c>   3</c></rc>
    <rc><c>Bi</c><c>   3</c></rc>
    <rc><c>Bi</c><c>   3</c></rc>
    <rc><c>Bi</c><c>   3</c></rc>
    <rc><c>Bi</c><c>   3</c></rc>
    <rc><c>Bi</c><c>   3</c></rc>
    <rc><c>Bi</c><c>   3</c></rc>
    <rc><c>Bi</c><c>   3</c></rc>
    <rc><c>Bi</c><c>   3</c></rc>
    <rc><c>S </c><c>   4</c></rc>
    <rc><c>S </c><c>   4</c></rc>
    <rc><c>S </c><c>   4</c></rc>
    <rc><c>S </c><c>   4</c></rc>
    <rc><c>S </c><c>   4</c></rc>
    <rc><c>S </c><c>   4</c></rc>
    <rc><c>S </c><c>   4</c></rc>
    <rc><c>S </c><c>   4</c></rc>
    <rc><c>S </c><c>   4</c></rc>
    <rc><c>S </c><c>   4</c></rc>
    <rc><c>S </c><c>   4</c></rc>
    <rc><c>S </c><c>   4</c></rc>
    <rc><c>S </c><c>   4</c></rc>
    <rc><c>S </c><c>   4</c></rc>
    <rc><c>S </c><c>   4</c></rc>
    <rc><c>S </c><c>   4</c></rc>
    <rc><c>O </c><c>   5</c></rc>
    <rc><c>O </c><c>   5</c></rc>
    <rc><c>O </c><c>   5</c></rc>
    <rc><c>O </c><c>   5</c></rc>
    <rc><c>O </c><c>   5</c></rc>
    <rc><c>O </c><c>   5</c></rc>
    <rc><c>O </c><c>   5</c></rc>
    <rc><c>O </c><c>   5</c></rc>
    <rc><c>O </c><c>   5</c></rc>
    <rc><c>O </c><c>   5</c></rc>
    <rc><c>O </c><c>   5</c></rc>
    <rc><c>O </c><c>   5</c></rc>
    <rc><c>O </c><c>   5</c></rc>
    <rc><c>O </c><c>   5</c></rc>
    <rc><c>O </c><c>   5</c></rc>
    <rc><c>O </c><c>   5</c></rc>
   </set>
  </array>
  <array name="atomtypes" >
   <dimension dim="1">type</dimension>
   <field type="int">atomspertype</field>
   <field type="string">element</field>
   <field>mass</field>
   <field>valence</field>
   <field type="string">pseudopotential</field>
   <set>
    <rc><c>   8</c><c>Li</c><c>      7.01000000</c><c>      3.00000000</c><c>  PAW_PBE Li_sv 10Sep2004               </c></rc>
    <rc><c>   4</c><c>Mg</c><c>     24.30500000</c><c>      2.00000000</c><c>  PAW_PBE Mg 13Apr2007                  </c></rc>
    <rc><c>  16</c><c>Bi</c><c>    208.98000000</c><c>     15.00000000</c><c>  PAW_PBE Bi_d 06Sep2000                </c></rc>
    <rc><c>  16</c><c>S </c><c>     32.06600000</c><c>      6.00000000</c><c>  PAW_PBE S 06Sep2000                   </c></rc>
    <rc><c>  16</c><c>O </c><c>     16.00000000</c><c>      6.00000000</c><c>  PAW_PBE O 08Apr2002                   </c></rc>
   </set>
  </array>
 </atominfo>
 <structure name="initialpos" >
  <crystal>
   <varray name="basis" >
    <v>      11.17850000       0.00000000       0.00000000 </v>
    <v>       0.00000000       9.57460000       0.00000000 </v>
    <v>       0.00000000       0.00000000      11.18240000 </v>
   </varray>
   <i name="volume">   1196.84853820 </i>
   <varray name="rec_basis" >
    <v>       0.08945744       0.00000000       0.00000000 </v>
    <v>       0.00000000       0.10444301       0.00000000 </v>
    <v>       0.00000000       0.00000000       0.08942624 </v>
   </varray>
  </crystal>
  <varray name="positions" >
   <v>       0.37539000       0.00017000       0.43687000 </v>
   <v>       0.12461000       0.99984000       0.18687000 </v>
   <v>       0.37461000       0.00017000       0.18687000 </v>
   <v>       0.87539000       0.00017000       0.43687000 </v>
   <v>       0.37539000       0.00017000       0.93687000 </v>
   <v>       0.37461000       0.00017000       0.68687000 </v>
   <v>       0.62539000       0.99984000       0.93687000 </v>
   <v>       0.87539000       0.00017000       0.93687000 </v>
   <v>       0.62539000       0.99984000       0.43687000 </v>
   <v>       0.62461000       0.99984000       0.18687000 </v>
   <v>       0.12539000       0.99984000       0.93687000 </v>
   <v>       0.87461000       0.00017000       0.68687000 </v>
   <v>       0.00013000       0.29519000       0.06281000 </v>
   <v>       0.25013000       0.70481000       0.06281000 </v>
   <v>       0.24987000       0.29519000       0.31282000 </v>
   <v>       0.49987000       0.70481000       0.31282000 </v>
   <v>       0.50013000       0.29519000       0.06281000 </v>
   <v>       0.75013000       0.70481000       0.06281000 </v>
   <v>       0.74987000       0.29519000       0.31282000 </v>
   <v>       0.99987000       0.70481000       0.31282000 </v>
   <v>       0.00013000       0.29519000       0.56281000 </v>
   <v>       0.25013000       0.70481000       0.56281000 </v>
   <v>       0.24987000       0.29519000       0.81282000 </v>
   <v>       0.49987000       0.70481000       0.81282000 </v>
   <v>       0.50013000       0.29519000       0.56281000 </v>
   <v>       0.75013000       0.70481000       0.56281000 </v>
   <v>       0.74987000       0.29519000       0.81282000 </v>
   <v>       0.99987000       0.70481000       0.81282000 </v>
   <v>       0.25005000       0.32677000       0.06286000 </v>
   <v>       0.00005000       0.67323000       0.06286000 </v>
   <v>       0.49995000       0.32677000       0.31286000 </v>
   <v>       0.24995000       0.67323000       0.31286000 </v>
   <v>       0.75005000       0.32677000       0.06286000 </v>
   <v>       0.50005000       0.67323000       0.06286000 </v>
   <v>       0.99995000       0.32677000       0.31286000 </v>
   <v>       0.74995000       0.67323000       0.31286000 </v>
   <v>       0.25005000       0.32677000       0.56286000 </v>
   <v>       0.00005000       0.67323000       0.56286000 </v>
   <v>       0.49995000       0.32677000       0.81286000 </v>
   <v>       0.24995000       0.67323000       0.81286000 </v>
   <v>       0.75005000       0.32677000       0.56286000 </v>
   <v>       0.50005000       0.67323000       0.56286000 </v>
   <v>       0.99995000       0.32677000       0.81286000 </v>
   <v>       0.74995000       0.67323000       0.81286000 </v>
   <v>       0.49987000       0.07798000       0.06246000 </v>
   <v>       0.24987000       0.92202000       0.06246000 </v>
   <v>       0.25013000       0.07798000       0.31246000 </v>
   <v>       0.00013000       0.92202000       0.31246000 </v>
   <v>       0.99987000       0.07798000       0.06246000 </v>
   <v>       0.74987000       0.92202000       0.06246000 </v>
   <v>       0.75013000       0.07798000       0.31246000 </v>
   <v>       0.50013000       0.92202000       0.31246000 </v>
   <v>       0.49987000       0.07798000       0.56246000 </v>
   <v>       0.24987000       0.92202000       0.56246000 </v>
   <v>       0.25013000       0.07798000       0.81246000 </v>
   <v>       0.00013000       0.92202000       0.81246000 </v>
   <v>       0.99987000       0.07798000       0.56246000 </v>
   <v>       0.74987000       0.92202000       0.56246000 </v>
   <v>       0.75013000       0.07798000       0.81246000 </v>
   <v>       0.50013000       0.92202000       0.81246000 </v>
  </varray>
 </structure>
 <calculation>
  <scstep>
   <time name="dav">   59.42   59.58</time>
   <time name="total">   59.50   59.67</time>
   <energy>
    <i name="alphaZ">   1067.11773629 </i>
    <i name="ewald"> -30653.01892814 </i>
    <i name="hartreedc"> -12700.37638807 </i>
    <i name="XCdc">   1321.13407064 </i>
    <i name="pawpsdc">  36729.48549953 </i>
    <i name="pawaedc"> -36149.63912807 </i>
    <i name="eentropy">      0.00000000 </i>
    <i name="bandstr">   1840.44769890 </i>
    <i name="atom">  44408.54722957 </i>
    <i name="e_fr_energy">   5863.69779064 </i>
    <i name="e_wo_entrp">   5863.69779064 </i>
    <i name="e_0_energy">   5863.69779064 </i>
   </energy>
  </scstep>
  <scstep>
   <time name="dav">   59.95   60.07</time>
   <time name="total">   59.96   60.08</time>
   <energy>
    <i name="e_fr_energy">    783.59620579 </i>
    <i name="e_wo_entrp">    783.59620579 </i>
    <i name="e_0_energy">    783.59620579 </i>
   </energy>
  </scstep>
  <scstep>
   <time name="dav">   70.16   70.17</time>
   <time name="total">   70.16   70.17</time>
   <energy>
    <i name="e_fr_energy">   -243.96725006 </i>
    <i name="e_wo_entrp">   -243.96725006 </i>
    <i name="e_0_energy">   -243.96725006 </i>
   </energy>
  </scstep>
  <scstep>
   <time name="dav">   71.67   71.67</time>
   <time name="total">   71.67   71.67</time>
   <energy>
    <i name="e_fr_energy">   -339.66633241 </i>
    <i name="e_wo_entrp">   -339.66633241 </i>
    <i name="e_0_energy">   -339.66633241 </i>
   </energy>
  </scstep>
  <scstep>
   <time name="dav">   96.77   96.84</time>
   <time name="total">   97.50   97.56</time>
   <energy>
    <i name="e_fr_energy">   -348.17907703 </i>
    <i name="e_wo_entrp">   -348.17907703 </i>
    <i name="e_0_energy">   -348.17907703 </i>
   </energy>
  </scstep>
  <scstep>
   <time name="dav">   84.80   84.89</time>
   <time name="total">   85.59   85.69</time>
   <energy>
    <i name="e_fr_energy">   -291.00981104 </i>
    <i name="e_wo_entrp">   -291.00981104 </i>
    <i name="e_0_energy">   -291.00981104 </i>
   </energy>
  </scstep>
  <scstep>
   <time name="dav">   64.55   64.66</time>
   <time name="total">   65.34   65.46</time>
   <energy>
    <i name="e_fr_energy">   -293.42542661 </i>
    <i name="e_wo_entrp">   -293.42542661 </i>
    <i name="e_0_energy">   -293.42542661 </i>
   </energy>
  </scstep>
  <scstep>
   <time name="dav">   76.40   76.52</time>
   <time name="total">   77.19   77.32</time>
   <energy>
    <i name="e_fr_energy">   -292.23970096 </i>
    <i name="e_wo_entrp">   -292.23970096 </i>
    <i name="e_0_energy">   -292.23970096 </i>
   </energy>
  </scstep>
  <scstep>
   <time name="dav">   68.69   68.70</time>
   <time name="total">   69.49   69.50</time>
   <energy>
    <i name="e_fr_energy">   -291.64328318 </i>
    <i name="e_wo_entrp">   -291.64328318 </i>
    <i name="e_0_energy">   -291.64328318 </i>
   </energy>
  </scstep>
  <scstep>
   <time name="dav">   73.21   73.29</time>
   <time name="total">   74.00   74.09</time>
   <energy>
    <i name="e_fr_energy">   -291.69064931 </i>
    <i name="e_wo_entrp">   -291.69064931 </i>
    <i name="e_0_energy">   -291.69064931 </i>
   </energy>
  </scstep>
  <scstep>
   <time name="dav">   77.56   77.60</time>
   <time name="total">   78.35   78.39</time>
   <energy>
    <i name="e_fr_energy">   -291.69198944 </i>
    <i name="e_wo_entrp">   -291.69198944 </i>
    <i name="e_0_energy">   -291.69198944 </i>
   </energy>
  </scstep>
  <scstep>
   <time name="dav">   85.18   85.44</time>
   <time name="total">   85.97   86.24</time>
   <energy>
    <i name="e_fr_energy">   -291.69608243 </i>
    <i name="e_wo_entrp">   -291.69608243 </i>
    <i name="e_0_energy">   -291.69608243 </i>
   </energy>
  </scstep>
  <scstep>
   <time name="dav">   70.43   70.68</time>
   <time name="total">   71.23   71.48</time>
   <energy>
    <i name="e_fr_energy">   -291.69694921 </i>
    <i name="e_wo_entrp">   -291.69694921 </i>
    <i name="e_0_energy">   -291.69694921 </i>
   </energy>
  </scstep>
  <scstep>
   <time name="dav">   77.21   77.36</time>
   <time name="total">   78.01   78.16</time>
   <energy>
    <i name="e_fr_energy">   -291.69706435 </i>
    <i name="e_wo_entrp">   -291.69706435 </i>
    <i name="e_0_energy">   -291.69706435 </i>
   </energy>
  </scstep>
  <scstep>
   <time name="dav">   68.13   68.12</time>
   <time name="total">   68.93   68.92</time>
   <energy>
    <i name="e_fr_energy">   -291.69712445 </i>
    <i name="e_wo_entrp">   -291.69712445 </i>
    <i name="e_0_energy">   -291.69712445 </i>
   </energy>
  </scstep>
  <scstep>
   <time name="dav">   75.06   75.04</time>
   <time name="total">   75.85   75.84</time>
   <energy>
    <i name="e_fr_energy">   -291.69717246 </i>
    <i name="e_wo_entrp">   -291.69717246 </i>
    <i name="e_0_energy">   -291.69717246 </i>
   </energy>
  </scstep>
  <scstep>
   <time name="dav">   68.16   68.15</time>
   <time name="total">   68.95   68.95</time>
   <energy>
    <i name="e_fr_energy">   -291.69717982 </i>
    <i name="e_wo_entrp">   -291.69717982 </i>
    <i name="e_0_energy">   -291.69717982 </i>
   </energy>
  </scstep>
  <scstep>
   <time name="dav">   65.38   65.37</time>
   <time name="total">   66.18   66.17</time>
   <energy>
    <i name="e_fr_energy">   -291.69718176 </i>
    <i name="e_wo_entrp">   -291.69718176 </i>
    <i name="e_0_energy">   -291.69718176 </i>
   </energy>
  </scstep>
  <scstep>
   <time name="dav">   57.32   57.31</time>
   <time name="total">   57.39   57.39</time>
   <energy>
    <i name="alphaZ">   1067.11773629 </i>
    <i name="ewald"> -30653.01892814 </i>
    <i name="hartreedc"> -12932.38199892 </i>
    <i name="XCdc">   1345.04492922 </i>
    <i name="pawpsdc">  43754.42338894 </i>
    <i name="pawaedc"> -43148.78757504 </i>
    <i name="eentropy">      0.00000000 </i>
    <i name="bandstr">  -4132.64196414 </i>
    <i name="atom">  44408.54722957 </i>
    <i name="e_fr_energy">   -291.69718222 </i>
    <i name="e_wo_entrp">   -291.69718222 </i>
    <i name="e_0_energy">   -291.69718222 </i>
   </energy>
  </scstep>
  <structure>
   <crystal>
    <varray name="basis" >
     <v>      11.17850000       0.00000000       0.00000000 </v>
     <v>       0.00000000       9.57460000       0.00000000 </v>
     <v>       0.00000000       0.00000000      11.18240000 </v>
    </varray>
    <i name="volume">   1196.84853820 </i>
    <varray name="rec_basis" >
     <v>       0.08945744       0.00000000       0.00000000 </v>
     <v>       0.00000000       0.10444301       0.00000000 </v>
     <v>       0.00000000       0.00000000       0.08942624 </v>
    </varray>
   </crystal>
   <varray name="positions" >
    <v>       0.37539000       0.00017000       0.43687000 </v>
    <v>       0.12461000       0.99984000       0.18687000 </v>
    <v>       0.37461000       0.00017000       0.18687000 </v>
    <v>       0.87539000       0.00017000       0.43687000 </v>
    <v>       0.37539000       0.00017000       0.93687000 </v>
    <v>       0.37461000       0.00017000       0.68687000 </v>
    <v>       0.62539000       0.99984000       0.93687000 </v>
    <v>       0.87539000       0.00017000       0.93687000 </v>
    <v>       0.62539000       0.99984000       0.43687000 </v>
    <v>       0.62461000       0.99984000       0.18687000 </v>
    <v>       0.12539000       0.99984000       0.93687000 </v>
    <v>       0.87461000       0.00017000       0.68687000 </v>
    <v>       0.00013000       0.29519000       0.06281000 </v>
    <v>       0.25013000       0.70481000       0.06281000 </v>
    <v>       0.24987000       0.29519000       0.31282000 </v>
    <v>       0.49987000       0.70481000       0.31282000 </v>
    <v>       0.50013000       0.29519000       0.06281000 </v>
    <v>       0.75013000       0.70481000       0.06281000 </v>
    <v>       0.74987000       0.29519000       0.31282000 </v>
    <v>       0.99987000       0.70481000       0.31282000 </v>
    <v>       0.00013000       0.29519000       0.56281000 </v>
    <v>       0.25013000       0.70481000       0.56281000 </v>
    <v>       0.24987000       0.29519000       0.81282000 </v>
    <v>       0.49987000       0.70481000       0.81282000 </v>
    <v>       0.50013000       0.29519000       0.56281000 </v>
    <v>       0.75013000       0.70481000       0.56281000 </v>
    <v>       0.74987000       0.29519000       0.81282000 </v>
    <v>       0.99987000       0.70481000       0.81282000 </v>
    <v>       0.25005000       0.32677000       0.06286000 </v>
    <v>       0.00005000       0.67323000       0.06286000 </v>
    <v>       0.49995000       0.32677000       0.31286000 </v>
    <v>       0.24995000       0.67323000       0.31286000 </v>
    <v>       0.75005000       0.32677000       0.06286000 </v>
    <v>       0.50005000       0.67323000       0.06286000 </v>
    <v>       0.99995000       0.32677000       0.31286000 </v>
    <v>       0.74995000       0.67323000       0.31286000 </v>
    <v>       0.25005000       0.32677000       0.56286000 </v>
    <v>       0.00005000       0.67323000       0.56286000 </v>
    <v>       0.49995000       0.32677000       0.81286000 </v>
    <v>       0.24995000       0.67323000       0.81286000 </v>
    <v>       0.75005000       0.32677000       0.56286000 </v>
    <v>       0.50005000       0.67323000       0.56286000 </v>
    <v>       0.99995000       0.32677000       0.81286000 </v>
    <v>       0.74995000       0.67323000       0.81286000 </v>
    <v>       0.49987000       0.07798000       0.06246000 </v>
    <v>       0.24987000       0.92202000       0.06246000 </v>
    <v>       0.25013000       0.07798000       0.31246000 </v>
    <v>       0.00013000       0.92202000       0.31246000 </v>
    <v>       0.99987000       0.07798000       0.06246000 </v>
    <v>       0.74987000       0.92202000       0.06246000 </v>
    <v>       0.75013000       0.07798000       0.31246000 </v>
    <v>       0.50013000       0.92202000       0.31246000 </v>
    <v>       0.49987000       0.07798000       0.56246000 </v>
    <v>       0.24987000       0.92202000       0.56246000 </v>
    <v>       0.25013000       0.07798000       0.81246000 </v>
    <v>       0.00013000       0.92202000       0.81246000 </v>
    <v>       0.99987000       0.07798000       0.56246000 </v>
    <v>       0.74987000       0.92202000       0.56246000 </v>
    <v>       0.75013000       0.07798000       0.81246000 </v>
    <v>       0.50013000       0.92202000       0.81246000 </v>
   </varray>
  </structure>
  <varray name="forces" >
   <v>      -1.11633485       0.07419733       0.45056798 </v>
   <v>      -0.47266747       0.00327486       0.98654650 </v>
   <v>      -0.72597647       0.17990248       0.19160075 </v>
   <v>       1.10430580      -0.07437694      -0.49805675 </v>
   <v>       0.32070456      -0.07715880      -0.44903132 </v>
   <v>      -0.21155594      -0.19494586      -0.17036265 </v>
   <v>       0.08157313      -0.13917088      -0.76355457 </v>
   <v>      -0.33250068       0.05835407       0.53581889 </v>
   <v>       0.02178639       0.21059370       1.71113254 </v>
   <v>       1.02918726      -0.01789862      -0.91694808 </v>
   <v>      -0.06155255       0.21709114      -0.63385967 </v>
   <v>       0.35205698       0.31644065      -0.22951510 </v>
   <v>      -0.09038542       0.04645611       0.35235184 </v>
   <v>      -0.10559292      -1.06495301       0.14373722 </v>
   <v>      -0.42283794      -0.95383989       0.38811929 </v>
   <v>      -0.49203009      -2.10606142       0.21376778 </v>
   <v>      -0.20898816       1.10483752      -0.26119598 </v>
   <v>       0.37459385      -0.06265568      -0.01524671 </v>
   <v>       0.67033718       1.11039165      -0.04177524 </v>
   <v>       0.26003665       1.90997069       0.16763731 </v>
   <v>       0.58029947      -0.95274092      -0.23007553 </v>
   <v>      -0.37795815       1.93550818      -0.08144375 </v>
   <v>      -0.05579042       0.02086954      -0.47452773 </v>
   <v>      -0.03629473       0.95000988      -0.29109175 </v>
   <v>      -0.27629589       0.03404212       0.33585666 </v>
   <v>       0.05480456      -1.00644010       0.18030988 </v>
   <v>      -0.15987411       0.02486651      -0.13576318 </v>
   <v>       0.28212407      -0.98283223      -0.32461711 </v>
   <v>       0.11723251       0.15806180      -0.13096671 </v>
   <v>       0.06705810      -0.11534864      -0.33563933 </v>
   <v>       0.32843422       0.03866053      -0.16468389 </v>
   <v>       0.46785755      -0.18008910      -0.38833002 </v>
   <v>      -0.22599147       0.05230864       0.11641783 </v>
   <v>       0.04401567      -0.06782169       0.28361092 </v>
   <v>      -0.26251201       0.17972010      -0.16827721 </v>
   <v>      -0.51498977      -0.00234008       0.00626486 </v>
   <v>       0.20852438       0.19699941       0.09765199 </v>
   <v>      -0.44771564      -0.13626629       0.34356526 </v>
   <v>       0.05622182       0.13337542       0.19007714 </v>
   <v>      -0.13343641      -0.15175525       0.42017710 </v>
   <v>      -0.15940867       0.10972480      -0.10954495 </v>
   <v>       0.39408354      -0.12705044      -0.31888797 </v>
   <v>      -0.08402262       0.14036459       0.17374800 </v>
   <v>       0.15064142      -0.09724953      -0.02032017 </v>
   <v>       0.48661432      -0.92381958       0.71947823 </v>
   <v>      -0.31432452       0.80780407      -0.54050427 </v>
   <v>       0.92389956       0.73617152      -0.83800110 </v>
   <v>      -0.17324694      -1.64430991      -0.08863715 </v>
   <v>       1.09268425      -0.11711554      -1.25890968 </v>
   <v>      -1.26398725       0.12325713      -0.02706933 </v>
   <v>      -1.87783929      -0.97794519       0.53860558 </v>
   <v>       1.13358178       1.64419271      -0.18634262 </v>
   <v>       0.19292394      -0.03193410      -1.38354364 </v>
   <v>       1.25982323      -1.57665035       0.02630400 </v>
   <v>       0.05461898       0.02683096       1.35902344 </v>
   <v>      -0.68980695       0.62024703       0.73515346 </v>
   <v>      -1.84519949       0.70237852       0.60617925 </v>
   <v>       0.42752663       0.66043782      -0.74932442 </v>
   <v>       1.13174557      -0.03595162       0.15842612 </v>
   <v>      -0.53018059      -0.70861980       0.79391778 </v>
  </varray>
  <varray name="stress" >
   <v>      -8.27262937       0.40763909       2.27678412 </v>
   <v>       0.40763916     -13.30105465      -0.28754254 </v>
   <v>       2.27678424      -0.28754225      -4.17424890 </v>
  </varray>
  <energy>
   <i name="e_fr_energy">   -305.23302548 </i>
   <i name="e_wo_entrp">   -305.23302548 </i>
   <i name="e_0_energy">      0.00000000 </i>
  </energy>
  <time name="totalsc"> 1499.36 1500.82</time>
 </calculation>
 <calculation>
  <scstep>
   <time name="dav">   61.76   61.75</time>
   <time name="total">   62.55   62.54</time>
   <energy>
    <i name="alphaZ">   1083.80276723 </i>
    <i name="ewald"> -30793.19708463 </i>
    <i name="hartreedc"> -13006.12291438 </i>
    <i name="XCdc">   1354.15554797 </i>
    <i name="pawpsdc">  43754.19530252 </i>
    <i name="pawaedc"> -43148.55902184 </i>
    <i name="eentropy">      0.00000000 </i>
    <i name="bandstr">  -3943.64424363 </i>
    <i name="atom">  44408.54722957 </i>
    <i name="e_fr_energy">   -290.82241719 </i>
    <i name="e_wo_entrp">   -290.82241719 </i>
    <i name="e_0_energy">   -290.82241719 </i>
   </energy>
  </scstep>
  <scstep>
   <time name="dav">   71.61   71.59</time>
   <time name="total">   72.40   72.38</time>
   <energy>
    <i name="e_fr_energy">   -293.68460644 </i>
    <i name="e_wo_entrp">   -293.68460644 </i>
    <i name="e_0_energy">   -293.68460644 </i>
   </energy>
  </scstep>
  <scstep>
   <time name="dav">   89.92   89.89</time>
   <time name="total">   90.71   90.68</time>
   <energy>
    <i name="e_fr_energy">   -293.45926110 </i>
    <i name="e_wo_entrp">   -293.45926110 </i>
    <i name="e_0_energy">   -293.45926110 </i>
   </energy>
  </scstep>
  <scstep>
   <time name="dav">   72.74   72.72</time>
   <time name="total">   73.53   73.52</time>
   <energy>
    <i name="e_fr_energy">   -293.33534300 </i>
    <i name="e_wo_entrp">   -293.33534300 </i>
    <i name="e_0_energy">   -293.33534300 </i>
   </energy>
  </scstep>
  <scstep>
   <time name="dav">   73.01   73.01</time>
   <time name="total">   73.80   73.80</time>
   <energy>
    <i name="e_fr_energy">   -293.33519733 </i>
    <i name="e_wo_entrp">   -293.33519733 </i>
    <i name="e_0_energy">   -293.33519733 </i>
   </energy>
  </scstep>
  <scstep>
   <time name="dav">   75.93   75.91</time>
   <time name="total">   76.72   76.71</time>
   <energy>
    <i name="e_fr_energy">   -293.33400142 </i>
    <i name="e_wo_entrp">   -293.33400142 </i>
    <i name="e_0_energy">   -293.33400142 </i>
   </energy>
  </scstep>
  <scstep>
   <time name="dav">   74.72   74.74</time>
   <time name="total">   75.51   75.54</time>
   <energy>
    <i name="e_fr_energy">   -293.33334827 </i>
    <i name="e_wo_entrp">   -293.33334827 </i>
    <i name="e_0_energy">   -293.33334827 </i>
   </energy>
  </scstep>
  <scstep>
   <time name="dav">   90.73   90.71</time>
   <time name="total">   91.52   91.51</time>
   <energy>
    <i name="e_fr_energy">   -293.33335927 </i>
    <i name="e_wo_entrp">   -293.33335927 </i>
    <i name="e_0_energy">   -293.33335927 </i>
   </energy>
  </scstep>
  <scstep>
   <time name="dav">   66.09   66.08</time>
   <time name="total">   66.88   66.88</time>
   <energy>
    <i name="e_fr_energy">   -293.33339860 </i>
    <i name="e_wo_entrp">   -293.33339860 </i>
    <i name="e_0_energy">   -293.33339860 </i>
   </energy>
  </scstep>
  <scstep>
   <time name="dav">   82.31   82.30</time>
   <time name="total">   83.10   83.10</time>
   <energy>
    <i name="e_fr_energy">   -293.33340365 </i>
    <i name="e_wo_entrp">   -293.33340365 </i>
    <i name="e_0_energy">   -293.33340365 </i>
   </energy>
  </scstep>
  <scstep>
   <time name="dav">   65.79   65.78</time>
   <time name="total">   66.58   66.58</time>
   <energy>
    <i name="e_fr_energy">   -293.33340484 </i>
    <i name="e_wo_entrp">   -293.33340484 </i>
    <i name="e_0_energy">   -293.33340484 </i>
   </energy>
  </scstep>
  <scstep>
   <time name="dav">   62.99   62.99</time>
   <time name="total">   63.06   63.07</time>
   <energy>
    <i name="alphaZ">   1083.80276723 </i>
    <i name="ewald"> -30793.19708463 </i>
    <i name="hartreedc"> -12868.46469507 </i>
    <i name="XCdc">   1348.05422629 </i>
    <i name="pawpsdc">  44130.00071510 </i>
    <i name="pawaedc"> -43527.48754881 </i>
    <i name="eentropy">      0.00000000 </i>
    <i name="bandstr">  -4074.58901437 </i>
    <i name="atom">  44408.54722957 </i>
    <i name="e_fr_energy">   -293.33340468 </i>
    <i name="e_wo_entrp">   -293.33340468 </i>
    <i name="e_0_energy">   -293.33340468 </i>
   </energy>
  </scstep>
  <structure>
   <crystal>
    <varray name="basis" >
     <v>      11.12295619       0.00273696       0.01528671 </v>
     <v>       0.00234426       9.49810813      -0.00165360 </v>
     <v>       0.01529204      -0.00193128      11.15436362 </v>
    </varray>
    <i name="volume">   1178.42317936 </i>
    <varray name="rec_basis" >
     <v>       0.08990433      -0.00002221      -0.00012326 </v>
     <v>      -0.00002593       0.10528413       0.00001826 </v>
     <v>      -0.00012321       0.00001564       0.08965118 </v>
    </varray>
   </crystal>
   <varray name="positions" >
    <v>       0.37057227       0.00054385       0.43881382 </v>
    <v>       0.12257013       0.99985650       0.19112612 </v>
    <v>       0.37147693       0.00107646       0.18769660 </v>
    <v>       0.88015581      -0.00020476       0.43472130 </v>
    <v>       0.37677405      -0.00021877       0.93493281 </v>
    <v>       0.37369700      -0.00081226       0.68613503 </v>
    <v>       0.62574204       0.99913877       0.93357590 </v>
    <v>       0.87395504       0.00046402       0.93918161 </v>
    <v>       0.62548402       0.00090110       0.44425210 </v>
    <v>       0.62905163       0.99974982       0.18291414 </v>
    <v>       0.12512436       0.00093384       0.93413543 </v>
    <v>       0.87612936       0.00176442       0.68587984 </v>
    <v>      -0.00026007       0.29542407       0.06433010 </v>
    <v>       0.24967430       0.69944412       0.06343011 </v>
    <v>       0.24804517       0.29038397       0.31449441 </v>
    <v>       0.49774656       0.69419838       0.31374223 </v>
    <v>       0.49922808       0.30075684       0.06168316 </v>
    <v>       0.75174662       0.70449430       0.06274422 </v>
    <v>       0.75276295       0.30078483       0.31263977 </v>
    <v>       0.00099223       0.71443359       0.31354321 </v>
    <v>       0.00263438       0.29038951       0.56181742 </v>
    <v>       0.24849886       0.71456227       0.56245864 </v>
    <v>       0.24962923       0.29529515       0.81077281 </v>
    <v>       0.49971336       0.70959673       0.81156418 </v>
    <v>       0.49893760       0.29536152       0.56425894 </v>
    <v>       0.75036652       0.69973894       0.56358789 </v>
    <v>       0.74918004       0.29531529       0.81223430 </v>
    <v>       0.00108755       0.69985789       0.81141955 </v>
    <v>       0.25055594       0.32756641       0.06229499 </v>
    <v>       0.00033940       0.67264880       0.06141200 </v>
    <v>       0.50136741       0.32696480       0.31214953 </v>
    <v>       0.25196912       0.67232260       0.31118468 </v>
    <v>       0.74907470       0.32703356       0.06336225 </v>
    <v>       0.50023996       0.67288827       0.06408354 </v>
    <v>       0.99881709       0.32767554       0.31213403 </v>
    <v>       0.74772748       0.67321821       0.31288703 </v>
    <v>       0.25094992       0.32776260       0.56328129 </v>
    <v>      -0.00188219       0.67254341       0.56434220 </v>
    <v>       0.50019263       0.32744203       0.81368002 </v>
    <v>       0.24937413       0.67246536       0.81467271 </v>
    <v>       0.74936205       0.32732286       0.56238741 </v>
    <v>       0.50175073       0.67258984       0.56148427 </v>
    <v>       0.99958739       0.32747724       0.81360958 </v>
    <v>       0.75060012       0.67274000       0.81277234 </v>
    <v>       0.50197006       0.07332524       0.06556394 </v>
    <v>       0.24851348       0.92609021       0.06012818 </v>
    <v>       0.25411724       0.08168928       0.30884473 </v>
    <v>      -0.00061768       0.91373497       0.31207761 </v>
    <v>       0.00458566       0.07738990       0.05702886 </v>
    <v>       0.74441506       0.92264104       0.06234322 </v>
    <v>       0.74202588       0.07305252       0.31478363 </v>
    <v>       0.50502216       0.93030444       0.31165609 </v>
    <v>       0.50070259       0.07781910       0.55649117 </v>
    <v>       0.25530697       0.91407588       0.56257348 </v>
    <v>       0.25036572       0.07811519       0.81832304 </v>
    <v>      -0.00284698       0.92514518       0.81563157 </v>
    <v>       0.99190674       0.08151901       0.56507515 </v>
    <v>       0.75171506       0.92534769       0.55922730 </v>
    <v>       0.75501423       0.07779885       0.81314348 </v>
    <v>       0.49784192       0.91844954       0.81588509 </v>
   </varray>
  </structure>
  <varray name="forces" >
   <v>      -0.60022165       0.04099099       0.13928666 </v>
   <v>      -0.30858452       0.00493201       0.50642810 </v>
   <v>      -0.26837193       0.07967614       0.09225695 </v>
   <v>       0.60181047      -0.03413986      -0.42829548 </v>
   <v>       0.21388937      -0.04174778      -0.11364088 </v>
   <v>      -0.13625278      -0.10445550      -0.08978357 </v>
   <v>       0.02959376      -0.08169922      -0.53515431 </v>
   <v>      -0.22180920       0.02704911       0.42222907 </v>
   <v>      -0.01147081      -0.01871807       0.52436422 </v>
   <v>       0.30107400       0.05736762       0.06410177 </v>
   <v>      -0.02621822      -0.01855822      -0.35777369 </v>
   <v>       0.00941358      -0.03465776       0.09518336 </v>
   <v>      -0.02340078       0.11314517       0.08978332 </v>
   <v>      -0.00939025       0.02613992       0.02283883 </v>
   <v>      -0.07224844       0.87753974       0.12550803 </v>
   <v>      -0.10370573       0.11293893       0.03281609 </v>
   <v>      -0.14748861      -0.10005142       0.03112135 </v>
   <v>       0.16582340      -0.20423129       0.05732074 </v>
   <v>       0.11964542      -0.19419882      -0.00668282 </v>
   <v>       0.06787445      -2.49848127       0.06466551 </v>
   <v>       0.32937945       0.82603981      -0.05995559 </v>
   <v>      -0.34596083      -2.35895272      -0.02474413 </v>
   <v>      -0.09052932       0.31550612      -0.13541189 </v>
   <v>       0.02177196      -0.87997697      -0.11949141 </v>
   <v>      -0.04466045       0.27471562       0.04387853 </v>
   <v>       0.00499554      -0.12700790       0.02690422 </v>
   <v>      -0.04580957       0.23351449      -0.08988582 </v>
   <v>       0.13753714      -0.13908382      -0.12201205 </v>
   <v>       0.02836051       0.25828755      -0.06387079 </v>
   <v>       0.03378983      -0.14901836      -0.17206321 </v>
   <v>       0.12865724       0.30798650      -0.06222305 </v>
   <v>       0.20865102      -0.14025974      -0.18291938 </v>
   <v>      -0.10636713       0.08020576       0.04865020 </v>
   <v>       0.04688556      -0.21273838       0.10237478 </v>
   <v>      -0.11512332       0.05733427      -0.06622621 </v>
   <v>      -0.20714108      -0.17450806      -0.01956465 </v>
   <v>       0.13741798       0.07016695       0.06108278 </v>
   <v>      -0.26434001      -0.09059615       0.20116761 </v>
   <v>       0.01039119       0.07558148       0.08371753 </v>
   <v>      -0.06457963      -0.15845500       0.19330726 </v>
   <v>      -0.06326609       0.18257392      -0.03906234 </v>
   <v>       0.16858672      -0.14411181      -0.14037404 </v>
   <v>      -0.03364055       0.20794437       0.05219625 </v>
   <v>       0.07770962      -0.11175238      -0.00499423 </v>
   <v>       0.25102138       0.40692516       0.16984914 </v>
   <v>      -0.26735651      -0.29980720      -0.29730372 </v>
   <v>       0.50978699      -0.99545947      -0.53681287 </v>
   <v>      -0.04749634       2.71315420      -0.05375969 </v>
   <v>       0.67027257      -0.01412347      -0.70723616 </v>
   <v>      -0.56491089      -0.01144134      -0.42198120 </v>
   <v>      -0.81867102       0.56233361       0.44820070 </v>
   <v>       0.51136829      -0.61942324       0.02820664 </v>
   <v>      -0.32736753      -0.03209724      -0.57227011 </v>
   <v>       1.11716577       2.68142759       0.03516305 </v>
   <v>       0.25841092      -0.11974982       0.68549147 </v>
   <v>      -0.52159628      -0.24615303       0.39634549 </v>
   <v>      -1.19796935      -0.84297042       0.21302296 </v>
   <v>       0.59770171      -0.29655234      -0.28554733 </v>
   <v>       0.75916022      -0.12962773       0.15273201 </v>
   <v>      -0.46219723       1.03132878       0.49884604 </v>
  </varray>
  <varray name="stress" >
   <v>       8.25370024      -0.10209030      -1.85922904 </v>
   <v>      -0.10209012      11.39945599       0.24160204 </v>
   <v>      -1.85922918       0.24160202       5.14638796 </v>
  </varray>
  <energy>
   <i name="e_fr_energy">   -307.02899646 </i>
   <i name="e_wo_entrp">   -307.02899646 </i>
   <i name="e_0_energy">      0.00000000 </i>
  </energy>
  <time name="totalsc"> 1002.34 1002.24</time>
 </calculation>
 <calculation>
  <scstep>
   <time name="dav">   65.21   65.21</time>
   <time name="total">   66.00   66.01</time>
   <energy>
    <i name="alphaZ">   1082.61963668 </i>
    <i name="ewald"> -30784.94697099 </i>
    <i name="hartreedc"> -12861.91365698 </i>
    <i name="XCdc">   1347.39085320 </i>
    <i name="pawpsdc">  44130.18830590 </i>
    <i name="pawaedc"> -43527.67724269 </i>
    <i name="eentropy">      0.00000000 </i>
    <i name="bandstr">  -4087.55536393 </i>
    <i name="atom">  44408.54722957 </i>
    <i name="e_fr_energy">   -293.34720924 </i>
    <i name="e_wo_entrp">   -293.34720924 </i>
    <i name="e_0_energy">   -293.34720924 </i>
   </energy>
  </scstep>
  <scstep>
   <time name="dav">   68.73   68.70</time>
   <time name="total">   69.51   69.49</time>
   <energy>
    <i name="e_fr_energy">   -293.35944647 </i>
    <i name="e_wo_entrp">   -293.35944647 </i>
    <i name="e_0_energy">   -293.35944647 </i>
   </energy>
  </scstep>
  <scstep>
   <time name="dav">   83.48   83.47</time>
   <time name="total">   84.27   84.27</time>
   <energy>
    <i name="e_fr_energy">   -293.35838299 </i>
    <i name="e_wo_entrp">   -293.35838299 </i>
    <i name="e_0_energy">   -293.35838299 </i>
   </energy>
  </scstep>
  <scstep>
   <time name="dav">   78.60   78.58</time>
   <time name="total">   79.39   79.38</time>
   <energy>
    <i name="e_fr_energy">   -293.35782090 </i>
    <i name="e_wo_entrp">   -293.35782090 </i>
    <i name="e_0_energy">   -293.35782090 </i>
   </energy>
  </scstep>
  <scstep>
   <time name="dav">   76.88   76.86</time>
   <time name="total">   77.67   77.66</time>
   <energy>
    <i name="e_fr_energy">   -293.35779602 </i>
    <i name="e_wo_entrp">   -293.35779602 </i>
    <i name="e_0_energy">   -293.35779602 </i>
   </energy>
  </scstep>
  <scstep>
   <time name="dav">   67.29   67.29</time>
   <time name="total">   68.08   68.08</time>
   <energy>
    <i name="e_fr_energy">   -293.35778454 </i>
    <i name="e_wo_entrp">   -293.35778454 </i>
    <i name="e_0_energy">   -293.35778454 </i>
   </energy>
  </scstep>
  <scstep>
   <time name="dav">   81.85   81.84</time>
   <time name="total">   82.65   82.65</time>
   <energy>
    <i name="e_fr_energy">   -293.35777447 </i>
    <i name="e_wo_entrp">   -293.35777447 </i>
    <i name="e_0_energy">   -293.35777447 </i>
   </energy>
  </scstep>
  <scstep>
   <time name="dav">   61.61   61.60</time>
   <time name="total">   62.40   62.39</time>
   <energy>
    <i name="e_fr_energy">   -293.35777171 </i>
    <i name="e_wo_entrp">   -293.35777171 </i>
    <i name="e_0_energy">   -293.35777171 </i>
   </energy>
  </scstep>
  <scstep>
   <time name="dav">   46.21   46.20</time>
   <time name="total">   46.28   46.28</time>
   <energy>
    <i name="alphaZ">   1082.61963668 </i>
    <i name="ewald"> -30784.94697099 </i>
    <i name="hartreedc"> -12871.69501566 </i>
    <i name="XCdc">   1347.82715742 </i>
    <i name="pawpsdc">  44097.48486458 </i>
    <i name="pawaedc"> -43494.65030004 </i>
    <i name="eentropy">      0.00000000 </i>
    <i name="bandstr">  -4078.54437280 </i>
    <i name="atom">  44408.54722957 </i>
    <i name="e_fr_energy">   -293.35777124 </i>
    <i name="e_wo_entrp">   -293.35777124 </i>
    <i name="e_0_energy">   -293.35777124 </i>
   </energy>
  </scstep>
  <structure>
   <crystal>
    <varray name="basis" >
     <v>      11.12685489       0.00254485       0.01421371 </v>
     <v>       0.00217971       9.50347720      -0.00153753 </v>
     <v>       0.01421867      -0.00179572      11.15633153 </v>
    </varray>
    <i name="volume">   1179.71100790 </i>
    <varray name="rec_basis" >
     <v>       0.08987281      -0.00002063      -0.00011455 </v>
     <v>      -0.00002409       0.10522465       0.00001697 </v>
     <v>      -0.00011451       0.00001453       0.08963535 </v>
    </varray>
   </crystal>
   <varray name="positions" >
    <v>       0.37091232       0.00051727       0.43867657 </v>
    <v>       0.12271443       0.99985523       0.19082643 </v>
    <v>       0.37169804       0.00101224       0.18763812 </v>
    <v>       0.87981941      -0.00017811       0.43487297 </v>
    <v>       0.37667623      -0.00019121       0.93506926 </v>
    <v>       0.37376131      -0.00074276       0.68618667 </v>
    <v>       0.62571688       0.99918844       0.93380774 </v>
    <v>       0.87405649       0.00044316       0.93901880 </v>
    <v>       0.62547812       0.00082592       0.44373263 </v>
    <v>       0.62873792       0.99975634       0.18319294 </v>
    <v>       0.12514285       0.00085647       0.93432782 </v>
    <v>       0.87602211       0.00165165       0.68594964 </v>
    <v>      -0.00023241       0.29540748       0.06422310 </v>
    <v>       0.24970642       0.69982377       0.06338648 </v>
    <v>       0.24817399       0.29072397       0.31437646 </v>
    <v>       0.49789629       0.69494917       0.31367724 </v>
    <v>       0.49929167       0.30036295       0.06176231 </v>
    <v>       0.75163257       0.70451667       0.06274901 </v>
    <v>       0.75255894       0.30038902       0.31265268 </v>
    <v>       0.00091328       0.71375267       0.31349233 </v>
    <v>       0.00245755       0.29072924       0.56188756 </v>
    <v>       0.24861404       0.71387220       0.56248310 </v>
    <v>       0.24964602       0.29528774       0.81091684 </v>
    <v>       0.49972436       0.70925805       0.81165249 </v>
    <v>       0.49902186       0.29534934       0.56415686 </v>
    <v>       0.75034983       0.70009775       0.56353322 </v>
    <v>       0.74922865       0.29530642       0.81227544 </v>
    <v>       0.00100145       0.70020833       0.81151827 </v>
    <v>       0.25052020       0.32751008       0.06233479 </v>
    <v>       0.00031884       0.67268995       0.06151393 </v>
    <v>       0.50126736       0.32695105       0.31219966 </v>
    <v>       0.25182651       0.67238687       0.31130278 </v>
    <v>       0.74914355       0.32701489       0.06332681 </v>
    <v>       0.50022667       0.67291244       0.06399747 </v>
    <v>       0.99889695       0.32761145       0.31218499 </v>
    <v>       0.74788426       0.67321900       0.31288491 </v>
    <v>       0.25088649       0.32769238       0.56325172 </v>
    <v>      -0.00174576       0.67259193       0.56423772 </v>
    <v>       0.50017561       0.32739447       0.81362234 </v>
    <v>       0.24941492       0.67251943       0.81454511 </v>
    <v>       0.74941054       0.32728373       0.56242059 </v>
    <v>       0.50163062       0.67263519       0.56158125 </v>
    <v>       0.99961305       0.32742718       0.81355679 </v>
    <v>       0.75055424       0.67277468       0.81277857 </v>
    <v>       0.50182215       0.07365459       0.06534578 </v>
    <v>       0.24860901       0.92580222       0.06029209 </v>
    <v>       0.25383568       0.08142696       0.30909948 </v>
    <v>      -0.00056509       0.91432118       0.31210453 </v>
    <v>       0.00425247       0.07743183       0.05741150 </v>
    <v>       0.74479986       0.92259699       0.06235090 </v>
    <v>       0.74259771       0.07340097       0.31461939 </v>
    <v>       0.50467710       0.92971837       0.31171304 </v>
    <v>       0.50064328       0.07783058       0.55691127 </v>
    <v>       0.25492333       0.91463809       0.56256610 </v>
    <v>       0.25034966       0.07810555       0.81791049 </v>
    <v>      -0.00263662       0.92492395       0.81540807 </v>
    <v>       0.99246879       0.08126840       0.56489032 </v>
    <v>       0.75158464       0.92511232       0.55945492 </v>
    <v>       0.75466975       0.07781176       0.81309585 </v>
    <v>       0.49800360       0.91870208       0.81564389 </v>
   </varray>
  </structure>
  <varray name="forces" >
   <v>      -0.63779939       0.04126690       0.16170260 </v>
   <v>      -0.32035363       0.00357116       0.54053493 </v>
   <v>      -0.30128534       0.08788790       0.10161019 </v>
   <v>       0.63820426      -0.03790792      -0.43403008 </v>
   <v>       0.22195653      -0.04481063      -0.13862495 </v>
   <v>      -0.14212925      -0.11184917      -0.09616190 </v>
   <v>       0.03266706      -0.08596184      -0.55139413 </v>
   <v>      -0.22910392       0.02912281       0.42946350 </v>
   <v>      -0.01533258       0.00106968       0.61256741 </v>
   <v>       0.35885529       0.04707206      -0.00912894 </v>
   <v>      -0.02815512       0.00111094      -0.37627858 </v>
   <v>       0.03901655      -0.00520363       0.06633720 </v>
   <v>      -0.02803607       0.10937068       0.10918036 </v>
   <v>      -0.01638410      -0.03825678       0.03195582 </v>
   <v>      -0.09342931       0.71958449       0.14100809 </v>
   <v>      -0.13300081       0.00494884       0.04568616 </v>
   <v>      -0.15257029      -0.02999731       0.01003322 </v>
   <v>       0.18077022      -0.19401498       0.05235741 </v>
   <v>       0.16175615      -0.11880133      -0.00968931 </v>
   <v>       0.07787369      -2.03805675       0.06899455 </v>
   <v>       0.34124872       0.67768068      -0.06995858 </v>
   <v>      -0.33265574      -1.91805789      -0.02832893 </v>
   <v>      -0.08823725       0.29499890      -0.15962189 </v>
   <v>       0.01626980      -0.72120836      -0.12828762 </v>
   <v>      -0.06157611       0.25783132       0.06351322 </v>
   <v>       0.00842999      -0.17949579       0.03834233 </v>
   <v>      -0.05394125       0.21895721      -0.09322248 </v>
   <v>       0.14879363      -0.19000684      -0.13753283 </v>
   <v>       0.03501780       0.25148776      -0.06876919 </v>
   <v>       0.03633787      -0.14730334      -0.18393192 </v>
   <v>       0.14298581       0.29062465      -0.06933168 </v>
   <v>       0.22973148      -0.14444195      -0.19799972 </v>
   <v>      -0.11510768       0.07861714       0.05343482 </v>
   <v>       0.04662977      -0.20330934       0.11524005 </v>
   <v>      -0.12721707       0.06632825      -0.07375130 </v>
   <v>      -0.22962110      -0.16401684      -0.01740685 </v>
   <v>       0.14203612       0.07958570       0.06420658 </v>
   <v>      -0.27792914      -0.09495785       0.21250751 </v>
   <v>       0.01392781       0.07973780       0.09143782 </v>
   <v>      -0.07047768      -0.15865638       0.20980032 </v>
   <v>      -0.06995818       0.17751140      -0.04406962 </v>
   <v>       0.18549285      -0.14369837      -0.15398589 </v>
   <v>      -0.03727915       0.20318318       0.06083134 </v>
   <v>       0.08323752      -0.11099191      -0.00655913 </v>
   <v>       0.27074552       0.32600712       0.21113359 </v>
   <v>      -0.27154742      -0.23317911      -0.31611764 </v>
   <v>       0.53677249      -0.84637547      -0.55635328 </v>
   <v>      -0.05270000       2.26050071      -0.05365520 </v>
   <v>       0.70340963      -0.02445121      -0.75036195 </v>
   <v>      -0.62236027       0.00336750      -0.38517934 </v>
   <v>      -0.89969769       0.46691086       0.45567518 </v>
   <v>       0.55891683      -0.50364727       0.01309069 </v>
   <v>      -0.28121291      -0.03737475      -0.63622027 </v>
   <v>       1.11211812       2.24749818       0.03365953 </v>
   <v>       0.24124498      -0.11180115       0.73600855 </v>
   <v>      -0.53430258      -0.19249816       0.42227273 </v>
   <v>      -1.24326339      -0.71665799       0.24484588 </v>
   <v>       0.58204451      -0.23637068      -0.32146294 </v>
   <v>       0.78657368      -0.12325525       0.15287633 </v>
   <v>      -0.46640026       0.88078245       0.51710829 </v>
  </varray>
  <varray name="stress" >
   <v>       6.94403862      -0.07495450      -1.55562855 </v>
   <v>      -0.07495459       8.56507422       0.17911753 </v>
   <v>      -1.55562817       0.17911754       4.37489308 </v>
  </varray>
  <energy>
   <i name="e_fr_energy">   -307.04163373 </i>
   <i name="e_wo_entrp">   -307.04163373 </i>
   <i name="e_0_energy">      0.00000000 </i>
  </energy>
  <time name="totalsc">  742.21  742.18</time>
 </calculation>
 <calculation>
  <scstep>
   <time name="dav">   62.01   62.05</time>
   <time name="total">   62.80   62.84</time>
   <energy>
    <i name="alphaZ">   1078.02892620 </i>
    <i name="ewald"> -30852.65637834 </i>
    <i name="hartreedc"> -12748.80908208 </i>
    <i name="XCdc">   1344.70529837 </i>
    <i name="pawpsdc">  44097.57815495 </i>
    <i name="pawaedc"> -43494.74426027 </i>
    <i name="eentropy">      0.00000000 </i>
    <i name="bandstr">  -4124.92085350 </i>
    <i name="atom">  44408.54722957 </i>
    <i name="e_fr_energy">   -292.27096509 </i>
    <i name="e_wo_entrp">   -292.27096509 </i>
    <i name="e_0_energy">   -292.27096509 </i>
   </energy>
  </scstep>
  <scstep>
   <time name="dav">   68.99   69.04</time>
   <time name="total">   69.78   69.83</time>
   <energy>
    <i name="e_fr_energy">   -294.30052930 </i>
    <i name="e_wo_entrp">   -294.30052930 </i>
    <i name="e_0_energy">   -294.30052930 </i>
   </energy>
  </scstep>
  <scstep>
   <time name="dav">   90.32   90.43</time>
   <time name="total">   91.11   91.23</time>
   <energy>
    <i name="e_fr_energy">   -294.28529746 </i>
    <i name="e_wo_entrp">   -294.28529746 </i>
    <i name="e_0_energy">   -294.28529746 </i>
   </energy>
  </scstep>
  <scstep>
   <time name="dav">   72.10   72.19</time>
   <time name="total">   72.90   72.99</time>
   <energy>
    <i name="e_fr_energy">   -294.24861410 </i>
    <i name="e_wo_entrp">   -294.24861410 </i>
    <i name="e_0_energy">   -294.24861410 </i>
   </energy>
  </scstep>
  <scstep>
   <time name="dav">   72.77   72.80</time>
   <time name="total">   73.55   73.59</time>
   <energy>
    <i name="e_fr_energy">   -294.22618034 </i>
    <i name="e_wo_entrp">   -294.22618034 </i>
    <i name="e_0_energy">   -294.22618034 </i>
   </energy>
  </scstep>
  <scstep>
   <time name="dav">   75.38   75.40</time>
   <time name="total">   76.17   76.19</time>
   <energy>
    <i name="e_fr_energy">   -294.22623929 </i>
    <i name="e_wo_entrp">   -294.22623929 </i>
    <i name="e_0_energy">   -294.22623929 </i>
   </energy>
  </scstep>
  <scstep>
   <time name="dav">   80.53   80.56</time>
   <time name="total">   81.32   81.36</time>
   <energy>
    <i name="e_fr_energy">   -294.22635208 </i>
    <i name="e_wo_entrp">   -294.22635208 </i>
    <i name="e_0_energy">   -294.22635208 </i>
   </energy>
  </scstep>
  <scstep>
   <time name="dav">   80.18   80.30</time>
   <time name="total">   80.98   81.10</time>
   <energy>
    <i name="e_fr_energy">   -294.22628157 </i>
    <i name="e_wo_entrp">   -294.22628157 </i>
    <i name="e_0_energy">   -294.22628157 </i>
   </energy>
  </scstep>
  <scstep>
   <time name="dav">   72.97   73.08</time>
   <time name="total">   73.76   73.87</time>
   <energy>
    <i name="e_fr_energy">   -294.22629046 </i>
    <i name="e_wo_entrp">   -294.22629046 </i>
    <i name="e_0_energy">   -294.22629046 </i>
   </energy>
  </scstep>
  <scstep>
   <time name="dav">   69.68   69.88</time>
   <time name="total">   70.47   70.68</time>
   <energy>
    <i name="e_fr_energy">   -294.22629606 </i>
    <i name="e_wo_entrp">   -294.22629606 </i>
    <i name="e_0_energy">   -294.22629606 </i>
   </energy>
  </scstep>
  <scstep>
   <time name="dav">   76.69   76.81</time>
   <time name="total">   77.48   77.60</time>
   <energy>
    <i name="e_fr_energy">   -294.22629797 </i>
    <i name="e_wo_entrp">   -294.22629797 </i>
    <i name="e_0_energy">   -294.22629797 </i>
   </energy>
  </scstep>
  <scstep>
   <time name="dav">   58.68   58.74</time>
   <time name="total">   59.47   59.53</time>
   <energy>
    <i name="e_fr_energy">   -294.22629915 </i>
    <i name="e_wo_entrp">   -294.22629915 </i>
    <i name="e_0_energy">   -294.22629915 </i>
   </energy>
  </scstep>
  <scstep>
   <time name="dav">   53.58   53.59</time>
   <time name="total">   53.66   53.66</time>
   <energy>
    <i name="alphaZ">   1078.02892620 </i>
    <i name="ewald"> -30852.65637834 </i>
    <i name="hartreedc"> -12784.86650074 </i>
    <i name="XCdc">   1346.38266191 </i>
    <i name="pawpsdc">  43821.25439816 </i>
    <i name="pawaedc"> -43214.28739736 </i>
    <i name="eentropy">      0.00000000 </i>
    <i name="bandstr">  -4096.62923945 </i>
    <i name="atom">  44408.54722957 </i>
    <i name="e_fr_energy">   -294.22630005 </i>
    <i name="e_wo_entrp">   -294.22630005 </i>
    <i name="e_0_energy">   -294.22630005 </i>
   </energy>
  </scstep>
  <structure>
   <crystal>
    <varray name="basis" >
     <v>      11.14566175       0.00335690       0.01136514 </v>
     <v>       0.00287449       9.51488662      -0.00132706 </v>
     <v>       0.01136700      -0.00154665      11.17151671 </v>
    </varray>
    <i name="volume">   1184.73472438 </i>
    <varray name="rec_basis" >
     <v>       0.08972111      -0.00002712      -0.00009129 </v>
     <v>      -0.00003167       0.10509848       0.00001458 </v>
     <v>      -0.00009128       0.00001251       0.08951345 </v>
    </varray>
   </crystal>
   <varray name="positions" >
    <v>       0.36588205       0.00090458       0.44029897 </v>
    <v>       0.12036490       0.99988246       0.19516268 </v>
    <v>       0.36891206       0.00188731       0.18846900 </v>
    <v>       0.88482821      -0.00054927       0.43199186 </v>
    <v>       0.37828829      -0.00060247       0.93355276 </v>
    <v>       0.37271873      -0.00177303       0.68542754 </v>
    <v>       0.62602987       0.99842142       0.92988623 </v>
    <v>       0.87238776       0.00073078       0.94195382 </v>
    <v>       0.62544956       0.00134080       0.44986309 </v>
    <v>       0.63239635       0.99994739       0.18126383 </v>
    <v>       0.12489920       0.00138560       0.93142050 </v>
    <v>       0.87691486       0.00238921       0.68575948 </v>
    <v>      -0.00054026       0.29606734       0.06541362 </v>
    <v>       0.24941866       0.69706169       0.06381828 </v>
    <v>       0.24690075       0.29202360       0.31577755 </v>
    <v>       0.49631345       0.68989052       0.31431292 </v>
    <v>       0.49820871       0.30288005       0.06126971 </v>
    <v>       0.75317764       0.70339399       0.06293876 </v>
    <v>       0.75463226       0.30247428       0.31252311 </v>
    <v>       0.00178260       0.70816258       0.31412933 </v>
    <v>       0.00511355       0.29182033       0.56111294 </v>
    <v>       0.24641405       0.70894501       0.56219697 </v>
    <v>       0.24915561       0.29681442       0.80926134 </v>
    <v>       0.49972080       0.70794144       0.81050677 </v>
    <v>       0.49818747       0.29672238       0.56511954 </v>
    <v>       0.75049883       0.69676991       0.56406683 </v>
    <v>       0.74866908       0.29646236       0.81159968 </v>
    <v>       0.00222145       0.69688425       0.81026236 </v>
    <v>       0.25091200       0.32915013       0.06177200 </v>
    <v>       0.00061452       0.67167389       0.06003902 </v>
    <v>       0.50255627       0.32849850       0.31156399 </v>
    <v>       0.25377552       0.67122837       0.30965742 </v>
    <v>       0.74818484       0.32753499       0.06379531 </v>
    <v>       0.50051561       0.67173127       0.06507146 </v>
    <v>       0.99781257       0.32837743       0.31152600 </v>
    <v>       0.74584111       0.67239297       0.31282607 </v>
    <v>       0.25192283       0.32856607       0.56372507 </v>
    <v>      -0.00385885       0.67178859       0.56585281 </v>
    <v>       0.50034992       0.32811563       0.81440292 </v>
    <v>       0.24883650       0.67135950       0.81630420 </v>
    <v>       0.74878311       0.32843715       0.56200839 </v>
    <v>       0.50323796       0.67160860       0.56026679 </v>
    <v>       0.99927940       0.32878317       0.81417404 </v>
    <v>       0.75122090       0.67198421       0.81270786 </v>
    <v>       0.50397991       0.07305607       0.06772261 </v>
    <v>       0.24680311       0.92658518       0.05783527 </v>
    <v>       0.25804089       0.07896600       0.30499854 </v>
    <v>      -0.00114849       0.92166587       0.31169526 </v>
    <v>       0.00951978       0.07702423       0.05161681 </v>
    <v>       0.73953541       0.92291248       0.06065976 </v>
    <v>       0.73487606       0.07337980       0.31767956 </v>
[...]
       <r>    8.7919    0.0000 </r>
       <r>    8.8231    0.0000 </r>
       <r>    8.8418    0.0000 </r>
       <r>    8.8857    0.0000 </r>
       <r>    8.9053    0.0000 </r>
       <r>    9.0129    0.0000 </r>
       <r>    9.0310    0.0000 </r>
      </set>
     </set>
    </set>
   </array>
  </eigenvalues>
  <separator name="orbital magnetization" >
   <v name="MAGDIPOLOUT">      0.00000000      0.00000000      0.00000000</v>
  </separator>
  <dos>
   <i name="efermi">      4.35778944 </i>
   <total>
    <array>
     <dimension dim="1">gridpoints</dimension>
     <dimension dim="2">spin</dimension>
     <field>energy</field>
     <field>total</field>
     <field>integrated</field>
     <set>
      <set comment="spin 1">
       <r>   -42.3303     0.0000     0.0000 </r>
       <r>   -42.1488     0.0000     0.0000 </r>
       <r>   -41.9673     0.0000     0.0000 </r>
       <r>   -41.7858     0.0000     0.0000 </r>
       <r>   -41.6043     0.0000     0.0000 </r>
       <r>   -41.4228     0.0000     0.0000 </r>
       <r>   -41.2413     0.0000     0.0000 </r>
       <r>   -41.0598     0.0000     0.0000 </r>
       <r>   -40.8783     0.0000     0.0000 </r>
       <r>   -40.6968     0.0000     0.0000 </r>
       <r>   -40.5154     0.0000     0.0000 </r>
       <r>   -40.3339     0.0000     0.0000 </r>
       <r>   -40.1524     0.0000     0.0000 </r>
       <r>   -39.9709     0.0000     0.0000 </r>
       <r>   -39.7894     0.0000     2.0000 </r>
       <r>   -39.6079     0.0000     8.0000 </r>
       <r>   -39.4264     0.0000    14.0000 </r>
       <r>   -39.2449     0.0000    16.0000 </r>
       <r>   -39.0634     0.0000    16.0000 </r>
       <r>   -38.8820     0.0000    16.0000 </r>
       <r>   -38.7005     0.0000    16.0000 </r>
       <r>   -38.5190     0.0000    16.0000 </r>
       <r>   -38.3375     0.0000    16.0000 </r>
       <r>   -38.1560     0.0000    16.0000 </r>
       <r>   -37.9745     0.0000    16.0000 </r>
       <r>   -37.7930     0.0000    16.0000 </r>
       <r>   -37.6115     0.0000    16.0000 </r>
       <r>   -37.4300     0.0000    16.0000 </r>
       <r>   -37.2486     0.0000    16.0000 </r>
       <r>   -37.0671     0.0000    16.0000 </r>
       <r>   -36.8856     0.0000    16.0000 </r>
       <r>   -36.7041     0.0000    16.0000 </r>
       <r>   -36.5226     0.0000    16.0000 </r>
       <r>   -36.3411     0.0000    16.0000 </r>
       <r>   -36.1596     0.0000    16.0000 </r>
       <r>   -35.9781     0.0000    16.0000 </r>
       <r>   -35.7966     0.0000    16.0000 </r>
       <r>   -35.6152     0.0000    16.0000 </r>
       <r>   -35.4337     0.0000    16.0000 </r>
       <r>   -35.2522     0.0000    16.0000 </r>
       <r>   -35.0707     0.0000    16.0000 </r>
       <r>   -34.8892     0.0000    16.0000 </r>
       <r>   -34.7077     0.0000    16.0000 </r>
       <r>   -34.5262     0.0000    16.0000 </r>
       <r>   -34.3447     0.0000    16.0000 </r>
       <r>   -34.1632     0.0000    16.0000 </r>
       <r>   -33.9818     0.0000    16.0000 </r>
       <r>   -33.8003     0.0000    16.0000 </r>
       <r>   -33.6188     0.0000    16.0000 </r>
       <r>   -33.4373     0.0000    16.0000 </r>
       <r>   -33.2558     0.0000    16.0000 </r>
       <r>   -33.0743     0.0000    16.0000 </r>
       <r>   -32.8928     0.0000    16.0000 </r>
       <r>   -32.7113     0.0000    16.0000 </r>
       <r>   -32.5298     0.0000    16.0000 </r>
       <r>   -32.3484     0.0000    16.0000 </r>
       <r>   -32.1669     0.0000    16.0000 </r>
       <r>   -31.9854     0.0000    16.0000 </r>
       <r>   -31.8039     0.0000    16.0000 </r>
       <r>   -31.6224     0.0000    16.0000 </r>
       <r>   -31.4409     0.0000    16.0000 </r>
       <r>   -31.2594     0.0000    16.0000 </r>
       <r>   -31.0779     0.0000    16.0000 </r>
       <r>   -30.8964     0.0000    16.0000 </r>
       <r>   -30.7150     0.0000    16.0000 </r>
       <r>   -30.5335     0.0000    16.0000 </r>
       <r>   -30.3520     0.0000    16.0000 </r>
       <r>   -30.1705     0.0000    16.0000 </r>
       <r>   -29.9890     0.0000    16.0000 </r>
       <r>   -29.8075     0.0000    16.0000 </r>
       <r>   -29.6260     0.0000    16.0000 </r>
       <r>   -29.4445     0.0000    16.0000 </r>
       <r>   -29.2630     0.0000    16.0000 </r>
       <r>   -29.0816     0.0000    16.0000 </r>
       <r>   -28.9001     0.0000    16.0000 </r>
       <r>   -28.7186     0.0000    16.0000 </r>
       <r>   -28.5371     0.0000    16.0000 </r>
       <r>   -28.3556     0.0000    16.0000 </r>
       <r>   -28.1741     0.0000    16.0000 </r>
       <r>   -27.9926     0.0000    16.0000 </r>
       <r>   -27.8111     0.0000    16.0000 </r>
       <r>   -27.6296     0.0000    16.0000 </r>
       <r>   -27.4482     0.0000    16.0000 </r>
       <r>   -27.2667     0.0000    16.0000 </r>
       <r>   -27.0852     0.0000    16.0000 </r>
       <r>   -26.9037     0.0000    16.0000 </r>
       <r>   -26.7222     0.0000    16.0000 </r>
       <r>   -26.5407     0.0000    16.0000 </r>
       <r>   -26.3592     0.0000    16.0000 </r>
       <r>   -26.1777     0.0000    16.0000 </r>
       <r>   -25.9962     0.0000    16.0000 </r>
       <r>   -25.8148     0.0000    16.0000 </r>
       <r>   -25.6333     0.0000    16.0000 </r>
       <r>   -25.4518     0.0000    16.0000 </r>
       <r>   -25.2703     0.0000    16.0000 </r>
       <r>   -25.0888     0.0000    16.0000 </r>
       <r>   -24.9073     0.0000    16.0000 </r>
       <r>   -24.7258     0.0000    16.0000 </r>
       <r>   -24.5443     0.0000    16.0000 </r>
       <r>   -24.3628     0.0000    16.0000 </r>
       <r>   -24.1814     0.0000    16.0000 </r>
       <r>   -23.9999     0.0000    16.0000 </r>
       <r>   -23.8184     0.0000    16.0000 </r>
       <r>   -23.6369     0.0000    16.0000 </r>
       <r>   -23.4554     0.0000    16.0000 </r>
       <r>   -23.2739     0.0000    16.0000 </r>
       <r>   -23.0924     0.0000    16.0000 </r>
       <r>   -22.9109     0.0000    16.0000 </r>
       <r>   -22.7294     0.0000    16.0000 </r>
       <r>   -22.5480     0.0000    16.0000 </r>
       <r>   -22.3665     0.0000    16.0000 </r>
       <r>   -22.1850     0.0000    16.0000 </r>
       <r>   -22.0035     0.0000    16.0000 </r>
       <r>   -21.8220     0.0000    16.0000 </r>
       <r>   -21.6405     0.0000    16.0000 </r>
       <r>   -21.4590     0.0000    16.0000 </r>
       <r>   -21.2775     0.0000    16.0000 </r>
       <r>   -21.0960     0.0000    16.0000 </r>
       <r>   -20.9146     0.0000    16.0000 </r>
       <r>   -20.7331     0.0000    16.0000 </r>
       <r>   -20.5516     0.0000    16.0000 </r>
       <r>   -20.3701     0.0000    16.0000 </r>
       <r>   -20.1886     0.0000    16.0000 </r>
       <r>   -20.0071     0.0000    16.0000 </r>
       <r>   -19.8256     0.0000    16.0000 </r>
       <r>   -19.6441     0.0000    16.0000 </r>
       <r>   -19.4626     0.0000    16.0000 </r>
       <r>   -19.2811     0.0000    16.0000 </r>
       <r>   -19.0997     0.0000    16.0000 </r>
       <r>   -18.9182     0.0000    16.0000 </r>
       <r>   -18.7367     0.0000    26.0000 </r>
       <r>   -18.5552     0.0000   112.0000 </r>
       <r>   -18.3737     0.0000   168.0000 </r>
       <r>   -18.1922     0.0000   176.0000 </r>
       <r>   -18.0107     0.0000   176.0000 </r>
       <r>   -17.8292     0.0000   176.0000 </r>
       <r>   -17.6477     0.0000   176.0000 </r>
       <r>   -17.4663     0.0000   176.0000 </r>
       <r>   -17.2848     0.0000   176.0000 </r>
       <r>   -17.1033     0.0000   176.0000 </r>
       <r>   -16.9218     0.0000   176.0000 </r>
       <r>   -16.7403     0.0000   176.0000 </r>
       <r>   -16.5588     0.0000   176.0000 </r>
       <r>   -16.3773     0.0000   176.0000 </r>
       <r>   -16.1958     0.0000   176.0000 </r>
       <r>   -16.0143     0.0000   176.0000 </r>
       <r>   -15.8329     0.0000   176.0000 </r>
       <r>   -15.6514     0.0000   176.0000 </r>
       <r>   -15.4699     0.0000   176.0000 </r>
       <r>   -15.2884     0.0000   176.0000 </r>
       <r>   -15.1069     0.0000   176.0000 </r>
       <r>   -14.9254     0.0000   176.0000 </r>
       <r>   -14.7439     0.0000   176.0000 </r>
       <r>   -14.5624     0.0000   176.0000 </r>
       <r>   -14.3809     0.0000   176.0000 </r>
       <r>   -14.1995     0.0000   176.0000 </r>
       <r>   -14.0180     0.0000   176.0000 </r>
       <r>   -13.8365     0.0000   176.0000 </r>
       <r>   -13.6550     0.0000   176.0000 </r>
       <r>   -13.4735     0.0000   176.0000 </r>
       <r>   -13.2920     0.0000   176.0000 </r>
       <r>   -13.1105     0.0000   178.0000 </r>
       <r>   -12.9290   102.3856   182.7410 </r>
       <r>   -12.7475     0.0000   194.0000 </r>
       <r>   -12.5661     0.0000   202.0000 </r>
       <r>   -12.3846     0.0000   206.0000 </r>
       <r>   -12.2031     0.0000   208.0000 </r>
       <r>   -12.0216     0.0000   208.0000 </r>
       <r>   -11.8401     0.0000   208.0000 </r>
       <r>   -11.6586     0.0000   208.0000 </r>
       <r>   -11.4771     0.0000   208.0000 </r>
       <r>   -11.2956     0.0000   208.0000 </r>
       <r>   -11.1141     0.0000   208.0000 </r>
       <r>   -10.9327     0.0000   208.0000 </r>
       <r>   -10.7512     0.0000   208.0000 </r>
       <r>   -10.5697     0.0000   208.0000 </r>
       <r>   -10.3882     0.0000   208.0000 </r>
       <r>   -10.2067     0.0000   208.0000 </r>
       <r>   -10.0252     0.0000   208.0000 </r>
       <r>    -9.8437     0.0000   208.0000 </r>
       <r>    -9.6622     0.0000   208.0000 </r>
       <r>    -9.4807     0.0000   208.0000 </r>
       <r>    -9.2993    10.0037   208.6614 </r>
       <r>    -9.1178    12.0454   210.7242 </r>
       <r>    -8.9363     3.2250   212.0629 </r>
       <r>    -8.7548    33.6024   213.9858 </r>
       <r>    -8.5733     7.6053   216.0685 </r>
       <r>    -8.3918    22.2490   221.3597 </r>
       <r>    -8.2103     2.5596   223.9680 </r>
       <r>    -8.0288    49.1485   227.9566 </r>
       <r>    -7.8473    22.1646   233.4182 </r>
       <r>    -7.6659     9.9624   236.2505 </r>
       <r>    -7.4844    10.3543   239.6988 </r>
       <r>    -7.3029     0.0000   240.0000 </r>
       <r>    -7.1214     0.0000   240.0000 </r>
       <r>    -6.9399     0.0000   240.0000 </r>
       <r>    -6.7584     0.0000   240.0000 </r>
       <r>    -6.5769     0.0000   240.0000 </r>
       <r>    -6.3954     0.0000   240.0000 </r>
       <r>    -6.2139    15.0651   240.9242 </r>
       <r>    -6.0325    16.1944   246.0636 </r>
       <r>    -5.8510    13.0383   248.6478 </r>
       <r>    -5.6695    32.0268   253.6040 </r>
       <r>    -5.4880    22.3163   257.7470 </r>
       <r>    -5.3065    15.2016   261.7006 </r>
       <r>    -5.1250     7.3447   263.6922 </r>
       <r>    -4.9435     6.6508   264.3932 </r>
       <r>    -4.7620    13.2732   266.3549 </r>
       <r>    -4.5805     6.1153   268.1626 </r>
       <r>    -4.3991     5.7337   268.9817 </r>
       <r>    -4.2176     9.9952   270.3554 </r>
       <r>    -4.0361     2.7860   271.4817 </r>
       <r>    -3.8546     1.4150   271.8588 </r>
       <r>    -3.6731     0.1498   271.9967 </r>
       <r>    -3.4916     0.0000   272.0000 </r>
       <r>    -3.3101     0.0000   272.0000 </r>
       <r>    -3.1286     0.0000   272.0000 </r>
       <r>    -2.9471     0.0000   272.0000 </r>
       <r>    -2.7657     0.0000   272.0000 </r>
       <r>    -2.5842     0.0000   272.0000 </r>
       <r>    -2.4027     0.0000   272.0000 </r>
       <r>    -2.2212     0.0000   272.0000 </r>
       <r>    -2.0397     0.0000   272.0000 </r>
       <r>    -1.8582     0.0000   272.0000 </r>
       <r>    -1.6767     0.0000   272.0000 </r>
       <r>    -1.4952     0.0000   272.0000 </r>
       <r>    -1.3137     2.1441   272.0608 </r>
       <r>    -1.1323     8.5728   273.2539 </r>
       <r>    -0.9508     6.1047   274.4822 </r>
       <r>    -0.7693    13.9684   276.2744 </r>
       <r>    -0.5878     9.2527   278.5209 </r>
       <r>    -0.4063    16.3013   280.3767 </r>
       <r>    -0.2248    26.3651   284.9553 </r>
       <r>    -0.0433    41.7623   290.8492 </r>
       <r>     0.1382    37.3566   298.5199 </r>
       <r>     0.3197    39.0581   305.8266 </r>
       <r>     0.5011    29.5779   312.2479 </r>
       <r>     0.6826    36.9973   318.7397 </r>
       <r>     0.8641    36.8413   325.1785 </r>
       <r>     1.0456    42.7276   332.2359 </r>
       <r>     1.2271    45.8584   341.0702 </r>
       <r>     1.4086    42.3392   349.0483 </r>
       <r>     1.5901    46.5976   357.4318 </r>
       <r>     1.7716    38.6394   366.1088 </r>
       <r>     1.9531    39.7872   373.9520 </r>
       <r>     2.1345    47.5499   382.0032 </r>
       <r>     2.3160    54.7134   391.1251 </r>
       <r>     2.4975    71.5721   402.3199 </r>
       <r>     2.6790    56.2789   414.8137 </r>
       <r>     2.8605    57.5686   426.4332 </r>
       <r>     3.0420    57.6936   438.4529 </r>
       <r>     3.2235    36.1946   446.7084 </r>
       <r>     3.4050    37.1797   451.7153 </r>
       <r>     3.5865    19.0885   458.4762 </r>
       <r>     3.7680    12.7781   461.4687 </r>
       <r>     3.9494     6.6995   463.2361 </r>
       <r>     4.1309     1.4391   463.9332 </r>
       <r>     4.3124     0.0000   464.0000 </r>
       <r>     4.4939     0.0000   464.0000 </r>
       <r>     4.6754     0.0000   464.0000 </r>
       <r>     4.8569     0.0000   464.0000 </r>
       <r>     5.0384     0.0000   464.0000 </r>
       <r>     5.2199     1.7599   464.1126 </r>
       <r>     5.4014     5.9856   464.7517 </r>
       <r>     5.5828    10.0403   466.3155 </r>
       <r>     5.7643    15.6109   468.5600 </r>
       <r>     5.9458    20.5854   472.0502 </r>
       <r>     6.1273    13.3741   474.8507 </r>
       <r>     6.3088    13.0805   477.2245 </r>
       <r>     6.4903    14.3738   479.7101 </r>
       <r>     6.6718    15.8117   482.4446 </r>
       <r>     6.8533    18.1749   485.5092 </r>
       <r>     7.0348    21.2231   489.0971 </r>
       <r>     7.2162    24.4746   493.1357 </r>
       <r>     7.3977    32.9313   498.0116 </r>
       <r>     7.5792    33.2181   504.8503 </r>
       <r>     7.7607    30.3438   510.0914 </r>
       <r>     7.9422    39.0553   516.0733 </r>
       <r>     8.1237    33.7602   522.6713 </r>
       <r>     8.3052    27.8373   528.4047 </r>
       <r>     8.4867    24.4956   532.8469 </r>
       <r>     8.6682    35.7143   538.3008 </r>
       <r>     8.8496    38.5743   544.8071 </r>
       <r>     9.0311    27.2814   550.8348 </r>
       <r>     9.2126    21.7644   555.2248 </r>
       <r>     9.3941     7.9680   558.0481 </r>
       <r>     9.5756     5.1365   559.2219 </r>
       <r>     9.7571     0.0000   560.0000 </r>
       <r>     9.9386     0.0000   560.0000 </r>
       <r>    10.1201     0.0000   560.0000 </r>
       <r>    10.3016     0.0000   560.0000 </r>
       <r>    10.4830     0.0000   560.0000 </r>
       <r>    10.6645     0.0000   560.0000 </r>
       <r>    10.8460     0.0000   560.0000 </r>
       <r>    11.0275     0.0000   560.0000 </r>
       <r>    11.2090     0.0000   560.0000 </r>
       <r>    11.3905     0.0000   560.0000 </r>
       <r>    11.5720     0.0000   560.0000 </r>
       <r>    11.7535     0.0000   560.0000 </r>
       <r>    11.9350     0.0000   560.0000 </r>
       <r>    12.1164     0.0000   560.0000 </r>
      </set>
     </set>
    </array>
   </total>
  </dos>
 </calculation>
 <structure name="finalpos" >
  <crystal>
   <varray name="basis" >
    <v>      11.21277501      -0.06970340      -0.09952425 </v>
    <v>      -0.05856068       9.55516344       0.04442326 </v>
    <v>      -0.09929872       0.05361504      11.17261871 </v>
   </varray>
   <i name="volume">   1196.86710562 </i>
   <varray name="rec_basis" >
    <v>       0.08919438       0.00054297       0.00079013 </v>
    <v>       0.00064622       0.10466173      -0.00049651 </v>
    <v>       0.00079196      -0.00041131       0.08951354 </v>
   </varray>
  </crystal>
  <varray name="positions" >
   <v>       0.34811433       0.02506025       0.45478294 </v>
   <v>       0.12420527      -0.00009872       0.19168666 </v>
   <v>       0.37455533       0.00421712       0.19051509 </v>
   <v>       0.98698885       0.01929790       0.42513609 </v>
   <v>       0.38029318       0.00204326       0.94992837 </v>
   <v>       0.34851333      -0.01200837       0.71495113 </v>
   <v>       0.63379489       0.98719712       0.89793777 </v>
   <v>       0.86677425       0.00421340       0.96011009 </v>
   <v>       0.62591394       0.00034521       0.45048573 </v>
   <v>       0.62871029       0.00308506       0.17991913 </v>
   <v>       0.12181792      -0.00458776       0.92393404 </v>
   <v>       0.86664600      -0.00347937       0.69205394 </v>
   <v>       0.00205946       0.30057607       0.06269294 </v>
   <v>       0.24513653       0.69190860       0.06192886 </v>
   <v>       0.25139240       0.30000012       0.31008420 </v>
   <v>       0.50241764       0.68603950       0.31236932 </v>
   <v>       0.49688516       0.30762088       0.06373045 </v>
   <v>       0.74401342       0.69857555       0.06099084 </v>
   <v>       0.74879000       0.31304308       0.31320725 </v>
   <v>       0.00498648       0.69739473       0.30953647 </v>
   <v>      -0.00169912       0.30824008       0.56606627 </v>
   <v>       0.25036412       0.70780230       0.56130021 </v>
   <v>       0.25277432       0.30379981       0.81139775 </v>
   <v>       0.49219639       0.70322229       0.81304539 </v>
   <v>       0.49870926       0.30986034       0.55761740 </v>
   <v>       0.74795328       0.69257352       0.56203937 </v>
   <v>       0.75088343       0.30329002       0.81289226 </v>
   <v>      -0.00505341       0.68727745       0.81132166 </v>
   <v>       0.24627114       0.35542297       0.06122338 </v>
   <v>       0.00158563       0.64769523       0.05998039 </v>
   <v>       0.49948242       0.36553181       0.31014928 </v>
   <v>       0.25437363       0.65885766       0.30867834 </v>
   <v>       0.74536609       0.33430009       0.06278860 </v>
   <v>       0.50261178       0.64634539       0.05849894 </v>
   <v>      -0.00212929       0.28151172       0.31438504 </v>
   <v>       0.75252589       0.66027185       0.30830484 </v>
   <v>       0.24779878       0.31905277       0.56193468 </v>
   <v>      -0.00234960       0.67558573       0.56253006 </v>
   <v>       0.49792526       0.33095112       0.81356323 </v>
   <v>       0.24945306       0.65046775       0.81022446 </v>
   <v>       0.74673500       0.35000288       0.56297810 </v>
   <v>       0.50182307       0.65730520       0.55811855 </v>
   <v>      -0.00289688       0.35373957       0.81379466 </v>
   <v>       0.74983583       0.65322899       0.81044677 </v>
   <v>       0.49309037       0.08633655       0.08073286 </v>
   <v>       0.23926793       0.91325096       0.05151876 </v>
   <v>       0.26949538       0.08726810       0.29745110 </v>
   <v>       0.01977971       0.90614812       0.29917257 </v>
   <v>       0.01626564       0.08626755       0.03900589 </v>
   <v>       0.72371686       0.91674882       0.04894945 </v>
   <v>       0.70936337       0.10002368       0.31616134 </v>
   <v>       0.52619527       0.90808191       0.30671649 </v>
   <v>       0.49641205       0.09751364       0.52907982 </v>
   <v>       0.27792703       0.91451941       0.57451259 </v>
   <v>       0.25469614       0.08678783       0.83712505 </v>
   <v>      -0.01717016       0.90981800       0.82487150 </v>
   <v>       0.96902362       0.09672003       0.57845099 </v>
   <v>       0.74555608       0.91267405       0.56808215 </v>
   <v>       0.76939627       0.08535107       0.82025770 </v>
   <v>       0.48121572       0.91610010       0.83125079 </v>
  </varray>
 </structure>
</modeling>
