<?xml version="1.0" encoding="ISO-8859-1"?>
<modeling>
 <generator>
  <i name="program" type="string">vasp </i>
  <i name="version" type="string">5.4.4.18Apr17-6-g9f103f2a35  </i>
  <i name="subversion" type="string">(build Jul 31 2017 11:33:29) complex            parallel </i>
  <i name="platform" type="string">LinuxIFC </i>
  <i name="date" type="string">2021 09 29 </i>
  <i name="time" type="string">05:18:58 </i>
 </generator>
 <incar>
  <i type="string" name="SYSTEM"> La2O2S</i>
  <i type="string" name="PREC">normal</i>
  <i type="int" name="NELMIN">     4</i>
  <i type="int" name="IBRION">     2</i>
  <i type="int" name="NFREE">    10</i>
  <i name="EDIFF">      0.00000100</i>
  <i name="EDIFFG">     -0.01000000</i>
  <i type="int" name="NSW">     1</i>
  <i type="int" name="ISIF">     2</i>
  <i name="ENCUT">    600.00000000</i>
  <i name="ENAUG">    900.00000000</i>
  <i type="int" name="ISMEAR">    -5</i>
  <i type="logical" name="LWAVE"> F  </i>
  <i type="logical" name="LCHARG"> F  </i>
  <v type="int" name="KPOINT_BSE">    -1     0     0     0</v>
 </incar>
 <structure name="primitive_cell" >
  <crystal>
   <varray name="basis" >
    <v>      11.17850000       0.00000000       0.00000000 </v>
    <v>       0.00000000       9.57460000       0.00000000 </v>
    <v>       0.00000000       0.00000000      11.18240000 </v>
   </varray>
   <i name="volume">   1196.84853820 </i>
   <varray name="rec_basis" >
    <v>       0.08945744       0.00000000       0.00000000 </v>
    <v>       0.00000000       0.10444301       0.00000000 </v>
    <v>       0.00000000       0.00000000       0.08942624 </v>
   </varray>
  </crystal>
  <varray name="positions" >
   <v>       0.37539000       0.00017000       0.43687000 </v>
   <v>      -0.49987000      -0.07798000       0.31246000 </v>
   <v>       0.25013000       0.07798000       0.31246000 </v>
   <v>       0.49987000       0.07798000      -0.43754000 </v>
   <v>       0.24987000      -0.07798000      -0.43754000 </v>
   <v>      -0.37461000      -0.00016000       0.43687000 </v>
   <v>       0.37461000       0.00017000       0.18687000 </v>
   <v>       0.37461000       0.00017000      -0.31313000 </v>
   <v>       0.49987000      -0.29519000       0.31282000 </v>
   <v>       0.24987000       0.29519000       0.31282000 </v>
   <v>      -0.49987000       0.29519000      -0.43719000 </v>
   <v>       0.25013000      -0.29519000      -0.43719000 </v>
   <v>       0.49995000       0.32677000       0.31286000 </v>
   <v>       0.24995000      -0.32677000       0.31286000 </v>
   <v>      -0.49995000      -0.32677000      -0.43714000 </v>
   <v>       0.25005000       0.32677000      -0.43714000 </v>
   <v>      -0.37539000      -0.00016000      -0.31313000 </v>
   <v>      -0.37539000      -0.00016000       0.18687000 </v>
   <v>       0.12461000      -0.00016000       0.18687000 </v>
   <v>       0.12461000      -0.00016000      -0.31313000 </v>
   <v>       0.49987000       0.07798000       0.06246000 </v>
   <v>      -0.24987000       0.07798000       0.31246000 </v>
   <v>      -0.25013000      -0.07798000      -0.43754000 </v>
   <v>       0.24987000      -0.07798000       0.06246000 </v>
   <v>       0.00013000      -0.07798000       0.31246000 </v>
   <v>      -0.49987000      -0.07798000      -0.18754000 </v>
   <v>      -0.00013000       0.07798000      -0.43754000 </v>
   <v>       0.25013000       0.07798000      -0.18754000 </v>
   <v>      -0.49987000       0.29519000       0.06281000 </v>
   <v>      -0.25013000       0.29519000       0.31282000 </v>
   <v>       0.25013000      -0.29519000       0.06281000 </v>
   <v>      -0.24987000      -0.29519000      -0.43719000 </v>
   <v>      -0.00013000      -0.29519000       0.31282000 </v>
   <v>       0.00013000       0.29519000      -0.43719000 </v>
   <v>       0.49987000      -0.29519000      -0.18718000 </v>
   <v>       0.24987000       0.29519000      -0.18718000 </v>
   <v>      -0.49995000      -0.32677000       0.06286000 </v>
   <v>       0.25005000       0.32677000       0.06286000 </v>
   <v>      -0.25005000      -0.32677000       0.31286000 </v>
   <v>      -0.24995000       0.32677000      -0.43714000 </v>
   <v>      -0.00005000       0.32677000       0.31286000 </v>
   <v>       0.00005000      -0.32677000      -0.43714000 </v>
   <v>       0.49995000       0.32677000      -0.18714000 </v>
   <v>       0.24995000      -0.32677000      -0.18714000 </v>
   <v>      -0.12461000       0.00017000       0.43687000 </v>
   <v>       0.37539000       0.00017000      -0.06313000 </v>
   <v>      -0.25013000      -0.07798000       0.06246000 </v>
   <v>      -0.00013000       0.07798000       0.06246000 </v>
   <v>      -0.24987000       0.07798000      -0.18754000 </v>
   <v>       0.00013000      -0.07798000      -0.18754000 </v>
   <v>      -0.12539000       0.00017000       0.18687000 </v>
   <v>      -0.12539000       0.00017000      -0.31313000 </v>
   <v>      -0.37461000      -0.00016000      -0.06313000 </v>
   <v>      -0.24987000      -0.29519000       0.06281000 </v>
   <v>       0.00013000       0.29519000       0.06281000 </v>
   <v>      -0.25013000       0.29519000      -0.18718000 </v>
   <v>      -0.00013000      -0.29519000      -0.18718000 </v>
   <v>      -0.24995000       0.32677000       0.06286000 </v>
   <v>       0.00005000      -0.32677000       0.06286000 </v>
   <v>      -0.25005000      -0.32677000      -0.18714000 </v>
   <v>      -0.00005000       0.32677000      -0.18714000 </v>
   <v>      -0.12461000       0.00017000      -0.06313000 </v>
  </varray>
 </structure>
 <varray name="primitive_index" >
  <v type="int" >        1 </v>
  <v type="int" >       54 </v>
  <v type="int" >       49 </v>
  <v type="int" >       55 </v>
  <v type="int" >       56 </v>
  <v type="int" >        4 </v>
  <v type="int" >        3 </v>
  <v type="int" >        8 </v>
  <v type="int" >       18 </v>
  <v type="int" >       17 </v>
  <v type="int" >       27 </v>
  <v type="int" >       24 </v>
  <v type="int" >       33 </v>
  <v type="int" >       34 </v>
  <v type="int" >       44 </v>
  <v type="int" >       39 </v>
  <v type="int" >       11 </v>
  <v type="int" >       13 </v>
  <v type="int" >        2 </v>
  <v type="int" >       14 </v>
  <v type="int" >       47 </v>
  <v type="int" >       53 </v>
  <v type="int" >       60 </v>
  <v type="int" >       48 </v>
  <v type="int" >       50 </v>
  <v type="int" >       62 </v>
  <v type="int" >       59 </v>
  <v type="int" >       57 </v>
  <v type="int" >       19 </v>
  <v type="int" >       21 </v>
  <v type="int" >       16 </v>
  <v type="int" >       28 </v>
  <v type="int" >       22 </v>
  <v type="int" >       23 </v>
  <v type="int" >       26 </v>
  <v type="int" >       25 </v>
  <v type="int" >       36 </v>
  <v type="int" >       31 </v>
  <v type="int" >       38 </v>
  <v type="int" >       43 </v>
  <v type="int" >       37 </v>
  <v type="int" >       40 </v>
  <v type="int" >       41 </v>
  <v type="int" >       42 </v>
  <v type="int" >        5 </v>
  <v type="int" >        7 </v>
  <v type="int" >       52 </v>
  <v type="int" >       51 </v>
  <v type="int" >       61 </v>
  <v type="int" >       58 </v>
  <v type="int" >        6 </v>
  <v type="int" >       12 </v>
  <v type="int" >        9 </v>
  <v type="int" >       20 </v>
  <v type="int" >       15 </v>
  <v type="int" >       29 </v>
  <v type="int" >       30 </v>
  <v type="int" >       35 </v>
  <v type="int" >       32 </v>
  <v type="int" >       46 </v>
  <v type="int" >       45 </v>
  <v type="int" >       10 </v>
 </varray>
 <kpoints>
  <generation param="Gamma">
   <v type="int" name="divisions">       2        2        2 </v>
   <v name="usershift">      0.00000000       0.00000000       0.00000000 </v>
   <v name="genvec1">      0.50000000       0.00000000       0.00000000 </v>
   <v name="genvec2">      0.00000000       0.50000000       0.00000000 </v>
   <v name="genvec3">      0.00000000       0.00000000       0.50000000 </v>
   <v name="shift">      0.00000000       0.00000000       0.00000000 </v>
  </generation>
  <varray name="kpointlist" >
   <v>       0.00000000       0.00000000       0.00000000 </v>
   <v>       0.50000000       0.00000000       0.00000000 </v>
   <v>       0.00000000       0.50000000       0.00000000 </v>
   <v>       0.50000000       0.50000000       0.00000000 </v>
   <v>       0.00000000       0.00000000       0.50000000 </v>
   <v>       0.50000000       0.00000000       0.50000000 </v>
   <v>       0.00000000       0.50000000       0.50000000 </v>
   <v>       0.50000000       0.50000000       0.50000000 </v>
  </varray>
  <varray name="weights" >
   <v>       0.12500000 </v>
   <v>       0.12500000 </v>
   <v>       0.12500000 </v>
   <v>       0.12500000 </v>
   <v>       0.12500000 </v>
   <v>       0.12500000 </v>
   <v>       0.12500000 </v>
   <v>       0.12500000 </v>
  </varray>
  <varray name="tetrahedronlist"  type="int" >
   <v type="int" >        2        1        2        4        5 </v>
   <v type="int" >        2        1        3        4        5 </v>
   <v type="int" >        2        3        4        5        7 </v>
   <v type="int" >        2        2        4        5        6 </v>
   <v type="int" >        2        4        5        6        8 </v>
   <v type="int" >        2        4        5        7        8 </v>
   <v type="int" >        2        1        2        3        6 </v>
   <v type="int" >        2        2        3        4        6 </v>
   <v type="int" >        2        3        4        6        8 </v>
   <v type="int" >        2        1        3        5        6 </v>
   <v type="int" >        2        3        5        6        7 </v>
   <v type="int" >        2        3        6        7        8 </v>
   <v type="int" >        2        2        3        4        7 </v>
   <v type="int" >        2        1        2        3        7 </v>
   <v type="int" >        2        1        2        5        7 </v>
   <v type="int" >        2        2        4        7        8 </v>
   <v type="int" >        2        2        6        7        8 </v>
   <v type="int" >        2        2        5        6        7 </v>
   <v type="int" >        2        1        3        4        8 </v>
   <v type="int" >        2        1        2        4        8 </v>
   <v type="int" >        2        1        2        6        8 </v>
   <v type="int" >        2        1        3        7        8 </v>
   <v type="int" >        2        1        5        7        8 </v>
   <v type="int" >        2        1        5        6        8 </v>
  </varray>
  <i name="volumeweight">      0.02083333 </i>
 </kpoints>
 <parameters>
  <separator name="general" >
   <i type="string" name="SYSTEM">La2O2S</i>
   <i type="logical" name="LCOMPAT"> F  </i>
  </separator>
  <separator name="electronic" >
   <i type="string" name="PREC">normal</i>
   <i name="ENMAX">    600.00000000</i>
   <i name="ENAUG">    900.00000000</i>
   <i name="EDIFF">      0.00000100</i>
   <i type="int" name="IALGO">    38</i>
   <i type="int" name="IWAVPR">    11</i>
   <i type="int" name="NBANDS">   308</i>
   <i name="NELECT">    472.00000000</i>
   <i type="int" name="TURBO">     0</i>
   <i type="int" name="IRESTART">     0</i>
   <i type="int" name="NREBOOT">     0</i>
   <i type="int" name="NMIN">     0</i>
   <i name="EREF">      0.00000000</i>
   <separator name="electronic smearing" >
    <i type="int" name="ISMEAR">    -5</i>
    <i name="SIGMA">      0.20000000</i>
    <i name="KSPACING">      0.50000000</i>
    <i type="logical" name="KGAMMA"> T  </i>
   </separator>
   <separator name="electronic projectors" >
    <i type="logical" name="LREAL"> F  </i>
    <v name="ROPT">      0.00000000      0.00000000      0.00000000      0.00000000      0.00000000</v>
    <i type="int" name="LMAXPAW">  -100</i>
    <i type="int" name="LMAXMIX">     2</i>
    <i type="logical" name="NLSPLINE"> F  </i>
   </separator>
   <separator name="electronic startup" >
    <i type="int" name="ISTART">     0</i>
    <i type="int" name="ICHARG">     2</i>
    <i type="int" name="INIWAV">     1</i>
   </separator>
   <separator name="electronic spin" >
    <i type="int" name="ISPIN">     1</i>
    <i type="logical" name="LNONCOLLINEAR"> F  </i>
    <v name="MAGMOM">      1.00000000      1.00000000      1.00000000      1.00000000      1.00000000      1.00000000      1.00000000      1.00000000      1.00000000      1.00000000      1.00000000      1.00000000      1.00000000      1.00000000      1.00000000      1.00000000      1.00000000      1.00000000      1.00000000      1.00000000
      1.00000000      1.00000000      1.00000000      1.00000000      1.00000000      1.00000000      1.00000000      1.00000000      1.00000000      1.00000000      1.00000000      1.00000000      1.00000000      1.00000000      1.00000000      1.00000000      1.00000000      1.00000000      1.00000000      1.00000000
      1.00000000      1.00000000      1.00000000      1.00000000      1.00000000      1.00000000      1.00000000      1.00000000      1.00000000      1.00000000      1.00000000      1.00000000      1.00000000      1.00000000      1.00000000      1.00000000      1.00000000      1.00000000      1.00000000      1.00000000
      1.00000000      1.00000000</v>
    <i name="NUPDOWN">     -1.00000000</i>
    <i type="logical" name="LSORBIT"> F  </i>
    <v name="SAXIS">      0.00000000      0.00000000      1.00000000</v>
    <i type="logical" name="LSPIRAL"> F  </i>
    <v name="QSPIRAL">      0.00000000      0.00000000      0.00000000</v>
    <i type="logical" name="LZEROZ"> F  </i>
   </separator>
   <separator name="electronic exchange-correlation" >
    <i type="logical" name="LASPH"> F  </i>
    <i type="logical" name="LMETAGGA"> F  </i>
   </separator>
   <separator name="electronic convergence" >
    <i type="int" name="NELM">    60</i>
    <i type="int" name="NELMDL">    -5</i>
    <i type="int" name="NELMIN">     4</i>
    <i name="ENINI">    600.00000000</i>
    <separator name="electronic convergence detail" >
     <i type="logical" name="LDIAG"> T  </i>
     <i type="logical" name="LSUBROT"> F  </i>
     <i name="WEIMIN">      0.00100000</i>
     <i name="EBREAK">      0.00000000</i>
     <i name="DEPER">      0.30000000</i>
     <i type="int" name="NRMM">     4</i>
     <i name="TIME">      0.40000000</i>
    </separator>
   </separator>
   <separator name="electronic mixer" >
    <i name="AMIX">      0.40000000</i>
    <i name="BMIX">      1.00000000</i>
    <i name="AMIN">      0.10000000</i>
    <i name="AMIX_MAG">      1.60000000</i>
    <i name="BMIX_MAG">      1.00000000</i>
    <separator name="electronic mixer details" >
     <i type="int" name="IMIX">     4</i>
     <i type="logical" name="MIXFIRST"> F  </i>
     <i type="int" name="MAXMIX">   -45</i>
     <i name="WC">    100.00000000</i>
     <i type="int" name="INIMIX">     1</i>
     <i type="int" name="MIXPRE">     1</i>
     <i type="int" name="MREMOVE">     5</i>
    </separator>
   </separator>
   <separator name="electronic dipolcorrection" >
    <i type="logical" name="LDIPOL"> F  </i>
    <i type="logical" name="LMONO"> F  </i>
    <i type="int" name="IDIPOL">     0</i>
    <i name="EPSILON">      1.00000000</i>
    <v name="DIPOL">   -100.00000000   -100.00000000   -100.00000000</v>
    <i name="EFIELD">      0.00000000</i>
   </separator>
  </separator>
  <separator name="grids" >
   <i type="int" name="NGX">    70</i>
   <i type="int" name="NGY">    60</i>
   <i type="int" name="NGZ">    70</i>
   <i type="int" name="NGXF">   140</i>
   <i type="int" name="NGYF">   120</i>
   <i type="int" name="NGZF">   140</i>
   <i type="logical" name="ADDGRID"> F  </i>
  </separator>
  <separator name="ionic" >
   <i type="int" name="NSW">     1</i>
   <i type="int" name="IBRION">     2</i>
   <i type="int" name="MDALGO">     0</i>
   <i type="int" name="ISIF">     2</i>
   <i name="PSTRESS">      0.00000000</i>
   <i name="EDIFFG">     -0.01000000</i>
   <i type="int" name="NFREE">    10</i>
   <i name="POTIM">      0.50000000</i>
   <i name="SMASS">     -3.00000000</i>
   <i name="SCALEE">      1.00000000</i>
  </separator>
  <separator name="ionic md" >
   <i name="TEBEG">      0.00010000</i>
   <i name="TEEND">      0.00010000</i>
   <i type="int" name="NBLOCK">     1</i>
   <i type="int" name="KBLOCK">     1</i>
   <i type="int" name="NPACO">   256</i>
   <i name="APACO">     16.00000000</i>
  </separator>
  <separator name="symmetry" >
   <i type="int" name="ISYM">     2</i>
   <i name="SYMPREC">      0.00001000</i>
  </separator>
  <separator name="dos" >
   <i type="int" name="LORBIT">     0</i>
   <v name="RWIGS">     -1.00000000     -1.00000000     -1.00000000     -1.00000000     -1.00000000</v>
   <i type="int" name="NEDOS">   301</i>
   <i name="EMIN">     10.00000000</i>
   <i name="EMAX">    -10.00000000</i>
   <i name="EFERMI">      0.00000000</i>
  </separator>
  <separator name="writing" >
   <i type="int" name="NWRITE">     2</i>
   <i type="logical" name="LWAVE"> F  </i>
   <i type="logical" name="LDOWNSAMPLE"> F  </i>
   <i type="logical" name="LCHARG"> F  </i>
   <i type="logical" name="LPARD"> F  </i>
   <i type="logical" name="LVTOT"> F  </i>
   <i type="logical" name="LVHAR"> F  </i>
   <i type="logical" name="LELF"> F  </i>
   <i type="logical" name="LOPTICS"> F  </i>
   <v name="STM">      0.00000000      0.00000000      0.00000000      0.00000000      0.00000000      0.00000000      0.00000000</v>
  </separator>
  <separator name="performance" >
   <i type="int" name="NPAR">    28</i>
   <i type="int" name="NSIM">     4</i>
   <i type="int" name="NBLK">    -1</i>
   <i type="logical" name="LPLANE"> T  </i>
   <i type="logical" name="LSCALAPACK"> T  </i>
   <i type="logical" name="LSCAAWARE"> F  </i>
   <i type="logical" name="LSCALU"> F  </i>
   <i type="logical" name="LASYNC"> F  </i>
   <i type="logical" name="LORBITALREAL"> F  </i>
  </separator>
  <separator name="miscellaneous" >
   <i type="int" name="IDIOT">     3</i>
   <i type="int" name="ISPECIAL">     0</i>
   <i type="logical" name="LMUSIC"> F  </i>
   <v name="POMASS">      7.01000000     24.30500000    208.98000000     32.06600000     16.00000000</v>
   <v name="DARWINR">      0.00000000      0.00000000      0.00000000      0.00000000      0.00000000</v>
   <v name="DARWINV">      1.00000000      1.00000000      1.00000000      1.00000000      1.00000000</v>
   <i type="logical" name="LCORR"> T  </i>
  </separator>
  <i type="logical" name="GGA_COMPAT"> T  </i>
  <i type="logical" name="LBERRY"> F  </i>
  <i type="int" name="ICORELEVEL">     0</i>
  <i type="logical" name="LDAU"> F  </i>
  <i type="int" name="I_CONSTRAINED_M">     0</i>
  <separator name="electronic exchange-correlation" >
   <i type="string" name="GGA">--</i>
   <i type="int" name="VOSKOWN">     0</i>
   <i type="logical" name="LHFCALC"> F  </i>
   <i type="string" name="PRECFOCK"></i>
   <i type="logical" name="LSYMGRAD"> F  </i>
   <i type="logical" name="LHFONE"> F  </i>
   <i type="logical" name="LRHFCALC"> F  </i>
   <i type="logical" name="LTHOMAS"> F  </i>
   <i type="logical" name="LMODELHF"> F  </i>
   <i name="ENCUT4O">     -1.00000000</i>
   <i type="int" name="EXXOEP">     0</i>
   <i type="int" name="FOURORBIT">     0</i>
   <i name="AEXX">      0.00000000</i>
   <i name="HFALPHA">      0.00000000</i>
   <i name="MCALPHA">      0.00000000</i>
   <i name="ALDAX">      1.00000000</i>
   <i name="AGGAX">      1.00000000</i>
   <i name="ALDAC">      1.00000000</i>
   <i name="AGGAC">      1.00000000</i>
   <i type="int" name="NKREDX">     1</i>
   <i type="int" name="NKREDY">     1</i>
   <i type="int" name="NKREDZ">     1</i>
   <i type="logical" name="SHIFTRED"> F  </i>
   <i type="logical" name="ODDONLY"> F  </i>
   <i type="logical" name="EVENONLY"> F  </i>
   <i type="int" name="LMAXFOCK">     0</i>
   <i type="int" name="NMAXFOCKAE">     0</i>
   <i type="logical" name="LFOCKAEDFT"> F  </i>
   <i name="HFSCREEN">      0.00000000</i>
   <i name="HFSCREENC">      0.00000000</i>
   <i type="int" name="NBANDSGWLOW">     0</i>
  </separator>
  <separator name="vdW DFT" >
   <i type="logical" name="LUSE_VDW"> F  </i>
   <i name="Zab_VDW">     -0.84910000</i>
   <i name="PARAM1">      0.12340000</i>
   <i name="PARAM2">      1.00000000</i>
   <i name="PARAM3">      0.00000000</i>
  </separator>
  <separator name="model GW" >
   <i type="int" name="MODEL_GW">     0</i>
   <i name="MODEL_EPS0">     11.58240521</i>
   <i name="MODEL_ALPHA">      1.00000000</i>
  </separator>
  <separator name="linear response parameters" >
   <i type="logical" name="LEPSILON"> F  </i>
   <i type="logical" name="LRPA"> F  </i>
   <i type="logical" name="LNABLA"> F  </i>
   <i type="logical" name="LVEL"> F  </i>
   <i type="int" name="KINTER">     0</i>
   <i name="CSHIFT">      0.10000000</i>
   <i name="OMEGAMAX">     -1.00000000</i>
   <i name="DEG_THRESHOLD">      0.00200000</i>
   <i name="RTIME">     -0.10000000</i>
   <i name="WPLASMAI">      0.00000000</i>
   <v name="DFIELD">      0.00000000      0.00000000      0.00000000</v>
   <v name="WPLASMA">      0.00000000      0.00000000      0.00000000      0.00000000      0.00000000      0.00000000      0.00000000      0.00000000      0.00000000</v>
  </separator>
  <separator name="orbital magnetization" >
   <i type="logical" name="NUCIND"> F  </i>
   <v name="MAGPOS">      0.00000000      0.00000000      0.00000000</v>
   <i type="logical" name="LNICSALL"> T  </i>
   <i type="logical" name="ORBITALMAG"> F  </i>
   <i type="logical" name="LMAGBLOCH"> F  </i>
   <i type="logical" name="LCHIMAG"> F  </i>
   <i type="logical" name="LGAUGE"> T  </i>
   <i type="int" name="MAGATOM">     0</i>
   <v name="MAGDIPOL">      0.00000000      0.00000000      0.00000000</v>
   <v name="AVECCONST">      0.00000000      0.00000000      0.00000000</v>
  </separator>
  <separator name="response functions" >
   <i type="logical" name="LADDER"> F  </i>
   <i type="logical" name="LRPAFORCE"> F  </i>
   <i type="logical" name="LFXC"> F  </i>
   <i type="logical" name="LHARTREE"> T  </i>
   <i type="int" name="IBSE">     0</i>
   <v type="int" name="KPOINT">    -1     0     0     0</v>
   <i type="logical" name="LTCTE"> F  </i>
   <i type="logical" name="LTETE"> F  </i>
   <i type="logical" name="LTRIPLET"> F  </i>
   <i type="logical" name="LFXCEPS"> F  </i>
   <i type="logical" name="LFXHEG"> F  </i>
   <i type="int" name="NATURALO">     2</i>
   <i type="logical" name="L2ORDER"> F  </i>
   <i type="logical" name="LMP2LT"> F  </i>
   <i type="logical" name="LUSEW"> F  </i>
   <i name="ENCUTGW">     -2.00000000</i>
   <i name="ENCUTGWSOFT">     -2.00000000</i>
   <i name="ENCUTLF">     -1.00000000</i>
   <i type="int" name="LMAXMP2">    -1</i>
   <i name="SCISSOR">      0.00000000</i>
   <i type="int" name="NOMEGA">     0</i>
   <i type="int" name="NOMEGAR">     0</i>
   <i type="int" name="NBANDSGW">    -1</i>
   <i type="int" name="NBANDSO">    -1</i>
   <i type="int" name="NBANDSV">    -1</i>
   <i type="int" name="NELM">     1</i>
   <i type="int" name="NELMHF">     1</i>
   <i type="int" name="DIM">     3</i>
   <i type="int" name="ANTIRES">     0</i>
   <i name="OMEGAMAX">    -30.00000000</i>
   <i name="OMEGAMIN">    -30.00000000</i>
   <i name="OMEGATL">   -200.00000000</i>
   <i type="int" name="OMEGAGRID">   140</i>
   <i name="CSHIFT">     -0.10000000</i>
   <i type="logical" name="SELFENERGY"> F  </i>
   <i type="logical" name="LSPECTRAL"> F  </i>
   <i type="logical" name="LSPECTRALGW"> F  </i>
   <i type="logical" name="LSINGLES"> F  </i>
   <i type="logical" name="LFERMIGW"> F  </i>
   <i type="logical" name="ODDONLYGW"> F  </i>
   <i type="logical" name="EVENONLYGW"> F  </i>
   <i type="int" name="NKREDLFX">     1</i>
   <i type="int" name="NKREDLFY">     1</i>
   <i type="int" name="NKREDLFZ">     1</i>
   <i type="int" name="MAXMEM">  2800</i>
   <i type="int" name="TELESCOPE">     0</i>
   <i type="int" name="TAUPAR">     1</i>
   <i type="int" name="OMEGAPAR">    -1</i>
   <i name="LAMBDA">      1.00000000</i>
  </separator>
  <separator name="External order field" >
   <i name="OFIELD_KAPPA">      0.00000000</i>
   <v name="OFIELD_K">      0.00000000      0.00000000      0.00000000</v>
   <i name="OFIELD_Q6_NEAR">      0.00000000</i>
   <i name="OFIELD_Q6_FAR">      0.00000000</i>
   <i name="OFIELD_A">      0.00000000</i>
  </separator>
 </parameters>
 <atominfo>
  <atoms>      62 </atoms>
  <types>       5 </types>
  <array name="atoms" >
   <dimension dim="1">ion</dimension>
   <field type="string">element</field>
   <field type="int">atomtype</field>
   <set>
    <rc><c>Li</c><c>   1</c></rc>
    <rc><c>Li</c><c>   1</c></rc>
    <rc><c>Li</c><c>   1</c></rc>
    <rc><c>Li</c><c>   1</c></rc>
    <rc><c>Li</c><c>   1</c></rc>
    <rc><c>Li</c><c>   1</c></rc>
    <rc><c>Li</c><c>   1</c></rc>
    <rc><c>Li</c><c>   1</c></rc>
    <rc><c>Li</c><c>   1</c></rc>
    <rc><c>Li</c><c>   1</c></rc>
    <rc><c>Li</c><c>   1</c></rc>
    <rc><c>Li</c><c>   1</c></rc>
    <rc><c>Mg</c><c>   2</c></rc>
    <rc><c>Mg</c><c>   2</c></rc>
    <rc><c>Bi</c><c>   3</c></rc>
    <rc><c>Bi</c><c>   3</c></rc>
    <rc><c>Bi</c><c>   3</c></rc>
    <rc><c>Bi</c><c>   3</c></rc>
    <rc><c>Bi</c><c>   3</c></rc>
    <rc><c>Bi</c><c>   3</c></rc>
    <rc><c>Bi</c><c>   3</c></rc>
    <rc><c>Bi</c><c>   3</c></rc>
    <rc><c>Bi</c><c>   3</c></rc>
    <rc><c>Bi</c><c>   3</c></rc>
    <rc><c>Bi</c><c>   3</c></rc>
    <rc><c>Bi</c><c>   3</c></rc>
    <rc><c>Bi</c><c>   3</c></rc>
    <rc><c>Bi</c><c>   3</c></rc>
    <rc><c>Bi</c><c>   3</c></rc>
    <rc><c>Bi</c><c>   3</c></rc>
    <rc><c>S </c><c>   4</c></rc>
    <rc><c>S </c><c>   4</c></rc>
    <rc><c>S </c><c>   4</c></rc>
    <rc><c>S </c><c>   4</c></rc>
    <rc><c>S </c><c>   4</c></rc>
    <rc><c>S </c><c>   4</c></rc>
    <rc><c>S </c><c>   4</c></rc>
    <rc><c>S </c><c>   4</c></rc>
    <rc><c>S </c><c>   4</c></rc>
    <rc><c>S </c><c>   4</c></rc>
    <rc><c>S </c><c>   4</c></rc>
    <rc><c>S </c><c>   4</c></rc>
    <rc><c>S </c><c>   4</c></rc>
    <rc><c>S </c><c>   4</c></rc>
    <rc><c>S </c><c>   4</c></rc>
    <rc><c>S </c><c>   4</c></rc>
    <rc><c>O </c><c>   5</c></rc>
    <rc><c>O </c><c>   5</c></rc>
    <rc><c>O </c><c>   5</c></rc>
    <rc><c>O </c><c>   5</c></rc>
    <rc><c>O </c><c>   5</c></rc>
    <rc><c>O </c><c>   5</c></rc>
    <rc><c>O </c><c>   5</c></rc>
    <rc><c>O </c><c>   5</c></rc>
    <rc><c>O </c><c>   5</c></rc>
    <rc><c>O </c><c>   5</c></rc>
    <rc><c>O </c><c>   5</c></rc>
    <rc><c>O </c><c>   5</c></rc>
    <rc><c>O </c><c>   5</c></rc>
    <rc><c>O </c><c>   5</c></rc>
    <rc><c>O </c><c>   5</c></rc>
    <rc><c>O </c><c>   5</c></rc>
   </set>
  </array>
  <array name="atomtypes" >
   <dimension dim="1">type</dimension>
   <field type="int">atomspertype</field>
   <field type="string">element</field>
   <field>mass</field>
   <field>valence</field>
   <field type="string">pseudopotential</field>
   <set>
    <rc><c>  12</c><c>Li</c><c>      7.01000000</c><c>      3.00000000</c><c>  PAW_PBE Li_sv 10Sep2004               </c></rc>
    <rc><c>   2</c><c>Mg</c><c>     24.30500000</c><c>      2.00000000</c><c>  PAW_PBE Mg 13Apr2007                  </c></rc>
    <rc><c>  16</c><c>Bi</c><c>    208.98000000</c><c>     15.00000000</c><c>  PAW_PBE Bi_d 06Sep2000                </c></rc>
    <rc><c>  16</c><c>S </c><c>     32.06600000</c><c>      6.00000000</c><c>  PAW_PBE S 06Sep2000                   </c></rc>
    <rc><c>  16</c><c>O </c><c>     16.00000000</c><c>      6.00000000</c><c>  PAW_PBE O 08Apr2002                   </c></rc>
   </set>
  </array>
 </atominfo>
 <structure name="initialpos" >
  <crystal>
   <varray name="basis" >
    <v>      11.17850000       0.00000000       0.00000000 </v>
    <v>       0.00000000       9.57460000       0.00000000 </v>
    <v>       0.00000000       0.00000000      11.18240000 </v>
   </varray>
   <i name="volume">   1196.84853820 </i>
   <varray name="rec_basis" >
    <v>       0.08945744       0.00000000       0.00000000 </v>
    <v>       0.00000000       0.10444301       0.00000000 </v>
    <v>       0.00000000       0.00000000       0.08942624 </v>
   </varray>
  </crystal>
  <varray name="positions" >
   <v>       0.37539000       0.00017000       0.43687000 </v>
   <v>       0.12461000       0.99984000       0.18687000 </v>
   <v>       0.37461000       0.00017000       0.18687000 </v>
   <v>       0.62539000       0.99984000       0.43687000 </v>
   <v>       0.87539000       0.00017000       0.43687000 </v>
   <v>       0.87461000       0.00017000       0.18687000 </v>
   <v>       0.37539000       0.00017000       0.93687000 </v>
   <v>       0.37461000       0.00017000       0.68687000 </v>
   <v>       0.62539000       0.99984000       0.93687000 </v>
   <v>       0.87539000       0.00017000       0.93687000 </v>
   <v>       0.62461000       0.99984000       0.68687000 </v>
   <v>       0.87461000       0.00017000       0.68687000 </v>
   <v>       0.62461000       0.99984000       0.18687000 </v>
   <v>       0.12461000       0.99984000       0.68687000 </v>
   <v>       0.00013000       0.29519000       0.06281000 </v>
   <v>       0.25013000       0.70481000       0.06281000 </v>
   <v>       0.24987000       0.29519000       0.31282000 </v>
   <v>       0.49987000       0.70481000       0.31282000 </v>
   <v>       0.50013000       0.29519000       0.06281000 </v>
   <v>       0.75013000       0.70481000       0.06281000 </v>
   <v>       0.74987000       0.29519000       0.31282000 </v>
   <v>       0.99987000       0.70481000       0.31282000 </v>
   <v>       0.00013000       0.29519000       0.56281000 </v>
   <v>       0.25013000       0.70481000       0.56281000 </v>
   <v>       0.24987000       0.29519000       0.81282000 </v>
   <v>       0.49987000       0.70481000       0.81282000 </v>
   <v>       0.50013000       0.29519000       0.56281000 </v>
   <v>       0.75013000       0.70481000       0.56281000 </v>
   <v>       0.74987000       0.29519000       0.81282000 </v>
   <v>       0.99987000       0.70481000       0.81282000 </v>
   <v>       0.25005000       0.32677000       0.06286000 </v>
   <v>       0.00005000       0.67323000       0.06286000 </v>
   <v>       0.49995000       0.32677000       0.31286000 </v>
   <v>       0.24995000       0.67323000       0.31286000 </v>
   <v>       0.75005000       0.32677000       0.06286000 </v>
   <v>       0.50005000       0.67323000       0.06286000 </v>
   <v>       0.99995000       0.32677000       0.31286000 </v>
   <v>       0.74995000       0.67323000       0.31286000 </v>
   <v>       0.25005000       0.32677000       0.56286000 </v>
   <v>       0.00005000       0.67323000       0.56286000 </v>
   <v>       0.49995000       0.32677000       0.81286000 </v>
   <v>       0.24995000       0.67323000       0.81286000 </v>
   <v>       0.75005000       0.32677000       0.56286000 </v>
   <v>       0.50005000       0.67323000       0.56286000 </v>
   <v>       0.99995000       0.32677000       0.81286000 </v>
   <v>       0.74995000       0.67323000       0.81286000 </v>
   <v>       0.49987000       0.07798000       0.06246000 </v>
   <v>       0.24987000       0.92202000       0.06246000 </v>
   <v>       0.25013000       0.07798000       0.31246000 </v>
   <v>       0.00013000       0.92202000       0.31246000 </v>
   <v>       0.99987000       0.07798000       0.06246000 </v>
   <v>       0.74987000       0.92202000       0.06246000 </v>
   <v>       0.75013000       0.07798000       0.31246000 </v>
   <v>       0.50013000       0.92202000       0.31246000 </v>
   <v>       0.49987000       0.07798000       0.56246000 </v>
   <v>       0.24987000       0.92202000       0.56246000 </v>
   <v>       0.25013000       0.07798000       0.81246000 </v>
   <v>       0.00013000       0.92202000       0.81246000 </v>
   <v>       0.99987000       0.07798000       0.56246000 </v>
   <v>       0.74987000       0.92202000       0.56246000 </v>
   <v>       0.75013000       0.07798000       0.81246000 </v>
   <v>       0.50013000       0.92202000       0.81246000 </v>
  </varray>
 </structure>
 <calculation>
  <scstep>
   <time name="dav">   64.69   64.83</time>
   <time name="total">   64.78   64.92</time>
   <energy>
    <i name="alphaZ">   1079.87189334 </i>
    <i name="ewald"> -31111.52747566 </i>
    <i name="hartreedc"> -12713.53924306 </i>
    <i name="XCdc">   1468.88884246 </i>
    <i name="pawpsdc">  36917.91861236 </i>
    <i name="pawaedc"> -36503.41947684 </i>
    <i name="eentropy">      0.00000000 </i>
    <i name="bandstr">   1590.92049534 </i>
    <i name="atom">  45173.57650906 </i>
    <i name="e_fr_energy">   5902.69015700 </i>
    <i name="e_wo_entrp">   5902.69015700 </i>
    <i name="e_0_energy">   5902.69015700 </i>
   </energy>
  </scstep>
  <scstep>
   <time name="dav">   64.62   65.05</time>
   <time name="total">   64.63   65.06</time>
   <energy>
    <i name="e_fr_energy">    756.17897499 </i>
    <i name="e_wo_entrp">    756.17897499 </i>
    <i name="e_0_energy">    756.17897499 </i>
   </energy>
  </scstep>
  <scstep>
   <time name="dav">   71.23   71.55</time>
   <time name="total">   71.23   71.56</time>
   <energy>
    <i name="e_fr_energy">   -242.99981071 </i>
    <i name="e_wo_entrp">   -242.99981071 </i>
    <i name="e_0_energy">   -242.99981071 </i>
   </energy>
  </scstep>
  <scstep>
   <time name="dav">   80.17   80.45</time>
   <time name="total">   80.17   80.46</time>
   <energy>
    <i name="e_fr_energy">   -352.45549031 </i>
    <i name="e_wo_entrp">   -352.45549031 </i>
    <i name="e_0_energy">   -352.45549031 </i>
   </energy>
  </scstep>
  <scstep>
   <time name="dav">  104.65  105.00</time>
   <time name="total">  105.38  105.72</time>
   <energy>
    <i name="e_fr_energy">   -360.97759395 </i>
    <i name="e_wo_entrp">   -360.97759395 </i>
    <i name="e_0_energy">   -360.97759395 </i>
   </energy>
  </scstep>
  <scstep>
   <time name="dav">   91.70   91.90</time>
   <time name="total">   92.50   92.70</time>
   <energy>
    <i name="e_fr_energy">   -301.01510315 </i>
    <i name="e_wo_entrp">   -301.01510315 </i>
    <i name="e_0_energy">   -301.01510315 </i>
   </energy>
  </scstep>
  <scstep>
   <time name="dav">   72.44   72.52</time>
   <time name="total">   73.24   73.32</time>
   <energy>
    <i name="e_fr_energy">   -303.25071122 </i>
    <i name="e_wo_entrp">   -303.25071122 </i>
    <i name="e_0_energy">   -303.25071122 </i>
   </energy>
  </scstep>
  <scstep>
   <time name="dav">   83.16   83.37</time>
   <time name="total">   83.96   84.17</time>
   <energy>
    <i name="e_fr_energy">   -301.87191165 </i>
    <i name="e_wo_entrp">   -301.87191165 </i>
    <i name="e_0_energy">   -301.87191165 </i>
   </energy>
  </scstep>
  <scstep>
   <time name="dav">   95.43   96.04</time>
   <time name="total">   96.25   96.87</time>
   <energy>
    <i name="e_fr_energy">   -301.27409163 </i>
    <i name="e_wo_entrp">   -301.27409163 </i>
    <i name="e_0_energy">   -301.27409163 </i>
   </energy>
  </scstep>
  <scstep>
   <time name="dav">   81.24   82.44</time>
   <time name="total">   82.03   83.25</time>
   <energy>
    <i name="e_fr_energy">   -301.22969894 </i>
    <i name="e_wo_entrp">   -301.22969894 </i>
    <i name="e_0_energy">   -301.22969894 </i>
   </energy>
  </scstep>
  <scstep>
   <time name="dav">   80.73   81.33</time>
   <time name="total">   81.54   82.14</time>
   <energy>
    <i name="e_fr_energy">   -301.24187072 </i>
    <i name="e_wo_entrp">   -301.24187072 </i>
    <i name="e_0_energy">   -301.24187072 </i>
   </energy>
  </scstep>
  <scstep>
   <time name="dav">   80.79   81.15</time>
   <time name="total">   81.58   81.95</time>
   <energy>
    <i name="e_fr_energy">   -301.24668344 </i>
    <i name="e_wo_entrp">   -301.24668344 </i>
    <i name="e_0_energy">   -301.24668344 </i>
   </energy>
  </scstep>
  <scstep>
   <time name="dav">   89.39   89.63</time>
   <time name="total">   90.19   90.43</time>
   <energy>
    <i name="e_fr_energy">   -301.24766364 </i>
    <i name="e_wo_entrp">   -301.24766364 </i>
    <i name="e_0_energy">   -301.24766364 </i>
   </energy>
  </scstep>
  <scstep>
   <time name="dav">   76.74   77.26</time>
   <time name="total">   77.54   78.06</time>
   <energy>
    <i name="e_fr_energy">   -301.24787574 </i>
    <i name="e_wo_entrp">   -301.24787574 </i>
    <i name="e_0_energy">   -301.24787574 </i>
   </energy>
  </scstep>
  <scstep>
   <time name="dav">   87.07   87.40</time>
   <time name="total">   87.86   88.20</time>
   <energy>
    <i name="e_fr_energy">   -301.24790825 </i>
    <i name="e_wo_entrp">   -301.24790825 </i>
    <i name="e_0_energy">   -301.24790825 </i>
   </energy>
  </scstep>
  <scstep>
   <time name="dav">   71.49   71.72</time>
   <time name="total">   72.29   72.52</time>
   <energy>
    <i name="e_fr_energy">   -301.24792265 </i>
    <i name="e_wo_entrp">   -301.24792265 </i>
    <i name="e_0_energy">   -301.24792265 </i>
   </energy>
  </scstep>
  <scstep>
   <time name="dav">   73.34   73.59</time>
   <time name="total">   74.13   74.39</time>
   <energy>
    <i name="e_fr_energy">   -301.24792434 </i>
    <i name="e_wo_entrp">   -301.24792434 </i>
    <i name="e_0_energy">   -301.24792434 </i>
   </energy>
  </scstep>
  <scstep>
   <time name="dav">   57.72   57.83</time>
   <time name="total">   57.79   57.90</time>
   <energy>
    <i name="alphaZ">   1079.87189334 </i>
    <i name="ewald"> -31111.52747566 </i>
    <i name="hartreedc"> -12948.14298677 </i>
    <i name="XCdc">   1491.81718407 </i>
    <i name="pawpsdc">  43947.43866213 </i>
    <i name="pawaedc"> -43508.47646158 </i>
    <i name="eentropy">      0.00000000 </i>
    <i name="bandstr">  -4425.80524956 </i>
    <i name="atom">  45173.57650906 </i>
    <i name="e_fr_energy">   -301.24792496 </i>
    <i name="e_wo_entrp">   -301.24792496 </i>
    <i name="e_0_energy">   -301.24792496 </i>
   </energy>
  </scstep>
  <structure>
   <crystal>
    <varray name="basis" >
     <v>      11.17850000       0.00000000       0.00000000 </v>
     <v>       0.00000000       9.57460000       0.00000000 </v>
     <v>       0.00000000       0.00000000      11.18240000 </v>
    </varray>
    <i name="volume">   1196.84853820 </i>
    <varray name="rec_basis" >
     <v>       0.08945744       0.00000000       0.00000000 </v>
     <v>       0.00000000       0.10444301       0.00000000 </v>
     <v>       0.00000000       0.00000000       0.08942624 </v>
    </varray>
   </crystal>
   <varray name="positions" >
    <v>       0.37539000       0.00017000       0.43687000 </v>
    <v>       0.12461000       0.99984000       0.18687000 </v>
    <v>       0.37461000       0.00017000       0.18687000 </v>
    <v>       0.62539000       0.99984000       0.43687000 </v>
    <v>       0.87539000       0.00017000       0.43687000 </v>
    <v>       0.87461000       0.00017000       0.18687000 </v>
    <v>       0.37539000       0.00017000       0.93687000 </v>
    <v>       0.37461000       0.00017000       0.68687000 </v>
    <v>       0.62539000       0.99984000       0.93687000 </v>
    <v>       0.87539000       0.00017000       0.93687000 </v>
    <v>       0.62461000       0.99984000       0.68687000 </v>
    <v>       0.87461000       0.00017000       0.68687000 </v>
    <v>       0.62461000       0.99984000       0.18687000 </v>
    <v>       0.12461000       0.99984000       0.68687000 </v>
    <v>       0.00013000       0.29519000       0.06281000 </v>
    <v>       0.25013000       0.70481000       0.06281000 </v>
    <v>       0.24987000       0.29519000       0.31282000 </v>
    <v>       0.49987000       0.70481000       0.31282000 </v>
    <v>       0.50013000       0.29519000       0.06281000 </v>
    <v>       0.75013000       0.70481000       0.06281000 </v>
    <v>       0.74987000       0.29519000       0.31282000 </v>
    <v>       0.99987000       0.70481000       0.31282000 </v>
    <v>       0.00013000       0.29519000       0.56281000 </v>
    <v>       0.25013000       0.70481000       0.56281000 </v>
    <v>       0.24987000       0.29519000       0.81282000 </v>
    <v>       0.49987000       0.70481000       0.81282000 </v>
    <v>       0.50013000       0.29519000       0.56281000 </v>
    <v>       0.75013000       0.70481000       0.56281000 </v>
    <v>       0.74987000       0.29519000       0.81282000 </v>
    <v>       0.99987000       0.70481000       0.81282000 </v>
    <v>       0.25005000       0.32677000       0.06286000 </v>
    <v>       0.00005000       0.67323000       0.06286000 </v>
    <v>       0.49995000       0.32677000       0.31286000 </v>
    <v>       0.24995000       0.67323000       0.31286000 </v>
    <v>       0.75005000       0.32677000       0.06286000 </v>
    <v>       0.50005000       0.67323000       0.06286000 </v>
    <v>       0.99995000       0.32677000       0.31286000 </v>
    <v>       0.74995000       0.67323000       0.31286000 </v>
    <v>       0.25005000       0.32677000       0.56286000 </v>
    <v>       0.00005000       0.67323000       0.56286000 </v>
    <v>       0.49995000       0.32677000       0.81286000 </v>
    <v>       0.24995000       0.67323000       0.81286000 </v>
    <v>       0.75005000       0.32677000       0.56286000 </v>
    <v>       0.50005000       0.67323000       0.56286000 </v>
    <v>       0.99995000       0.32677000       0.81286000 </v>
    <v>       0.74995000       0.67323000       0.81286000 </v>
    <v>       0.49987000       0.07798000       0.06246000 </v>
    <v>       0.24987000       0.92202000       0.06246000 </v>
    <v>       0.25013000       0.07798000       0.31246000 </v>
    <v>       0.00013000       0.92202000       0.31246000 </v>
    <v>       0.99987000       0.07798000       0.06246000 </v>
    <v>       0.74987000       0.92202000       0.06246000 </v>
    <v>       0.75013000       0.07798000       0.31246000 </v>
    <v>       0.50013000       0.92202000       0.31246000 </v>
    <v>       0.49987000       0.07798000       0.56246000 </v>
    <v>       0.24987000       0.92202000       0.56246000 </v>
    <v>       0.25013000       0.07798000       0.81246000 </v>
    <v>       0.00013000       0.92202000       0.81246000 </v>
    <v>       0.99987000       0.07798000       0.56246000 </v>
    <v>       0.74987000       0.92202000       0.56246000 </v>
    <v>       0.75013000       0.07798000       0.81246000 </v>
    <v>       0.50013000       0.92202000       0.81246000 </v>
   </varray>
  </structure>
  <varray name="forces" >
   <v>      -0.58225760       0.13267528       0.01645410 </v>
   <v>       0.01141473       0.00012009       0.00616573 </v>
   <v>      -0.87578155      -0.00076027       0.00762604 </v>
   <v>      -0.00677414       0.00015097       0.49715862 </v>
   <v>       0.56802024      -0.13437795       0.01807223 </v>
   <v>       0.88475919      -0.00012365       0.00752750 </v>
   <v>      -0.58270343      -0.13363894      -0.00848812 </v>
   <v>       0.07480488       0.00054543       0.00746065 </v>
   <v>      -0.00712413       0.00018375      -0.48734460 </v>
   <v>       0.56859748       0.13174414      -0.00981850 </v>
   <v>       0.00805125       0.00012067       0.00593549 </v>
   <v>      -0.06589549      -0.00148853       0.00753499 </v>
   <v>       0.02075405       0.00369172       0.03362717 </v>
   <v>       0.02790100       0.00364214       0.03322790 </v>
   <v>       0.33199170      -1.00099428      -0.05099974 </v>
   <v>      -0.34549364       1.00717959      -0.05177120 </v>
   <v>      -0.33112929      -1.01315754       0.04092212 </v>
   <v>      -0.34793573      -1.06283014       0.12650774 </v>
   <v>      -0.36101721       1.07023119      -0.13263704 </v>
   <v>       0.35044309      -1.06773718      -0.13121421 </v>
   <v>       0.35548350       1.05668572       0.12514327 </v>
   <v>       0.34702797       1.01090517       0.03974790 </v>
   <v>       0.16047894      -0.02440021      -0.25468480 </v>
   <v>      -0.17117433       0.03454516      -0.25346070 </v>
   <v>      -0.16448126      -0.05336666       0.24535593 </v>
   <v>      -0.12975059      -0.03752891      -0.07443787 </v>
   <v>      -0.13995638       0.03618985       0.06479809 </v>
   <v>       0.12631883      -0.03721628       0.06429597 </v>
   <v>       0.13959970       0.03883020      -0.07398746 </v>
   <v>       0.17858077       0.04372084       0.24604971 </v>
   <v>       0.28894804       0.19976802      -0.08766166 </v>
   <v>      -0.29159917      -0.19937973      -0.08848902 </v>
   <v>       0.29940966       0.09029466      -0.12701263 </v>
   <v>       0.29216562      -0.19990541       0.08688805 </v>
   <v>      -0.29895100       0.08821806       0.12593220 </v>
   <v>       0.29969952      -0.08752890       0.12728784 </v>
   <v>      -0.29033012       0.19908304       0.08740236 </v>
   <v>      -0.29851910      -0.09069818      -0.12660721 </v>
   <v>       0.05535654       0.16623332       0.14286449 </v>
   <v>      -0.05822088      -0.16507932       0.14413302 </v>
   <v>       0.08466949       0.14935459       0.08347952 </v>
   <v>       0.06028921      -0.16813133      -0.14577204 </v>
   <v>      -0.08134144       0.14911040      -0.08175667 </v>
   <v>       0.08180149      -0.14937032      -0.08236246 </v>
   <v>      -0.05993214       0.16690641      -0.14580873 </v>
   <v>      -0.08209482      -0.14936597       0.08302844 </v>
   <v>       0.72666390      -0.88170519       0.56645985 </v>
   <v>       0.84050842      -0.82338020       0.52663664 </v>
   <v>       0.82976938       0.82644367      -0.52472960 </v>
   <v>      -0.84394925      -0.82392652      -0.52362611 </v>
   <v>      -0.83253166       0.82045992       0.52612491 </v>
   <v>      -0.72129332       0.88248993       0.56853841 </v>
   <v>      -0.74248581      -0.88357145      -0.58923933 </v>
   <v>       0.72124758       0.88172683      -0.58139683 </v>
   <v>       0.09921667      -0.08134534      -0.07837006 </v>
   <v>       0.21582491      -0.08554745       1.12992199 </v>
   <v>       0.19625051       0.08702600      -1.14583885 </v>
   <v>      -0.22263178      -0.08563239      -1.13743132 </v>
   <v>      -0.21496832       0.08199222       1.12753737 </v>
   <v>      -0.08639807       0.08244852      -0.07808929 </v>
   <v>      -0.09896827      -0.08215281       0.07639998 </v>
   <v>       0.08964163       0.08162351       0.07678980 </v>
  </varray>
  <varray name="stress" >
   <v>      -7.13437393      -0.11969679      -0.04597885 </v>
   <v>      -0.11969682     -14.40499250      -0.03388457 </v>
   <v>      -0.04597874      -0.03388416     -10.35960268 </v>
  </varray>
  <energy>
   <i name="e_fr_energy">   -317.05918138 </i>
   <i name="e_wo_entrp">   -317.05918138 </i>
   <i name="e_0_energy">      0.00000000 </i>
  </energy>
  <time name="totalsc"> 1551.83 1558.70</time>
  <eigenvalues>
   <array>
    <dimension dim="1">band</dimension>
    <dimension dim="2">kpoint</dimension>
    <dimension dim="3">spin</dimension>
    <field>eigene</field>
    <field>occ</field>
    <set>
     <set comment="spin 1">
      <set comment="kpoint 1">
       <r>  -40.2551    1.0000 </r>
       <r>  -40.2550    1.0000 </r>
       <r>  -39.8672    1.0000 </r>
       <r>  -39.8443    1.0000 </r>
       <r>  -39.8392    1.0000 </r>
       <r>  -39.8189    1.0000 </r>
       <r>  -39.8138    1.0000 </r>
       <r>  -39.7480    1.0000 </r>
       <r>  -39.7478    1.0000 </r>
       <r>  -39.7469    1.0000 </r>
       <r>  -39.7466    1.0000 </r>
       <r>  -38.9924    1.0000 </r>
       <r>  -18.9112    1.0000 </r>
       <r>  -18.9095    1.0000 </r>
       <r>  -18.9022    1.0000 </r>
       <r>  -18.9015    1.0000 </r>
       <r>  -18.8403    1.0000 </r>
       <r>  -18.8398    1.0000 </r>
       <r>  -18.8337    1.0000 </r>
       <r>  -18.8333    1.0000 </r>
       <r>  -18.8253    1.0000 </r>
       <r>  -18.8251    1.0000 </r>
       <r>  -18.8169    1.0000 </r>
       <r>  -18.8169    1.0000 </r>
       <r>  -18.7346    1.0000 </r>
       <r>  -18.7331    1.0000 </r>
       <r>  -18.7292    1.0000 </r>
       <r>  -18.7283    1.0000 </r>
       <r>  -18.7195    1.0000 </r>
       <r>  -18.7180    1.0000 </r>
       <r>  -18.7167    1.0000 </r>
       <r>  -18.7153    1.0000 </r>
       <r>  -18.6901    1.0000 </r>
       <r>  -18.6892    1.0000 </r>
       <r>  -18.6831    1.0000 </r>
       <r>  -18.6825    1.0000 </r>
       <r>  -18.6766    1.0000 </r>
       <r>  -18.6762    1.0000 </r>
       <r>  -18.6671    1.0000 </r>
       <r>  -18.6665    1.0000 </r>
       <r>  -18.6655    1.0000 </r>
       <r>  -18.6649    1.0000 </r>
       <r>  -18.6585    1.0000 </r>
       <r>  -18.6579    1.0000 </r>
       <r>  -18.5492    1.0000 </r>
       <r>  -18.5479    1.0000 </r>
       <r>  -18.5427    1.0000 </r>
       <r>  -18.5422    1.0000 </r>
       <r>  -18.5343    1.0000 </r>
       <r>  -18.5338    1.0000 </r>
       <r>  -18.5271    1.0000 </r>
       <r>  -18.5256    1.0000 </r>
       <r>  -18.5242    1.0000 </r>
       <r>  -18.5234    1.0000 </r>
       <r>  -18.5230    1.0000 </r>
       <r>  -18.5219    1.0000 </r>
       <r>  -18.5194    1.0000 </r>
       <r>  -18.5188    1.0000 </r>
       <r>  -18.5162    1.0000 </r>
       <r>  -18.5149    1.0000 </r>
       <r>  -18.5145    1.0000 </r>
       <r>  -18.5132    1.0000 </r>
       <r>  -18.5123    1.0000 </r>
       <r>  -18.5121    1.0000 </r>
       <r>  -18.3885    1.0000 </r>
       <r>  -18.3859    1.0000 </r>
       <r>  -18.3806    1.0000 </r>
       <r>  -18.3786    1.0000 </r>
       <r>  -18.3763    1.0000 </r>
       <r>  -18.3754    1.0000 </r>
       <r>  -18.3688    1.0000 </r>
       <r>  -18.3656    1.0000 </r>
       <r>  -18.3651    1.0000 </r>
       <r>  -18.3646    1.0000 </r>
       <r>  -18.3640    1.0000 </r>
       <r>  -18.3618    1.0000 </r>
       <r>  -18.3615    1.0000 </r>
       <r>  -18.3606    1.0000 </r>
       <r>  -18.3478    1.0000 </r>
       <r>  -18.3475    1.0000 </r>
       <r>  -18.2823    1.0000 </r>
       <r>  -18.2807    1.0000 </r>
       <r>  -18.2734    1.0000 </r>
       <r>  -18.2732    1.0000 </r>
       <r>  -18.1662    1.0000 </r>
       <r>  -18.1639    1.0000 </r>
       <r>  -18.1596    1.0000 </r>
       <r>  -18.1587    1.0000 </r>
       <r>  -18.1515    1.0000 </r>
       <r>  -18.1485    1.0000 </r>
       <r>  -18.1479    1.0000 </r>
       <r>  -18.1463    1.0000 </r>
       <r>  -13.6239    1.0000 </r>
       <r>  -13.4694    1.0000 </r>
       <r>  -13.4673    1.0000 </r>
       <r>  -13.4225    1.0000 </r>
       <r>  -12.8303    1.0000 </r>
       <r>  -12.7245    1.0000 </r>
       <r>  -12.7175    1.0000 </r>
       <r>  -12.6931    1.0000 </r>
       <r>  -12.6776    1.0000 </r>
       <r>  -12.5561    1.0000 </r>
       <r>  -12.5518    1.0000 </r>
       <r>  -12.5222    1.0000 </r>
       <r>  -11.9978    1.0000 </r>
       <r>  -11.9075    1.0000 </r>
       <r>  -11.8958    1.0000 </r>
       <r>  -11.8755    1.0000 </r>
       <r>   -9.3068    1.0000 </r>
       <r>   -9.0149    1.0000 </r>
       <r>   -8.5243    1.0000 </r>
       <r>   -8.4801    1.0000 </r>
       <r>   -8.4634    1.0000 </r>
       <r>   -8.3879    1.0000 </r>
       <r>   -8.3054    1.0000 </r>
       <r>   -8.2705    1.0000 </r>
       <r>   -8.2396    1.0000 </r>
       <r>   -8.1684    1.0000 </r>
       <r>   -7.9713    1.0000 </r>
       <r>   -7.9671    1.0000 </r>
       <r>   -7.9558    1.0000 </r>
       <r>   -7.9544    1.0000 </r>
       <r>   -7.3189    1.0000 </r>
       <r>   -7.3186    1.0000 </r>
       <r>   -6.3409    1.0000 </r>
       <r>   -6.3396    1.0000 </r>
       <r>   -6.3373    1.0000 </r>
       <r>   -6.3332    1.0000 </r>
       <r>   -5.5313    1.0000 </r>
       <r>   -5.4912    1.0000 </r>
       <r>   -5.4018    1.0000 </r>
       <r>   -5.3040    1.0000 </r>
       <r>   -5.2452    1.0000 </r>
       <r>   -5.2239    1.0000 </r>
       <r>   -5.1968    1.0000 </r>
       <r>   -5.0547    1.0000 </r>
       <r>   -5.0252    1.0000 </r>
       <r>   -5.0168    1.0000 </r>
       <r>   -3.7645    1.0000 </r>
       <r>   -3.6098    1.0000 </r>
       <r>   -1.4071    1.0000 </r>
       <r>   -1.3072    1.0000 </r>
       <r>   -1.0647    1.0000 </r>
       <r>   -0.9990    1.0000 </r>
       <r>   -0.5902    1.0000 </r>
       <r>   -0.4793    1.0000 </r>
       <r>   -0.4553    1.0000 </r>
       <r>   -0.4056    1.0000 </r>
       <r>   -0.1745    1.0000 </r>
       <r>   -0.1507    1.0000 </r>
       <r>   -0.1287    1.0000 </r>
       <r>   -0.0813    1.0000 </r>
       <r>   -0.0572    1.0000 </r>
       <r>    0.2188    1.0000 </r>
       <r>    0.2218    1.0000 </r>
       <r>    0.2945    1.0000 </r>
       <r>    0.3241    1.0000 </r>
       <r>    0.5412    1.0000 </r>
       <r>    0.5723    1.0000 </r>
       <r>    0.5890    1.0000 </r>
       <r>    0.7032    1.0000 </r>
       <r>    0.7289    1.0000 </r>
       <r>    0.7712    1.0000 </r>
       <r>    0.7961    1.0000 </r>
       <r>    0.8950    1.0000 </r>
       <r>    0.9129    1.0000 </r>
       <r>    0.9640    1.0000 </r>
       <r>    0.9757    1.0000 </r>
       <r>    0.9809    1.0000 </r>
       <r>    1.0032    1.0000 </r>
       <r>    1.0146    1.0000 </r>
       <r>    1.0985    1.0000 </r>
       <r>    1.1728    1.0000 </r>
       <r>    1.1948    1.0000 </r>
       <r>    1.2362    1.0000 </r>
       <r>    1.2586    1.0000 </r>
       <r>    1.2741    1.0000 </r>
       <r>    1.3811    1.0000 </r>
       <r>    1.4089    1.0000 </r>
       <r>    1.4464    1.0000 </r>
       <r>    1.5804    1.0000 </r>
       <r>    1.5891    1.0000 </r>
       <r>    1.6078    1.0000 </r>
       <r>    1.6142    1.0000 </r>
       <r>    1.7586    1.0000 </r>
       <r>    1.7827    1.0000 </r>
       <r>    1.7913    1.0000 </r>
       <r>    1.8288    1.0000 </r>
       <r>    1.8690    1.0000 </r>
       <r>    1.9287    1.0000 </r>
       <r>    1.9841    1.0000 </r>
       <r>    2.1809    1.0000 </r>
       <r>    2.1957    1.0000 </r>
       <r>    2.2052    1.0000 </r>
       <r>    2.2372    1.0000 </r>
       <r>    2.2730    1.0000 </r>
       <r>    2.3634    1.0000 </r>
       <r>    2.4061    1.0000 </r>
       <r>    2.4471    1.0000 </r>
       <r>    2.5702    1.0000 </r>
       <r>    2.6050    1.0000 </r>
       <r>    2.6102    1.0000 </r>
       <r>    2.6121    1.0000 </r>
       <r>    2.6231    1.0000 </r>
       <r>    2.6262    1.0000 </r>
       <r>    2.6979    1.0000 </r>
       <r>    2.7482    1.0000 </r>
       <r>    2.7488    1.0000 </r>
       <r>    2.7716    1.0000 </r>
       <r>    2.7728    1.0000 </r>
       <r>    2.7856    1.0000 </r>
       <r>    2.8730    1.0000 </r>
       <r>    2.9062    1.0000 </r>
       <r>    2.9627    1.0000 </r>
       <r>    3.0684    1.0000 </r>
       <r>    3.0843    1.0000 </r>
       <r>    3.0929    1.0000 </r>
       <r>    3.1324    1.0000 </r>
       <r>    3.1386    1.0000 </r>
       <r>    3.1468    1.0000 </r>
       <r>    3.1994    1.0000 </r>
       <r>    3.2017    1.0000 </r>
       <r>    3.2223    1.0000 </r>
       <r>    3.2423    1.0000 </r>
       <r>    3.2794    1.0000 </r>
       <r>    3.3081    1.0000 </r>
       <r>    3.3870    1.0000 </r>
       <r>    3.4254    1.0000 </r>
       <r>    3.5328    1.0000 </r>
       <r>    3.5398    1.0000 </r>
       <r>    3.5575    1.0000 </r>
       <r>    3.5983    1.0000 </r>
       <r>    4.2339    1.0000 </r>
       <r>    4.2435    1.0000 </r>
       <r>    4.2575    1.0000 </r>
       <r>    4.2694    1.0000 </r>
       <r>    5.1024    0.0000 </r>
       <r>    5.1073    0.0000 </r>
       <r>    5.1739    0.0000 </r>
       <r>    5.1870    0.0000 </r>
       <r>    5.7741    0.0000 </r>
       <r>    5.7835    0.0000 </r>
       <r>    5.8066    0.0000 </r>
       <r>    5.8149    0.0000 </r>
       <r>    6.1207    0.0000 </r>
       <r>    6.1544    0.0000 </r>
       <r>    6.1855    0.0000 </r>
       <r>    6.2174    0.0000 </r>
       <r>    6.2596    0.0000 </r>
       <r>    6.2805    0.0000 </r>
       <r>    6.3134    0.0000 </r>
       <r>    6.3222    0.0000 </r>
       <r>    7.0903    0.0000 </r>
       <r>    7.2034    0.0000 </r>
       <r>    7.2652    0.0000 </r>
       <r>    7.2791    0.0000 </r>
       <r>    7.8018    0.0000 </r>
       <r>    7.8275    0.0000 </r>
       <r>    7.8774    0.0000 </r>
       <r>    7.9676    0.0000 </r>
       <r>    8.1047    0.0000 </r>
       <r>    8.1665    0.0000 </r>
       <r>    8.2259    0.0000 </r>
       <r>    8.2463    0.0000 </r>
       <r>    8.4605    0.0000 </r>
       <r>    8.6995    0.0000 </r>
       <r>    8.7757    0.0000 </r>
       <r>    8.8285    0.0000 </r>
       <r>    8.8316    0.0000 </r>
       <r>    8.8774    0.0000 </r>
       <r>    8.9446    0.0000 </r>
       <r>    9.0398    0.0000 </r>
       <r>    9.0436    0.0000 </r>
       <r>    9.0666    0.0000 </r>
       <r>    9.1228    0.0000 </r>
       <r>    9.1368    0.0000 </r>
       <r>    9.1448    0.0000 </r>
       <r>    9.1706    0.0000 </r>
       <r>    9.2424    0.0000 </r>
       <r>    9.3170    0.0000 </r>
       <r>    9.4184    0.0000 </r>
       <r>    9.5450    0.0000 </r>
       <r>    9.5742    0.0000 </r>
       <r>    9.5779    0.0000 </r>
       <r>    9.7071    0.0000 </r>
       <r>    9.7288    0.0000 </r>
       <r>    9.7918    0.0000 </r>
       <r>    9.7969    0.0000 </r>
       <r>   10.2464    0.0000 </r>
       <r>   10.2726    0.0000 </r>
       <r>   10.2805    0.0000 </r>
       <r>   10.3427    0.0000 </r>
       <r>   10.4576    0.0000 </r>
       <r>   10.4712    0.0000 </r>
       <r>   10.4761    0.0000 </r>
       <r>   10.6136    0.0000 </r>
       <r>   10.6407    0.0000 </r>
       <r>   10.7202    0.0000 </r>
       <r>   11.1689    0.0000 </r>
       <r>   11.2778    0.0000 </r>
       <r>   11.3205    0.0000 </r>
       <r>   11.3459    0.0000 </r>
       <r>   11.6050    0.0000 </r>
       <r>   11.6701    0.0000 </r>
       <r>   11.6968    0.0000 </r>
       <r>   11.8211    0.0000 </r>
       <r>   11.9422    0.0000 </r>
       <r>   12.0357    0.0000 </r>
      </set>
      <set comment="kpoint 2">
       <r>  -40.2551    1.0000 </r>
       <r>  -40.2550    1.0000 </r>
       <r>  -39.8672    1.0000 </r>
       <r>  -39.8443    1.0000 </r>
       <r>  -39.8392    1.0000 </r>
       <r>  -39.8189    1.0000 </r>
       <r>  -39.8138    1.0000 </r>
       <r>  -39.7480    1.0000 </r>
       <r>  -39.7478    1.0000 </r>
       <r>  -39.7469    1.0000 </r>
       <r>  -39.7466    1.0000 </r>
       <r>  -38.9924    1.0000 </r>
       <r>  -18.9112    1.0000 </r>
       <r>  -18.9094    1.0000 </r>
       <r>  -18.9022    1.0000 </r>
       <r>  -18.9015    1.0000 </r>
       <r>  -18.8402    1.0000 </r>
       <r>  -18.8397    1.0000 </r>
       <r>  -18.8336    1.0000 </r>
       <r>  -18.8332    1.0000 </r>
       <r>  -18.8254    1.0000 </r>
       <r>  -18.8252    1.0000 </r>
       <r>  -18.8169    1.0000 </r>
       <r>  -18.8169    1.0000 </r>
       <r>  -18.7346    1.0000 </r>
       <r>  -18.7331    1.0000 </r>
       <r>  -18.7292    1.0000 </r>
       <r>  -18.7283    1.0000 </r>
       <r>  -18.7195    1.0000 </r>
       <r>  -18.7180    1.0000 </r>
       <r>  -18.7167    1.0000 </r>
       <r>  -18.7153    1.0000 </r>
       <r>  -18.6898    1.0000 </r>
       <r>  -18.6889    1.0000 </r>
       <r>  -18.6831    1.0000 </r>
       <r>  -18.6825    1.0000 </r>
       <r>  -18.6768    1.0000 </r>
       <r>  -18.6764    1.0000 </r>
       <r>  -18.6671    1.0000 </r>
       <r>  -18.6666    1.0000 </r>
       <r>  -18.6655    1.0000 </r>
       <r>  -18.6650    1.0000 </r>
       <r>  -18.6584    1.0000 </r>
       <r>  -18.6579    1.0000 </r>
       <r>  -18.5494    1.0000 </r>
       <r>  -18.5481    1.0000 </r>
       <r>  -18.5426    1.0000 </r>
       <r>  -18.5421    1.0000 </r>
       <r>  -18.5342    1.0000 </r>
       <r>  -18.5337    1.0000 </r>
       <r>  -18.5272    1.0000 </r>
       <r>  -18.5256    1.0000 </r>
       <r>  -18.5241    1.0000 </r>
       <r>  -18.5234    1.0000 </r>
       <r>  -18.5231    1.0000 </r>
       <r>  -18.5220    1.0000 </r>
       <r>  -18.5194    1.0000 </r>
       <r>  -18.5188    1.0000 </r>
       <r>  -18.5161    1.0000 </r>
       <r>  -18.5152    1.0000 </r>
       <r>  -18.5141    1.0000 </r>
       <r>  -18.5133    1.0000 </r>
       <r>  -18.5123    1.0000 </r>
       <r>  -18.5121    1.0000 </r>
       <r>  -18.3885    1.0000 </r>
       <r>  -18.3859    1.0000 </r>
       <r>  -18.3806    1.0000 </r>
       <r>  -18.3786    1.0000 </r>
       <r>  -18.3764    1.0000 </r>
       <r>  -18.3754    1.0000 </r>
       <r>  -18.3688    1.0000 </r>
       <r>  -18.3655    1.0000 </r>
       <r>  -18.3651    1.0000 </r>
       <r>  -18.3646    1.0000 </r>
       <r>  -18.3640    1.0000 </r>
       <r>  -18.3618    1.0000 </r>
       <r>  -18.3615    1.0000 </r>
       <r>  -18.3606    1.0000 </r>
       <r>  -18.3478    1.0000 </r>
       <r>  -18.3476    1.0000 </r>
       <r>  -18.2823    1.0000 </r>
       <r>  -18.2808    1.0000 </r>
       <r>  -18.2734    1.0000 </r>
       <r>  -18.2732    1.0000 </r>
       <r>  -18.1662    1.0000 </r>
       <r>  -18.1639    1.0000 </r>
       <r>  -18.1596    1.0000 </r>
       <r>  -18.1587    1.0000 </r>
       <r>  -18.1515    1.0000 </r>
       <r>  -18.1485    1.0000 </r>
       <r>  -18.1479    1.0000 </r>
       <r>  -18.1463    1.0000 </r>
       <r>  -13.6236    1.0000 </r>
       <r>  -13.4694    1.0000 </r>
       <r>  -13.4676    1.0000 </r>
       <r>  -13.4225    1.0000 </r>
       <r>  -12.8154    1.0000 </r>
       <r>  -12.7623    1.0000 </r>
       <r>  -12.7155    1.0000 </r>
       <r>  -12.6795    1.0000 </r>
       <r>  -12.6682    1.0000 </r>
       <r>  -12.5580    1.0000 </r>
       <r>  -12.5531    1.0000 </r>
       <r>  -12.5212    1.0000 </r>
       <r>  -11.9978    1.0000 </r>
       <r>  -11.9074    1.0000 </r>
       <r>  -11.8965    1.0000 </r>
       <r>  -11.8749    1.0000 </r>
       <r>   -9.1857    1.0000 </r>
       <r>   -8.9655    1.0000 </r>
       <r>   -8.9130    1.0000 </r>
       <r>   -8.6882    1.0000 </r>
       <r>   -8.3951    1.0000 </r>
       <r>   -8.3933    1.0000 </r>
       <r>   -8.2514    1.0000 </r>
       <r>   -8.2475    1.0000 </r>
       <r>   -8.1474    1.0000 </r>
       <r>   -8.1404    1.0000 </r>
       <r>   -8.0046    1.0000 </r>
       <r>   -7.9963    1.0000 </r>
       <r>   -7.7365    1.0000 </r>
       <r>   -7.6241    1.0000 </r>
       <r>   -7.5762    1.0000 </r>
       <r>   -7.4632    1.0000 </r>
       <r>   -6.0223    1.0000 </r>
       <r>   -6.0082    1.0000 </r>
       <r>   -5.9517    1.0000 </r>
       <r>   -5.9040    1.0000 </r>
       <r>   -5.7224    1.0000 </r>
       <r>   -5.6995    1.0000 </r>
       <r>   -5.6845    1.0000 </r>
       <r>   -5.6600    1.0000 </r>
       <r>   -5.6201    1.0000 </r>
       <r>   -5.5374    1.0000 </r>
       <r>   -5.4475    1.0000 </r>
       <r>   -5.3843    1.0000 </r>
       <r>   -4.4936    1.0000 </r>
       <r>   -4.3320    1.0000 </r>
       <r>   -4.2745    1.0000 </r>
       <r>   -4.1005    1.0000 </r>
       <r>   -1.2470    1.0000 </r>
       <r>   -0.9799    1.0000 </r>
       <r>   -0.9045    1.0000 </r>
       <r>   -0.6612    1.0000 </r>
       <r>   -0.5134    1.0000 </r>
       <r>   -0.1957    1.0000 </r>
       <r>   -0.0431    1.0000 </r>
       <r>    0.0392    1.0000 </r>
       <r>    0.0471    1.0000 </r>
       <r>    0.0576    1.0000 </r>
       <r>    0.1387    1.0000 </r>
       <r>    0.1566    1.0000 </r>
       <r>    0.1612    1.0000 </r>
       <r>    0.1900    1.0000 </r>
       <r>    0.4025    1.0000 </r>
       <r>    0.4317    1.0000 </r>
       <r>    0.4541    1.0000 </r>
       <r>    0.4916    1.0000 </r>
       <r>    0.4987    1.0000 </r>
       <r>    0.5324    1.0000 </r>
       <r>    0.5868    1.0000 </r>
       <r>    0.5884    1.0000 </r>
       <r>    0.6069    1.0000 </r>
       <r>    0.6835    1.0000 </r>
       <r>    0.7600    1.0000 </r>
       <r>    0.8469    1.0000 </r>
       <r>    0.8901    1.0000 </r>
       <r>    0.9963    1.0000 </r>
       <r>    1.0426    1.0000 </r>
       <r>    1.1296    1.0000 </r>
       <r>    1.1658    1.0000 </r>
       <r>    1.1700    1.0000 </r>
       <r>    1.1762    1.0000 </r>
       <r>    1.1991    1.0000 </r>
       <r>    1.2448    1.0000 </r>
       <r>    1.2538    1.0000 </r>
       <r>    1.2687    1.0000 </r>
       <r>    1.2788    1.0000 </r>
       <r>    1.4397    1.0000 </r>
       <r>    1.4645    1.0000 </r>
       <r>    1.4897    1.0000 </r>
       <r>    1.4943    1.0000 </r>
       <r>    1.5710    1.0000 </r>
       <r>    1.6068    1.0000 </r>
       <r>    1.6367    1.0000 </r>
       <r>    1.6700    1.0000 </r>
       <r>    1.7573    1.0000 </r>
       <r>    1.8019    1.0000 </r>
       <r>    1.8395    1.0000 </r>
       <r>    1.8665    1.0000 </r>
       <r>    1.9314    1.0000 </r>
       <r>    1.9684    1.0000 </r>
       <r>    2.0088    1.0000 </r>
       <r>    2.0290    1.0000 </r>
       <r>    2.0929    1.0000 </r>
       <r>    2.1737    1.0000 </r>
       <r>    2.2014    1.0000 </r>
       <r>    2.2647    1.0000 </r>
       <r>    2.2760    1.0000 </r>
       <r>    2.2827    1.0000 </r>
       <r>    2.3412    1.0000 </r>
       <r>    2.4233    1.0000 </r>
       <r>    2.4260    1.0000 </r>
       <r>    2.4637    1.0000 </r>
       <r>    2.4882    1.0000 </r>
       <r>    2.5343    1.0000 </r>
       <r>    2.5499    1.0000 </r>
       <r>    2.5663    1.0000 </r>
       <r>    2.5957    1.0000 </r>
       <r>    2.7265    1.0000 </r>
       <r>    2.7652    1.0000 </r>
       <r>    2.8153    1.0000 </r>
       <r>    2.8271    1.0000 </r>
       <r>    2.8380    1.0000 </r>
       <r>    2.8776    1.0000 </r>
       <r>    2.9180    1.0000 </r>
       <r>    2.9658    1.0000 </r>
       <r>    2.9923    1.0000 </r>
       <r>    3.0674    1.0000 </r>
       <r>    3.1446    1.0000 </r>
       <r>    3.1466    1.0000 </r>
       <r>    3.1526    1.0000 </r>
       <r>    3.1810    1.0000 </r>
       <r>    3.1871    1.0000 </r>
       <r>    3.2900    1.0000 </r>
       <r>    3.3866    1.0000 </r>
       <r>    3.3903    1.0000 </r>
       <r>    3.4067    1.0000 </r>
       <r>    3.4664    1.0000 </r>
       <r>    3.5254    1.0000 </r>
       <r>    3.5834    1.0000 </r>
       <r>    3.6535    1.0000 </r>
       <r>    3.6555    1.0000 </r>
       <r>    3.6770    1.0000 </r>
       <r>    3.7284    1.0000 </r>
       <r>    3.8170    1.0000 </r>
       <r>    5.5580    0.0000 </r>
       <r>    5.5751    0.0000 </r>
       <r>    5.6331    0.0000 </r>
       <r>    5.6550    0.0000 </r>
       <r>    5.8994    0.0000 </r>
       <r>    5.9186    0.0000 </r>
       <r>    5.9358    0.0000 </r>
       <r>    5.9658    0.0000 </r>
       <r>    7.2052    0.0000 </r>
       <r>    7.2224    0.0000 </r>
       <r>    7.2480    0.0000 </r>
       <r>    7.2966    0.0000 </r>
       <r>    7.3563    0.0000 </r>
       <r>    7.3975    0.0000 </r>
       <r>    7.4316    0.0000 </r>
       <r>    7.5160    0.0000 </r>
       <r>    7.5407    0.0000 </r>
       <r>    7.5971    0.0000 </r>
       <r>    7.6507    0.0000 </r>
       <r>    7.6989    0.0000 </r>
       <r>    7.8108    0.0000 </r>
       <r>    7.8198    0.0000 </r>
       <r>    7.8792    0.0000 </r>
       <r>    7.9065    0.0000 </r>
       <r>    7.9240    0.0000 </r>
       <r>    7.9381    0.0000 </r>
       <r>    7.9631    0.0000 </r>
       <r>    8.0232    0.0000 </r>
       <r>    8.0323    0.0000 </r>
       <r>    8.0645    0.0000 </r>
       <r>    8.1056    0.0000 </r>
       <r>    8.1444    0.0000 </r>
       <r>    8.3080    0.0000 </r>
       <r>    8.4690    0.0000 </r>
       <r>    8.5205    0.0000 </r>
       <r>    8.6429    0.0000 </r>
       <r>    8.6653    0.0000 </r>
       <r>    8.7520    0.0000 </r>
       <r>    8.7731    0.0000 </r>
       <r>    8.7837    0.0000 </r>
       <r>    8.7886    0.0000 </r>
       <r>    8.9229    0.0000 </r>
       <r>    8.9724    0.0000 </r>
       <r>    8.9805    0.0000 </r>
       <r>    9.0804    0.0000 </r>
       <r>    9.3217    0.0000 </r>
       <r>    9.3691    0.0000 </r>
       <r>    9.3822    0.0000 </r>
       <r>    9.6672    0.0000 </r>
       <r>    9.8288    0.0000 </r>
       <r>   10.2133    0.0000 </r>
       <r>   10.3763    0.0000 </r>
       <r>   10.3832    0.0000 </r>
       <r>   10.4479    0.0000 </r>
       <r>   10.4977    0.0000 </r>
       <r>   10.5680    0.0000 </r>
       <r>   10.5712    0.0000 </r>
       <r>   10.6147    0.0000 </r>
       <r>   10.8164    0.0000 </r>
       <r>   10.8282    0.0000 </r>
       <r>   10.8832    0.0000 </r>
       <r>   10.9064    0.0000 </r>
       <r>   11.1961    0.0000 </r>
       <r>   11.1995    0.0000 </r>
       <r>   11.2456    0.0000 </r>
       <r>   11.2650    0.0000 </r>
       <r>   11.2878    0.0000 </r>
       <r>   11.3092    0.0000 </r>
       <r>   11.3947    0.0000 </r>
       <r>   11.4672    0.0000 </r>
       <r>   11.6359    0.0000 </r>
       <r>   11.6512    0.0000 </r>
      </set>
      <set comment="kpoint 3">
       <r>  -40.2551    1.0000 </r>
       <r>  -40.2550    1.0000 </r>
       <r>  -39.8672    1.0000 </r>
       <r>  -39.8443    1.0000 </r>
       <r>  -39.8392    1.0000 </r>
       <r>  -39.8189    1.0000 </r>
       <r>  -39.8138    1.0000 </r>
       <r>  -39.7480    1.0000 </r>
       <r>  -39.7478    1.0000 </r>
       <r>  -39.7469    1.0000 </r>
       <r>  -39.7466    1.0000 </r>
       <r>  -38.9924    1.0000 </r>
       <r>  -18.9119    1.0000 </r>
       <r>  -18.9088    1.0000 </r>
       <r>  -18.9021    1.0000 </r>
       <r>  -18.9015    1.0000 </r>
       <r>  -18.8403    1.0000 </r>
       <r>  -18.8399    1.0000 </r>
       <r>  -18.8336    1.0000 </r>
       <r>  -18.8333    1.0000 </r>
       <r>  -18.8253    1.0000 </r>
       <r>  -18.8252    1.0000 </r>
       <r>  -18.8169    1.0000 </r>
       <r>  -18.8169    1.0000 </r>
       <r>  -18.7345    1.0000 </r>
       <r>  -18.7332    1.0000 </r>
       <r>  -18.7292    1.0000 </r>
       <r>  -18.7283    1.0000 </r>
       <r>  -18.7195    1.0000 </r>
       <r>  -18.7180    1.0000 </r>
       <r>  -18.7167    1.0000 </r>
       <r>  -18.7154    1.0000 </r>
       <r>  -18.6900    1.0000 </r>
       <r>  -18.6892    1.0000 </r>
       <r>  -18.6831    1.0000 </r>
       <r>  -18.6825    1.0000 </r>
       <r>  -18.6766    1.0000 </r>
       <r>  -18.6762    1.0000 </r>
       <r>  -18.6670    1.0000 </r>
       <r>  -18.6666    1.0000 </r>
       <r>  -18.6658    1.0000 </r>
       <r>  -18.6646    1.0000 </r>
       <r>  -18.6584    1.0000 </r>
       <r>  -18.6580    1.0000 </r>
       <r>  -18.5492    1.0000 </r>
       <r>  -18.5480    1.0000 </r>
       <r>  -18.5428    1.0000 </r>
       <r>  -18.5422    1.0000 </r>
       <r>  -18.5342    1.0000 </r>
       <r>  -18.5339    1.0000 </r>
       <r>  -18.5271    1.0000 </r>
       <r>  -18.5256    1.0000 </r>
       <r>  -18.5242    1.0000 </r>
       <r>  -18.5235    1.0000 </r>
       <r>  -18.5231    1.0000 </r>
       <r>  -18.5219    1.0000 </r>
       <r>  -18.5197    1.0000 </r>
       <r>  -18.5185    1.0000 </r>
       <r>  -18.5161    1.0000 </r>
       <r>  -18.5150    1.0000 </r>
       <r>  -18.5144    1.0000 </r>
       <r>  -18.5132    1.0000 </r>
       <r>  -18.5125    1.0000 </r>
       <r>  -18.5119    1.0000 </r>
       <r>  -18.3885    1.0000 </r>
       <r>  -18.3859    1.0000 </r>
       <r>  -18.3805    1.0000 </r>
       <r>  -18.3786    1.0000 </r>
       <r>  -18.3763    1.0000 </r>
       <r>  -18.3754    1.0000 </r>
       <r>  -18.3688    1.0000 </r>
       <r>  -18.3656    1.0000 </r>
       <r>  -18.3651    1.0000 </r>
       <r>  -18.3646    1.0000 </r>
       <r>  -18.3640    1.0000 </r>
       <r>  -18.3618    1.0000 </r>
       <r>  -18.3615    1.0000 </r>
       <r>  -18.3606    1.0000 </r>
       <r>  -18.3478    1.0000 </r>
       <r>  -18.3475    1.0000 </r>
       <r>  -18.2826    1.0000 </r>
       <r>  -18.2805    1.0000 </r>
       <r>  -18.2734    1.0000 </r>
       <r>  -18.2732    1.0000 </r>
       <r>  -18.1662    1.0000 </r>
       <r>  -18.1639    1.0000 </r>
       <r>  -18.1595    1.0000 </r>
       <r>  -18.1587    1.0000 </r>
       <r>  -18.1514    1.0000 </r>
       <r>  -18.1485    1.0000 </r>
       <r>  -18.1479    1.0000 </r>
       <r>  -18.1464    1.0000 </r>
       <r>  -13.6235    1.0000 </r>
       <r>  -13.4694    1.0000 </r>
       <r>  -13.4673    1.0000 </r>
       <r>  -13.4229    1.0000 </r>
       <r>  -12.8287    1.0000 </r>
       <r>  -12.7244    1.0000 </r>
       <r>  -12.7174    1.0000 </r>
       <r>  -12.6926    1.0000 </r>
       <r>  -12.6788    1.0000 </r>
       <r>  -12.5563    1.0000 </r>
       <r>  -12.5519    1.0000 </r>
       <r>  -12.5236    1.0000 </r>
       <r>  -11.9956    1.0000 </r>
       <r>  -11.9075    1.0000 </r>
       <r>  -11.8960    1.0000 </r>
       <r>  -11.8784    1.0000 </r>
       <r>   -9.2983    1.0000 </r>
       <r>   -9.0203    1.0000 </r>
       <r>   -8.5421    1.0000 </r>
       <r>   -8.4997    1.0000 </r>
       <r>   -8.4819    1.0000 </r>
       <r>   -8.4048    1.0000 </r>
       <r>   -8.2859    1.0000 </r>
       <r>   -8.2502    1.0000 </r>
       <r>   -8.2186    1.0000 </r>
       <r>   -8.1503    1.0000 </r>
       <r>   -7.9743    1.0000 </r>
       <r>   -7.9700    1.0000 </r>
       <r>   -7.9587    1.0000 </r>
       <r>   -7.9573    1.0000 </r>
       <r>   -7.3223    1.0000 </r>
       <r>   -7.3208    1.0000 </r>
       <r>   -6.3323    1.0000 </r>
       <r>   -6.3308    1.0000 </r>
       <r>   -6.3283    1.0000 </r>
       <r>   -6.3209    1.0000 </r>
       <r>   -5.5439    1.0000 </r>
       <r>   -5.4741    1.0000 </r>
       <r>   -5.4577    1.0000 </r>
       <r>   -5.3388    1.0000 </r>
       <r>   -5.2401    1.0000 </r>
       <r>   -5.2298    1.0000 </r>
       <r>   -5.1782    1.0000 </r>
       <r>   -5.0224    1.0000 </r>
       <r>   -4.9772    1.0000 </r>
       <r>   -4.9730    1.0000 </r>
       <r>   -3.8358    1.0000 </r>
       <r>   -3.5271    1.0000 </r>
       <r>   -1.3217    1.0000 </r>
       <r>   -1.2636    1.0000 </r>
       <r>   -1.1878    1.0000 </r>
       <r>   -1.0571    1.0000 </r>
       <r>   -0.4567    1.0000 </r>
       <r>   -0.4140    1.0000 </r>
       <r>   -0.3908    1.0000 </r>
       <r>   -0.3712    1.0000 </r>
       <r>   -0.3303    1.0000 </r>
       <r>   -0.2895    1.0000 </r>
       <r>   -0.2662    1.0000 </r>
       <r>   -0.1844    1.0000 </r>
       <r>   -0.1591    1.0000 </r>
       <r>   -0.0339    1.0000 </r>
       <r>   -0.0108    1.0000 </r>
       <r>    0.0565    1.0000 </r>
       <r>    0.1962    1.0000 </r>
       <r>    0.4000    1.0000 </r>
       <r>    0.4324    1.0000 </r>
       <r>    0.5695    1.0000 </r>
       <r>    0.6072    1.0000 </r>
       <r>    0.6888    1.0000 </r>
       <r>    0.7049    1.0000 </r>
       <r>    0.7558    1.0000 </r>
       <r>    0.7920    1.0000 </r>
       <r>    0.8250    1.0000 </r>
       <r>    0.8393    1.0000 </r>
       <r>    0.8794    1.0000 </r>
       <r>    0.9541    1.0000 </r>
       <r>    1.0810    1.0000 </r>
       <r>    1.1702    1.0000 </r>
       <r>    1.1713    1.0000 </r>
       <r>    1.2471    1.0000 </r>
       <r>    1.2632    1.0000 </r>
       <r>    1.2909    1.0000 </r>
       <r>    1.3068    1.0000 </r>
       <r>    1.5220    1.0000 </r>
       <r>    1.5649    1.0000 </r>
       <r>    1.5762    1.0000 </r>
       <r>    1.6102    1.0000 </r>
       <r>    1.6461    1.0000 </r>
       <r>    1.6948    1.0000 </r>
       <r>    1.7306    1.0000 </r>
       <r>    1.7484    1.0000 </r>
       <r>    1.7504    1.0000 </r>
       <r>    1.7914    1.0000 </r>
       <r>    1.8222    1.0000 </r>
       <r>    1.9353    1.0000 </r>
       <r>    2.1081    1.0000 </r>
       <r>    2.1367    1.0000 </r>
       <r>    2.1533    1.0000 </r>
       <r>    2.1585    1.0000 </r>
       <r>    2.2528    1.0000 </r>
       <r>    2.2945    1.0000 </r>
       <r>    2.3224    1.0000 </r>
       <r>    2.4142    1.0000 </r>
       <r>    2.4195    1.0000 </r>
       <r>    2.4648    1.0000 </r>
       <r>    2.4889    1.0000 </r>
       <r>    2.5521    1.0000 </r>
       <r>    2.5686    1.0000 </r>
       <r>    2.5978    1.0000 </r>
       <r>    2.6019    1.0000 </r>
       <r>    2.6255    1.0000 </r>
       <r>    2.6283    1.0000 </r>
       <r>    2.6347    1.0000 </r>
       <r>    2.6865    1.0000 </r>
       <r>    2.7390    1.0000 </r>
       <r>    2.7806    1.0000 </r>
       <r>    2.8158    1.0000 </r>
       <r>    2.8426    1.0000 </r>
       <r>    2.8659    1.0000 </r>
       <r>    2.9322    1.0000 </r>
       <r>    2.9863    1.0000 </r>
       <r>    3.0017    1.0000 </r>
       <r>    3.0177    1.0000 </r>
       <r>    3.0202    1.0000 </r>
       <r>    3.0730    1.0000 </r>
       <r>    3.0815    1.0000 </r>
       <r>    3.0948    1.0000 </r>
       <r>    3.1620    1.0000 </r>
       <r>    3.2451    1.0000 </r>
       <r>    3.2816    1.0000 </r>
       <r>    3.3242    1.0000 </r>
       <r>    3.3919    1.0000 </r>
       <r>    3.4731    1.0000 </r>
       <r>    3.5085    1.0000 </r>
       <r>    3.5124    1.0000 </r>
       <r>    3.5179    1.0000 </r>
       <r>    3.5225    1.0000 </r>
       <r>    3.5697    1.0000 </r>
       <r>    3.6568    1.0000 </r>
       <r>    4.2806    1.0000 </r>
       <r>    4.3008    1.0000 </r>
       <r>    4.3139    1.0000 </r>
       <r>    4.3151    1.0000 </r>
       <r>    5.1724    0.0000 </r>
       <r>    5.1785    0.0000 </r>
       <r>    5.2401    0.0000 </r>
       <r>    5.2471    0.0000 </r>
       <r>    5.7864    0.0000 </r>
       <r>    5.7883    0.0000 </r>
       <r>    5.8151    0.0000 </r>
       <r>    5.8265    0.0000 </r>
       <r>    6.1862    0.0000 </r>
       <r>    6.2094    0.0000 </r>
       <r>    6.2471    0.0000 </r>
       <r>    6.2571    0.0000 </r>
       <r>    6.2642    0.0000 </r>
       <r>    6.2912    0.0000 </r>
       <r>    6.3180    0.0000 </r>
       <r>    6.3391    0.0000 </r>
       <r>    6.6804    0.0000 </r>
       <r>    6.9657    0.0000 </r>
       <r>    7.0117    0.0000 </r>
       <r>    7.0191    0.0000 </r>
       <r>    7.1736    0.0000 </r>
       <r>    7.4075    0.0000 </r>
       <r>    7.5139    0.0000 </r>
       <r>    7.6100    0.0000 </r>
       <r>    7.8655    0.0000 </r>
       <r>    7.8664    0.0000 </r>
       <r>    7.9532    0.0000 </r>
       <r>    7.9963    0.0000 </r>
       <r>    8.1117    0.0000 </r>
       <r>    8.3637    0.0000 </r>
       <r>    8.4303    0.0000 </r>
       <r>    8.4756    0.0000 </r>
       <r>    8.7030    0.0000 </r>
       <r>    8.8583    0.0000 </r>
       <r>    8.9125    0.0000 </r>
       <r>    8.9468    0.0000 </r>
       <r>    9.0602    0.0000 </r>
       <r>    9.0681    0.0000 </r>
       <r>    9.0750    0.0000 </r>
       <r>    9.1244    0.0000 </r>
       <r>    9.1504    0.0000 </r>
       <r>    9.1680    0.0000 </r>
       <r>    9.1998    0.0000 </r>
       <r>    9.2704    0.0000 </r>
       <r>    9.5078    0.0000 </r>
       <r>    9.5422    0.0000 </r>
       <r>    9.7261    0.0000 </r>
       <r>    9.7410    0.0000 </r>
       <r>    9.7475    0.0000 </r>
       <r>    9.7669    0.0000 </r>
[...]
       <r>   11.3834    0.0000 </r>
       <r>   11.3923    0.0000 </r>
       <r>   11.4162    0.0000 </r>
       <r>   11.4486    0.0000 </r>
      </set>
     </set>
    </set>
   </array>
  </eigenvalues>
  <separator name="orbital magnetization" >
   <v name="MAGDIPOLOUT">      0.00000000      0.00000000      0.00000000</v>
  </separator>
  <dos>
   <i name="efermi">      4.35170579 </i>
   <total>
    <array>
     <dimension dim="1">gridpoints</dimension>
     <dimension dim="2">spin</dimension>
     <field>energy</field>
     <field>total</field>
     <field>integrated</field>
     <set>
      <set comment="spin 1">
       <r>   -42.8899     0.0000     0.0000 </r>
       <r>   -42.6967     0.0000     0.0000 </r>
       <r>   -42.5035     0.0000     0.0000 </r>
       <r>   -42.3102     0.0000     0.0000 </r>
       <r>   -42.1170     0.0000     0.0000 </r>
       <r>   -41.9238     0.0000     0.0000 </r>
       <r>   -41.7306     0.0000     0.0000 </r>
       <r>   -41.5374     0.0000     0.0000 </r>
       <r>   -41.3442     0.0000     0.0000 </r>
       <r>   -41.1509     0.0000     0.0000 </r>
       <r>   -40.9577     0.0000     0.0000 </r>
       <r>   -40.7645     0.0000     0.0000 </r>
       <r>   -40.5713     0.0000     0.0000 </r>
       <r>   -40.3781     0.0000     0.0000 </r>
       <r>   -40.1849     0.0000     4.0000 </r>
       <r>   -39.9916     0.0000     4.0000 </r>
       <r>   -39.7984     0.0000    14.0000 </r>
       <r>   -39.6052     0.0000    22.0000 </r>
       <r>   -39.4120     0.0000    22.0000 </r>
       <r>   -39.2188     0.0000    22.0000 </r>
       <r>   -39.0255     0.0000    22.0000 </r>
       <r>   -38.8323     0.0000    24.0000 </r>
       <r>   -38.6391     0.0000    24.0000 </r>
       <r>   -38.4459     0.0000    24.0000 </r>
       <r>   -38.2527     0.0000    24.0000 </r>
       <r>   -38.0595     0.0000    24.0000 </r>
       <r>   -37.8662     0.0000    24.0000 </r>
       <r>   -37.6730     0.0000    24.0000 </r>
       <r>   -37.4798     0.0000    24.0000 </r>
       <r>   -37.2866     0.0000    24.0000 </r>
       <r>   -37.0934     0.0000    24.0000 </r>
       <r>   -36.9002     0.0000    24.0000 </r>
       <r>   -36.7069     0.0000    24.0000 </r>
       <r>   -36.5137     0.0000    24.0000 </r>
       <r>   -36.3205     0.0000    24.0000 </r>
       <r>   -36.1273     0.0000    24.0000 </r>
       <r>   -35.9341     0.0000    24.0000 </r>
       <r>   -35.7409     0.0000    24.0000 </r>
       <r>   -35.5476     0.0000    24.0000 </r>
       <r>   -35.3544     0.0000    24.0000 </r>
       <r>   -35.1612     0.0000    24.0000 </r>
       <r>   -34.9680     0.0000    24.0000 </r>
       <r>   -34.7748     0.0000    24.0000 </r>
       <r>   -34.5816     0.0000    24.0000 </r>
       <r>   -34.3883     0.0000    24.0000 </r>
       <r>   -34.1951     0.0000    24.0000 </r>
       <r>   -34.0019     0.0000    24.0000 </r>
       <r>   -33.8087     0.0000    24.0000 </r>
       <r>   -33.6155     0.0000    24.0000 </r>
       <r>   -33.4222     0.0000    24.0000 </r>
       <r>   -33.2290     0.0000    24.0000 </r>
       <r>   -33.0358     0.0000    24.0000 </r>
       <r>   -32.8426     0.0000    24.0000 </r>
       <r>   -32.6494     0.0000    24.0000 </r>
       <r>   -32.4562     0.0000    24.0000 </r>
       <r>   -32.2629     0.0000    24.0000 </r>
       <r>   -32.0697     0.0000    24.0000 </r>
       <r>   -31.8765     0.0000    24.0000 </r>
       <r>   -31.6833     0.0000    24.0000 </r>
       <r>   -31.4901     0.0000    24.0000 </r>
       <r>   -31.2969     0.0000    24.0000 </r>
       <r>   -31.1036     0.0000    24.0000 </r>
       <r>   -30.9104     0.0000    24.0000 </r>
       <r>   -30.7172     0.0000    24.0000 </r>
       <r>   -30.5240     0.0000    24.0000 </r>
       <r>   -30.3308     0.0000    24.0000 </r>
       <r>   -30.1376     0.0000    24.0000 </r>
       <r>   -29.9443     0.0000    24.0000 </r>
       <r>   -29.7511     0.0000    24.0000 </r>
       <r>   -29.5579     0.0000    24.0000 </r>
       <r>   -29.3647     0.0000    24.0000 </r>
       <r>   -29.1715     0.0000    24.0000 </r>
       <r>   -28.9783     0.0000    24.0000 </r>
       <r>   -28.7850     0.0000    24.0000 </r>
       <r>   -28.5918     0.0000    24.0000 </r>
       <r>   -28.3986     0.0000    24.0000 </r>
       <r>   -28.2054     0.0000    24.0000 </r>
       <r>   -28.0122     0.0000    24.0000 </r>
       <r>   -27.8190     0.0000    24.0000 </r>
       <r>   -27.6257     0.0000    24.0000 </r>
       <r>   -27.4325     0.0000    24.0000 </r>
       <r>   -27.2393     0.0000    24.0000 </r>
       <r>   -27.0461     0.0000    24.0000 </r>
       <r>   -26.8529     0.0000    24.0000 </r>
       <r>   -26.6596     0.0000    24.0000 </r>
       <r>   -26.4664     0.0000    24.0000 </r>
       <r>   -26.2732     0.0000    24.0000 </r>
       <r>   -26.0800     0.0000    24.0000 </r>
       <r>   -25.8868     0.0000    24.0000 </r>
       <r>   -25.6936     0.0000    24.0000 </r>
       <r>   -25.5003     0.0000    24.0000 </r>
       <r>   -25.3071     0.0000    24.0000 </r>
       <r>   -25.1139     0.0000    24.0000 </r>
       <r>   -24.9207     0.0000    24.0000 </r>
       <r>   -24.7275     0.0000    24.0000 </r>
       <r>   -24.5343     0.0000    24.0000 </r>
       <r>   -24.3410     0.0000    24.0000 </r>
       <r>   -24.1478     0.0000    24.0000 </r>
       <r>   -23.9546     0.0000    24.0000 </r>
       <r>   -23.7614     0.0000    24.0000 </r>
       <r>   -23.5682     0.0000    24.0000 </r>
       <r>   -23.3750     0.0000    24.0000 </r>
       <r>   -23.1817     0.0000    24.0000 </r>
       <r>   -22.9885     0.0000    24.0000 </r>
       <r>   -22.7953     0.0000    24.0000 </r>
       <r>   -22.6021     0.0000    24.0000 </r>
       <r>   -22.4089     0.0000    24.0000 </r>
       <r>   -22.2157     0.0000    24.0000 </r>
       <r>   -22.0224     0.0000    24.0000 </r>
       <r>   -21.8292     0.0000    24.0000 </r>
       <r>   -21.6360     0.0000    24.0000 </r>
       <r>   -21.4428     0.0000    24.0000 </r>
       <r>   -21.2496     0.0000    24.0000 </r>
       <r>   -21.0564     0.0000    24.0000 </r>
       <r>   -20.8631     0.0000    24.0000 </r>
       <r>   -20.6699     0.0000    24.0000 </r>
       <r>   -20.4767     0.0000    24.0000 </r>
       <r>   -20.2835     0.0000    24.0000 </r>
       <r>   -20.0903     0.0000    24.0000 </r>
       <r>   -19.8970     0.0000    24.0000 </r>
       <r>   -19.7038     0.0000    24.0000 </r>
       <r>   -19.5106     0.0000    24.0000 </r>
       <r>   -19.3174     0.0000    24.0000 </r>
       <r>   -19.1242     0.0000    24.0000 </r>
       <r>   -18.9310     0.0000    24.0000 </r>
       <r>   -18.7377     0.0000    48.0000 </r>
       <r>   -18.5445     0.0000    92.0000 </r>
       <r>   -18.3513     0.0000   156.0000 </r>
       <r>   -18.1581     0.0000   176.0000 </r>
       <r>   -17.9649     0.0000   184.0000 </r>
       <r>   -17.7717     0.0000   184.0000 </r>
       <r>   -17.5784     0.0000   184.0000 </r>
       <r>   -17.3852     0.0000   184.0000 </r>
       <r>   -17.1920     0.0000   184.0000 </r>
       <r>   -16.9988     0.0000   184.0000 </r>
       <r>   -16.8056     0.0000   184.0000 </r>
       <r>   -16.6124     0.0000   184.0000 </r>
       <r>   -16.4191     0.0000   184.0000 </r>
       <r>   -16.2259     0.0000   184.0000 </r>
       <r>   -16.0327     0.0000   184.0000 </r>
       <r>   -15.8395     0.0000   184.0000 </r>
       <r>   -15.6463     0.0000   184.0000 </r>
       <r>   -15.4531     0.0000   184.0000 </r>
       <r>   -15.2598     0.0000   184.0000 </r>
       <r>   -15.0666     0.0000   184.0000 </r>
       <r>   -14.8734     0.0000   184.0000 </r>
       <r>   -14.6802     0.0000   184.0000 </r>
       <r>   -14.4870     0.0000   184.0000 </r>
       <r>   -14.2938     0.0000   184.0000 </r>
       <r>   -14.1005     0.0000   184.0000 </r>
       <r>   -13.9073     0.0000   184.0000 </r>
       <r>   -13.7141     0.0000   184.0000 </r>
       <r>   -13.5209     0.0000   186.0000 </r>
       <r>   -13.3277     0.0000   192.0000 </r>
       <r>   -13.1344     0.0000   192.0000 </r>
       <r>   -12.9412     0.0000   192.0000 </r>
       <r>   -12.7480    54.1531   194.7397 </r>
       <r>   -12.5548     0.0000   204.0000 </r>
       <r>   -12.3616     0.0000   208.0000 </r>
       <r>   -12.1684     0.0000   208.0000 </r>
       <r>   -11.9751     0.0000   210.0000 </r>
       <r>   -11.7819     0.0000   216.0000 </r>
       <r>   -11.5887     0.0000   216.0000 </r>
       <r>   -11.3955     0.0000   216.0000 </r>
       <r>   -11.2023     0.0000   216.0000 </r>
       <r>   -11.0091     0.0000   216.0000 </r>
       <r>   -10.8158     0.0000   216.0000 </r>
       <r>   -10.6226     0.0000   216.0000 </r>
       <r>   -10.4294     0.0000   216.0000 </r>
       <r>   -10.2362     0.0000   216.0000 </r>
       <r>   -10.0430     0.0000   216.0000 </r>
       <r>    -9.8498     0.0000   216.0000 </r>
       <r>    -9.6565     0.0000   216.0000 </r>
       <r>    -9.4633     0.0000   216.0000 </r>
       <r>    -9.2701     3.0829   216.0502 </r>
       <r>    -9.0769     7.8360   217.8038 </r>
       <r>    -8.8837     4.9297   220.0651 </r>
       <r>    -8.6905    15.7513   222.6833 </r>
       <r>    -8.4972    14.5282   225.3294 </r>
       <r>    -8.3040    22.1142   230.1143 </r>
       <r>    -8.1108    17.8260   233.5298 </r>
       <r>    -7.9176    24.8224   238.3792 </r>
       <r>    -7.7244    15.9183   241.8462 </r>
       <r>    -7.5311    23.3023   245.2929 </r>
       <r>    -7.3379     2.2798   247.9796 </r>
       <r>    -7.1447     0.0000   248.0000 </r>
       <r>    -6.9515     0.0000   248.0000 </r>
       <r>    -6.7583     0.0000   248.0000 </r>
       <r>    -6.5651     0.0000   248.0000 </r>
       <r>    -6.3718     0.0000   248.0000 </r>
       <r>    -6.1786    20.0887   249.5599 </r>
       <r>    -5.9854    22.1196   254.6940 </r>
       <r>    -5.7922    16.2941   256.7504 </r>
       <r>    -5.5990    20.1954   262.3608 </r>
       <r>    -5.4058    19.4702   265.5474 </r>
       <r>    -5.2125    19.1468   269.7546 </r>
       <r>    -5.0193     4.6020   271.7511 </r>
       <r>    -4.8261     7.5994   272.7741 </r>
       <r>    -4.6329     8.7406   274.3418 </r>
       <r>    -4.4397     8.3407   276.1563 </r>
       <r>    -4.2465     6.8050   277.4840 </r>
       <r>    -4.0532     6.0882   278.8337 </r>
       <r>    -3.8600     2.6690   279.6811 </r>
       <r>    -3.6668     0.6834   279.9644 </r>
       <r>    -3.4736     0.0000   280.0000 </r>
       <r>    -3.2804     0.0000   280.0000 </r>
       <r>    -3.0872     0.0000   280.0000 </r>
       <r>    -2.8939     0.0000   280.0000 </r>
       <r>    -2.7007     0.0000   280.0000 </r>
       <r>    -2.5075     0.0000   280.0000 </r>
       <r>    -2.3143     0.0000   280.0000 </r>
       <r>    -2.1211     0.0000   280.0000 </r>
       <r>    -1.9279     0.0000   280.0000 </r>
       <r>    -1.7346     0.0000   280.0000 </r>
       <r>    -1.5414     0.0000   280.0000 </r>
       <r>    -1.3482     0.7530   280.0148 </r>
       <r>    -1.1550     8.4835   280.9528 </r>
       <r>    -0.9618    12.3251   282.9675 </r>
       <r>    -0.7685    11.1989   285.3958 </r>
       <r>    -0.5753     6.5498   287.0238 </r>
       <r>    -0.3821    13.5406   289.3671 </r>
       <r>    -0.1889    26.5594   293.3367 </r>
       <r>     0.0043    46.7336   300.6676 </r>
       <r>     0.1975    31.1793   307.5922 </r>
       <r>     0.3908    31.5758   313.7611 </r>
       <r>     0.5840    39.4857   321.2153 </r>
       <r>     0.7772    41.8340   327.7649 </r>
       <r>     0.9704    45.5679   335.6691 </r>
       <r>     1.1636    53.3751   345.2146 </r>
       <r>     1.3568    33.4266   353.5412 </r>
       <r>     1.5501    51.5726   362.3761 </r>
       <r>     1.7433    51.2255   372.2286 </r>
       <r>     1.9365    34.2730   380.2645 </r>
       <r>     2.1297    39.7510   386.6518 </r>
       <r>     2.3229    47.4402   396.2025 </r>
       <r>     2.5161    66.9467   406.3679 </r>
       <r>     2.7094    52.5572   417.6546 </r>
       <r>     2.9026    49.2944   429.6987 </r>
       <r>     3.0958    74.7978   441.3253 </r>
       <r>     3.2890    35.3783   451.0054 </r>
       <r>     3.4822    34.5858   458.7012 </r>
       <r>     3.6754    18.4724   465.1213 </r>
       <r>     3.8687    14.3852   469.0431 </r>
       <r>     4.0619     7.6127   471.1687 </r>
       <r>     4.2551     0.8637   471.9838 </r>
       <r>     4.4483     0.0000   472.0000 </r>
       <r>     4.6415     0.0000   472.0000 </r>
       <r>     4.8347     0.0000   472.0000 </r>
       <r>     5.0280     0.0000   472.0000 </r>
       <r>     5.2212     1.1207   472.0435 </r>
       <r>     5.4144     5.7870   472.7060 </r>
       <r>     5.6076    10.1650   474.2758 </r>
       <r>     5.8008    13.8907   476.0286 </r>
       <r>     5.9941    14.2086   480.3524 </r>
       <r>     6.1873    11.7703   482.8437 </r>
       <r>     6.3805    12.5572   485.1305 </r>
       <r>     6.5737    14.7466   487.7688 </r>
       <r>     6.7669    16.7875   490.8184 </r>
       <r>     6.9601    19.2121   494.2771 </r>
       <r>     7.1534    25.5931   498.4756 </r>
       <r>     7.3466    35.2066   504.4536 </r>
       <r>     7.5398    33.4099   511.3431 </r>
       <r>     7.7330    36.2888   516.5161 </r>
       <r>     7.9262    44.3907   524.8245 </r>
       <r>     8.1194    31.3539   532.6008 </r>
       <r>     8.3127    20.0826   537.1222 </r>
       <r>     8.5059    21.3256   540.9905 </r>
       <r>     8.6991    28.2395   545.7517 </r>
       <r>     8.8923    48.6908   552.3260 </r>
       <r>     9.0855    26.6404   560.1198 </r>
       <r>     9.2787    15.0818   563.7755 </r>
       <r>     9.4720    15.5132   566.6069 </r>
       <r>     9.6652    11.1826   569.4074 </r>
       <r>     9.8584     9.7969   571.0751 </r>
       <r>    10.0516     9.2997   572.7928 </r>
       <r>    10.2448    16.3511   574.8857 </r>
       <r>    10.4380    25.5804   580.0957 </r>
       <r>    10.6313    38.6730   586.8015 </r>
       <r>    10.8245    34.3209   593.5483 </r>
       <r>    11.0177    21.5996   597.6855 </r>
       <r>    11.2109    22.9571   602.3044 </r>
       <r>    11.4041    20.8804   606.8395 </r>
       <r>    11.5973    18.9454   611.1472 </r>
       <r>    11.7906    10.8993   614.0057 </r>
       <r>    11.9838     4.3530   615.4288 </r>
       <r>    12.1770     1.1138   615.9131 </r>
       <r>    12.3702     0.0529   615.9988 </r>
       <r>    12.5634     0.0000   616.0000 </r>
       <r>    12.7567     0.0000   616.0000 </r>
       <r>    12.9499     0.0000   616.0000 </r>
       <r>    13.1431     0.0000   616.0000 </r>
       <r>    13.3363     0.0000   616.0000 </r>
       <r>    13.5295     0.0000   616.0000 </r>
       <r>    13.7227     0.0000   616.0000 </r>
       <r>    13.9160     0.0000   616.0000 </r>
       <r>    14.1092     0.0000   616.0000 </r>
       <r>    14.3024     0.0000   616.0000 </r>
       <r>    14.4956     0.0000   616.0000 </r>
       <r>    14.6888     0.0000   616.0000 </r>
       <r>    14.8820     0.0000   616.0000 </r>
       <r>    15.0753     0.0000   616.0000 </r>
      </set>
     </set>
    </array>
   </total>
  </dos>
 </calculation>
 <structure name="finalpos" >
  <crystal>
   <varray name="basis" >
    <v>      11.17850000       0.00000000       0.00000000 </v>
    <v>       0.00000000       9.57460000       0.00000000 </v>
    <v>       0.00000000       0.00000000      11.18240000 </v>
   </varray>
   <i name="volume">   1196.84853820 </i>
   <varray name="rec_basis" >
    <v>       0.08945744       0.00000000       0.00000000 </v>
    <v>       0.00000000       0.10444301       0.00000000 </v>
    <v>       0.00000000       0.00000000       0.08942624 </v>
   </varray>
  </crystal>
  <varray name="positions" >
   <v>       0.37539000       0.00017000       0.43687000 </v>
   <v>       0.12461000       0.99984000       0.18687000 </v>
   <v>       0.37461000       0.00017000       0.18687000 </v>
   <v>       0.62539000       0.99984000       0.43687000 </v>
   <v>       0.87539000       0.00017000       0.43687000 </v>
   <v>       0.87461000       0.00017000       0.18687000 </v>
   <v>       0.37539000       0.00017000       0.93687000 </v>
   <v>       0.37461000       0.00017000       0.68687000 </v>
   <v>       0.62539000       0.99984000       0.93687000 </v>
   <v>       0.87539000       0.00017000       0.93687000 </v>
   <v>       0.62461000       0.99984000       0.68687000 </v>
   <v>       0.87461000       0.00017000       0.68687000 </v>
   <v>       0.62461000       0.99984000       0.18687000 </v>
   <v>       0.12461000       0.99984000       0.68687000 </v>
   <v>       0.00013000       0.29519000       0.06281000 </v>
   <v>       0.25013000       0.70481000       0.06281000 </v>
   <v>       0.24987000       0.29519000       0.31282000 </v>
   <v>       0.49987000       0.70481000       0.31282000 </v>
   <v>       0.50013000       0.29519000       0.06281000 </v>
   <v>       0.75013000       0.70481000       0.06281000 </v>
   <v>       0.74987000       0.29519000       0.31282000 </v>
   <v>       0.99987000       0.70481000       0.31282000 </v>
   <v>       0.00013000       0.29519000       0.56281000 </v>
   <v>       0.25013000       0.70481000       0.56281000 </v>
   <v>       0.24987000       0.29519000       0.81282000 </v>
   <v>       0.49987000       0.70481000       0.81282000 </v>
   <v>       0.50013000       0.29519000       0.56281000 </v>
   <v>       0.75013000       0.70481000       0.56281000 </v>
   <v>       0.74987000       0.29519000       0.81282000 </v>
   <v>       0.99987000       0.70481000       0.81282000 </v>
   <v>       0.25005000       0.32677000       0.06286000 </v>
   <v>       0.00005000       0.67323000       0.06286000 </v>
   <v>       0.49995000       0.32677000       0.31286000 </v>
   <v>       0.24995000       0.67323000       0.31286000 </v>
   <v>       0.75005000       0.32677000       0.06286000 </v>
   <v>       0.50005000       0.67323000       0.06286000 </v>
   <v>       0.99995000       0.32677000       0.31286000 </v>
   <v>       0.74995000       0.67323000       0.31286000 </v>
   <v>       0.25005000       0.32677000       0.56286000 </v>
   <v>       0.00005000       0.67323000       0.56286000 </v>
   <v>       0.49995000       0.32677000       0.81286000 </v>
   <v>       0.24995000       0.67323000       0.81286000 </v>
   <v>       0.75005000       0.32677000       0.56286000 </v>
   <v>       0.50005000       0.67323000       0.56286000 </v>
   <v>       0.99995000       0.32677000       0.81286000 </v>
   <v>       0.74995000       0.67323000       0.81286000 </v>
   <v>       0.49987000       0.07798000       0.06246000 </v>
   <v>       0.24987000       0.92202000       0.06246000 </v>
   <v>       0.25013000       0.07798000       0.31246000 </v>
   <v>       0.00013000       0.92202000       0.31246000 </v>
   <v>       0.99987000       0.07798000       0.06246000 </v>
   <v>       0.74987000       0.92202000       0.06246000 </v>
   <v>       0.75013000       0.07798000       0.31246000 </v>
   <v>       0.50013000       0.92202000       0.31246000 </v>
   <v>       0.49987000       0.07798000       0.56246000 </v>
   <v>       0.24987000       0.92202000       0.56246000 </v>
   <v>       0.25013000       0.07798000       0.81246000 </v>
   <v>       0.00013000       0.92202000       0.81246000 </v>
   <v>       0.99987000       0.07798000       0.56246000 </v>
   <v>       0.74987000       0.92202000       0.56246000 </v>
   <v>       0.75013000       0.07798000       0.81246000 </v>
   <v>       0.50013000       0.92202000       0.81246000 </v>
  </varray>
 </structure>
</modeling>
