<?xml version="1.0" encoding="ISO-8859-1"?>
<modeling>
 <generator>
  <i name="program" type="string">vasp </i>
  <i name="version" type="string">5.4.4.18Apr17-6-g9f103f2a35  </i>
  <i name="subversion" type="string">(build Jul 31 2017 11:33:29) complex            parallel </i>
  <i name="platform" type="string">LinuxIFC </i>
  <i name="date" type="string">2021 09 29 </i>
  <i name="time" type="string">02:02:38 </i>
 </generator>
 <incar>
  <i type="string" name="SYSTEM"> La2O2S</i>
  <i type="string" name="PREC">normal</i>
  <i type="int" name="NELMIN">     4</i>
  <i type="int" name="IBRION">     2</i>
  <i type="int" name="NFREE">    10</i>
  <i name="EDIFF">      0.00000100</i>
  <i name="EDIFFG">     -0.01000000</i>
  <i type="int" name="NSW">     1</i>
  <i type="int" name="ISIF">     2</i>
  <i name="ENCUT">    600.00000000</i>
  <i name="ENAUG">    900.00000000</i>
  <i type="int" name="ISMEAR">    -5</i>
  <i type="logical" name="LWAVE"> F  </i>
  <i type="logical" name="LCHARG"> F  </i>
  <v type="int" name="KPOINT_BSE">    -1     0     0     0</v>
 </incar>
 <structure name="primitive_cell" >
  <crystal>
   <varray name="basis" >
    <v>      11.17850000       0.00000000       0.00000000 </v>
    <v>       0.00000000       9.57460000       0.00000000 </v>
    <v>       0.00000000       0.00000000      11.18240000 </v>
   </varray>
   <i name="volume">   1196.84853820 </i>
   <varray name="rec_basis" >
    <v>       0.08945744       0.00000000       0.00000000 </v>
    <v>       0.00000000       0.10444301       0.00000000 </v>
    <v>       0.00000000       0.00000000       0.08942624 </v>
   </varray>
  </crystal>
  <varray name="positions" >
   <v>       0.37539000       0.00017000       0.43687000 </v>
   <v>      -0.49987000      -0.07798000       0.31246000 </v>
   <v>       0.25013000       0.07798000       0.31246000 </v>
   <v>       0.49987000       0.07798000      -0.43754000 </v>
   <v>       0.24987000      -0.07798000      -0.43754000 </v>
   <v>      -0.37461000      -0.00016000       0.43687000 </v>
   <v>       0.37461000       0.00017000       0.18687000 </v>
   <v>       0.49987000      -0.29519000       0.31282000 </v>
   <v>       0.24987000       0.29519000       0.31282000 </v>
   <v>      -0.49987000       0.29519000      -0.43719000 </v>
   <v>       0.25013000      -0.29519000      -0.43719000 </v>
   <v>       0.49995000       0.32677000       0.31286000 </v>
   <v>       0.24995000      -0.32677000       0.31286000 </v>
   <v>      -0.49995000      -0.32677000      -0.43714000 </v>
   <v>       0.25005000       0.32677000      -0.43714000 </v>
   <v>      -0.37539000      -0.00016000       0.18687000 </v>
   <v>      -0.37539000      -0.00016000      -0.31313000 </v>
   <v>       0.12461000      -0.00016000       0.18687000 </v>
   <v>       0.12461000      -0.00016000      -0.31313000 </v>
   <v>       0.49987000       0.07798000       0.06246000 </v>
   <v>      -0.24987000       0.07798000       0.31246000 </v>
   <v>      -0.25013000      -0.07798000      -0.43754000 </v>
   <v>       0.24987000      -0.07798000       0.06246000 </v>
   <v>       0.00013000      -0.07798000       0.31246000 </v>
   <v>      -0.49987000      -0.07798000      -0.18754000 </v>
   <v>      -0.00013000       0.07798000      -0.43754000 </v>
   <v>       0.25013000       0.07798000      -0.18754000 </v>
   <v>      -0.49987000       0.29519000       0.06281000 </v>
   <v>      -0.25013000       0.29519000       0.31282000 </v>
   <v>       0.25013000      -0.29519000       0.06281000 </v>
   <v>      -0.24987000      -0.29519000      -0.43719000 </v>
   <v>      -0.00013000      -0.29519000       0.31282000 </v>
   <v>       0.00013000       0.29519000      -0.43719000 </v>
   <v>       0.49987000      -0.29519000      -0.18718000 </v>
   <v>       0.24987000       0.29519000      -0.18718000 </v>
   <v>      -0.49995000      -0.32677000       0.06286000 </v>
   <v>       0.25005000       0.32677000       0.06286000 </v>
   <v>      -0.25005000      -0.32677000       0.31286000 </v>
   <v>      -0.24995000       0.32677000      -0.43714000 </v>
   <v>      -0.00005000       0.32677000       0.31286000 </v>
   <v>       0.00005000      -0.32677000      -0.43714000 </v>
   <v>       0.49995000       0.32677000      -0.18714000 </v>
   <v>       0.24995000      -0.32677000      -0.18714000 </v>
   <v>      -0.12461000       0.00017000       0.43687000 </v>
   <v>       0.37539000       0.00017000      -0.06313000 </v>
   <v>      -0.25013000      -0.07798000       0.06246000 </v>
   <v>      -0.00013000       0.07798000       0.06246000 </v>
   <v>      -0.24987000       0.07798000      -0.18754000 </v>
   <v>       0.00013000      -0.07798000      -0.18754000 </v>
   <v>      -0.12539000       0.00017000       0.18687000 </v>
   <v>       0.12539000      -0.00016000      -0.06313000 </v>
   <v>      -0.37461000      -0.00016000      -0.06313000 </v>
   <v>      -0.24987000      -0.29519000       0.06281000 </v>
   <v>       0.00013000       0.29519000       0.06281000 </v>
   <v>      -0.25013000       0.29519000      -0.18718000 </v>
   <v>      -0.00013000      -0.29519000      -0.18718000 </v>
   <v>      -0.24995000       0.32677000       0.06286000 </v>
   <v>       0.00005000      -0.32677000       0.06286000 </v>
   <v>      -0.25005000      -0.32677000      -0.18714000 </v>
   <v>      -0.00005000       0.32677000      -0.18714000 </v>
   <v>      -0.12461000       0.00017000      -0.06313000 </v>
  </varray>
 </structure>
 <varray name="primitive_index" >
  <v type="int" >        1 </v>
  <v type="int" >       53 </v>
  <v type="int" >       48 </v>
  <v type="int" >       54 </v>
  <v type="int" >       55 </v>
  <v type="int" >        4 </v>
  <v type="int" >        3 </v>
  <v type="int" >       17 </v>
  <v type="int" >       16 </v>
  <v type="int" >       26 </v>
  <v type="int" >       23 </v>
  <v type="int" >       32 </v>
  <v type="int" >       33 </v>
  <v type="int" >       43 </v>
  <v type="int" >       38 </v>
  <v type="int" >        5 </v>
  <v type="int" >       13 </v>
  <v type="int" >        2 </v>
  <v type="int" >       12 </v>
  <v type="int" >       46 </v>
  <v type="int" >       52 </v>
  <v type="int" >       59 </v>
  <v type="int" >       47 </v>
  <v type="int" >       49 </v>
  <v type="int" >       61 </v>
  <v type="int" >       58 </v>
  <v type="int" >       56 </v>
  <v type="int" >       18 </v>
  <v type="int" >       20 </v>
  <v type="int" >       15 </v>
  <v type="int" >       27 </v>
  <v type="int" >       21 </v>
  <v type="int" >       22 </v>
  <v type="int" >       25 </v>
  <v type="int" >       24 </v>
  <v type="int" >       35 </v>
  <v type="int" >       30 </v>
  <v type="int" >       37 </v>
  <v type="int" >       42 </v>
  <v type="int" >       36 </v>
  <v type="int" >       39 </v>
  <v type="int" >       40 </v>
  <v type="int" >       41 </v>
  <v type="int" >       11 </v>
  <v type="int" >        8 </v>
  <v type="int" >       51 </v>
  <v type="int" >       50 </v>
  <v type="int" >       60 </v>
  <v type="int" >       57 </v>
  <v type="int" >        6 </v>
  <v type="int" >        7 </v>
  <v type="int" >        9 </v>
  <v type="int" >       19 </v>
  <v type="int" >       14 </v>
  <v type="int" >       28 </v>
  <v type="int" >       29 </v>
  <v type="int" >       34 </v>
  <v type="int" >       31 </v>
  <v type="int" >       45 </v>
  <v type="int" >       44 </v>
  <v type="int" >       10 </v>
 </varray>
 <kpoints>
  <generation param="Gamma">
   <v type="int" name="divisions">       2        2        2 </v>
   <v name="usershift">      0.00000000       0.00000000       0.00000000 </v>
   <v name="genvec1">      0.50000000       0.00000000       0.00000000 </v>
   <v name="genvec2">      0.00000000       0.50000000       0.00000000 </v>
   <v name="genvec3">      0.00000000       0.00000000       0.50000000 </v>
   <v name="shift">      0.00000000       0.00000000       0.00000000 </v>
  </generation>
  <varray name="kpointlist" >
   <v>       0.00000000       0.00000000       0.00000000 </v>
   <v>       0.50000000       0.00000000       0.00000000 </v>
   <v>       0.00000000       0.50000000       0.00000000 </v>
   <v>       0.50000000       0.50000000       0.00000000 </v>
   <v>       0.00000000       0.00000000       0.50000000 </v>
   <v>       0.50000000       0.00000000       0.50000000 </v>
   <v>       0.00000000       0.50000000       0.50000000 </v>
   <v>       0.50000000       0.50000000       0.50000000 </v>
  </varray>
  <varray name="weights" >
   <v>       0.12500000 </v>
   <v>       0.12500000 </v>
   <v>       0.12500000 </v>
   <v>       0.12500000 </v>
   <v>       0.12500000 </v>
   <v>       0.12500000 </v>
   <v>       0.12500000 </v>
   <v>       0.12500000 </v>
  </varray>
  <varray name="tetrahedronlist"  type="int" >
   <v type="int" >        2        1        2        4        5 </v>
   <v type="int" >        2        1        3        4        5 </v>
   <v type="int" >        2        3        4        5        7 </v>
   <v type="int" >        2        2        4        5        6 </v>
   <v type="int" >        2        4        5        6        8 </v>
   <v type="int" >        2        4        5        7        8 </v>
   <v type="int" >        2        1        2        3        6 </v>
   <v type="int" >        2        2        3        4        6 </v>
   <v type="int" >        2        3        4        6        8 </v>
   <v type="int" >        2        1        3        5        6 </v>
   <v type="int" >        2        3        5        6        7 </v>
   <v type="int" >        2        3        6        7        8 </v>
   <v type="int" >        2        2        3        4        7 </v>
   <v type="int" >        2        1        2        3        7 </v>
   <v type="int" >        2        1        2        5        7 </v>
   <v type="int" >        2        2        4        7        8 </v>
   <v type="int" >        2        2        6        7        8 </v>
   <v type="int" >        2        2        5        6        7 </v>
   <v type="int" >        2        1        3        4        8 </v>
   <v type="int" >        2        1        2        4        8 </v>
   <v type="int" >        2        1        2        6        8 </v>
   <v type="int" >        2        1        3        7        8 </v>
   <v type="int" >        2        1        5        7        8 </v>
   <v type="int" >        2        1        5        6        8 </v>
  </varray>
  <i name="volumeweight">      0.02083333 </i>
 </kpoints>
 <parameters>
  <separator name="general" >
   <i type="string" name="SYSTEM">La2O2S</i>
   <i type="logical" name="LCOMPAT"> F  </i>
  </separator>
  <separator name="electronic" >
   <i type="string" name="PREC">normal</i>
   <i name="ENMAX">    600.00000000</i>
   <i name="ENAUG">    900.00000000</i>
   <i name="EDIFF">      0.00000100</i>
   <i type="int" name="IALGO">    38</i>
   <i type="int" name="IWAVPR">    11</i>
   <i type="int" name="NBANDS">   280</i>
   <i name="NELECT">    468.00000000</i>
   <i type="int" name="TURBO">     0</i>
   <i type="int" name="IRESTART">     0</i>
   <i type="int" name="NREBOOT">     0</i>
   <i type="int" name="NMIN">     0</i>
   <i name="EREF">      0.00000000</i>
   <separator name="electronic smearing" >
    <i type="int" name="ISMEAR">    -5</i>
    <i name="SIGMA">      0.20000000</i>
    <i name="KSPACING">      0.50000000</i>
    <i type="logical" name="KGAMMA"> T  </i>
   </separator>
   <separator name="electronic projectors" >
    <i type="logical" name="LREAL"> F  </i>
    <v name="ROPT">      0.00000000      0.00000000      0.00000000      0.00000000      0.00000000</v>
    <i type="int" name="LMAXPAW">  -100</i>
    <i type="int" name="LMAXMIX">     2</i>
    <i type="logical" name="NLSPLINE"> F  </i>
   </separator>
   <separator name="electronic startup" >
    <i type="int" name="ISTART">     0</i>
    <i type="int" name="ICHARG">     2</i>
    <i type="int" name="INIWAV">     1</i>
   </separator>
   <separator name="electronic spin" >
    <i type="int" name="ISPIN">     1</i>
    <i type="logical" name="LNONCOLLINEAR"> F  </i>
    <v name="MAGMOM">      1.00000000      1.00000000      1.00000000      1.00000000      1.00000000      1.00000000      1.00000000      1.00000000      1.00000000      1.00000000      1.00000000      1.00000000      1.00000000      1.00000000      1.00000000      1.00000000      1.00000000      1.00000000      1.00000000      1.00000000
      1.00000000      1.00000000      1.00000000      1.00000000      1.00000000      1.00000000      1.00000000      1.00000000      1.00000000      1.00000000      1.00000000      1.00000000      1.00000000      1.00000000      1.00000000      1.00000000      1.00000000      1.00000000      1.00000000      1.00000000
      1.00000000      1.00000000      1.00000000      1.00000000      1.00000000      1.00000000      1.00000000      1.00000000      1.00000000      1.00000000      1.00000000      1.00000000      1.00000000      1.00000000      1.00000000      1.00000000      1.00000000      1.00000000      1.00000000      1.00000000
      1.00000000</v>
    <i name="NUPDOWN">     -1.00000000</i>
    <i type="logical" name="LSORBIT"> F  </i>
    <v name="SAXIS">      0.00000000      0.00000000      1.00000000</v>
    <i type="logical" name="LSPIRAL"> F  </i>
    <v name="QSPIRAL">      0.00000000      0.00000000      0.00000000</v>
    <i type="logical" name="LZEROZ"> F  </i>
   </separator>
   <separator name="electronic exchange-correlation" >
    <i type="logical" name="LASPH"> F  </i>
    <i type="logical" name="LMETAGGA"> F  </i>
   </separator>
   <separator name="electronic convergence" >
    <i type="int" name="NELM">    60</i>
    <i type="int" name="NELMDL">    -5</i>
    <i type="int" name="NELMIN">     4</i>
    <i name="ENINI">    600.00000000</i>
    <separator name="electronic convergence detail" >
     <i type="logical" name="LDIAG"> T  </i>
     <i type="logical" name="LSUBROT"> F  </i>
     <i name="WEIMIN">      0.00100000</i>
     <i name="EBREAK">      0.00000000</i>
     <i name="DEPER">      0.30000000</i>
     <i type="int" name="NRMM">     4</i>
     <i name="TIME">      0.40000000</i>
    </separator>
   </separator>
   <separator name="electronic mixer" >
    <i name="AMIX">      0.40000000</i>
    <i name="BMIX">      1.00000000</i>
    <i name="AMIN">      0.10000000</i>
    <i name="AMIX_MAG">      1.60000000</i>
    <i name="BMIX_MAG">      1.00000000</i>
    <separator name="electronic mixer details" >
     <i type="int" name="IMIX">     4</i>
     <i type="logical" name="MIXFIRST"> F  </i>
     <i type="int" name="MAXMIX">   -45</i>
     <i name="WC">    100.00000000</i>
     <i type="int" name="INIMIX">     1</i>
     <i type="int" name="MIXPRE">     1</i>
     <i type="int" name="MREMOVE">     5</i>
    </separator>
   </separator>
   <separator name="electronic dipolcorrection" >
    <i type="logical" name="LDIPOL"> F  </i>
    <i type="logical" name="LMONO"> F  </i>
    <i type="int" name="IDIPOL">     0</i>
    <i name="EPSILON">      1.00000000</i>
    <v name="DIPOL">   -100.00000000   -100.00000000   -100.00000000</v>
    <i name="EFIELD">      0.00000000</i>
   </separator>
  </separator>
  <separator name="grids" >
   <i type="int" name="NGX">    70</i>
   <i type="int" name="NGY">    60</i>
   <i type="int" name="NGZ">    70</i>
   <i type="int" name="NGXF">   140</i>
   <i type="int" name="NGYF">   120</i>
   <i type="int" name="NGZF">   140</i>
   <i type="logical" name="ADDGRID"> F  </i>
  </separator>
  <separator name="ionic" >
   <i type="int" name="NSW">     1</i>
   <i type="int" name="IBRION">     2</i>
   <i type="int" name="MDALGO">     0</i>
   <i type="int" name="ISIF">     2</i>
   <i name="PSTRESS">      0.00000000</i>
   <i name="EDIFFG">     -0.01000000</i>
   <i type="int" name="NFREE">    10</i>
   <i name="POTIM">      0.50000000</i>
   <i name="SMASS">     -3.00000000</i>
   <i name="SCALEE">      1.00000000</i>
  </separator>
  <separator name="ionic md" >
   <i name="TEBEG">      0.00010000</i>
   <i name="TEEND">      0.00010000</i>
   <i type="int" name="NBLOCK">     1</i>
   <i type="int" name="KBLOCK">     1</i>
   <i type="int" name="NPACO">   256</i>
   <i name="APACO">     16.00000000</i>
  </separator>
  <separator name="symmetry" >
   <i type="int" name="ISYM">     2</i>
   <i name="SYMPREC">      0.00001000</i>
  </separator>
  <separator name="dos" >
   <i type="int" name="LORBIT">     0</i>
   <v name="RWIGS">     -1.00000000     -1.00000000     -1.00000000     -1.00000000     -1.00000000</v>
   <i type="int" name="NEDOS">   301</i>
   <i name="EMIN">     10.00000000</i>
   <i name="EMAX">    -10.00000000</i>
   <i name="EFERMI">      0.00000000</i>
  </separator>
  <separator name="writing" >
   <i type="int" name="NWRITE">     2</i>
   <i type="logical" name="LWAVE"> F  </i>
   <i type="logical" name="LDOWNSAMPLE"> F  </i>
   <i type="logical" name="LCHARG"> F  </i>
   <i type="logical" name="LPARD"> F  </i>
   <i type="logical" name="LVTOT"> F  </i>
   <i type="logical" name="LVHAR"> F  </i>
   <i type="logical" name="LELF"> F  </i>
   <i type="logical" name="LOPTICS"> F  </i>
   <v name="STM">      0.00000000      0.00000000      0.00000000      0.00000000      0.00000000      0.00000000      0.00000000</v>
  </separator>
  <separator name="performance" >
   <i type="int" name="NPAR">    28</i>
   <i type="int" name="NSIM">     4</i>
   <i type="int" name="NBLK">    -1</i>
   <i type="logical" name="LPLANE"> T  </i>
   <i type="logical" name="LSCALAPACK"> T  </i>
   <i type="logical" name="LSCAAWARE"> F  </i>
   <i type="logical" name="LSCALU"> F  </i>
   <i type="logical" name="LASYNC"> F  </i>
   <i type="logical" name="LORBITALREAL"> F  </i>
  </separator>
  <separator name="miscellaneous" >
   <i type="int" name="IDIOT">     3</i>
   <i type="int" name="ISPECIAL">     0</i>
   <i type="logical" name="LMUSIC"> F  </i>
   <v name="POMASS">      7.01000000     24.30500000    208.98000000     32.06600000     16.00000000</v>
   <v name="DARWINR">      0.00000000      0.00000000      0.00000000      0.00000000      0.00000000</v>
   <v name="DARWINV">      1.00000000      1.00000000      1.00000000      1.00000000      1.00000000</v>
   <i type="logical" name="LCORR"> T  </i>
  </separator>
  <i type="logical" name="GGA_COMPAT"> T  </i>
  <i type="logical" name="LBERRY"> F  </i>
  <i type="int" name="ICORELEVEL">     0</i>
  <i type="logical" name="LDAU"> F  </i>
  <i type="int" name="I_CONSTRAINED_M">     0</i>
  <separator name="electronic exchange-correlation" >
   <i type="string" name="GGA">--</i>
   <i type="int" name="VOSKOWN">     0</i>
   <i type="logical" name="LHFCALC"> F  </i>
   <i type="string" name="PRECFOCK"></i>
   <i type="logical" name="LSYMGRAD"> F  </i>
   <i type="logical" name="LHFONE"> F  </i>
   <i type="logical" name="LRHFCALC"> F  </i>
   <i type="logical" name="LTHOMAS"> F  </i>
   <i type="logical" name="LMODELHF"> F  </i>
   <i name="ENCUT4O">     -1.00000000</i>
   <i type="int" name="EXXOEP">     0</i>
   <i type="int" name="FOURORBIT">     0</i>
   <i name="AEXX">      0.00000000</i>
   <i name="HFALPHA">      0.00000000</i>
   <i name="MCALPHA">      0.00000000</i>
   <i name="ALDAX">      1.00000000</i>
   <i name="AGGAX">      1.00000000</i>
   <i name="ALDAC">      1.00000000</i>
   <i name="AGGAC">      1.00000000</i>
   <i type="int" name="NKREDX">     1</i>
   <i type="int" name="NKREDY">     1</i>
   <i type="int" name="NKREDZ">     1</i>
   <i type="logical" name="SHIFTRED"> F  </i>
   <i type="logical" name="ODDONLY"> F  </i>
   <i type="logical" name="EVENONLY"> F  </i>
   <i type="int" name="LMAXFOCK">     0</i>
   <i type="int" name="NMAXFOCKAE">     0</i>
   <i type="logical" name="LFOCKAEDFT"> F  </i>
   <i name="HFSCREEN">      0.00000000</i>
   <i name="HFSCREENC">      0.00000000</i>
   <i type="int" name="NBANDSGWLOW">     0</i>
  </separator>
  <separator name="vdW DFT" >
   <i type="logical" name="LUSE_VDW"> F  </i>
   <i name="Zab_VDW">     -0.84910000</i>
   <i name="PARAM1">      0.12340000</i>
   <i name="PARAM2">      1.00000000</i>
   <i name="PARAM3">      0.00000000</i>
  </separator>
  <separator name="model GW" >
   <i type="int" name="MODEL_GW">     0</i>
   <i name="MODEL_EPS0">     11.77228070</i>
   <i name="MODEL_ALPHA">      1.00000000</i>
  </separator>
  <separator name="linear response parameters" >
   <i type="logical" name="LEPSILON"> F  </i>
   <i type="logical" name="LRPA"> F  </i>
   <i type="logical" name="LNABLA"> F  </i>
   <i type="logical" name="LVEL"> F  </i>
   <i type="int" name="KINTER">     0</i>
   <i name="CSHIFT">      0.10000000</i>
   <i name="OMEGAMAX">     -1.00000000</i>
   <i name="DEG_THRESHOLD">      0.00200000</i>
   <i name="RTIME">     -0.10000000</i>
   <i name="WPLASMAI">      0.00000000</i>
   <v name="DFIELD">      0.00000000      0.00000000      0.00000000</v>
   <v name="WPLASMA">      0.00000000      0.00000000      0.00000000      0.00000000      0.00000000      0.00000000      0.00000000      0.00000000      0.00000000</v>
  </separator>
  <separator name="orbital magnetization" >
   <i type="logical" name="NUCIND"> F  </i>
   <v name="MAGPOS">      0.00000000      0.00000000      0.00000000</v>
   <i type="logical" name="LNICSALL"> T  </i>
   <i type="logical" name="ORBITALMAG"> F  </i>
   <i type="logical" name="LMAGBLOCH"> F  </i>
   <i type="logical" name="LCHIMAG"> F  </i>
   <i type="logical" name="LGAUGE"> T  </i>
   <i type="int" name="MAGATOM">     0</i>
   <v name="MAGDIPOL">      0.00000000      0.00000000      0.00000000</v>
   <v name="AVECCONST">      0.00000000      0.00000000      0.00000000</v>
  </separator>
  <separator name="response functions" >
   <i type="logical" name="LADDER"> F  </i>
   <i type="logical" name="LRPAFORCE"> F  </i>
   <i type="logical" name="LFXC"> F  </i>
   <i type="logical" name="LHARTREE"> T  </i>
   <i type="int" name="IBSE">     0</i>
   <v type="int" name="KPOINT">    -1     0     0     0</v>
   <i type="logical" name="LTCTE"> F  </i>
   <i type="logical" name="LTETE"> F  </i>
   <i type="logical" name="LTRIPLET"> F  </i>
   <i type="logical" name="LFXCEPS"> F  </i>
   <i type="logical" name="LFXHEG"> F  </i>
   <i type="int" name="NATURALO">     2</i>
   <i type="logical" name="L2ORDER"> F  </i>
   <i type="logical" name="LMP2LT"> F  </i>
   <i type="logical" name="LUSEW"> F  </i>
   <i name="ENCUTGW">     -2.00000000</i>
   <i name="ENCUTGWSOFT">     -2.00000000</i>
   <i name="ENCUTLF">     -1.00000000</i>
   <i type="int" name="LMAXMP2">    -1</i>
   <i name="SCISSOR">      0.00000000</i>
   <i type="int" name="NOMEGA">     0</i>
   <i type="int" name="NOMEGAR">     0</i>
   <i type="int" name="NBANDSGW">    -1</i>
   <i type="int" name="NBANDSO">    -1</i>
   <i type="int" name="NBANDSV">    -1</i>
   <i type="int" name="NELM">     1</i>
   <i type="int" name="NELMHF">     1</i>
   <i type="int" name="DIM">     3</i>
   <i type="int" name="ANTIRES">     0</i>
   <i name="OMEGAMAX">    -30.00000000</i>
   <i name="OMEGAMIN">    -30.00000000</i>
   <i name="OMEGATL">   -200.00000000</i>
   <i type="int" name="OMEGAGRID">   140</i>
   <i name="CSHIFT">     -0.10000000</i>
   <i type="logical" name="SELFENERGY"> F  </i>
   <i type="logical" name="LSPECTRAL"> F  </i>
   <i type="logical" name="LSPECTRALGW"> F  </i>
   <i type="logical" name="LSINGLES"> F  </i>
   <i type="logical" name="LFERMIGW"> F  </i>
   <i type="logical" name="ODDONLYGW"> F  </i>
   <i type="logical" name="EVENONLYGW"> F  </i>
   <i type="int" name="NKREDLFX">     1</i>
   <i type="int" name="NKREDLFY">     1</i>
   <i type="int" name="NKREDLFZ">     1</i>
   <i type="int" name="MAXMEM">  2800</i>
   <i type="int" name="TELESCOPE">     0</i>
   <i type="int" name="TAUPAR">     1</i>
   <i type="int" name="OMEGAPAR">    -1</i>
   <i name="LAMBDA">      1.00000000</i>
  </separator>
  <separator name="External order field" >
   <i name="OFIELD_KAPPA">      0.00000000</i>
   <v name="OFIELD_K">      0.00000000      0.00000000      0.00000000</v>
   <i name="OFIELD_Q6_NEAR">      0.00000000</i>
   <i name="OFIELD_Q6_FAR">      0.00000000</i>
   <i name="OFIELD_A">      0.00000000</i>
  </separator>
 </parameters>
 <atominfo>
  <atoms>      61 </atoms>
  <types>       5 </types>
  <array name="atoms" >
   <dimension dim="1">ion</dimension>
   <field type="string">element</field>
   <field type="int">atomtype</field>
   <set>
    <rc><c>Li</c><c>   1</c></rc>
    <rc><c>Li</c><c>   1</c></rc>
    <rc><c>Li</c><c>   1</c></rc>
    <rc><c>Li</c><c>   1</c></rc>
    <rc><c>Li</c><c>   1</c></rc>
    <rc><c>Li</c><c>   1</c></rc>
    <rc><c>Li</c><c>   1</c></rc>
    <rc><c>Li</c><c>   1</c></rc>
    <rc><c>Li</c><c>   1</c></rc>
    <rc><c>Li</c><c>   1</c></rc>
    <rc><c>Mg</c><c>   2</c></rc>
    <rc><c>Mg</c><c>   2</c></rc>
    <rc><c>Mg</c><c>   2</c></rc>
    <rc><c>Bi</c><c>   3</c></rc>
    <rc><c>Bi</c><c>   3</c></rc>
    <rc><c>Bi</c><c>   3</c></rc>
    <rc><c>Bi</c><c>   3</c></rc>
    <rc><c>Bi</c><c>   3</c></rc>
    <rc><c>Bi</c><c>   3</c></rc>
    <rc><c>Bi</c><c>   3</c></rc>
    <rc><c>Bi</c><c>   3</c></rc>
    <rc><c>Bi</c><c>   3</c></rc>
    <rc><c>Bi</c><c>   3</c></rc>
    <rc><c>Bi</c><c>   3</c></rc>
    <rc><c>Bi</c><c>   3</c></rc>
    <rc><c>Bi</c><c>   3</c></rc>
    <rc><c>Bi</c><c>   3</c></rc>
    <rc><c>Bi</c><c>   3</c></rc>
    <rc><c>Bi</c><c>   3</c></rc>
    <rc><c>S </c><c>   4</c></rc>
    <rc><c>S </c><c>   4</c></rc>
    <rc><c>S </c><c>   4</c></rc>
    <rc><c>S </c><c>   4</c></rc>
    <rc><c>S </c><c>   4</c></rc>
    <rc><c>S </c><c>   4</c></rc>
    <rc><c>S </c><c>   4</c></rc>
    <rc><c>S </c><c>   4</c></rc>
    <rc><c>S </c><c>   4</c></rc>
    <rc><c>S </c><c>   4</c></rc>
    <rc><c>S </c><c>   4</c></rc>
    <rc><c>S </c><c>   4</c></rc>
    <rc><c>S </c><c>   4</c></rc>
    <rc><c>S </c><c>   4</c></rc>
    <rc><c>S </c><c>   4</c></rc>
    <rc><c>S </c><c>   4</c></rc>
    <rc><c>O </c><c>   5</c></rc>
    <rc><c>O </c><c>   5</c></rc>
    <rc><c>O </c><c>   5</c></rc>
    <rc><c>O </c><c>   5</c></rc>
    <rc><c>O </c><c>   5</c></rc>
    <rc><c>O </c><c>   5</c></rc>
    <rc><c>O </c><c>   5</c></rc>
    <rc><c>O </c><c>   5</c></rc>
    <rc><c>O </c><c>   5</c></rc>
    <rc><c>O </c><c>   5</c></rc>
    <rc><c>O </c><c>   5</c></rc>
    <rc><c>O </c><c>   5</c></rc>
    <rc><c>O </c><c>   5</c></rc>
    <rc><c>O </c><c>   5</c></rc>
    <rc><c>O </c><c>   5</c></rc>
    <rc><c>O </c><c>   5</c></rc>
   </set>
  </array>
  <array name="atomtypes" >
   <dimension dim="1">type</dimension>
   <field type="int">atomspertype</field>
   <field type="string">element</field>
   <field>mass</field>
   <field>valence</field>
   <field type="string">pseudopotential</field>
   <set>
    <rc><c>  10</c><c>Li</c><c>      7.01000000</c><c>      3.00000000</c><c>  PAW_PBE Li_sv 10Sep2004               </c></rc>
    <rc><c>   3</c><c>Mg</c><c>     24.30500000</c><c>      2.00000000</c><c>  PAW_PBE Mg 13Apr2007                  </c></rc>
    <rc><c>  16</c><c>Bi</c><c>    208.98000000</c><c>     15.00000000</c><c>  PAW_PBE Bi_d 06Sep2000                </c></rc>
    <rc><c>  16</c><c>S </c><c>     32.06600000</c><c>      6.00000000</c><c>  PAW_PBE S 06Sep2000                   </c></rc>
    <rc><c>  16</c><c>O </c><c>     16.00000000</c><c>      6.00000000</c><c>  PAW_PBE O 08Apr2002                   </c></rc>
   </set>
  </array>
 </atominfo>
 <structure name="initialpos" >
  <crystal>
   <varray name="basis" >
    <v>      11.17850000       0.00000000       0.00000000 </v>
    <v>       0.00000000       9.57460000       0.00000000 </v>
    <v>       0.00000000       0.00000000      11.18240000 </v>
   </varray>
   <i name="volume">   1196.84853820 </i>
   <varray name="rec_basis" >
    <v>       0.08945744       0.00000000       0.00000000 </v>
    <v>       0.00000000       0.10444301       0.00000000 </v>
    <v>       0.00000000       0.00000000       0.08942624 </v>
   </varray>
  </crystal>
  <varray name="positions" >
   <v>       0.37539000       0.00017000       0.43687000 </v>
   <v>       0.12461000       0.99984000       0.18687000 </v>
   <v>       0.37461000       0.00017000       0.18687000 </v>
   <v>       0.62539000       0.99984000       0.43687000 </v>
   <v>       0.62461000       0.99984000       0.18687000 </v>
   <v>       0.87461000       0.00017000       0.18687000 </v>
   <v>       0.12539000       0.99984000       0.93687000 </v>
   <v>       0.37539000       0.00017000       0.93687000 </v>
   <v>       0.62539000       0.99984000       0.93687000 </v>
   <v>       0.87539000       0.00017000       0.93687000 </v>
   <v>       0.87539000       0.00017000       0.43687000 </v>
   <v>       0.12461000       0.99984000       0.68687000 </v>
   <v>       0.62461000       0.99984000       0.68687000 </v>
   <v>       0.00013000       0.29519000       0.06281000 </v>
   <v>       0.25013000       0.70481000       0.06281000 </v>
   <v>       0.24987000       0.29519000       0.31282000 </v>
   <v>       0.49987000       0.70481000       0.31282000 </v>
   <v>       0.50013000       0.29519000       0.06281000 </v>
   <v>       0.75013000       0.70481000       0.06281000 </v>
   <v>       0.74987000       0.29519000       0.31282000 </v>
   <v>       0.99987000       0.70481000       0.31282000 </v>
   <v>       0.00013000       0.29519000       0.56281000 </v>
   <v>       0.25013000       0.70481000       0.56281000 </v>
   <v>       0.24987000       0.29519000       0.81282000 </v>
   <v>       0.49987000       0.70481000       0.81282000 </v>
   <v>       0.50013000       0.29519000       0.56281000 </v>
   <v>       0.75013000       0.70481000       0.56281000 </v>
   <v>       0.74987000       0.29519000       0.81282000 </v>
   <v>       0.99987000       0.70481000       0.81282000 </v>
   <v>       0.25005000       0.32677000       0.06286000 </v>
   <v>       0.00005000       0.67323000       0.06286000 </v>
   <v>       0.49995000       0.32677000       0.31286000 </v>
   <v>       0.24995000       0.67323000       0.31286000 </v>
   <v>       0.75005000       0.32677000       0.06286000 </v>
   <v>       0.50005000       0.67323000       0.06286000 </v>
   <v>       0.99995000       0.32677000       0.31286000 </v>
   <v>       0.74995000       0.67323000       0.31286000 </v>
   <v>       0.25005000       0.32677000       0.56286000 </v>
   <v>       0.00005000       0.67323000       0.56286000 </v>
   <v>       0.49995000       0.32677000       0.81286000 </v>
   <v>       0.24995000       0.67323000       0.81286000 </v>
   <v>       0.75005000       0.32677000       0.56286000 </v>
   <v>       0.50005000       0.67323000       0.56286000 </v>
   <v>       0.99995000       0.32677000       0.81286000 </v>
   <v>       0.74995000       0.67323000       0.81286000 </v>
   <v>       0.49987000       0.07798000       0.06246000 </v>
   <v>       0.24987000       0.92202000       0.06246000 </v>
   <v>       0.25013000       0.07798000       0.31246000 </v>
   <v>       0.00013000       0.92202000       0.31246000 </v>
   <v>       0.99987000       0.07798000       0.06246000 </v>
   <v>       0.74987000       0.92202000       0.06246000 </v>
   <v>       0.75013000       0.07798000       0.31246000 </v>
   <v>       0.50013000       0.92202000       0.31246000 </v>
   <v>       0.49987000       0.07798000       0.56246000 </v>
   <v>       0.24987000       0.92202000       0.56246000 </v>
   <v>       0.25013000       0.07798000       0.81246000 </v>
   <v>       0.00013000       0.92202000       0.81246000 </v>
   <v>       0.99987000       0.07798000       0.56246000 </v>
   <v>       0.74987000       0.92202000       0.56246000 </v>
   <v>       0.75013000       0.07798000       0.81246000 </v>
   <v>       0.50013000       0.92202000       0.81246000 </v>
  </varray>
 </structure>
 <calculation>
  <scstep>
   <time name="dav">   59.74   59.99</time>
   <time name="total">   59.83   60.08</time>
   <energy>
    <i name="alphaZ">   1073.51873187 </i>
    <i name="ewald"> -30858.16535883 </i>
    <i name="hartreedc"> -12730.46251370 </i>
    <i name="XCdc">   1394.96692015 </i>
    <i name="pawpsdc">  36823.70205594 </i>
    <i name="pawaedc"> -36326.52930246 </i>
    <i name="eentropy">      0.00000000 </i>
    <i name="bandstr">   1803.66522222 </i>
    <i name="atom">  44791.06186932 </i>
    <i name="e_fr_energy">   5971.75762452 </i>
    <i name="e_wo_entrp">   5971.75762452 </i>
    <i name="e_0_energy">   5971.75762452 </i>
   </energy>
  </scstep>
  <scstep>
   <time name="dav">   60.11   60.25</time>
   <time name="total">   60.12   60.26</time>
   <energy>
    <i name="e_fr_energy">    810.45841357 </i>
    <i name="e_wo_entrp">    810.45841357 </i>
    <i name="e_0_energy">    810.45841357 </i>
   </energy>
  </scstep>
  <scstep>
   <time name="dav">   68.72   68.80</time>
   <time name="total">   68.72   68.80</time>
   <energy>
    <i name="e_fr_energy">   -240.62291146 </i>
    <i name="e_wo_entrp">   -240.62291146 </i>
    <i name="e_0_energy">   -240.62291146 </i>
   </energy>
  </scstep>
  <scstep>
   <time name="dav">   71.67   71.91</time>
   <time name="total">   71.68   71.91</time>
   <energy>
    <i name="e_fr_energy">   -346.68138604 </i>
    <i name="e_wo_entrp">   -346.68138604 </i>
    <i name="e_0_energy">   -346.68138604 </i>
   </energy>
  </scstep>
  <scstep>
   <time name="dav">   96.86   97.09</time>
   <time name="total">   97.58   97.81</time>
   <energy>
    <i name="e_fr_energy">   -355.63630169 </i>
    <i name="e_wo_entrp">   -355.63630169 </i>
    <i name="e_0_energy">   -355.63630169 </i>
   </energy>
  </scstep>
  <scstep>
   <time name="dav">   84.85   85.06</time>
   <time name="total">   85.64   85.85</time>
   <energy>
    <i name="e_fr_energy">   -296.86403662 </i>
    <i name="e_wo_entrp">   -296.86403662 </i>
    <i name="e_0_energy">   -296.86403662 </i>
   </energy>
  </scstep>
  <scstep>
   <time name="dav">   66.78   66.97</time>
   <time name="total">   67.63   67.82</time>
   <energy>
    <i name="e_fr_energy">   -299.64349751 </i>
    <i name="e_wo_entrp">   -299.64349751 </i>
    <i name="e_0_energy">   -299.64349751 </i>
   </energy>
  </scstep>
  <scstep>
   <time name="dav">   76.43   76.54</time>
   <time name="total">   77.22   77.34</time>
   <energy>
    <i name="e_fr_energy">   -298.38262812 </i>
    <i name="e_wo_entrp">   -298.38262812 </i>
    <i name="e_0_energy">   -298.38262812 </i>
   </energy>
  </scstep>
  <scstep>
   <time name="dav">   75.13   75.41</time>
   <time name="total">   75.92   76.20</time>
   <energy>
    <i name="e_fr_energy">   -297.70574480 </i>
    <i name="e_wo_entrp">   -297.70574480 </i>
    <i name="e_0_energy">   -297.70574480 </i>
   </energy>
  </scstep>
  <scstep>
   <time name="dav">   73.10   73.46</time>
   <time name="total">   73.89   74.26</time>
   <energy>
    <i name="e_fr_energy">   -297.74065980 </i>
    <i name="e_wo_entrp">   -297.74065980 </i>
    <i name="e_0_energy">   -297.74065980 </i>
   </energy>
  </scstep>
  <scstep>
   <time name="dav">   81.07   81.34</time>
   <time name="total">   81.86   82.14</time>
   <energy>
    <i name="e_fr_energy">   -297.74887551 </i>
    <i name="e_wo_entrp">   -297.74887551 </i>
    <i name="e_0_energy">   -297.74887551 </i>
   </energy>
  </scstep>
  <scstep>
   <time name="dav">   82.27   82.44</time>
   <time name="total">   83.05   83.23</time>
   <energy>
    <i name="e_fr_energy">   -297.75230116 </i>
    <i name="e_wo_entrp">   -297.75230116 </i>
    <i name="e_0_energy">   -297.75230116 </i>
   </energy>
  </scstep>
  <scstep>
   <time name="dav">   70.22   70.44</time>
   <time name="total">   71.10   71.33</time>
   <energy>
    <i name="e_fr_energy">   -297.75343103 </i>
    <i name="e_wo_entrp">   -297.75343103 </i>
    <i name="e_0_energy">   -297.75343103 </i>
   </energy>
  </scstep>
  <scstep>
   <time name="dav">   79.30   79.51</time>
   <time name="total">   80.09   80.30</time>
   <energy>
    <i name="e_fr_energy">   -297.75360498 </i>
    <i name="e_wo_entrp">   -297.75360498 </i>
    <i name="e_0_energy">   -297.75360498 </i>
   </energy>
  </scstep>
  <scstep>
   <time name="dav">   79.15   79.37</time>
   <time name="total">   79.93   80.15</time>
   <energy>
    <i name="e_fr_energy">   -297.75364172 </i>
    <i name="e_wo_entrp">   -297.75364172 </i>
    <i name="e_0_energy">   -297.75364172 </i>
   </energy>
  </scstep>
  <scstep>
   <time name="dav">   63.78   63.88</time>
   <time name="total">   64.60   64.71</time>
   <energy>
    <i name="e_fr_energy">   -297.75366236 </i>
    <i name="e_wo_entrp">   -297.75366236 </i>
    <i name="e_0_energy">   -297.75366236 </i>
   </energy>
  </scstep>
  <scstep>
   <time name="dav">   65.81   66.00</time>
   <time name="total">   66.61   66.80</time>
   <energy>
    <i name="e_fr_energy">   -297.75366522 </i>
    <i name="e_wo_entrp">   -297.75366522 </i>
    <i name="e_0_energy">   -297.75366522 </i>
   </energy>
  </scstep>
  <scstep>
   <time name="dav">   60.41   60.50</time>
   <time name="total">   60.50   60.59</time>
   <energy>
    <i name="alphaZ">   1073.51873187 </i>
    <i name="ewald"> -30858.16535883 </i>
    <i name="hartreedc"> -12970.16718726 </i>
    <i name="XCdc">   1418.59883502 </i>
    <i name="pawpsdc">  43855.03854420 </i>
    <i name="pawaedc"> -43332.59962927 </i>
    <i name="eentropy">      0.00000000 </i>
    <i name="bandstr">  -4275.03947075 </i>
    <i name="atom">  44791.06186932 </i>
    <i name="e_fr_energy">   -297.75366571 </i>
    <i name="e_wo_entrp">   -297.75366571 </i>
    <i name="e_0_energy">   -297.75366571 </i>
   </energy>
  </scstep>
  <structure>
   <crystal>
    <varray name="basis" >
     <v>      11.17850000       0.00000000       0.00000000 </v>
     <v>       0.00000000       9.57460000       0.00000000 </v>
     <v>       0.00000000       0.00000000      11.18240000 </v>
    </varray>
    <i name="volume">   1196.84853820 </i>
    <varray name="rec_basis" >
     <v>       0.08945744       0.00000000       0.00000000 </v>
     <v>       0.00000000       0.10444301       0.00000000 </v>
     <v>       0.00000000       0.00000000       0.08942624 </v>
    </varray>
   </crystal>
   <varray name="positions" >
    <v>       0.37539000       0.00017000       0.43687000 </v>
    <v>       0.12461000       0.99984000       0.18687000 </v>
    <v>       0.37461000       0.00017000       0.18687000 </v>
    <v>       0.62539000       0.99984000       0.43687000 </v>
    <v>       0.62461000       0.99984000       0.18687000 </v>
    <v>       0.87461000       0.00017000       0.18687000 </v>
    <v>       0.12539000       0.99984000       0.93687000 </v>
    <v>       0.37539000       0.00017000       0.93687000 </v>
    <v>       0.62539000       0.99984000       0.93687000 </v>
    <v>       0.87539000       0.00017000       0.93687000 </v>
    <v>       0.87539000       0.00017000       0.43687000 </v>
    <v>       0.12461000       0.99984000       0.68687000 </v>
    <v>       0.62461000       0.99984000       0.68687000 </v>
    <v>       0.00013000       0.29519000       0.06281000 </v>
    <v>       0.25013000       0.70481000       0.06281000 </v>
    <v>       0.24987000       0.29519000       0.31282000 </v>
    <v>       0.49987000       0.70481000       0.31282000 </v>
    <v>       0.50013000       0.29519000       0.06281000 </v>
    <v>       0.75013000       0.70481000       0.06281000 </v>
    <v>       0.74987000       0.29519000       0.31282000 </v>
    <v>       0.99987000       0.70481000       0.31282000 </v>
    <v>       0.00013000       0.29519000       0.56281000 </v>
    <v>       0.25013000       0.70481000       0.56281000 </v>
    <v>       0.24987000       0.29519000       0.81282000 </v>
    <v>       0.49987000       0.70481000       0.81282000 </v>
    <v>       0.50013000       0.29519000       0.56281000 </v>
    <v>       0.75013000       0.70481000       0.56281000 </v>
    <v>       0.74987000       0.29519000       0.81282000 </v>
    <v>       0.99987000       0.70481000       0.81282000 </v>
    <v>       0.25005000       0.32677000       0.06286000 </v>
    <v>       0.00005000       0.67323000       0.06286000 </v>
    <v>       0.49995000       0.32677000       0.31286000 </v>
    <v>       0.24995000       0.67323000       0.31286000 </v>
    <v>       0.75005000       0.32677000       0.06286000 </v>
    <v>       0.50005000       0.67323000       0.06286000 </v>
    <v>       0.99995000       0.32677000       0.31286000 </v>
    <v>       0.74995000       0.67323000       0.31286000 </v>
    <v>       0.25005000       0.32677000       0.56286000 </v>
    <v>       0.00005000       0.67323000       0.56286000 </v>
    <v>       0.49995000       0.32677000       0.81286000 </v>
    <v>       0.24995000       0.67323000       0.81286000 </v>
    <v>       0.75005000       0.32677000       0.56286000 </v>
    <v>       0.50005000       0.67323000       0.56286000 </v>
    <v>       0.99995000       0.32677000       0.81286000 </v>
    <v>       0.74995000       0.67323000       0.81286000 </v>
    <v>       0.49987000       0.07798000       0.06246000 </v>
    <v>       0.24987000       0.92202000       0.06246000 </v>
    <v>       0.25013000       0.07798000       0.31246000 </v>
    <v>       0.00013000       0.92202000       0.31246000 </v>
    <v>       0.99987000       0.07798000       0.06246000 </v>
    <v>       0.74987000       0.92202000       0.06246000 </v>
    <v>       0.75013000       0.07798000       0.31246000 </v>
    <v>       0.50013000       0.92202000       0.31246000 </v>
    <v>       0.49987000       0.07798000       0.56246000 </v>
    <v>       0.24987000       0.92202000       0.56246000 </v>
    <v>       0.25013000       0.07798000       0.81246000 </v>
    <v>       0.00013000       0.92202000       0.81246000 </v>
    <v>       0.99987000       0.07798000       0.56246000 </v>
    <v>       0.74987000       0.92202000       0.56246000 </v>
    <v>       0.75013000       0.07798000       0.81246000 </v>
    <v>       0.50013000       0.92202000       0.81246000 </v>
   </varray>
  </structure>
  <varray name="forces" >
   <v>      -0.54145004      -0.00038958       0.33343506 </v>
   <v>       0.12836182       0.06671555       0.41628772 </v>
   <v>      -0.19099976       0.06138148       0.16106529 </v>
   <v>      -0.52412265      -0.00427269      -0.14509258 </v>
   <v>      -0.11581179      -0.06760186      -0.09175019 </v>
   <v>       0.20714348      -0.06502512      -0.32037718 </v>
   <v>       0.03706657      -0.00005323       0.15552585 </v>
   <v>      -0.04138942       0.00100816      -0.32820089 </v>
   <v>      -0.04150863       0.00225143       0.15746641 </v>
   <v>       0.02211913      -0.00055028      -0.33149096 </v>
   <v>       1.05504004      -0.00543414       0.67092976 </v>
   <v>       0.26243909      -0.10849774      -0.75837534 </v>
   <v>      -0.22676985       0.12408241       0.22896517 </v>
   <v>       0.14768124       0.02049903      -0.00871929 </v>
   <v>      -0.00636075      -0.00279009       0.05589899 </v>
   <v>      -0.08615233      -1.02075039       0.11885560 </v>
   <v>      -0.24042344      -0.02668197      -0.03624240 </v>
   <v>      -0.15075696       0.00355549       0.02042124 </v>
   <v>      -0.01519387      -0.03715184      -0.04794086 </v>
   <v>      -0.10533601       1.06817138      -0.17233479 </v>
   <v>       0.45697677      -0.01256591       0.00616726 </v>
   <v>       0.24327915      -0.08870798      -0.00952722 </v>
   <v>       0.07103927       1.05589162      -0.12762232 </v>
   <v>       0.19197462      -0.02948039      -0.06401080 </v>
   <v>      -0.32719538       0.00596380      -0.02420639 </v>
   <v>      -0.44596919       0.01906231       0.02142881 </v>
   <v>       0.10484770      -0.98459192       0.16561848 </v>
   <v>       0.18899747       0.00144582       0.03678829 </v>
   <v>      -0.03076219       0.01366511      -0.00594158 </v>
   <v>       0.00063383       0.22736312      -0.09800903 </v>
   <v>      -0.08022994      -0.18906084       0.00621642 </v>
   <v>       0.26480789       0.19146295      -0.00578962 </v>
   <v>       0.02675804      -0.19899750      -0.13243780 </v>
   <v>      -0.00090376       0.15049297       0.09077145 </v>
   <v>       0.07689078      -0.18406120       0.00792028 </v>
   <v>      -0.32327769       0.11524108       0.01366310 </v>
   <v>       0.03716643      -0.10597488       0.11152992 </v>
   <v>      -0.03518896       0.14994446       0.13731337 </v>
   <v>      -0.26210158      -0.08728574      -0.01385671 </v>
   <v>       0.13621651       0.13784941      -0.02669535 </v>
   <v>      -0.05533566      -0.18060311       0.08651711 </v>
   <v>      -0.02550848       0.05915749      -0.10576306 </v>
   <v>       0.31967377      -0.12123883       0.02613530 </v>
   <v>      -0.02031190       0.14586641      -0.00699803 </v>
   <v>      -0.06046284      -0.10596208      -0.09481300 </v>
   <v>       0.09462946      -0.01851211       0.00204245 </v>
   <v>       0.00614032      -0.03321437      -0.07018917 </v>
   <v>       0.59893334       0.84154278      -0.66687714 </v>
   <v>      -1.32505678       0.00826422      -0.11669490 </v>
   <v>      -0.08186004      -0.02136554       0.00568224 </v>
   <v>       0.00323776       0.07919491       0.08257863 </v>
   <v>       0.46309084      -0.85248134       0.55347251 </v>
   <v>       0.23576488       0.02728610      -0.00463492 </v>
   <v>       1.32567225      -0.00512061      -0.13182624 </v>
   <v>      -0.48552986      -0.99275756       0.52874015 </v>
   <v>      -1.10956877       0.09627375       0.20035321 </v>
   <v>       1.00937317      -0.05842296       0.16273215 </v>
   <v>      -0.22520775       0.27951981      -0.06404146 </v>
   <v>      -0.59373836       0.70266528      -0.73804052 </v>
   <v>      -1.11304144      -0.00883291       0.06269211 </v>
   <v>       1.17157045      -0.03738161       0.12128541 </v>
  </varray>
  <varray name="stress" >
   <v>     -11.59632028      -0.19844050      -0.04237929 </v>
   <v>      -0.19844092     -14.12561189      -0.19755016 </v>
   <v>      -0.04237936      -0.19755044      -7.18694573 </v>
  </varray>
  <energy>
   <i name="e_fr_energy">   -312.44034668 </i>
   <i name="e_wo_entrp">   -312.44034668 </i>
   <i name="e_0_energy">      0.00000000 </i>
  </energy>
  <time name="totalsc"> 1432.82 1436.78</time>
  <eigenvalues>
   <array>
    <dimension dim="1">band</dimension>
    <dimension dim="2">kpoint</dimension>
    <dimension dim="3">spin</dimension>
    <field>eigene</field>
    <field>occ</field>
    <set>
     <set comment="spin 1">
      <set comment="kpoint 1">
       <r>  -40.2638    1.0000 </r>
       <r>  -40.0592    1.0000 </r>
       <r>  -40.0079    1.0000 </r>
       <r>  -39.8826    1.0000 </r>
       <r>  -39.8016    1.0000 </r>
       <r>  -39.7864    1.0000 </r>
       <r>  -39.7142    1.0000 </r>
       <r>  -39.5954    1.0000 </r>
       <r>  -39.5618    1.0000 </r>
       <r>  -39.3688    1.0000 </r>
       <r>  -18.9250    1.0000 </r>
       <r>  -18.9124    1.0000 </r>
       <r>  -18.8536    1.0000 </r>
       <r>  -18.8466    1.0000 </r>
       <r>  -18.8432    1.0000 </r>
       <r>  -18.8360    1.0000 </r>
       <r>  -18.7508    1.0000 </r>
       <r>  -18.7431    1.0000 </r>
       <r>  -18.7376    1.0000 </r>
       <r>  -18.7208    1.0000 </r>
       <r>  -18.7067    1.0000 </r>
       <r>  -18.7059    1.0000 </r>
       <r>  -18.6966    1.0000 </r>
       <r>  -18.6963    1.0000 </r>
       <r>  -18.6884    1.0000 </r>
       <r>  -18.6875    1.0000 </r>
       <r>  -18.6446    1.0000 </r>
       <r>  -18.6422    1.0000 </r>
       <r>  -18.6404    1.0000 </r>
       <r>  -18.6380    1.0000 </r>
       <r>  -18.6362    1.0000 </r>
       <r>  -18.6353    1.0000 </r>
       <r>  -18.6334    1.0000 </r>
       <r>  -18.6330    1.0000 </r>
       <r>  -18.6316    1.0000 </r>
       <r>  -18.6314    1.0000 </r>
       <r>  -18.6288    1.0000 </r>
       <r>  -18.6285    1.0000 </r>
       <r>  -18.6274    1.0000 </r>
       <r>  -18.6251    1.0000 </r>
       <r>  -18.6243    1.0000 </r>
       <r>  -18.6241    1.0000 </r>
       <r>  -18.6226    1.0000 </r>
       <r>  -18.6222    1.0000 </r>
       <r>  -18.6190    1.0000 </r>
       <r>  -18.6179    1.0000 </r>
       <r>  -18.6177    1.0000 </r>
       <r>  -18.6143    1.0000 </r>
       <r>  -18.6129    1.0000 </r>
       <r>  -18.6036    1.0000 </r>
       <r>  -18.5574    1.0000 </r>
       <r>  -18.5565    1.0000 </r>
       <r>  -18.5493    1.0000 </r>
       <r>  -18.5450    1.0000 </r>
       <r>  -18.5442    1.0000 </r>
       <r>  -18.5433    1.0000 </r>
       <r>  -18.5350    1.0000 </r>
       <r>  -18.5334    1.0000 </r>
       <r>  -18.5313    1.0000 </r>
       <r>  -18.5303    1.0000 </r>
       <r>  -18.4907    1.0000 </r>
       <r>  -18.4876    1.0000 </r>
       <r>  -18.4842    1.0000 </r>
       <r>  -18.4781    1.0000 </r>
       <r>  -18.4756    1.0000 </r>
       <r>  -18.4747    1.0000 </r>
       <r>  -18.4738    1.0000 </r>
       <r>  -18.4729    1.0000 </r>
       <r>  -18.4722    1.0000 </r>
       <r>  -18.4698    1.0000 </r>
       <r>  -18.4690    1.0000 </r>
       <r>  -18.4682    1.0000 </r>
       <r>  -18.4678    1.0000 </r>
       <r>  -18.4676    1.0000 </r>
       <r>  -18.4642    1.0000 </r>
       <r>  -18.4460    1.0000 </r>
       <r>  -18.4000    1.0000 </r>
       <r>  -18.3947    1.0000 </r>
       <r>  -18.3883    1.0000 </r>
       <r>  -18.3834    1.0000 </r>
       <r>  -18.3825    1.0000 </r>
       <r>  -18.3817    1.0000 </r>
       <r>  -18.3753    1.0000 </r>
       <r>  -18.3698    1.0000 </r>
       <r>  -18.2962    1.0000 </r>
       <r>  -18.2923    1.0000 </r>
       <r>  -18.1832    1.0000 </r>
       <r>  -18.1813    1.0000 </r>
       <r>  -18.1675    1.0000 </r>
       <r>  -18.1561    1.0000 </r>
       <r>  -13.5584    1.0000 </r>
       <r>  -13.4516    1.0000 </r>
       <r>  -12.8731    1.0000 </r>
       <r>  -12.7880    1.0000 </r>
       <r>  -12.7537    1.0000 </r>
       <r>  -12.7445    1.0000 </r>
       <r>  -12.7151    1.0000 </r>
       <r>  -12.6874    1.0000 </r>
       <r>  -12.6671    1.0000 </r>
       <r>  -12.6584    1.0000 </r>
       <r>  -12.6242    1.0000 </r>
       <r>  -12.6088    1.0000 </r>
       <r>  -12.5770    1.0000 </r>
       <r>  -12.5286    1.0000 </r>
       <r>  -11.9666    1.0000 </r>
       <r>  -11.9105    1.0000 </r>
       <r>   -9.3158    1.0000 </r>
       <r>   -9.0213    1.0000 </r>
       <r>   -8.5220    1.0000 </r>
       <r>   -8.4903    1.0000 </r>
       <r>   -8.4750    1.0000 </r>
       <r>   -8.4318    1.0000 </r>
       <r>   -8.2999    1.0000 </r>
       <r>   -8.2701    1.0000 </r>
       <r>   -8.2487    1.0000 </r>
       <r>   -8.2078    1.0000 </r>
       <r>   -8.0188    1.0000 </r>
       <r>   -8.0177    1.0000 </r>
       <r>   -7.9816    1.0000 </r>
       <r>   -7.9811    1.0000 </r>
       <r>   -7.3459    1.0000 </r>
       <r>   -7.3453    1.0000 </r>
       <r>   -6.3601    1.0000 </r>
       <r>   -6.3549    1.0000 </r>
       <r>   -6.3328    1.0000 </r>
       <r>   -6.3267    1.0000 </r>
       <r>   -5.5160    1.0000 </r>
       <r>   -5.4806    1.0000 </r>
       <r>   -5.3472    1.0000 </r>
       <r>   -5.3319    1.0000 </r>
       <r>   -5.3246    1.0000 </r>
       <r>   -5.2401    1.0000 </r>
       <r>   -5.1943    1.0000 </r>
       <r>   -5.1607    1.0000 </r>
       <r>   -5.1119    1.0000 </r>
       <r>   -5.0446    1.0000 </r>
       <r>   -3.7954    1.0000 </r>
       <r>   -3.6415    1.0000 </r>
       <r>   -1.4374    1.0000 </r>
       <r>   -1.3003    1.0000 </r>
       <r>   -1.0906    1.0000 </r>
       <r>   -0.9925    1.0000 </r>
       <r>   -0.5347    1.0000 </r>
       <r>   -0.5015    1.0000 </r>
       <r>   -0.4845    1.0000 </r>
       <r>   -0.4396    1.0000 </r>
       <r>   -0.1719    1.0000 </r>
       <r>   -0.1543    1.0000 </r>
       <r>   -0.1512    1.0000 </r>
       <r>   -0.1248    1.0000 </r>
       <r>    0.0522    1.0000 </r>
       <r>    0.1754    1.0000 </r>
       <r>    0.3412    1.0000 </r>
       <r>    0.4319    1.0000 </r>
       <r>    0.5404    1.0000 </r>
       <r>    0.5730    1.0000 </r>
       <r>    0.6401    1.0000 </r>
       <r>    0.7168    1.0000 </r>
       <r>    0.7228    1.0000 </r>
       <r>    0.7369    1.0000 </r>
       <r>    0.7688    1.0000 </r>
       <r>    0.7724    1.0000 </r>
       <r>    0.8283    1.0000 </r>
       <r>    0.8834    1.0000 </r>
       <r>    0.9573    1.0000 </r>
       <r>    0.9684    1.0000 </r>
       <r>    1.0032    1.0000 </r>
       <r>    1.0236    1.0000 </r>
       <r>    1.0655    1.0000 </r>
       <r>    1.1156    1.0000 </r>
       <r>    1.1610    1.0000 </r>
       <r>    1.2290    1.0000 </r>
       <r>    1.2673    1.0000 </r>
       <r>    1.2832    1.0000 </r>
       <r>    1.3347    1.0000 </r>
       <r>    1.4207    1.0000 </r>
       <r>    1.4597    1.0000 </r>
       <r>    1.4715    1.0000 </r>
       <r>    1.5272    1.0000 </r>
       <r>    1.5650    1.0000 </r>
       <r>    1.6125    1.0000 </r>
       <r>    1.6221    1.0000 </r>
       <r>    1.6968    1.0000 </r>
       <r>    1.7651    1.0000 </r>
       <r>    1.7874    1.0000 </r>
       <r>    1.8240    1.0000 </r>
       <r>    1.8741    1.0000 </r>
       <r>    1.8757    1.0000 </r>
       <r>    1.9145    1.0000 </r>
       <r>    2.0046    1.0000 </r>
       <r>    2.0709    1.0000 </r>
       <r>    2.1354    1.0000 </r>
       <r>    2.2093    1.0000 </r>
       <r>    2.2633    1.0000 </r>
       <r>    2.3178    1.0000 </r>
       <r>    2.4004    1.0000 </r>
       <r>    2.5485    1.0000 </r>
       <r>    2.5789    1.0000 </r>
       <r>    2.5820    1.0000 </r>
       <r>    2.5926    1.0000 </r>
       <r>    2.6020    1.0000 </r>
       <r>    2.6250    1.0000 </r>
       <r>    2.6370    1.0000 </r>
       <r>    2.6637    1.0000 </r>
       <r>    2.6948    1.0000 </r>
       <r>    2.7086    1.0000 </r>
       <r>    2.7390    1.0000 </r>
       <r>    2.7787    1.0000 </r>
       <r>    2.8025    1.0000 </r>
       <r>    2.8253    1.0000 </r>
       <r>    2.8721    1.0000 </r>
       <r>    2.9069    1.0000 </r>
       <r>    2.9292    1.0000 </r>
       <r>    2.9491    1.0000 </r>
       <r>    2.9813    1.0000 </r>
       <r>    3.0054    1.0000 </r>
       <r>    3.0577    1.0000 </r>
       <r>    3.1077    1.0000 </r>
       <r>    3.1109    1.0000 </r>
       <r>    3.1634    1.0000 </r>
       <r>    3.1712    1.0000 </r>
       <r>    3.1838    1.0000 </r>
       <r>    3.1877    1.0000 </r>
       <r>    3.2464    1.0000 </r>
       <r>    3.3015    1.0000 </r>
       <r>    3.3387    1.0000 </r>
       <r>    3.4044    1.0000 </r>
       <r>    3.4668    1.0000 </r>
       <r>    3.4796    1.0000 </r>
       <r>    3.7210    1.0000 </r>
       <r>    4.1963    1.0000 </r>
       <r>    4.2007    1.0000 </r>
       <r>    4.2394    1.0000 </r>
       <r>    4.2401    1.0000 </r>
       <r>    5.0615    0.0000 </r>
       <r>    5.0655    0.0000 </r>
       <r>    5.1743    0.0000 </r>
       <r>    5.1833    0.0000 </r>
       <r>    5.7537    0.0000 </r>
       <r>    5.7566    0.0000 </r>
       <r>    5.8268    0.0000 </r>
       <r>    5.8273    0.0000 </r>
       <r>    6.1125    0.0000 </r>
       <r>    6.1279    0.0000 </r>
       <r>    6.1430    0.0000 </r>
       <r>    6.1580    0.0000 </r>
       <r>    6.2476    0.0000 </r>
       <r>    6.2543    0.0000 </r>
       <r>    6.2738    0.0000 </r>
       <r>    6.2817    0.0000 </r>
       <r>    7.1254    0.0000 </r>
       <r>    7.1362    0.0000 </r>
       <r>    7.3226    0.0000 </r>
       <r>    7.3322    0.0000 </r>
       <r>    7.8181    0.0000 </r>
       <r>    7.8960    0.0000 </r>
       <r>    7.9334    0.0000 </r>
       <r>    7.9491    0.0000 </r>
       <r>    7.9940    0.0000 </r>
       <r>    8.0641    0.0000 </r>
       <r>    8.1062    0.0000 </r>
       <r>    8.2189    0.0000 </r>
       <r>    8.4108    0.0000 </r>
       <r>    8.6499    0.0000 </r>
       <r>    8.6788    0.0000 </r>
       <r>    8.7870    0.0000 </r>
       <r>    8.7974    0.0000 </r>
       <r>    8.8778    0.0000 </r>
       <r>    8.9474    0.0000 </r>
       <r>    8.9895    0.0000 </r>
       <r>    9.0522    0.0000 </r>
       <r>    9.0642    0.0000 </r>
       <r>    9.0883    0.0000 </r>
       <r>    9.1380    0.0000 </r>
       <r>    9.1415    0.0000 </r>
       <r>    9.1818    0.0000 </r>
       <r>    9.2267    0.0000 </r>
       <r>    9.2570    0.0000 </r>
       <r>    9.4425    0.0000 </r>
       <r>    9.5236    0.0000 </r>
      </set>
      <set comment="kpoint 2">
       <r>  -40.2638    1.0000 </r>
       <r>  -40.0592    1.0000 </r>
       <r>  -40.0079    1.0000 </r>
       <r>  -39.8826    1.0000 </r>
       <r>  -39.8016    1.0000 </r>
       <r>  -39.7863    1.0000 </r>
       <r>  -39.7142    1.0000 </r>
       <r>  -39.5954    1.0000 </r>
       <r>  -39.5618    1.0000 </r>
       <r>  -39.3687    1.0000 </r>
       <r>  -18.9250    1.0000 </r>
       <r>  -18.9124    1.0000 </r>
       <r>  -18.8536    1.0000 </r>
       <r>  -18.8466    1.0000 </r>
       <r>  -18.8431    1.0000 </r>
       <r>  -18.8360    1.0000 </r>
       <r>  -18.7508    1.0000 </r>
       <r>  -18.7431    1.0000 </r>
       <r>  -18.7376    1.0000 </r>
       <r>  -18.7208    1.0000 </r>
       <r>  -18.7064    1.0000 </r>
       <r>  -18.7057    1.0000 </r>
       <r>  -18.6965    1.0000 </r>
       <r>  -18.6962    1.0000 </r>
       <r>  -18.6883    1.0000 </r>
       <r>  -18.6874    1.0000 </r>
       <r>  -18.6460    1.0000 </r>
       <r>  -18.6430    1.0000 </r>
       <r>  -18.6394    1.0000 </r>
       <r>  -18.6381    1.0000 </r>
       <r>  -18.6362    1.0000 </r>
       <r>  -18.6349    1.0000 </r>
       <r>  -18.6338    1.0000 </r>
       <r>  -18.6332    1.0000 </r>
       <r>  -18.6318    1.0000 </r>
       <r>  -18.6311    1.0000 </r>
       <r>  -18.6293    1.0000 </r>
       <r>  -18.6288    1.0000 </r>
       <r>  -18.6287    1.0000 </r>
       <r>  -18.6257    1.0000 </r>
       <r>  -18.6244    1.0000 </r>
       <r>  -18.6235    1.0000 </r>
       <r>  -18.6217    1.0000 </r>
       <r>  -18.6212    1.0000 </r>
       <r>  -18.6191    1.0000 </r>
       <r>  -18.6174    1.0000 </r>
       <r>  -18.6168    1.0000 </r>
       <r>  -18.6143    1.0000 </r>
       <r>  -18.6134    1.0000 </r>
       <r>  -18.6035    1.0000 </r>
       <r>  -18.5573    1.0000 </r>
       <r>  -18.5565    1.0000 </r>
       <r>  -18.5493    1.0000 </r>
       <r>  -18.5450    1.0000 </r>
       <r>  -18.5443    1.0000 </r>
       <r>  -18.5434    1.0000 </r>
       <r>  -18.5350    1.0000 </r>
       <r>  -18.5334    1.0000 </r>
       <r>  -18.5313    1.0000 </r>
       <r>  -18.5303    1.0000 </r>
       <r>  -18.4907    1.0000 </r>
       <r>  -18.4876    1.0000 </r>
       <r>  -18.4842    1.0000 </r>
       <r>  -18.4781    1.0000 </r>
       <r>  -18.4756    1.0000 </r>
       <r>  -18.4747    1.0000 </r>
       <r>  -18.4738    1.0000 </r>
       <r>  -18.4729    1.0000 </r>
       <r>  -18.4722    1.0000 </r>
       <r>  -18.4698    1.0000 </r>
       <r>  -18.4690    1.0000 </r>
       <r>  -18.4682    1.0000 </r>
       <r>  -18.4678    1.0000 </r>
       <r>  -18.4677    1.0000 </r>
       <r>  -18.4642    1.0000 </r>
       <r>  -18.4460    1.0000 </r>
       <r>  -18.4000    1.0000 </r>
       <r>  -18.3947    1.0000 </r>
       <r>  -18.3883    1.0000 </r>
       <r>  -18.3834    1.0000 </r>
       <r>  -18.3825    1.0000 </r>
       <r>  -18.3817    1.0000 </r>
       <r>  -18.3753    1.0000 </r>
       <r>  -18.3698    1.0000 </r>
       <r>  -18.2962    1.0000 </r>
       <r>  -18.2923    1.0000 </r>
       <r>  -18.1832    1.0000 </r>
       <r>  -18.1813    1.0000 </r>
       <r>  -18.1675    1.0000 </r>
       <r>  -18.1561    1.0000 </r>
       <r>  -13.5582    1.0000 </r>
       <r>  -13.4516    1.0000 </r>
       <r>  -12.8595    1.0000 </r>
       <r>  -12.8151    1.0000 </r>
       <r>  -12.7494    1.0000 </r>
       <r>  -12.7404    1.0000 </r>
       <r>  -12.7116    1.0000 </r>
       <r>  -12.6881    1.0000 </r>
       <r>  -12.6726    1.0000 </r>
       <r>  -12.6497    1.0000 </r>
       <r>  -12.6178    1.0000 </r>
       <r>  -12.6143    1.0000 </r>
       <r>  -12.5796    1.0000 </r>
       <r>  -12.5283    1.0000 </r>
       <r>  -11.9666    1.0000 </r>
       <r>  -11.9105    1.0000 </r>
       <r>   -9.1720    1.0000 </r>
       <r>   -9.0139    1.0000 </r>
       <r>   -8.8972    1.0000 </r>
       <r>   -8.7360    1.0000 </r>
       <r>   -8.3870    1.0000 </r>
       <r>   -8.3850    1.0000 </r>
       <r>   -8.2503    1.0000 </r>
       <r>   -8.2481    1.0000 </r>
       <r>   -8.1854    1.0000 </r>
       <r>   -8.1840    1.0000 </r>
       <r>   -8.0479    1.0000 </r>
       <r>   -8.0458    1.0000 </r>
       <r>   -7.7405    1.0000 </r>
       <r>   -7.6283    1.0000 </r>
       <r>   -7.6239    1.0000 </r>
       <r>   -7.5109    1.0000 </r>
       <r>   -6.0107    1.0000 </r>
       <r>   -6.0014    1.0000 </r>
       <r>   -5.8291    1.0000 </r>
       <r>   -5.8238    1.0000 </r>
       <r>   -5.7929    1.0000 </r>
       <r>   -5.7854    1.0000 </r>
       <r>   -5.7246    1.0000 </r>
       <r>   -5.6562    1.0000 </r>
       <r>   -5.6394    1.0000 </r>
       <r>   -5.6342    1.0000 </r>
       <r>   -5.5214    1.0000 </r>
       <r>   -5.4456    1.0000 </r>
       <r>   -4.4957    1.0000 </r>
       <r>   -4.3347    1.0000 </r>
       <r>   -4.3319    1.0000 </r>
       <r>   -4.1605    1.0000 </r>
       <r>   -1.2336    1.0000 </r>
       <r>   -1.0269    1.0000 </r>
       <r>   -0.8858    1.0000 </r>
       <r>   -0.7093    1.0000 </r>
       <r>   -0.4355    1.0000 </r>
       <r>   -0.2360    1.0000 </r>
       <r>   -0.0354    1.0000 </r>
       <r>    0.0204    1.0000 </r>
       <r>    0.0896    1.0000 </r>
       <r>    0.1389    1.0000 </r>
       <r>    0.1581    1.0000 </r>
       <r>    0.2103    1.0000 </r>
       <r>    0.2189    1.0000 </r>
       <r>    0.3106    1.0000 </r>
       <r>    0.3898    1.0000 </r>
       <r>    0.4119    1.0000 </r>
       <r>    0.4294    1.0000 </r>
       <r>    0.5032    1.0000 </r>
       <r>    0.5299    1.0000 </r>
       <r>    0.5865    1.0000 </r>
       <r>    0.6098    1.0000 </r>
       <r>    0.6326    1.0000 </r>
       <r>    0.6478    1.0000 </r>
       <r>    0.7205    1.0000 </r>
       <r>    0.7476    1.0000 </r>
       <r>    0.8581    1.0000 </r>
       <r>    0.9288    1.0000 </r>
       <r>    1.0197    1.0000 </r>
       <r>    1.0395    1.0000 </r>
       <r>    1.0922    1.0000 </r>
       <r>    1.1175    1.0000 </r>
       <r>    1.1554    1.0000 </r>
       <r>    1.1956    1.0000 </r>
       <r>    1.2327    1.0000 </r>
       <r>    1.2550    1.0000 </r>
       <r>    1.2636    1.0000 </r>
       <r>    1.3678    1.0000 </r>
       <r>    1.3777    1.0000 </r>
       <r>    1.4278    1.0000 </r>
       <r>    1.4738    1.0000 </r>
       <r>    1.4928    1.0000 </r>
       <r>    1.5409    1.0000 </r>
       <r>    1.5793    1.0000 </r>
       <r>    1.5870    1.0000 </r>
       <r>    1.6150    1.0000 </r>
       <r>    1.6649    1.0000 </r>
       <r>    1.7095    1.0000 </r>
       <r>    1.7849    1.0000 </r>
       <r>    1.8381    1.0000 </r>
       <r>    1.8624    1.0000 </r>
       <r>    1.8869    1.0000 </r>
       <r>    1.9240    1.0000 </r>
       <r>    1.9506    1.0000 </r>
       <r>    2.0022    1.0000 </r>
       <r>    2.0616    1.0000 </r>
       <r>    2.0907    1.0000 </r>
       <r>    2.1710    1.0000 </r>
       <r>    2.1877    1.0000 </r>
       <r>    2.2290    1.0000 </r>
       <r>    2.2683    1.0000 </r>
       <r>    2.2940    1.0000 </r>
       <r>    2.3359    1.0000 </r>
       <r>    2.4130    1.0000 </r>
       <r>    2.4517    1.0000 </r>
       <r>    2.4962    1.0000 </r>
       <r>    2.5428    1.0000 </r>
       <r>    2.5650    1.0000 </r>
       <r>    2.5869    1.0000 </r>
       <r>    2.6205    1.0000 </r>
       <r>    2.6422    1.0000 </r>
       <r>    2.7140    1.0000 </r>
       <r>    2.7626    1.0000 </r>
       <r>    2.7941    1.0000 </r>
       <r>    2.8192    1.0000 </r>
       <r>    2.8568    1.0000 </r>
       <r>    2.8768    1.0000 </r>
       <r>    2.8994    1.0000 </r>
       <r>    2.9394    1.0000 </r>
       <r>    2.9447    1.0000 </r>
       <r>    2.9796    1.0000 </r>
       <r>    3.0237    1.0000 </r>
       <r>    3.0693    1.0000 </r>
       <r>    3.1184    1.0000 </r>
       <r>    3.1592    1.0000 </r>
       <r>    3.1838    1.0000 </r>
       <r>    3.2113    1.0000 </r>
       <r>    3.3361    1.0000 </r>
       <r>    3.4014    1.0000 </r>
       <r>    3.4513    1.0000 </r>
       <r>    3.4776    1.0000 </r>
       <r>    3.5370    1.0000 </r>
       <r>    3.5523    1.0000 </r>
       <r>    3.5932    1.0000 </r>
       <r>    3.6306    1.0000 </r>
       <r>    3.6997    1.0000 </r>
       <r>    3.8240    1.0000 </r>
       <r>    5.5703    0.0000 </r>
       <r>    5.5745    0.0000 </r>
       <r>    5.7246    0.0000 </r>
       <r>    5.7282    0.0000 </r>
       <r>    5.7558    0.0000 </r>
       <r>    5.7612    0.0000 </r>
       <r>    5.9122    0.0000 </r>
       <r>    5.9219    0.0000 </r>
       <r>    7.2139    0.0000 </r>
       <r>    7.2255    0.0000 </r>
       <r>    7.2732    0.0000 </r>
       <r>    7.3597    0.0000 </r>
       <r>    7.4092    0.0000 </r>
       <r>    7.4501    0.0000 </r>
       <r>    7.4581    0.0000 </r>
       <r>    7.4780    0.0000 </r>
       <r>    7.5001    0.0000 </r>
       <r>    7.5148    0.0000 </r>
       <r>    7.6129    0.0000 </r>
       <r>    7.6199    0.0000 </r>
       <r>    7.8183    0.0000 </r>
       <r>    7.8214    0.0000 </r>
       <r>    7.8652    0.0000 </r>
       <r>    7.8805    0.0000 </r>
       <r>    7.8962    0.0000 </r>
       <r>    7.9316    0.0000 </r>
       <r>    7.9567    0.0000 </r>
       <r>    7.9792    0.0000 </r>
       <r>    8.0145    0.0000 </r>
       <r>    8.0194    0.0000 </r>
       <r>    8.0649    0.0000 </r>
       <r>    8.1373    0.0000 </r>
       <r>    8.2509    0.0000 </r>
       <r>    8.3077    0.0000 </r>
       <r>    8.4447    0.0000 </r>
       <r>    8.6077    0.0000 </r>
       <r>    8.6627    0.0000 </r>
       <r>    8.7362    0.0000 </r>
       <r>    8.7526    0.0000 </r>
       <r>    8.7679    0.0000 </r>
       <r>    8.7778    0.0000 </r>
       <r>    8.8754    0.0000 </r>
       <r>    8.9354    0.0000 </r>
       <r>    8.9452    0.0000 </r>
       <r>    9.1121    0.0000 </r>
       <r>    9.3522    0.0000 </r>
      </set>
      <set comment="kpoint 3">
       <r>  -40.2638    1.0000 </r>
       <r>  -40.0592    1.0000 </r>
       <r>  -40.0079    1.0000 </r>
       <r>  -39.8826    1.0000 </r>
       <r>  -39.8016    1.0000 </r>
       <r>  -39.7864    1.0000 </r>
       <r>  -39.7142    1.0000 </r>
       <r>  -39.5954    1.0000 </r>
       <r>  -39.5618    1.0000 </r>
       <r>  -39.3687    1.0000 </r>
       <r>  -18.9251    1.0000 </r>
       <r>  -18.9123    1.0000 </r>
       <r>  -18.8536    1.0000 </r>
       <r>  -18.8466    1.0000 </r>
       <r>  -18.8432    1.0000 </r>
       <r>  -18.8360    1.0000 </r>
       <r>  -18.7508    1.0000 </r>
       <r>  -18.7431    1.0000 </r>
       <r>  -18.7376    1.0000 </r>
       <r>  -18.7208    1.0000 </r>
       <r>  -18.7067    1.0000 </r>
       <r>  -18.7059    1.0000 </r>
       <r>  -18.6966    1.0000 </r>
       <r>  -18.6963    1.0000 </r>
       <r>  -18.6883    1.0000 </r>
       <r>  -18.6876    1.0000 </r>
       <r>  -18.6446    1.0000 </r>
       <r>  -18.6422    1.0000 </r>
       <r>  -18.6404    1.0000 </r>
       <r>  -18.6380    1.0000 </r>
       <r>  -18.6362    1.0000 </r>
       <r>  -18.6353    1.0000 </r>
       <r>  -18.6334    1.0000 </r>
       <r>  -18.6330    1.0000 </r>
       <r>  -18.6316    1.0000 </r>
       <r>  -18.6314    1.0000 </r>
       <r>  -18.6287    1.0000 </r>
       <r>  -18.6286    1.0000 </r>
       <r>  -18.6274    1.0000 </r>
       <r>  -18.6251    1.0000 </r>
       <r>  -18.6244    1.0000 </r>
       <r>  -18.6241    1.0000 </r>
       <r>  -18.6226    1.0000 </r>
       <r>  -18.6222    1.0000 </r>
       <r>  -18.6190    1.0000 </r>
       <r>  -18.6179    1.0000 </r>
       <r>  -18.6177    1.0000 </r>
       <r>  -18.6143    1.0000 </r>
       <r>  -18.6129    1.0000 </r>
       <r>  -18.6036    1.0000 </r>
       <r>  -18.5573    1.0000 </r>
       <r>  -18.5566    1.0000 </r>
       <r>  -18.5493    1.0000 </r>
       <r>  -18.5450    1.0000 </r>
       <r>  -18.5442    1.0000 </r>
       <r>  -18.5433    1.0000 </r>
       <r>  -18.5350    1.0000 </r>
       <r>  -18.5335    1.0000 </r>
       <r>  -18.5313    1.0000 </r>
       <r>  -18.5302    1.0000 </r>
       <r>  -18.4907    1.0000 </r>
       <r>  -18.4876    1.0000 </r>
       <r>  -18.4842    1.0000 </r>
       <r>  -18.4781    1.0000 </r>
       <r>  -18.4756    1.0000 </r>
       <r>  -18.4747    1.0000 </r>
       <r>  -18.4738    1.0000 </r>
       <r>  -18.4729    1.0000 </r>
       <r>  -18.4722    1.0000 </r>
       <r>  -18.4698    1.0000 </r>
       <r>  -18.4690    1.0000 </r>
       <r>  -18.4682    1.0000 </r>
       <r>  -18.4678    1.0000 </r>
       <r>  -18.4676    1.0000 </r>
       <r>  -18.4642    1.0000 </r>
       <r>  -18.4460    1.0000 </r>
       <r>  -18.4000    1.0000 </r>
       <r>  -18.3947    1.0000 </r>
       <r>  -18.3883    1.0000 </r>
       <r>  -18.3834    1.0000 </r>
       <r>  -18.3825    1.0000 </r>
       <r>  -18.3817    1.0000 </r>
       <r>  -18.3753    1.0000 </r>
       <r>  -18.3698    1.0000 </r>
       <r>  -18.2962    1.0000 </r>
       <r>  -18.2923    1.0000 </r>
       <r>  -18.1832    1.0000 </r>
       <r>  -18.1813    1.0000 </r>
       <r>  -18.1675    1.0000 </r>
       <r>  -18.1561    1.0000 </r>
       <r>  -13.5582    1.0000 </r>
       <r>  -13.4518    1.0000 </r>
       <r>  -12.8714    1.0000 </r>
       <r>  -12.7876    1.0000 </r>
       <r>  -12.7535    1.0000 </r>
       <r>  -12.7442    1.0000 </r>
       <r>  -12.7151    1.0000 </r>
       <r>  -12.6876    1.0000 </r>
       <r>  -12.6671    1.0000 </r>
       <r>  -12.6584    1.0000 </r>
       <r>  -12.6259    1.0000 </r>
       <r>  -12.6094    1.0000 </r>
       <r>  -12.5771    1.0000 </r>
       <r>  -12.5294    1.0000 </r>
       <r>  -11.9658    1.0000 </r>
       <r>  -11.9120    1.0000 </r>
       <r>   -9.3061    1.0000 </r>
       <r>   -9.0280    1.0000 </r>
       <r>   -8.5403    1.0000 </r>
       <r>   -8.5084    1.0000 </r>
       <r>   -8.4930    1.0000 </r>
       <r>   -8.4490    1.0000 </r>
       <r>   -8.2795    1.0000 </r>
       <r>   -8.2504    1.0000 </r>
       <r>   -8.2281    1.0000 </r>
       <r>   -8.1886    1.0000 </r>
       <r>   -8.0227    1.0000 </r>
       <r>   -8.0217    1.0000 </r>
       <r>   -7.9846    1.0000 </r>
       <r>   -7.9839    1.0000 </r>
       <r>   -7.3490    1.0000 </r>
       <r>   -7.3479    1.0000 </r>
       <r>   -6.3505    1.0000 </r>
       <r>   -6.3451    1.0000 </r>
       <r>   -6.3232    1.0000 </r>
       <r>   -6.3170    1.0000 </r>
       <r>   -5.5314    1.0000 </r>
       <r>   -5.4665    1.0000 </r>
       <r>   -5.3826    1.0000 </r>
       <r>   -5.3781    1.0000 </r>
       <r>   -5.3680    1.0000 </r>
       <r>   -5.2588    1.0000 </r>
       <r>   -5.1400    1.0000 </r>
       <r>   -5.1047    1.0000 </r>
       <r>   -5.0685    1.0000 </r>
       <r>   -4.9979    1.0000 </r>
       <r>   -3.8678    1.0000 </r>
       <r>   -3.5576    1.0000 </r>
       <r>   -1.3471    1.0000 </r>
       <r>   -1.2610    1.0000 </r>
       <r>   -1.2147    1.0000 </r>
       <r>   -1.0445    1.0000 </r>
       <r>   -0.4204    1.0000 </r>
       <r>   -0.4109    1.0000 </r>
       <r>   -0.3971    1.0000 </r>
       <r>   -0.3725    1.0000 </r>
       <r>   -0.3521    1.0000 </r>
       <r>   -0.3021    1.0000 </r>
       <r>   -0.2711    1.0000 </r>
       <r>   -0.2208    1.0000 </r>
       <r>   -0.0984    1.0000 </r>
       <r>   -0.0200    1.0000 </r>
       <r>    0.1447    1.0000 </r>
       <r>    0.2714    1.0000 </r>
       <r>    0.2895    1.0000 </r>
       <r>    0.3391    1.0000 </r>
       <r>    0.4173    1.0000 </r>
       <r>    0.4907    1.0000 </r>
       <r>    0.5274    1.0000 </r>
       <r>    0.6830    1.0000 </r>
       <r>    0.7427    1.0000 </r>
       <r>    0.7640    1.0000 </r>
       <r>    0.7887    1.0000 </r>
       <r>    0.8161    1.0000 </r>
       <r>    0.8372    1.0000 </r>
       <r>    0.8546    1.0000 </r>
       <r>    1.0050    1.0000 </r>
       <r>    1.1059    1.0000 </r>
       <r>    1.1246    1.0000 </r>
       <r>    1.2374    1.0000 </r>
       <r>    1.2684    1.0000 </r>
       <r>    1.3425    1.0000 </r>
       <r>    1.3620    1.0000 </r>
       <r>    1.4642    1.0000 </r>
       <r>    1.5406    1.0000 </r>
       <r>    1.5886    1.0000 </r>
       <r>    1.6108    1.0000 </r>
       <r>    1.6479    1.0000 </r>
       <r>    1.6833    1.0000 </r>
       <r>    1.7143    1.0000 </r>
       <r>    1.7714    1.0000 </r>
       <r>    1.7818    1.0000 </r>
       <r>    1.8218    1.0000 </r>
       <r>    1.8627    1.0000 </r>
       <r>    1.8868    1.0000 </r>
       <r>    1.9201    1.0000 </r>
       <r>    1.9643    1.0000 </r>
       <r>    1.9990    1.0000 </r>
       <r>    2.0483    1.0000 </r>
       <r>    2.1093    1.0000 </r>
       <r>    2.1398    1.0000 </r>
       <r>    2.1732    1.0000 </r>
       <r>    2.2823    1.0000 </r>
       <r>    2.3246    1.0000 </r>
       <r>    2.4352    1.0000 </r>
       <r>    2.4713    1.0000 </r>
       <r>    2.5120    1.0000 </r>
       <r>    2.5276    1.0000 </r>
       <r>    2.5530    1.0000 </r>
       <r>    2.5771    1.0000 </r>
       <r>    2.5853    1.0000 </r>
       <r>    2.5946    1.0000 </r>
       <r>    2.6031    1.0000 </r>
       <r>    2.6050    1.0000 </r>
       <r>    2.6886    1.0000 </r>
       <r>    2.7087    1.0000 </r>
       <r>    2.7486    1.0000 </r>
       <r>    2.7664    1.0000 </r>
       <r>    2.8103    1.0000 </r>
       <r>    2.8238    1.0000 </r>
       <r>    2.8546    1.0000 </r>
       <r>    2.8698    1.0000 </r>
       <r>    2.8836    1.0000 </r>
       <r>    2.9338    1.0000 </r>
       <r>    2.9575    1.0000 </r>
       <r>    2.9739    1.0000 </r>
       <r>    3.0175    1.0000 </r>
       <r>    3.0354    1.0000 </r>
       <r>    3.0545    1.0000 </r>
       <r>    3.0910    1.0000 </r>
       <r>    3.2019    1.0000 </r>
       <r>    3.3284    1.0000 </r>
       <r>    3.3485    1.0000 </r>
       <r>    3.3884    1.0000 </r>
       <r>    3.4184    1.0000 </r>
       <r>    3.4390    1.0000 </r>
       <r>    3.4615    1.0000 </r>
       <r>    3.4885    1.0000 </r>
       <r>    3.5731    1.0000 </r>
       <r>    3.6708    1.0000 </r>
       <r>    4.2454    1.0000 </r>
       <r>    4.2493    1.0000 </r>
       <r>    4.2893    1.0000 </r>
       <r>    4.2914    1.0000 </r>
       <r>    5.1352    0.0000 </r>
       <r>    5.1382    0.0000 </r>
       <r>    5.2412    0.0000 </r>
       <r>    5.2417    0.0000 </r>
       <r>    5.7619    0.0000 </r>
       <r>    5.7647    0.0000 </r>
       <r>    5.8336    0.0000 </r>
       <r>    5.8370    0.0000 </r>
       <r>    6.1696    0.0000 </r>
       <r>    6.1829    0.0000 </r>
       <r>    6.1925    0.0000 </r>
       <r>    6.2055    0.0000 </r>
       <r>    6.2598    0.0000 </r>
       <r>    6.2647    0.0000 </r>
       <r>    6.2879    0.0000 </r>
       <r>    6.2954    0.0000 </r>
       <r>    6.7798    0.0000 </r>
       <r>    6.8542    0.0000 </r>
       <r>    7.0653    0.0000 </r>
       <r>    7.0681    0.0000 </r>
       <r>    7.2735    0.0000 </r>
       <r>    7.3664    0.0000 </r>
       <r>    7.4234    0.0000 </r>
       <r>    7.5525    0.0000 </r>
       <r>    7.7503    0.0000 </r>
       <r>    7.8438    0.0000 </r>
       <r>    7.9464    0.0000 </r>
       <r>    7.9915    0.0000 </r>
       <r>    8.0091    0.0000 </r>
       <r>    8.3197    0.0000 </r>
       <r>    8.3497    0.0000 </r>
       <r>    8.4730    0.0000 </r>
       <r>    8.7303    0.0000 </r>
       <r>    8.7684    0.0000 </r>
       <r>    8.9593    0.0000 </r>
       <r>    8.9787    0.0000 </r>
       <r>    9.0289    0.0000 </r>
       <r>    9.0721    0.0000 </r>
       <r>    9.0833    0.0000 </r>
       <r>    9.0961    0.0000 </r>
       <r>    9.1153    0.0000 </r>
       <r>    9.1530    0.0000 </r>
       <r>    9.1894    0.0000 </r>
       <r>    9.2036    0.0000 </r>
       <r>    9.5115    0.0000 </r>
       <r>    9.7267    0.0000 </r>
      </set>
      <set comment="kpoint 4">
       <r>  -40.2637    1.0000 </r>
       <r>  -40.0592    1.0000 </r>
       <r>  -40.0079    1.0000 </r>
       <r>  -39.8826    1.0000 </r>
       <r>  -39.8016    1.0000 </r>
       <r>  -39.7863    1.0000 </r>
       <r>  -39.7142    1.0000 </r>
       <r>  -39.5954    1.0000 </r>
       <r>  -39.5618    1.0000 </r>
       <r>  -39.3687    1.0000 </r>
       <r>  -18.9251    1.0000 </r>
       <r>  -18.9123    1.0000 </r>
       <r>  -18.8536    1.0000 </r>
       <r>  -18.8466    1.0000 </r>
       <r>  -18.8431    1.0000 </r>
       <r>  -18.8360    1.0000 </r>
       <r>  -18.7508    1.0000 </r>
       <r>  -18.7431    1.0000 </r>
       <r>  -18.7376    1.0000 </r>
       <r>  -18.7208    1.0000 </r>
       <r>  -18.7064    1.0000 </r>
       <r>  -18.7057    1.0000 </r>
       <r>  -18.6965    1.0000 </r>
       <r>  -18.6962    1.0000 </r>
       <r>  -18.6881    1.0000 </r>
       <r>  -18.6875    1.0000 </r>
       <r>  -18.6460    1.0000 </r>
       <r>  -18.6430    1.0000 </r>
       <r>  -18.6394    1.0000 </r>
       <r>  -18.6381    1.0000 </r>
       <r>  -18.6362    1.0000 </r>
       <r>  -18.6349    1.0000 </r>
       <r>  -18.6338    1.0000 </r>
       <r>  -18.6332    1.0000 </r>
       <r>  -18.6318    1.0000 </r>
       <r>  -18.6311    1.0000 </r>
       <r>  -18.6293    1.0000 </r>
       <r>  -18.6290    1.0000 </r>
       <r>  -18.6286    1.0000 </r>
       <r>  -18.6257    1.0000 </r>
       <r>  -18.6244    1.0000 </r>
       <r>  -18.6235    1.0000 </r>
       <r>  -18.6217    1.0000 </r>
       <r>  -18.6212    1.0000 </r>
       <r>  -18.6191    1.0000 </r>
       <r>  -18.6174    1.0000 </r>
       <r>  -18.6168    1.0000 </r>
       <r>  -18.6142    1.0000 </r>
       <r>  -18.6134    1.0000 </r>
       <r>  -18.6035    1.0000 </r>
       <r>  -18.5573    1.0000 </r>
       <r>  -18.5565    1.0000 </r>
       <r>  -18.5493    1.0000 </r>
       <r>  -18.5450    1.0000 </r>
       <r>  -18.5443    1.0000 </r>
       <r>  -18.5434    1.0000 </r>
       <r>  -18.5350    1.0000 </r>
       <r>  -18.5335    1.0000 </r>
       <r>  -18.5313    1.0000 </r>
       <r>  -18.5302    1.0000 </r>
       <r>  -18.4907    1.0000 </r>
       <r>  -18.4876    1.0000 </r>
       <r>  -18.4842    1.0000 </r>
       <r>  -18.4781    1.0000 </r>
       <r>  -18.4756    1.0000 </r>
       <r>  -18.4747    1.0000 </r>
       <r>  -18.4738    1.0000 </r>
       <r>  -18.4729    1.0000 </r>
       <r>  -18.4722    1.0000 </r>
       <r>  -18.4698    1.0000 </r>
[...]
       <r>    8.8644    0.0000 </r>
       <r>    8.8835    0.0000 </r>
       <r>    8.9027    0.0000 </r>
       <r>    8.9119    0.0000 </r>
       <r>    8.9390    0.0000 </r>
      </set>
     </set>
    </set>
   </array>
  </eigenvalues>
  <separator name="orbital magnetization" >
   <v name="MAGDIPOLOUT">      0.00000000      0.00000000      0.00000000</v>
  </separator>
  <dos>
   <i name="efermi">      4.39023195 </i>
   <total>
    <array>
     <dimension dim="1">gridpoints</dimension>
     <dimension dim="2">spin</dimension>
     <field>energy</field>
     <field>total</field>
     <field>integrated</field>
     <set>
      <set comment="spin 1">
       <r>   -42.7633     0.0000     0.0000 </r>
       <r>   -42.5800     0.0000     0.0000 </r>
       <r>   -42.3967     0.0000     0.0000 </r>
       <r>   -42.2134     0.0000     0.0000 </r>
       <r>   -42.0301     0.0000     0.0000 </r>
       <r>   -41.8468     0.0000     0.0000 </r>
       <r>   -41.6635     0.0000     0.0000 </r>
       <r>   -41.4802     0.0000     0.0000 </r>
       <r>   -41.2969     0.0000     0.0000 </r>
       <r>   -41.1136     0.0000     0.0000 </r>
       <r>   -40.9303     0.0000     0.0000 </r>
       <r>   -40.7470     0.0000     0.0000 </r>
       <r>   -40.5637     0.0000     0.0000 </r>
       <r>   -40.3804     0.0000     0.0000 </r>
       <r>   -40.1971     0.0000     2.0000 </r>
       <r>   -40.0138     0.0000     4.0000 </r>
       <r>   -39.8305     0.0000     8.0000 </r>
       <r>   -39.6472     0.0000    14.0000 </r>
       <r>   -39.4639     0.0000    18.0000 </r>
       <r>   -39.2806     0.0000    20.0000 </r>
       <r>   -39.0973     0.0000    20.0000 </r>
       <r>   -38.9140     0.0000    20.0000 </r>
       <r>   -38.7307     0.0000    20.0000 </r>
       <r>   -38.5474     0.0000    20.0000 </r>
       <r>   -38.3641     0.0000    20.0000 </r>
       <r>   -38.1808     0.0000    20.0000 </r>
       <r>   -37.9975     0.0000    20.0000 </r>
       <r>   -37.8142     0.0000    20.0000 </r>
       <r>   -37.6309     0.0000    20.0000 </r>
       <r>   -37.4476     0.0000    20.0000 </r>
       <r>   -37.2643     0.0000    20.0000 </r>
       <r>   -37.0810     0.0000    20.0000 </r>
       <r>   -36.8977     0.0000    20.0000 </r>
       <r>   -36.7144     0.0000    20.0000 </r>
       <r>   -36.5311     0.0000    20.0000 </r>
       <r>   -36.3478     0.0000    20.0000 </r>
       <r>   -36.1645     0.0000    20.0000 </r>
       <r>   -35.9812     0.0000    20.0000 </r>
       <r>   -35.7979     0.0000    20.0000 </r>
       <r>   -35.6146     0.0000    20.0000 </r>
       <r>   -35.4313     0.0000    20.0000 </r>
       <r>   -35.2480     0.0000    20.0000 </r>
       <r>   -35.0647     0.0000    20.0000 </r>
       <r>   -34.8815     0.0000    20.0000 </r>
       <r>   -34.6982     0.0000    20.0000 </r>
       <r>   -34.5149     0.0000    20.0000 </r>
       <r>   -34.3316     0.0000    20.0000 </r>
       <r>   -34.1483     0.0000    20.0000 </r>
       <r>   -33.9650     0.0000    20.0000 </r>
       <r>   -33.7817     0.0000    20.0000 </r>
       <r>   -33.5984     0.0000    20.0000 </r>
       <r>   -33.4151     0.0000    20.0000 </r>
       <r>   -33.2318     0.0000    20.0000 </r>
       <r>   -33.0485     0.0000    20.0000 </r>
       <r>   -32.8652     0.0000    20.0000 </r>
       <r>   -32.6819     0.0000    20.0000 </r>
       <r>   -32.4986     0.0000    20.0000 </r>
       <r>   -32.3153     0.0000    20.0000 </r>
       <r>   -32.1320     0.0000    20.0000 </r>
       <r>   -31.9487     0.0000    20.0000 </r>
       <r>   -31.7654     0.0000    20.0000 </r>
       <r>   -31.5821     0.0000    20.0000 </r>
       <r>   -31.3988     0.0000    20.0000 </r>
       <r>   -31.2155     0.0000    20.0000 </r>
       <r>   -31.0322     0.0000    20.0000 </r>
       <r>   -30.8489     0.0000    20.0000 </r>
       <r>   -30.6656     0.0000    20.0000 </r>
       <r>   -30.4823     0.0000    20.0000 </r>
       <r>   -30.2990     0.0000    20.0000 </r>
       <r>   -30.1157     0.0000    20.0000 </r>
       <r>   -29.9324     0.0000    20.0000 </r>
       <r>   -29.7491     0.0000    20.0000 </r>
       <r>   -29.5658     0.0000    20.0000 </r>
       <r>   -29.3825     0.0000    20.0000 </r>
       <r>   -29.1992     0.0000    20.0000 </r>
       <r>   -29.0159     0.0000    20.0000 </r>
       <r>   -28.8326     0.0000    20.0000 </r>
       <r>   -28.6493     0.0000    20.0000 </r>
       <r>   -28.4660     0.0000    20.0000 </r>
       <r>   -28.2827     0.0000    20.0000 </r>
       <r>   -28.0994     0.0000    20.0000 </r>
       <r>   -27.9161     0.0000    20.0000 </r>
       <r>   -27.7328     0.0000    20.0000 </r>
       <r>   -27.5495     0.0000    20.0000 </r>
       <r>   -27.3662     0.0000    20.0000 </r>
       <r>   -27.1829     0.0000    20.0000 </r>
       <r>   -26.9996     0.0000    20.0000 </r>
       <r>   -26.8163     0.0000    20.0000 </r>
       <r>   -26.6330     0.0000    20.0000 </r>
       <r>   -26.4497     0.0000    20.0000 </r>
       <r>   -26.2664     0.0000    20.0000 </r>
       <r>   -26.0831     0.0000    20.0000 </r>
       <r>   -25.8998     0.0000    20.0000 </r>
       <r>   -25.7165     0.0000    20.0000 </r>
       <r>   -25.5332     0.0000    20.0000 </r>
       <r>   -25.3499     0.0000    20.0000 </r>
       <r>   -25.1666     0.0000    20.0000 </r>
       <r>   -24.9833     0.0000    20.0000 </r>
       <r>   -24.8000     0.0000    20.0000 </r>
       <r>   -24.6167     0.0000    20.0000 </r>
       <r>   -24.4334     0.0000    20.0000 </r>
       <r>   -24.2501     0.0000    20.0000 </r>
       <r>   -24.0668     0.0000    20.0000 </r>
       <r>   -23.8835     0.0000    20.0000 </r>
       <r>   -23.7002     0.0000    20.0000 </r>
       <r>   -23.5169     0.0000    20.0000 </r>
       <r>   -23.3337     0.0000    20.0000 </r>
       <r>   -23.1504     0.0000    20.0000 </r>
       <r>   -22.9671     0.0000    20.0000 </r>
       <r>   -22.7838     0.0000    20.0000 </r>
       <r>   -22.6005     0.0000    20.0000 </r>
       <r>   -22.4172     0.0000    20.0000 </r>
       <r>   -22.2339     0.0000    20.0000 </r>
       <r>   -22.0506     0.0000    20.0000 </r>
       <r>   -21.8673     0.0000    20.0000 </r>
       <r>   -21.6840     0.0000    20.0000 </r>
       <r>   -21.5007     0.0000    20.0000 </r>
       <r>   -21.3174     0.0000    20.0000 </r>
       <r>   -21.1341     0.0000    20.0000 </r>
       <r>   -20.9508     0.0000    20.0000 </r>
       <r>   -20.7675     0.0000    20.0000 </r>
       <r>   -20.5842     0.0000    20.0000 </r>
       <r>   -20.4009     0.0000    20.0000 </r>
       <r>   -20.2176     0.0000    20.0000 </r>
       <r>   -20.0343     0.0000    20.0000 </r>
       <r>   -19.8510     0.0000    20.0000 </r>
       <r>   -19.6677     0.0000    20.0000 </r>
       <r>   -19.4844     0.0000    20.0000 </r>
       <r>   -19.3011     0.0000    20.0000 </r>
       <r>   -19.1178     0.0000    20.0000 </r>
       <r>   -18.9345     0.0000    20.0000 </r>
       <r>   -18.7512     0.0000    32.0000 </r>
       <r>   -18.5679     0.0000   100.0000 </r>
       <r>   -18.3846     0.0000   158.0000 </r>
       <r>   -18.2013     0.0000   172.0000 </r>
       <r>   -18.0180     0.0000   180.0000 </r>
       <r>   -17.8347     0.0000   180.0000 </r>
       <r>   -17.6514     0.0000   180.0000 </r>
       <r>   -17.4681     0.0000   180.0000 </r>
       <r>   -17.2848     0.0000   180.0000 </r>
       <r>   -17.1015     0.0000   180.0000 </r>
       <r>   -16.9182     0.0000   180.0000 </r>
       <r>   -16.7349     0.0000   180.0000 </r>
       <r>   -16.5516     0.0000   180.0000 </r>
       <r>   -16.3683     0.0000   180.0000 </r>
       <r>   -16.1850     0.0000   180.0000 </r>
       <r>   -16.0017     0.0000   180.0000 </r>
       <r>   -15.8184     0.0000   180.0000 </r>
       <r>   -15.6351     0.0000   180.0000 </r>
       <r>   -15.4518     0.0000   180.0000 </r>
       <r>   -15.2685     0.0000   180.0000 </r>
       <r>   -15.0852     0.0000   180.0000 </r>
       <r>   -14.9019     0.0000   180.0000 </r>
       <r>   -14.7186     0.0000   180.0000 </r>
       <r>   -14.5353     0.0000   180.0000 </r>
       <r>   -14.3520     0.0000   180.0000 </r>
       <r>   -14.1687     0.0000   180.0000 </r>
       <r>   -13.9854     0.0000   180.0000 </r>
       <r>   -13.8021     0.0000   180.0000 </r>
       <r>   -13.6188     0.0000   180.0000 </r>
       <r>   -13.4355     0.0000   184.0000 </r>
       <r>   -13.2522     0.0000   184.0000 </r>
       <r>   -13.0689     0.0000   184.0000 </r>
       <r>   -12.8856     0.0000   184.0000 </r>
       <r>   -12.7023    37.9802   194.0759 </r>
       <r>   -12.5190     0.0000   208.0000 </r>
       <r>   -12.3357     0.0000   208.0000 </r>
       <r>   -12.1524     0.0000   208.0000 </r>
       <r>   -11.9692     0.0000   208.0000 </r>
       <r>   -11.7859     0.0000   212.0000 </r>
       <r>   -11.6026     0.0000   212.0000 </r>
       <r>   -11.4193     0.0000   212.0000 </r>
       <r>   -11.2360     0.0000   212.0000 </r>
       <r>   -11.0527     0.0000   212.0000 </r>
       <r>   -10.8694     0.0000   212.0000 </r>
       <r>   -10.6861     0.0000   212.0000 </r>
       <r>   -10.5028     0.0000   212.0000 </r>
       <r>   -10.3195     0.0000   212.0000 </r>
       <r>   -10.1362     0.0000   212.0000 </r>
       <r>    -9.9529     0.0000   212.0000 </r>
       <r>    -9.7696     0.0000   212.0000 </r>
       <r>    -9.5863     0.0000   212.0000 </r>
       <r>    -9.4030     0.0000   212.0000 </r>
       <r>    -9.2197     6.9393   212.3168 </r>
       <r>    -9.0364    24.2304   214.5111 </r>
       <r>    -8.8531    16.3120   216.3388 </r>
       <r>    -8.6698    12.4655   219.2136 </r>
       <r>    -8.4865    19.3052   221.6959 </r>
       <r>    -8.3032    26.3386   226.5795 </r>
       <r>    -8.1199    15.1947   229.6659 </r>
       <r>    -7.9366    21.9071   234.4666 </r>
       <r>    -7.7533    15.8040   237.8071 </r>
       <r>    -7.5700    22.5628   241.2402 </r>
       <r>    -7.3867     4.4969   243.9106 </r>
       <r>    -7.2034     0.0000   244.0000 </r>
       <r>    -7.0201     0.0000   244.0000 </r>
       <r>    -6.8368     0.0000   244.0000 </r>
       <r>    -6.6535     0.0000   244.0000 </r>
       <r>    -6.4702     0.0000   244.0000 </r>
       <r>    -6.2869     5.5329   244.1639 </r>
       <r>    -6.1036    23.5863   246.8468 </r>
       <r>    -5.9203    18.1373   251.0562 </r>
       <r>    -5.7370    31.2641   255.0637 </r>
       <r>    -5.5537    22.3813   259.6371 </r>
       <r>    -5.3704    20.6229   263.5063 </r>
       <r>    -5.1871    13.0206   266.7151 </r>
       <r>    -5.0038     3.5747   268.0524 </r>
       <r>    -4.8205     7.5895   269.1187 </r>
       <r>    -4.6372     9.0766   270.5907 </r>
       <r>    -4.4539     8.4265   272.3742 </r>
       <r>    -4.2706     6.8182   273.5982 </r>
       <r>    -4.0873     5.9642   274.8705 </r>
       <r>    -3.9040     2.7508   275.6682 </r>
       <r>    -3.7207     0.7817   275.9508 </r>
       <r>    -3.5374     0.0000   276.0000 </r>
       <r>    -3.3541     0.0000   276.0000 </r>
       <r>    -3.1708     0.0000   276.0000 </r>
       <r>    -2.9875     0.0000   276.0000 </r>
       <r>    -2.8042     0.0000   276.0000 </r>
       <r>    -2.6209     0.0000   276.0000 </r>
       <r>    -2.4376     0.0000   276.0000 </r>
       <r>    -2.2543     0.0000   276.0000 </r>
       <r>    -2.0710     0.0000   276.0000 </r>
       <r>    -1.8877     0.0000   276.0000 </r>
       <r>    -1.7044     0.0000   276.0000 </r>
       <r>    -1.5211     0.0000   276.0000 </r>
       <r>    -1.3378     1.5387   276.0515 </r>
       <r>    -1.1545     8.7512   276.9888 </r>
       <r>    -0.9712    11.9969   278.9027 </r>
       <r>    -0.7879    11.4618   281.2106 </r>
       <r>    -0.6046     6.3031   282.7911 </r>
       <r>    -0.4214    16.7226   284.1993 </r>
       <r>    -0.2381    23.1667   287.7548 </r>
       <r>    -0.0548    39.3470   293.1479 </r>
       <r>     0.1285    32.4245   300.3631 </r>
       <r>     0.3118    38.2909   305.8149 </r>
       <r>     0.4951    39.9999   313.2554 </r>
       <r>     0.6784    38.1921   320.5917 </r>
       <r>     0.8617    28.6692   326.9380 </r>
       <r>     1.0450    46.9327   334.3252 </r>
       <r>     1.2283    42.4611   342.3385 </r>
       <r>     1.4116    36.7888   350.5608 </r>
       <r>     1.5949    56.7646   360.2447 </r>
       <r>     1.7782    51.7773   369.2223 </r>
       <r>     1.9615    45.6386   378.8012 </r>
       <r>     2.1448    39.2836   386.0832 </r>
       <r>     2.3281    44.8757   393.8554 </r>
       <r>     2.5114    60.7201   403.3366 </r>
       <r>     2.6947    61.4728   415.2994 </r>
       <r>     2.8780    67.0050   426.9594 </r>
       <r>     3.0613    63.1798   439.8647 </r>
       <r>     3.2446    32.9963   448.7180 </r>
       <r>     3.4279    38.7434   454.9769 </r>
       <r>     3.6112    22.8389   461.2964 </r>
       <r>     3.7945    17.2531   464.1126 </r>
       <r>     3.9778     9.6896   466.6729 </r>
       <r>     4.1611     3.1497   467.8499 </r>
       <r>     4.3444     0.0000   468.0000 </r>
       <r>     4.5277     0.0000   468.0000 </r>
       <r>     4.7110     0.0000   468.0000 </r>
       <r>     4.8943     0.0000   468.0000 </r>
       <r>     5.0776     0.0147   468.0001 </r>
       <r>     5.2609     2.2680   468.1553 </r>
       <r>     5.4442     6.2630   468.9371 </r>
       <r>     5.6275     9.5180   470.4379 </r>
       <r>     5.8108    13.0649   473.1326 </r>
       <r>     5.9941    13.5877   476.5875 </r>
       <r>     6.1774    11.5242   478.8699 </r>
       <r>     6.3607    12.3592   481.0164 </r>
       <r>     6.5440    14.1152   483.4431 </r>
       <r>     6.7273    15.8530   486.1896 </r>
       <r>     6.9106    17.8889   489.2647 </r>
       <r>     7.0939    22.0379   492.8541 </r>
       <r>     7.2772    32.7340   497.8636 </r>
       <r>     7.4605    46.1707   505.2952 </r>
       <r>     7.6438    24.8791   510.7548 </r>
       <r>     7.8271    48.0292   517.6900 </r>
       <r>     8.0104    42.1992   526.4762 </r>
       <r>     8.1937    21.5764   531.7702 </r>
       <r>     8.3770    18.5646   535.3107 </r>
       <r>     8.5603    23.0213   539.0406 </r>
       <r>     8.7436    25.8622   543.7291 </r>
       <r>     8.9269    44.9351   551.3463 </r>
       <r>     9.1102    18.5850   556.8285 </r>
       <r>     9.2935     7.7127   558.9491 </r>
       <r>     9.4768     2.0380   559.8383 </r>
       <r>     9.6601     0.1371   559.9970 </r>
       <r>     9.8434     0.0000   560.0000 </r>
       <r>    10.0267     0.0000   560.0000 </r>
       <r>    10.2100     0.0000   560.0000 </r>
       <r>    10.3933     0.0000   560.0000 </r>
       <r>    10.5766     0.0000   560.0000 </r>
       <r>    10.7599     0.0000   560.0000 </r>
       <r>    10.9431     0.0000   560.0000 </r>
       <r>    11.1264     0.0000   560.0000 </r>
       <r>    11.3097     0.0000   560.0000 </r>
       <r>    11.4930     0.0000   560.0000 </r>
       <r>    11.6763     0.0000   560.0000 </r>
       <r>    11.8596     0.0000   560.0000 </r>
       <r>    12.0429     0.0000   560.0000 </r>
       <r>    12.2262     0.0000   560.0000 </r>
      </set>
     </set>
    </array>
   </total>
  </dos>
 </calculation>
 <structure name="finalpos" >
  <crystal>
   <varray name="basis" >
    <v>      11.17850000       0.00000000       0.00000000 </v>
    <v>       0.00000000       9.57460000       0.00000000 </v>
    <v>       0.00000000       0.00000000      11.18240000 </v>
   </varray>
   <i name="volume">   1196.84853820 </i>
   <varray name="rec_basis" >
    <v>       0.08945744       0.00000000       0.00000000 </v>
    <v>       0.00000000       0.10444301       0.00000000 </v>
    <v>       0.00000000       0.00000000       0.08942624 </v>
   </varray>
  </crystal>
  <varray name="positions" >
   <v>       0.37539000       0.00017000       0.43687000 </v>
   <v>       0.12461000       0.99984000       0.18687000 </v>
   <v>       0.37461000       0.00017000       0.18687000 </v>
   <v>       0.62539000       0.99984000       0.43687000 </v>
   <v>       0.62461000       0.99984000       0.18687000 </v>
   <v>       0.87461000       0.00017000       0.18687000 </v>
   <v>       0.12539000       0.99984000       0.93687000 </v>
   <v>       0.37539000       0.00017000       0.93687000 </v>
   <v>       0.62539000       0.99984000       0.93687000 </v>
   <v>       0.87539000       0.00017000       0.93687000 </v>
   <v>       0.87539000       0.00017000       0.43687000 </v>
   <v>       0.12461000       0.99984000       0.68687000 </v>
   <v>       0.62461000       0.99984000       0.68687000 </v>
   <v>       0.00013000       0.29519000       0.06281000 </v>
   <v>       0.25013000       0.70481000       0.06281000 </v>
   <v>       0.24987000       0.29519000       0.31282000 </v>
   <v>       0.49987000       0.70481000       0.31282000 </v>
   <v>       0.50013000       0.29519000       0.06281000 </v>
   <v>       0.75013000       0.70481000       0.06281000 </v>
   <v>       0.74987000       0.29519000       0.31282000 </v>
   <v>       0.99987000       0.70481000       0.31282000 </v>
   <v>       0.00013000       0.29519000       0.56281000 </v>
   <v>       0.25013000       0.70481000       0.56281000 </v>
   <v>       0.24987000       0.29519000       0.81282000 </v>
   <v>       0.49987000       0.70481000       0.81282000 </v>
   <v>       0.50013000       0.29519000       0.56281000 </v>
   <v>       0.75013000       0.70481000       0.56281000 </v>
   <v>       0.74987000       0.29519000       0.81282000 </v>
   <v>       0.99987000       0.70481000       0.81282000 </v>
   <v>       0.25005000       0.32677000       0.06286000 </v>
   <v>       0.00005000       0.67323000       0.06286000 </v>
   <v>       0.49995000       0.32677000       0.31286000 </v>
   <v>       0.24995000       0.67323000       0.31286000 </v>
   <v>       0.75005000       0.32677000       0.06286000 </v>
   <v>       0.50005000       0.67323000       0.06286000 </v>
   <v>       0.99995000       0.32677000       0.31286000 </v>
   <v>       0.74995000       0.67323000       0.31286000 </v>
   <v>       0.25005000       0.32677000       0.56286000 </v>
   <v>       0.00005000       0.67323000       0.56286000 </v>
   <v>       0.49995000       0.32677000       0.81286000 </v>
   <v>       0.24995000       0.67323000       0.81286000 </v>
   <v>       0.75005000       0.32677000       0.56286000 </v>
   <v>       0.50005000       0.67323000       0.56286000 </v>
   <v>       0.99995000       0.32677000       0.81286000 </v>
   <v>       0.74995000       0.67323000       0.81286000 </v>
   <v>       0.49987000       0.07798000       0.06246000 </v>
   <v>       0.24987000       0.92202000       0.06246000 </v>
   <v>       0.25013000       0.07798000       0.31246000 </v>
   <v>       0.00013000       0.92202000       0.31246000 </v>
   <v>       0.99987000       0.07798000       0.06246000 </v>
   <v>       0.74987000       0.92202000       0.06246000 </v>
   <v>       0.75013000       0.07798000       0.31246000 </v>
   <v>       0.50013000       0.92202000       0.31246000 </v>
   <v>       0.49987000       0.07798000       0.56246000 </v>
   <v>       0.24987000       0.92202000       0.56246000 </v>
   <v>       0.25013000       0.07798000       0.81246000 </v>
   <v>       0.00013000       0.92202000       0.81246000 </v>
   <v>       0.99987000       0.07798000       0.56246000 </v>
   <v>       0.74987000       0.92202000       0.56246000 </v>
   <v>       0.75013000       0.07798000       0.81246000 </v>
   <v>       0.50013000       0.92202000       0.81246000 </v>
  </varray>
 </structure>
</modeling>
