<?xml version="1.0" encoding="ISO-8859-1"?>
<modeling>
 <generator>
  <i name="program" type="string">vasp </i>
  <i name="version" type="string">5.4.4.18Apr17-6-g9f103f2a35  </i>
  <i name="subversion" type="string">(build Jul 31 2017 11:33:29) complex            parallel </i>
  <i name="platform" type="string">LinuxIFC </i>
  <i name="date" type="string">2021 09 29 </i>
  <i name="time" type="string">06:12:06 </i>
 </generator>
 <incar>
  <i type="string" name="SYSTEM"> La2O2S</i>
  <i type="string" name="PREC">normal</i>
  <i type="int" name="NELMIN">     4</i>
  <i type="int" name="IBRION">     2</i>
  <i type="int" name="NFREE">    10</i>
  <i name="EDIFF">      0.00000100</i>
  <i name="EDIFFG">     -0.01000000</i>
  <i type="int" name="NSW">     1</i>
  <i type="int" name="ISIF">     2</i>
  <i name="ENCUT">    600.00000000</i>
  <i name="ENAUG">    900.00000000</i>
  <i type="int" name="ISMEAR">    -5</i>
  <i type="logical" name="LWAVE"> F  </i>
  <i type="logical" name="LCHARG"> F  </i>
  <v type="int" name="KPOINT_BSE">    -1     0     0     0</v>
 </incar>
 <structure name="primitive_cell" >
  <crystal>
   <varray name="basis" >
    <v>      11.17850000       0.00000000       0.00000000 </v>
    <v>       0.00000000       9.57460000       0.00000000 </v>
    <v>       0.00000000       0.00000000      11.18240000 </v>
   </varray>
   <i name="volume">   1196.84853820 </i>
   <varray name="rec_basis" >
    <v>       0.08945744       0.00000000       0.00000000 </v>
    <v>       0.00000000       0.10444301       0.00000000 </v>
    <v>       0.00000000       0.00000000       0.08942624 </v>
   </varray>
  </crystal>
  <varray name="positions" >
   <v>       0.37539000       0.00017000       0.43687000 </v>
   <v>      -0.49987000      -0.07798000       0.31246000 </v>
   <v>       0.25013000       0.07798000       0.31246000 </v>
   <v>       0.49987000       0.07798000      -0.43754000 </v>
   <v>       0.24987000      -0.07798000      -0.43754000 </v>
   <v>       0.37461000       0.00017000      -0.31313000 </v>
   <v>       0.37461000       0.00017000       0.18687000 </v>
   <v>       0.49987000      -0.29519000       0.31282000 </v>
   <v>       0.24987000       0.29519000       0.31282000 </v>
   <v>      -0.49987000       0.29519000      -0.43719000 </v>
   <v>       0.25013000      -0.29519000      -0.43719000 </v>
   <v>       0.49995000       0.32677000       0.31286000 </v>
   <v>       0.24995000      -0.32677000       0.31286000 </v>
   <v>      -0.49995000      -0.32677000      -0.43714000 </v>
   <v>       0.25005000       0.32677000      -0.43714000 </v>
   <v>      -0.37539000      -0.00016000       0.18687000 </v>
   <v>      -0.37539000      -0.00016000      -0.31313000 </v>
   <v>       0.12461000      -0.00016000       0.18687000 </v>
   <v>       0.12461000      -0.00016000      -0.31313000 </v>
   <v>       0.49987000       0.07798000       0.06246000 </v>
   <v>      -0.24987000       0.07798000       0.31246000 </v>
   <v>      -0.25013000      -0.07798000      -0.43754000 </v>
   <v>       0.24987000      -0.07798000       0.06246000 </v>
   <v>       0.00013000      -0.07798000       0.31246000 </v>
   <v>      -0.49987000      -0.07798000      -0.18754000 </v>
   <v>      -0.00013000       0.07798000      -0.43754000 </v>
   <v>       0.25013000       0.07798000      -0.18754000 </v>
   <v>      -0.49987000       0.29519000       0.06281000 </v>
   <v>      -0.25013000       0.29519000       0.31282000 </v>
   <v>       0.25013000      -0.29519000       0.06281000 </v>
   <v>      -0.24987000      -0.29519000      -0.43719000 </v>
   <v>      -0.00013000      -0.29519000       0.31282000 </v>
   <v>       0.00013000       0.29519000      -0.43719000 </v>
   <v>       0.49987000      -0.29519000      -0.18718000 </v>
   <v>       0.24987000       0.29519000      -0.18718000 </v>
   <v>      -0.49995000      -0.32677000       0.06286000 </v>
   <v>       0.25005000       0.32677000       0.06286000 </v>
   <v>      -0.25005000      -0.32677000       0.31286000 </v>
   <v>      -0.24995000       0.32677000      -0.43714000 </v>
   <v>      -0.00005000       0.32677000       0.31286000 </v>
   <v>       0.00005000      -0.32677000      -0.43714000 </v>
   <v>       0.49995000       0.32677000      -0.18714000 </v>
   <v>       0.24995000      -0.32677000      -0.18714000 </v>
   <v>      -0.12461000       0.00017000       0.43687000 </v>
   <v>       0.37539000       0.00017000      -0.06313000 </v>
   <v>      -0.25013000      -0.07798000       0.06246000 </v>
   <v>      -0.00013000       0.07798000       0.06246000 </v>
   <v>      -0.24987000       0.07798000      -0.18754000 </v>
   <v>       0.00013000      -0.07798000      -0.18754000 </v>
   <v>      -0.12539000       0.00017000       0.18687000 </v>
   <v>      -0.12539000       0.00017000      -0.31313000 </v>
   <v>       0.12539000      -0.00016000      -0.06313000 </v>
   <v>      -0.37461000      -0.00016000      -0.06313000 </v>
   <v>      -0.24987000      -0.29519000       0.06281000 </v>
   <v>       0.00013000       0.29519000       0.06281000 </v>
   <v>      -0.25013000       0.29519000      -0.18718000 </v>
   <v>      -0.00013000      -0.29519000      -0.18718000 </v>
   <v>      -0.24995000       0.32677000       0.06286000 </v>
   <v>       0.00005000      -0.32677000       0.06286000 </v>
   <v>      -0.25005000      -0.32677000      -0.18714000 </v>
   <v>      -0.00005000       0.32677000      -0.18714000 </v>
   <v>      -0.12461000       0.00017000      -0.06313000 </v>
  </varray>
 </structure>
 <varray name="primitive_index" >
  <v type="int" >        1 </v>
  <v type="int" >       54 </v>
  <v type="int" >       49 </v>
  <v type="int" >       55 </v>
  <v type="int" >       56 </v>
  <v type="int" >        8 </v>
  <v type="int" >       13 </v>
  <v type="int" >       18 </v>
  <v type="int" >       17 </v>
  <v type="int" >       27 </v>
  <v type="int" >       24 </v>
  <v type="int" >       33 </v>
  <v type="int" >       34 </v>
  <v type="int" >       44 </v>
  <v type="int" >       39 </v>
  <v type="int" >        3 </v>
  <v type="int" >       11 </v>
  <v type="int" >        2 </v>
  <v type="int" >        7 </v>
  <v type="int" >       47 </v>
  <v type="int" >       53 </v>
  <v type="int" >       60 </v>
  <v type="int" >       48 </v>
  <v type="int" >       50 </v>
  <v type="int" >       62 </v>
  <v type="int" >       59 </v>
  <v type="int" >       57 </v>
  <v type="int" >       19 </v>
  <v type="int" >       21 </v>
  <v type="int" >       16 </v>
  <v type="int" >       28 </v>
  <v type="int" >       22 </v>
  <v type="int" >       23 </v>
  <v type="int" >       26 </v>
  <v type="int" >       25 </v>
  <v type="int" >       36 </v>
  <v type="int" >       31 </v>
  <v type="int" >       38 </v>
  <v type="int" >       43 </v>
  <v type="int" >       37 </v>
  <v type="int" >       40 </v>
  <v type="int" >       41 </v>
  <v type="int" >       42 </v>
  <v type="int" >       14 </v>
  <v type="int" >        6 </v>
  <v type="int" >       52 </v>
  <v type="int" >       51 </v>
  <v type="int" >       61 </v>
  <v type="int" >       58 </v>
  <v type="int" >        4 </v>
  <v type="int" >       12 </v>
  <v type="int" >        5 </v>
  <v type="int" >        9 </v>
  <v type="int" >       20 </v>
  <v type="int" >       15 </v>
  <v type="int" >       29 </v>
  <v type="int" >       30 </v>
  <v type="int" >       35 </v>
  <v type="int" >       32 </v>
  <v type="int" >       46 </v>
  <v type="int" >       45 </v>
  <v type="int" >       10 </v>
 </varray>
 <kpoints>
  <generation param="Gamma">
   <v type="int" name="divisions">       2        2        2 </v>
   <v name="usershift">      0.00000000       0.00000000       0.00000000 </v>
   <v name="genvec1">      0.50000000       0.00000000       0.00000000 </v>
   <v name="genvec2">      0.00000000       0.50000000       0.00000000 </v>
   <v name="genvec3">      0.00000000       0.00000000       0.50000000 </v>
   <v name="shift">      0.00000000       0.00000000       0.00000000 </v>
  </generation>
  <varray name="kpointlist" >
   <v>       0.00000000       0.00000000       0.00000000 </v>
   <v>       0.50000000       0.00000000       0.00000000 </v>
   <v>       0.00000000       0.50000000       0.00000000 </v>
   <v>       0.50000000       0.50000000       0.00000000 </v>
   <v>       0.00000000       0.00000000       0.50000000 </v>
   <v>       0.50000000       0.00000000       0.50000000 </v>
   <v>       0.00000000       0.50000000       0.50000000 </v>
   <v>       0.50000000       0.50000000       0.50000000 </v>
  </varray>
  <varray name="weights" >
   <v>       0.12500000 </v>
   <v>       0.12500000 </v>
   <v>       0.12500000 </v>
   <v>       0.12500000 </v>
   <v>       0.12500000 </v>
   <v>       0.12500000 </v>
   <v>       0.12500000 </v>
   <v>       0.12500000 </v>
  </varray>
  <varray name="tetrahedronlist"  type="int" >
   <v type="int" >        2        1        2        4        5 </v>
   <v type="int" >        2        1        3        4        5 </v>
   <v type="int" >        2        3        4        5        7 </v>
   <v type="int" >        2        2        4        5        6 </v>
   <v type="int" >        2        4        5        6        8 </v>
   <v type="int" >        2        4        5        7        8 </v>
   <v type="int" >        2        1        2        3        6 </v>
   <v type="int" >        2        2        3        4        6 </v>
   <v type="int" >        2        3        4        6        8 </v>
   <v type="int" >        2        1        3        5        6 </v>
   <v type="int" >        2        3        5        6        7 </v>
   <v type="int" >        2        3        6        7        8 </v>
   <v type="int" >        2        2        3        4        7 </v>
   <v type="int" >        2        1        2        3        7 </v>
   <v type="int" >        2        1        2        5        7 </v>
   <v type="int" >        2        2        4        7        8 </v>
   <v type="int" >        2        2        6        7        8 </v>
   <v type="int" >        2        2        5        6        7 </v>
   <v type="int" >        2        1        3        4        8 </v>
   <v type="int" >        2        1        2        4        8 </v>
   <v type="int" >        2        1        2        6        8 </v>
   <v type="int" >        2        1        3        7        8 </v>
   <v type="int" >        2        1        5        7        8 </v>
   <v type="int" >        2        1        5        6        8 </v>
  </varray>
  <i name="volumeweight">      0.02083333 </i>
 </kpoints>
 <parameters>
  <separator name="general" >
   <i type="string" name="SYSTEM">La2O2S</i>
   <i type="logical" name="LCOMPAT"> F  </i>
  </separator>
  <separator name="electronic" >
   <i type="string" name="PREC">normal</i>
   <i name="ENMAX">    600.00000000</i>
   <i name="ENAUG">    900.00000000</i>
   <i name="EDIFF">      0.00000100</i>
   <i type="int" name="IALGO">    38</i>
   <i type="int" name="IWAVPR">    11</i>
   <i type="int" name="NBANDS">   308</i>
   <i name="NELECT">    472.00000000</i>
   <i type="int" name="TURBO">     0</i>
   <i type="int" name="IRESTART">     0</i>
   <i type="int" name="NREBOOT">     0</i>
   <i type="int" name="NMIN">     0</i>
   <i name="EREF">      0.00000000</i>
   <separator name="electronic smearing" >
    <i type="int" name="ISMEAR">    -5</i>
    <i name="SIGMA">      0.20000000</i>
    <i name="KSPACING">      0.50000000</i>
    <i type="logical" name="KGAMMA"> T  </i>
   </separator>
   <separator name="electronic projectors" >
    <i type="logical" name="LREAL"> F  </i>
    <v name="ROPT">      0.00000000      0.00000000      0.00000000      0.00000000      0.00000000</v>
    <i type="int" name="LMAXPAW">  -100</i>
    <i type="int" name="LMAXMIX">     2</i>
    <i type="logical" name="NLSPLINE"> F  </i>
   </separator>
   <separator name="electronic startup" >
    <i type="int" name="ISTART">     0</i>
    <i type="int" name="ICHARG">     2</i>
    <i type="int" name="INIWAV">     1</i>
   </separator>
   <separator name="electronic spin" >
    <i type="int" name="ISPIN">     1</i>
    <i type="logical" name="LNONCOLLINEAR"> F  </i>
    <v name="MAGMOM">      1.00000000      1.00000000      1.00000000      1.00000000      1.00000000      1.00000000      1.00000000      1.00000000      1.00000000      1.00000000      1.00000000      1.00000000      1.00000000      1.00000000      1.00000000      1.00000000      1.00000000      1.00000000      1.00000000      1.00000000
      1.00000000      1.00000000      1.00000000      1.00000000      1.00000000      1.00000000      1.00000000      1.00000000      1.00000000      1.00000000      1.00000000      1.00000000      1.00000000      1.00000000      1.00000000      1.00000000      1.00000000      1.00000000      1.00000000      1.00000000
      1.00000000      1.00000000      1.00000000      1.00000000      1.00000000      1.00000000      1.00000000      1.00000000      1.00000000      1.00000000      1.00000000      1.00000000      1.00000000      1.00000000      1.00000000      1.00000000      1.00000000      1.00000000      1.00000000      1.00000000
      1.00000000      1.00000000</v>
    <i name="NUPDOWN">     -1.00000000</i>
    <i type="logical" name="LSORBIT"> F  </i>
    <v name="SAXIS">      0.00000000      0.00000000      1.00000000</v>
    <i type="logical" name="LSPIRAL"> F  </i>
    <v name="QSPIRAL">      0.00000000      0.00000000      0.00000000</v>
    <i type="logical" name="LZEROZ"> F  </i>
   </separator>
   <separator name="electronic exchange-correlation" >
    <i type="logical" name="LASPH"> F  </i>
    <i type="logical" name="LMETAGGA"> F  </i>
   </separator>
   <separator name="electronic convergence" >
    <i type="int" name="NELM">    60</i>
    <i type="int" name="NELMDL">    -5</i>
    <i type="int" name="NELMIN">     4</i>
    <i name="ENINI">    600.00000000</i>
    <separator name="electronic convergence detail" >
     <i type="logical" name="LDIAG"> T  </i>
     <i type="logical" name="LSUBROT"> F  </i>
     <i name="WEIMIN">      0.00100000</i>
     <i name="EBREAK">      0.00000000</i>
     <i name="DEPER">      0.30000000</i>
     <i type="int" name="NRMM">     4</i>
     <i name="TIME">      0.40000000</i>
    </separator>
   </separator>
   <separator name="electronic mixer" >
    <i name="AMIX">      0.40000000</i>
    <i name="BMIX">      1.00000000</i>
    <i name="AMIN">      0.10000000</i>
    <i name="AMIX_MAG">      1.60000000</i>
    <i name="BMIX_MAG">      1.00000000</i>
    <separator name="electronic mixer details" >
     <i type="int" name="IMIX">     4</i>
     <i type="logical" name="MIXFIRST"> F  </i>
     <i type="int" name="MAXMIX">   -45</i>
     <i name="WC">    100.00000000</i>
     <i type="int" name="INIMIX">     1</i>
     <i type="int" name="MIXPRE">     1</i>
     <i type="int" name="MREMOVE">     5</i>
    </separator>
   </separator>
   <separator name="electronic dipolcorrection" >
    <i type="logical" name="LDIPOL"> F  </i>
    <i type="logical" name="LMONO"> F  </i>
    <i type="int" name="IDIPOL">     0</i>
    <i name="EPSILON">      1.00000000</i>
    <v name="DIPOL">   -100.00000000   -100.00000000   -100.00000000</v>
    <i name="EFIELD">      0.00000000</i>
   </separator>
  </separator>
  <separator name="grids" >
   <i type="int" name="NGX">    70</i>
   <i type="int" name="NGY">    60</i>
   <i type="int" name="NGZ">    70</i>
   <i type="int" name="NGXF">   140</i>
   <i type="int" name="NGYF">   120</i>
   <i type="int" name="NGZF">   140</i>
   <i type="logical" name="ADDGRID"> F  </i>
  </separator>
  <separator name="ionic" >
   <i type="int" name="NSW">     1</i>
   <i type="int" name="IBRION">     2</i>
   <i type="int" name="MDALGO">     0</i>
   <i type="int" name="ISIF">     2</i>
   <i name="PSTRESS">      0.00000000</i>
   <i name="EDIFFG">     -0.01000000</i>
   <i type="int" name="NFREE">    10</i>
   <i name="POTIM">      0.50000000</i>
   <i name="SMASS">     -3.00000000</i>
   <i name="SCALEE">      1.00000000</i>
  </separator>
  <separator name="ionic md" >
   <i name="TEBEG">      0.00010000</i>
   <i name="TEEND">      0.00010000</i>
   <i type="int" name="NBLOCK">     1</i>
   <i type="int" name="KBLOCK">     1</i>
   <i type="int" name="NPACO">   256</i>
   <i name="APACO">     16.00000000</i>
  </separator>
  <separator name="symmetry" >
   <i type="int" name="ISYM">     2</i>
   <i name="SYMPREC">      0.00001000</i>
  </separator>
  <separator name="dos" >
   <i type="int" name="LORBIT">     0</i>
   <v name="RWIGS">     -1.00000000     -1.00000000     -1.00000000     -1.00000000     -1.00000000</v>
   <i type="int" name="NEDOS">   301</i>
   <i name="EMIN">     10.00000000</i>
   <i name="EMAX">    -10.00000000</i>
   <i name="EFERMI">      0.00000000</i>
  </separator>
  <separator name="writing" >
   <i type="int" name="NWRITE">     2</i>
   <i type="logical" name="LWAVE"> F  </i>
   <i type="logical" name="LDOWNSAMPLE"> F  </i>
   <i type="logical" name="LCHARG"> F  </i>
   <i type="logical" name="LPARD"> F  </i>
   <i type="logical" name="LVTOT"> F  </i>
   <i type="logical" name="LVHAR"> F  </i>
   <i type="logical" name="LELF"> F  </i>
   <i type="logical" name="LOPTICS"> F  </i>
   <v name="STM">      0.00000000      0.00000000      0.00000000      0.00000000      0.00000000      0.00000000      0.00000000</v>
  </separator>
  <separator name="performance" >
   <i type="int" name="NPAR">    28</i>
   <i type="int" name="NSIM">     4</i>
   <i type="int" name="NBLK">    -1</i>
   <i type="logical" name="LPLANE"> T  </i>
   <i type="logical" name="LSCALAPACK"> T  </i>
   <i type="logical" name="LSCAAWARE"> F  </i>
   <i type="logical" name="LSCALU"> F  </i>
   <i type="logical" name="LASYNC"> F  </i>
   <i type="logical" name="LORBITALREAL"> F  </i>
  </separator>
  <separator name="miscellaneous" >
   <i type="int" name="IDIOT">     3</i>
   <i type="int" name="ISPECIAL">     0</i>
   <i type="logical" name="LMUSIC"> F  </i>
   <v name="POMASS">      7.01000000     24.30500000    208.98000000     32.06600000     16.00000000</v>
   <v name="DARWINR">      0.00000000      0.00000000      0.00000000      0.00000000      0.00000000</v>
   <v name="DARWINV">      1.00000000      1.00000000      1.00000000      1.00000000      1.00000000</v>
   <i type="logical" name="LCORR"> T  </i>
  </separator>
  <i type="logical" name="GGA_COMPAT"> T  </i>
  <i type="logical" name="LBERRY"> F  </i>
  <i type="int" name="ICORELEVEL">     0</i>
  <i type="logical" name="LDAU"> F  </i>
  <i type="int" name="I_CONSTRAINED_M">     0</i>
  <separator name="electronic exchange-correlation" >
   <i type="string" name="GGA">--</i>
   <i type="int" name="VOSKOWN">     0</i>
   <i type="logical" name="LHFCALC"> F  </i>
   <i type="string" name="PRECFOCK"></i>
   <i type="logical" name="LSYMGRAD"> F  </i>
   <i type="logical" name="LHFONE"> F  </i>
   <i type="logical" name="LRHFCALC"> F  </i>
   <i type="logical" name="LTHOMAS"> F  </i>
   <i type="logical" name="LMODELHF"> F  </i>
   <i name="ENCUT4O">     -1.00000000</i>
   <i type="int" name="EXXOEP">     0</i>
   <i type="int" name="FOURORBIT">     0</i>
   <i name="AEXX">      0.00000000</i>
   <i name="HFALPHA">      0.00000000</i>
   <i name="MCALPHA">      0.00000000</i>
   <i name="ALDAX">      1.00000000</i>
   <i name="AGGAX">      1.00000000</i>
   <i name="ALDAC">      1.00000000</i>
   <i name="AGGAC">      1.00000000</i>
   <i type="int" name="NKREDX">     1</i>
   <i type="int" name="NKREDY">     1</i>
   <i type="int" name="NKREDZ">     1</i>
   <i type="logical" name="SHIFTRED"> F  </i>
   <i type="logical" name="ODDONLY"> F  </i>
   <i type="logical" name="EVENONLY"> F  </i>
   <i type="int" name="LMAXFOCK">     0</i>
   <i type="int" name="NMAXFOCKAE">     0</i>
   <i type="logical" name="LFOCKAEDFT"> F  </i>
   <i name="HFSCREEN">      0.00000000</i>
   <i name="HFSCREENC">      0.00000000</i>
   <i type="int" name="NBANDSGWLOW">     0</i>
  </separator>
  <separator name="vdW DFT" >
   <i type="logical" name="LUSE_VDW"> F  </i>
   <i name="Zab_VDW">     -0.84910000</i>
   <i name="PARAM1">      0.12340000</i>
   <i name="PARAM2">      1.00000000</i>
   <i name="PARAM3">      0.00000000</i>
  </separator>
  <separator name="model GW" >
   <i type="int" name="MODEL_GW">     0</i>
   <i name="MODEL_EPS0">     11.58240521</i>
   <i name="MODEL_ALPHA">      1.00000000</i>
  </separator>
  <separator name="linear response parameters" >
   <i type="logical" name="LEPSILON"> F  </i>
   <i type="logical" name="LRPA"> F  </i>
   <i type="logical" name="LNABLA"> F  </i>
   <i type="logical" name="LVEL"> F  </i>
   <i type="int" name="KINTER">     0</i>
   <i name="CSHIFT">      0.10000000</i>
   <i name="OMEGAMAX">     -1.00000000</i>
   <i name="DEG_THRESHOLD">      0.00200000</i>
   <i name="RTIME">     -0.10000000</i>
   <i name="WPLASMAI">      0.00000000</i>
   <v name="DFIELD">      0.00000000      0.00000000      0.00000000</v>
   <v name="WPLASMA">      0.00000000      0.00000000      0.00000000      0.00000000      0.00000000      0.00000000      0.00000000      0.00000000      0.00000000</v>
  </separator>
  <separator name="orbital magnetization" >
   <i type="logical" name="NUCIND"> F  </i>
   <v name="MAGPOS">      0.00000000      0.00000000      0.00000000</v>
   <i type="logical" name="LNICSALL"> T  </i>
   <i type="logical" name="ORBITALMAG"> F  </i>
   <i type="logical" name="LMAGBLOCH"> F  </i>
   <i type="logical" name="LCHIMAG"> F  </i>
   <i type="logical" name="LGAUGE"> T  </i>
   <i type="int" name="MAGATOM">     0</i>
   <v name="MAGDIPOL">      0.00000000      0.00000000      0.00000000</v>
   <v name="AVECCONST">      0.00000000      0.00000000      0.00000000</v>
  </separator>
  <separator name="response functions" >
   <i type="logical" name="LADDER"> F  </i>
   <i type="logical" name="LRPAFORCE"> F  </i>
   <i type="logical" name="LFXC"> F  </i>
   <i type="logical" name="LHARTREE"> T  </i>
   <i type="int" name="IBSE">     0</i>
   <v type="int" name="KPOINT">    -1     0     0     0</v>
   <i type="logical" name="LTCTE"> F  </i>
   <i type="logical" name="LTETE"> F  </i>
   <i type="logical" name="LTRIPLET"> F  </i>
   <i type="logical" name="LFXCEPS"> F  </i>
   <i type="logical" name="LFXHEG"> F  </i>
   <i type="int" name="NATURALO">     2</i>
   <i type="logical" name="L2ORDER"> F  </i>
   <i type="logical" name="LMP2LT"> F  </i>
   <i type="logical" name="LUSEW"> F  </i>
   <i name="ENCUTGW">     -2.00000000</i>
   <i name="ENCUTGWSOFT">     -2.00000000</i>
   <i name="ENCUTLF">     -1.00000000</i>
   <i type="int" name="LMAXMP2">    -1</i>
   <i name="SCISSOR">      0.00000000</i>
   <i type="int" name="NOMEGA">     0</i>
   <i type="int" name="NOMEGAR">     0</i>
   <i type="int" name="NBANDSGW">    -1</i>
   <i type="int" name="NBANDSO">    -1</i>
   <i type="int" name="NBANDSV">    -1</i>
   <i type="int" name="NELM">     1</i>
   <i type="int" name="NELMHF">     1</i>
   <i type="int" name="DIM">     3</i>
   <i type="int" name="ANTIRES">     0</i>
   <i name="OMEGAMAX">    -30.00000000</i>
   <i name="OMEGAMIN">    -30.00000000</i>
   <i name="OMEGATL">   -200.00000000</i>
   <i type="int" name="OMEGAGRID">   140</i>
   <i name="CSHIFT">     -0.10000000</i>
   <i type="logical" name="SELFENERGY"> F  </i>
   <i type="logical" name="LSPECTRAL"> F  </i>
   <i type="logical" name="LSPECTRALGW"> F  </i>
   <i type="logical" name="LSINGLES"> F  </i>
   <i type="logical" name="LFERMIGW"> F  </i>
   <i type="logical" name="ODDONLYGW"> F  </i>
   <i type="logical" name="EVENONLYGW"> F  </i>
   <i type="int" name="NKREDLFX">     1</i>
   <i type="int" name="NKREDLFY">     1</i>
   <i type="int" name="NKREDLFZ">     1</i>
   <i type="int" name="MAXMEM">  2800</i>
   <i type="int" name="TELESCOPE">     0</i>
   <i type="int" name="TAUPAR">     1</i>
   <i type="int" name="OMEGAPAR">    -1</i>
   <i name="LAMBDA">      1.00000000</i>
  </separator>
  <separator name="External order field" >
   <i name="OFIELD_KAPPA">      0.00000000</i>
   <v name="OFIELD_K">      0.00000000      0.00000000      0.00000000</v>
   <i name="OFIELD_Q6_NEAR">      0.00000000</i>
   <i name="OFIELD_Q6_FAR">      0.00000000</i>
   <i name="OFIELD_A">      0.00000000</i>
  </separator>
 </parameters>
 <atominfo>
  <atoms>      62 </atoms>
  <types>       5 </types>
  <array name="atoms" >
   <dimension dim="1">ion</dimension>
   <field type="string">element</field>
   <field type="int">atomtype</field>
   <set>
    <rc><c>Li</c><c>   1</c></rc>
    <rc><c>Li</c><c>   1</c></rc>
    <rc><c>Li</c><c>   1</c></rc>
    <rc><c>Li</c><c>   1</c></rc>
    <rc><c>Li</c><c>   1</c></rc>
    <rc><c>Li</c><c>   1</c></rc>
    <rc><c>Li</c><c>   1</c></rc>
    <rc><c>Li</c><c>   1</c></rc>
    <rc><c>Li</c><c>   1</c></rc>
    <rc><c>Li</c><c>   1</c></rc>
    <rc><c>Li</c><c>   1</c></rc>
    <rc><c>Li</c><c>   1</c></rc>
    <rc><c>Mg</c><c>   2</c></rc>
    <rc><c>Mg</c><c>   2</c></rc>
    <rc><c>Bi</c><c>   3</c></rc>
    <rc><c>Bi</c><c>   3</c></rc>
    <rc><c>Bi</c><c>   3</c></rc>
    <rc><c>Bi</c><c>   3</c></rc>
    <rc><c>Bi</c><c>   3</c></rc>
    <rc><c>Bi</c><c>   3</c></rc>
    <rc><c>Bi</c><c>   3</c></rc>
    <rc><c>Bi</c><c>   3</c></rc>
    <rc><c>Bi</c><c>   3</c></rc>
    <rc><c>Bi</c><c>   3</c></rc>
    <rc><c>Bi</c><c>   3</c></rc>
    <rc><c>Bi</c><c>   3</c></rc>
    <rc><c>Bi</c><c>   3</c></rc>
    <rc><c>Bi</c><c>   3</c></rc>
    <rc><c>Bi</c><c>   3</c></rc>
    <rc><c>Bi</c><c>   3</c></rc>
    <rc><c>S </c><c>   4</c></rc>
    <rc><c>S </c><c>   4</c></rc>
    <rc><c>S </c><c>   4</c></rc>
    <rc><c>S </c><c>   4</c></rc>
    <rc><c>S </c><c>   4</c></rc>
    <rc><c>S </c><c>   4</c></rc>
    <rc><c>S </c><c>   4</c></rc>
    <rc><c>S </c><c>   4</c></rc>
    <rc><c>S </c><c>   4</c></rc>
    <rc><c>S </c><c>   4</c></rc>
    <rc><c>S </c><c>   4</c></rc>
    <rc><c>S </c><c>   4</c></rc>
    <rc><c>S </c><c>   4</c></rc>
    <rc><c>S </c><c>   4</c></rc>
    <rc><c>S </c><c>   4</c></rc>
    <rc><c>S </c><c>   4</c></rc>
    <rc><c>O </c><c>   5</c></rc>
    <rc><c>O </c><c>   5</c></rc>
    <rc><c>O </c><c>   5</c></rc>
    <rc><c>O </c><c>   5</c></rc>
    <rc><c>O </c><c>   5</c></rc>
    <rc><c>O </c><c>   5</c></rc>
    <rc><c>O </c><c>   5</c></rc>
    <rc><c>O </c><c>   5</c></rc>
    <rc><c>O </c><c>   5</c></rc>
    <rc><c>O </c><c>   5</c></rc>
    <rc><c>O </c><c>   5</c></rc>
    <rc><c>O </c><c>   5</c></rc>
    <rc><c>O </c><c>   5</c></rc>
    <rc><c>O </c><c>   5</c></rc>
    <rc><c>O </c><c>   5</c></rc>
    <rc><c>O </c><c>   5</c></rc>
   </set>
  </array>
  <array name="atomtypes" >
   <dimension dim="1">type</dimension>
   <field type="int">atomspertype</field>
   <field type="string">element</field>
   <field>mass</field>
   <field>valence</field>
   <field type="string">pseudopotential</field>
   <set>
    <rc><c>  12</c><c>Li</c><c>      7.01000000</c><c>      3.00000000</c><c>  PAW_PBE Li_sv 10Sep2004               </c></rc>
    <rc><c>   2</c><c>Mg</c><c>     24.30500000</c><c>      2.00000000</c><c>  PAW_PBE Mg 13Apr2007                  </c></rc>
    <rc><c>  16</c><c>Bi</c><c>    208.98000000</c><c>     15.00000000</c><c>  PAW_PBE Bi_d 06Sep2000                </c></rc>
    <rc><c>  16</c><c>S </c><c>     32.06600000</c><c>      6.00000000</c><c>  PAW_PBE S 06Sep2000                   </c></rc>
    <rc><c>  16</c><c>O </c><c>     16.00000000</c><c>      6.00000000</c><c>  PAW_PBE O 08Apr2002                   </c></rc>
   </set>
  </array>
 </atominfo>
 <structure name="initialpos" >
  <crystal>
   <varray name="basis" >
    <v>      11.17850000       0.00000000       0.00000000 </v>
    <v>       0.00000000       9.57460000       0.00000000 </v>
    <v>       0.00000000       0.00000000      11.18240000 </v>
   </varray>
   <i name="volume">   1196.84853820 </i>
   <varray name="rec_basis" >
    <v>       0.08945744       0.00000000       0.00000000 </v>
    <v>       0.00000000       0.10444301       0.00000000 </v>
    <v>       0.00000000       0.00000000       0.08942624 </v>
   </varray>
  </crystal>
  <varray name="positions" >
   <v>       0.37539000       0.00017000       0.43687000 </v>
   <v>       0.12461000       0.99984000       0.18687000 </v>
   <v>       0.62461000       0.99984000       0.18687000 </v>
   <v>       0.87461000       0.00017000       0.18687000 </v>
   <v>       0.12539000       0.99984000       0.93687000 </v>
   <v>       0.37539000       0.00017000       0.93687000 </v>
   <v>       0.12461000       0.99984000       0.68687000 </v>
   <v>       0.37461000       0.00017000       0.68687000 </v>
   <v>       0.62539000       0.99984000       0.93687000 </v>
   <v>       0.87539000       0.00017000       0.93687000 </v>
   <v>       0.62461000       0.99984000       0.68687000 </v>
   <v>       0.87461000       0.00017000       0.68687000 </v>
   <v>       0.37461000       0.00017000       0.18687000 </v>
   <v>       0.87539000       0.00017000       0.43687000 </v>
   <v>       0.00013000       0.29519000       0.06281000 </v>
   <v>       0.25013000       0.70481000       0.06281000 </v>
   <v>       0.24987000       0.29519000       0.31282000 </v>
   <v>       0.49987000       0.70481000       0.31282000 </v>
   <v>       0.50013000       0.29519000       0.06281000 </v>
   <v>       0.75013000       0.70481000       0.06281000 </v>
   <v>       0.74987000       0.29519000       0.31282000 </v>
   <v>       0.99987000       0.70481000       0.31282000 </v>
   <v>       0.00013000       0.29519000       0.56281000 </v>
   <v>       0.25013000       0.70481000       0.56281000 </v>
   <v>       0.24987000       0.29519000       0.81282000 </v>
   <v>       0.49987000       0.70481000       0.81282000 </v>
   <v>       0.50013000       0.29519000       0.56281000 </v>
   <v>       0.75013000       0.70481000       0.56281000 </v>
   <v>       0.74987000       0.29519000       0.81282000 </v>
   <v>       0.99987000       0.70481000       0.81282000 </v>
   <v>       0.25005000       0.32677000       0.06286000 </v>
   <v>       0.00005000       0.67323000       0.06286000 </v>
   <v>       0.49995000       0.32677000       0.31286000 </v>
   <v>       0.24995000       0.67323000       0.31286000 </v>
   <v>       0.75005000       0.32677000       0.06286000 </v>
   <v>       0.50005000       0.67323000       0.06286000 </v>
   <v>       0.99995000       0.32677000       0.31286000 </v>
   <v>       0.74995000       0.67323000       0.31286000 </v>
   <v>       0.25005000       0.32677000       0.56286000 </v>
   <v>       0.00005000       0.67323000       0.56286000 </v>
   <v>       0.49995000       0.32677000       0.81286000 </v>
   <v>       0.24995000       0.67323000       0.81286000 </v>
   <v>       0.75005000       0.32677000       0.56286000 </v>
   <v>       0.50005000       0.67323000       0.56286000 </v>
   <v>       0.99995000       0.32677000       0.81286000 </v>
   <v>       0.74995000       0.67323000       0.81286000 </v>
   <v>       0.49987000       0.07798000       0.06246000 </v>
   <v>       0.24987000       0.92202000       0.06246000 </v>
   <v>       0.25013000       0.07798000       0.31246000 </v>
   <v>       0.00013000       0.92202000       0.31246000 </v>
   <v>       0.99987000       0.07798000       0.06246000 </v>
   <v>       0.74987000       0.92202000       0.06246000 </v>
   <v>       0.75013000       0.07798000       0.31246000 </v>
   <v>       0.50013000       0.92202000       0.31246000 </v>
   <v>       0.49987000       0.07798000       0.56246000 </v>
   <v>       0.24987000       0.92202000       0.56246000 </v>
   <v>       0.25013000       0.07798000       0.81246000 </v>
   <v>       0.00013000       0.92202000       0.81246000 </v>
   <v>       0.99987000       0.07798000       0.56246000 </v>
   <v>       0.74987000       0.92202000       0.56246000 </v>
   <v>       0.75013000       0.07798000       0.81246000 </v>
   <v>       0.50013000       0.92202000       0.81246000 </v>
  </varray>
 </structure>
 <calculation>
  <scstep>
   <time name="dav">   64.58   64.72</time>
   <time name="total">   64.67   64.81</time>
   <energy>
    <i name="alphaZ">   1079.87189334 </i>
    <i name="ewald"> -31106.53045205 </i>
    <i name="hartreedc"> -12718.45542440 </i>
    <i name="XCdc">   1468.88652874 </i>
    <i name="pawpsdc">  36917.91861236 </i>
    <i name="pawaedc"> -36503.41947684 </i>
    <i name="eentropy">      0.00000000 </i>
    <i name="bandstr">   1593.08622539 </i>
    <i name="atom">  45173.57650906 </i>
    <i name="e_fr_energy">   5904.93441560 </i>
    <i name="e_wo_entrp">   5904.93441560 </i>
    <i name="e_0_energy">   5904.93441560 </i>
   </energy>
  </scstep>
  <scstep>
   <time name="dav">   65.10   65.27</time>
   <time name="total">   65.12   65.28</time>
   <energy>
    <i name="e_fr_energy">    755.85775836 </i>
    <i name="e_wo_entrp">    755.85775836 </i>
    <i name="e_0_energy">    755.85775836 </i>
   </energy>
  </scstep>
  <scstep>
   <time name="dav">   71.34   71.65</time>
   <time name="total">   71.34   71.66</time>
   <energy>
    <i name="e_fr_energy">   -242.87301325 </i>
    <i name="e_wo_entrp">   -242.87301325 </i>
    <i name="e_0_energy">   -242.87301325 </i>
   </energy>
  </scstep>
  <scstep>
   <time name="dav">   80.47   80.72</time>
   <time name="total">   80.47   80.72</time>
   <energy>
    <i name="e_fr_energy">   -352.92363322 </i>
    <i name="e_wo_entrp">   -352.92363322 </i>
    <i name="e_0_energy">   -352.92363322 </i>
   </energy>
  </scstep>
  <scstep>
   <time name="dav">  104.65  105.06</time>
   <time name="total">  105.38  105.79</time>
   <energy>
    <i name="e_fr_energy">   -361.16123718 </i>
    <i name="e_wo_entrp">   -361.16123718 </i>
    <i name="e_0_energy">   -361.16123718 </i>
   </energy>
  </scstep>
  <scstep>
   <time name="dav">   91.75   92.20</time>
   <time name="total">   92.55   93.01</time>
   <energy>
    <i name="e_fr_energy">   -301.42505435 </i>
    <i name="e_wo_entrp">   -301.42505435 </i>
    <i name="e_0_energy">   -301.42505435 </i>
   </energy>
  </scstep>
  <scstep>
   <time name="dav">   72.75   73.46</time>
   <time name="total">   73.55   74.26</time>
   <energy>
    <i name="e_fr_energy">   -303.59068227 </i>
    <i name="e_wo_entrp">   -303.59068227 </i>
    <i name="e_0_energy">   -303.59068227 </i>
   </energy>
  </scstep>
  <scstep>
   <time name="dav">   83.17   83.51</time>
   <time name="total">   83.96   84.31</time>
   <energy>
    <i name="e_fr_energy">   -302.22033892 </i>
    <i name="e_wo_entrp">   -302.22033892 </i>
    <i name="e_0_energy">   -302.22033892 </i>
   </energy>
  </scstep>
  <scstep>
   <time name="dav">   95.07   95.18</time>
   <time name="total">   95.85   96.00</time>
   <energy>
    <i name="e_fr_energy">   -301.61270504 </i>
    <i name="e_wo_entrp">   -301.61270504 </i>
    <i name="e_0_energy">   -301.61270504 </i>
   </energy>
  </scstep>
  <scstep>
   <time name="dav">   77.27   77.43</time>
   <time name="total">   78.08   78.23</time>
   <energy>
    <i name="e_fr_energy">   -301.58000231 </i>
    <i name="e_wo_entrp">   -301.58000231 </i>
    <i name="e_0_energy">   -301.58000231 </i>
   </energy>
  </scstep>
  <scstep>
   <time name="dav">   80.11   80.36</time>
   <time name="total">   80.91   81.17</time>
   <energy>
    <i name="e_fr_energy">   -301.59311087 </i>
    <i name="e_wo_entrp">   -301.59311087 </i>
    <i name="e_0_energy">   -301.59311087 </i>
   </energy>
  </scstep>
  <scstep>
   <time name="dav">   83.94   84.16</time>
   <time name="total">   84.74   84.96</time>
   <energy>
    <i name="e_fr_energy">   -301.59737824 </i>
    <i name="e_wo_entrp">   -301.59737824 </i>
    <i name="e_0_energy">   -301.59737824 </i>
   </energy>
  </scstep>
  <scstep>
   <time name="dav">   85.50   85.74</time>
   <time name="total">   86.37   86.61</time>
   <energy>
    <i name="e_fr_energy">   -301.59856070 </i>
    <i name="e_wo_entrp">   -301.59856070 </i>
    <i name="e_0_energy">   -301.59856070 </i>
   </energy>
  </scstep>
  <scstep>
   <time name="dav">   83.79   84.04</time>
   <time name="total">   84.59   84.84</time>
   <energy>
    <i name="e_fr_energy">   -301.59872365 </i>
    <i name="e_wo_entrp">   -301.59872365 </i>
    <i name="e_0_energy">   -301.59872365 </i>
   </energy>
  </scstep>
  <scstep>
   <time name="dav">   84.80   85.02</time>
   <time name="total">   85.61   85.83</time>
   <energy>
    <i name="e_fr_energy">   -301.59875769 </i>
    <i name="e_wo_entrp">   -301.59875769 </i>
    <i name="e_0_energy">   -301.59875769 </i>
   </energy>
  </scstep>
  <scstep>
   <time name="dav">   69.89   70.00</time>
   <time name="total">   70.69   70.80</time>
   <energy>
    <i name="e_fr_energy">   -301.59877354 </i>
    <i name="e_wo_entrp">   -301.59877354 </i>
    <i name="e_0_energy">   -301.59877354 </i>
   </energy>
  </scstep>
  <scstep>
   <time name="dav">   74.53   74.68</time>
   <time name="total">   75.33   75.48</time>
   <energy>
    <i name="e_fr_energy">   -301.59877463 </i>
    <i name="e_wo_entrp">   -301.59877463 </i>
    <i name="e_0_energy">   -301.59877463 </i>
   </energy>
  </scstep>
  <scstep>
   <time name="dav">   55.24   55.62</time>
   <time name="total">   55.31   55.70</time>
   <energy>
    <i name="alphaZ">   1079.87189334 </i>
    <i name="ewald"> -31106.53045205 </i>
    <i name="hartreedc"> -12954.02543427 </i>
    <i name="XCdc">   1491.84786953 </i>
    <i name="pawpsdc">  43943.75864996 </i>
    <i name="pawaedc"> -43504.64528695 </i>
    <i name="eentropy">      0.00000000 </i>
    <i name="bandstr">  -4425.45252379 </i>
    <i name="atom">  45173.57650906 </i>
    <i name="e_fr_energy">   -301.59877516 </i>
    <i name="e_wo_entrp">   -301.59877516 </i>
    <i name="e_0_energy">   -301.59877516 </i>
   </energy>
  </scstep>
  <structure>
   <crystal>
    <varray name="basis" >
     <v>      11.17850000       0.00000000       0.00000000 </v>
     <v>       0.00000000       9.57460000       0.00000000 </v>
     <v>       0.00000000       0.00000000      11.18240000 </v>
    </varray>
    <i name="volume">   1196.84853820 </i>
    <varray name="rec_basis" >
     <v>       0.08945744       0.00000000       0.00000000 </v>
     <v>       0.00000000       0.10444301       0.00000000 </v>
     <v>       0.00000000       0.00000000       0.08942624 </v>
    </varray>
   </crystal>
   <varray name="positions" >
    <v>       0.37539000       0.00017000       0.43687000 </v>
    <v>       0.12461000       0.99984000       0.18687000 </v>
    <v>       0.62461000       0.99984000       0.18687000 </v>
    <v>       0.87461000       0.00017000       0.18687000 </v>
    <v>       0.12539000       0.99984000       0.93687000 </v>
    <v>       0.37539000       0.00017000       0.93687000 </v>
    <v>       0.12461000       0.99984000       0.68687000 </v>
    <v>       0.37461000       0.00017000       0.68687000 </v>
    <v>       0.62539000       0.99984000       0.93687000 </v>
    <v>       0.87539000       0.00017000       0.93687000 </v>
    <v>       0.62461000       0.99984000       0.68687000 </v>
    <v>       0.87461000       0.00017000       0.68687000 </v>
    <v>       0.37461000       0.00017000       0.18687000 </v>
    <v>       0.87539000       0.00017000       0.43687000 </v>
    <v>       0.00013000       0.29519000       0.06281000 </v>
    <v>       0.25013000       0.70481000       0.06281000 </v>
    <v>       0.24987000       0.29519000       0.31282000 </v>
    <v>       0.49987000       0.70481000       0.31282000 </v>
    <v>       0.50013000       0.29519000       0.06281000 </v>
    <v>       0.75013000       0.70481000       0.06281000 </v>
    <v>       0.74987000       0.29519000       0.31282000 </v>
    <v>       0.99987000       0.70481000       0.31282000 </v>
    <v>       0.00013000       0.29519000       0.56281000 </v>
    <v>       0.25013000       0.70481000       0.56281000 </v>
    <v>       0.24987000       0.29519000       0.81282000 </v>
    <v>       0.49987000       0.70481000       0.81282000 </v>
    <v>       0.50013000       0.29519000       0.56281000 </v>
    <v>       0.75013000       0.70481000       0.56281000 </v>
    <v>       0.74987000       0.29519000       0.81282000 </v>
    <v>       0.99987000       0.70481000       0.81282000 </v>
    <v>       0.25005000       0.32677000       0.06286000 </v>
    <v>       0.00005000       0.67323000       0.06286000 </v>
    <v>       0.49995000       0.32677000       0.31286000 </v>
    <v>       0.24995000       0.67323000       0.31286000 </v>
    <v>       0.75005000       0.32677000       0.06286000 </v>
    <v>       0.50005000       0.67323000       0.06286000 </v>
    <v>       0.99995000       0.32677000       0.31286000 </v>
    <v>       0.74995000       0.67323000       0.31286000 </v>
    <v>       0.25005000       0.32677000       0.56286000 </v>
    <v>       0.00005000       0.67323000       0.56286000 </v>
    <v>       0.49995000       0.32677000       0.81286000 </v>
    <v>       0.24995000       0.67323000       0.81286000 </v>
    <v>       0.75005000       0.32677000       0.56286000 </v>
    <v>       0.50005000       0.67323000       0.56286000 </v>
    <v>       0.99995000       0.32677000       0.81286000 </v>
    <v>       0.74995000       0.67323000       0.81286000 </v>
    <v>       0.49987000       0.07798000       0.06246000 </v>
    <v>       0.24987000       0.92202000       0.06246000 </v>
    <v>       0.25013000       0.07798000       0.31246000 </v>
    <v>       0.00013000       0.92202000       0.31246000 </v>
    <v>       0.99987000       0.07798000       0.06246000 </v>
    <v>       0.74987000       0.92202000       0.06246000 </v>
    <v>       0.75013000       0.07798000       0.31246000 </v>
    <v>       0.50013000       0.92202000       0.31246000 </v>
    <v>       0.49987000       0.07798000       0.56246000 </v>
    <v>       0.24987000       0.92202000       0.56246000 </v>
    <v>       0.25013000       0.07798000       0.81246000 </v>
    <v>       0.00013000       0.92202000       0.81246000 </v>
    <v>       0.99987000       0.07798000       0.56246000 </v>
    <v>       0.74987000       0.92202000       0.56246000 </v>
    <v>       0.75013000       0.07798000       0.81246000 </v>
    <v>       0.50013000       0.92202000       0.81246000 </v>
   </varray>
  </structure>
  <varray name="forces" >
   <v>      -0.00681663      -0.00198463       0.51857885 </v>
   <v>      -0.39821493       0.06540293       0.46124852 </v>
   <v>       0.41561185      -0.06659534       0.46024643 </v>
   <v>       0.00353347      -0.00103247      -0.10411028 </v>
   <v>      -0.09028195       0.06662948      -0.11779750 </v>
   <v>      -0.00672890      -0.00074932      -0.52197647 </v>
   <v>       0.08248222      -0.06516151      -0.44315072 </v>
   <v>       0.00505215      -0.00146880      -0.34729536 </v>
   <v>       0.07588092      -0.06673253      -0.11852084 </v>
   <v>      -0.00854219      -0.00071458      -0.03544428 </v>
   <v>      -0.06403042       0.06432238      -0.44240579 </v>
   <v>       0.00294912      -0.00155595       0.11624733 </v>
   <v>       0.02026090      -0.00547854       0.54723950 </v>
   <v>      -0.02195012      -0.00749818       0.10458788 </v>
   <v>      -0.07732913       0.03551340      -0.02587640 </v>
   <v>      -0.13806017      -1.04412081      -0.10636049 </v>
   <v>      -0.17719010       0.01985178       0.43334857 </v>
   <v>       0.19028872      -0.01582007       0.43181484 </v>
   <v>       0.12935692       1.04073666      -0.10582883 </v>
   <v>       0.06363060      -0.03530058      -0.02477231 </v>
   <v>      -0.18110330      -0.03218142       0.16746858 </v>
   <v>       0.19193350       0.02569139       0.16621357 </v>
   <v>       0.23933620      -0.03514437      -0.02205564 </v>
   <v>      -0.05212831       1.02358854      -0.08240488 </v>
   <v>       0.02060513       0.01078784      -0.26116145 </v>
   <v>      -0.00765305      -0.01039859      -0.26151194 </v>
   <v>       0.03921531      -1.01820585      -0.08215715 </v>
   <v>      -0.25158427       0.04843673      -0.02430174 </v>
   <v>       0.01029654       0.00360332      -0.13499895 </v>
   <v>       0.00100776      -0.00344976      -0.13522959 </v>
   <v>       0.12104927       0.10129458       0.03680565 </v>
   <v>       0.08072209      -0.15062364      -0.00905044 </v>
   <v>      -0.06283429       0.12351775      -0.31831523 </v>
   <v>       0.06304962      -0.12409217      -0.32006358 </v>
   <v>      -0.08156791       0.15050430      -0.00961612 </v>
   <v>      -0.12256605      -0.10274856       0.03572041 </v>
   <v>      -0.04932315       0.13890503      -0.05350898 </v>
   <v>       0.05205989      -0.14086874      -0.05616672 </v>
   <v>      -0.08818959       0.20836024       0.01816704 </v>
   <v>      -0.14706326      -0.16720358      -0.02683738 </v>
   <v>       0.00198105       0.18533258       0.26617641 </v>
   <v>      -0.00107290      -0.18593219       0.26761418 </v>
   <v>       0.14741034       0.16668766      -0.02613916 </v>
   <v>       0.08606590      -0.20938479       0.01866630 </v>
   <v>       0.00318068       0.18393958       0.08663948 </v>
   <v>      -0.00139378      -0.18490597       0.08837613 </v>
   <v>      -0.54933285      -0.84040531       0.44783915 </v>
   <v>       0.55308895       0.84216091       0.44560077 </v>
   <v>       1.04548772      -0.08140994      -1.29630510 </v>
   <v>      -1.08224530      -0.05290775      -0.22995564 </v>
   <v>       0.08117209      -0.07781284      -0.00513582 </v>
   <v>      -0.06953999       0.07867436      -0.00576668 </v>
   <v>       1.07542863       0.05751666      -0.22749245 </v>
   <v>      -1.07215112       0.08747345      -1.30477215 </v>
   <v>      -0.53157448       0.85639866       0.62258637 </v>
   <v>       0.53965254      -0.85697396       0.62252389 </v>
   <v>      -0.00187293      -0.02405361       0.23963429 </v>
   <v>      -0.00773721       0.01790173       0.08916669 </v>
   <v>      -1.14028423       0.08765418       0.13676597 </v>
   <v>       1.16081255      -0.08673176       0.12855591 </v>
   <v>      -0.00280083      -0.01634928       0.08938351 </v>
   <v>      -0.00943932       0.02511125       0.23926985 </v>
  </varray>
  <varray name="stress" >
   <v>      -9.95521616      -0.08544841      -0.01779694 </v>
   <v>      -0.08544852     -14.60538772       0.05157846 </v>
   <v>      -0.01779694       0.05157833      -7.61391376 </v>
  </varray>
  <energy>
   <i name="e_fr_energy">   -317.47129901 </i>
   <i name="e_wo_entrp">   -317.47129901 </i>
   <i name="e_0_energy">      0.00000000 </i>
  </energy>
  <time name="totalsc"> 1550.01 1555.15</time>
  <eigenvalues>
   <array>
    <dimension dim="1">band</dimension>
    <dimension dim="2">kpoint</dimension>
    <dimension dim="3">spin</dimension>
    <field>eigene</field>
    <field>occ</field>
    <set>
     <set comment="spin 1">
      <set comment="kpoint 1">
       <r>  -40.1998    1.0000 </r>
       <r>  -40.0031    1.0000 </r>
       <r>  -40.0006    1.0000 </r>
       <r>  -39.9870    1.0000 </r>
       <r>  -39.9843    1.0000 </r>
       <r>  -39.8619    1.0000 </r>
       <r>  -39.8205    1.0000 </r>
       <r>  -39.7685    1.0000 </r>
       <r>  -39.5348    1.0000 </r>
       <r>  -39.5327    1.0000 </r>
       <r>  -39.4159    1.0000 </r>
       <r>  -39.3922    1.0000 </r>
       <r>  -18.9031    1.0000 </r>
       <r>  -18.9024    1.0000 </r>
       <r>  -18.8326    1.0000 </r>
       <r>  -18.8319    1.0000 </r>
       <r>  -18.8256    1.0000 </r>
       <r>  -18.8250    1.0000 </r>
       <r>  -18.7291    1.0000 </r>
       <r>  -18.7278    1.0000 </r>
       <r>  -18.7164    1.0000 </r>
       <r>  -18.7159    1.0000 </r>
       <r>  -18.6892    1.0000 </r>
       <r>  -18.6873    1.0000 </r>
       <r>  -18.6793    1.0000 </r>
       <r>  -18.6774    1.0000 </r>
       <r>  -18.6705    1.0000 </r>
       <r>  -18.6685    1.0000 </r>
       <r>  -18.6298    1.0000 </r>
       <r>  -18.6274    1.0000 </r>
       <r>  -18.6205    1.0000 </r>
       <r>  -18.6191    1.0000 </r>
       <r>  -18.6186    1.0000 </r>
       <r>  -18.6179    1.0000 </r>
       <r>  -18.6168    1.0000 </r>
       <r>  -18.6166    1.0000 </r>
       <r>  -18.6154    1.0000 </r>
       <r>  -18.6142    1.0000 </r>
       <r>  -18.6117    1.0000 </r>
       <r>  -18.6109    1.0000 </r>
       <r>  -18.6093    1.0000 </r>
       <r>  -18.6089    1.0000 </r>
       <r>  -18.6053    1.0000 </r>
       <r>  -18.6040    1.0000 </r>
       <r>  -18.6039    1.0000 </r>
       <r>  -18.6032    1.0000 </r>
       <r>  -18.5996    1.0000 </r>
       <r>  -18.5989    1.0000 </r>
       <r>  -18.5955    1.0000 </r>
       <r>  -18.5943    1.0000 </r>
       <r>  -18.5935    1.0000 </r>
       <r>  -18.5928    1.0000 </r>
       <r>  -18.5436    1.0000 </r>
       <r>  -18.5387    1.0000 </r>
       <r>  -18.5301    1.0000 </r>
       <r>  -18.5278    1.0000 </r>
       <r>  -18.5256    1.0000 </r>
       <r>  -18.5254    1.0000 </r>
       <r>  -18.5205    1.0000 </r>
       <r>  -18.5179    1.0000 </r>
       <r>  -18.5159    1.0000 </r>
       <r>  -18.5148    1.0000 </r>
       <r>  -18.4704    1.0000 </r>
       <r>  -18.4686    1.0000 </r>
       <r>  -18.4675    1.0000 </r>
       <r>  -18.4657    1.0000 </r>
       <r>  -18.4615    1.0000 </r>
       <r>  -18.4603    1.0000 </r>
       <r>  -18.4505    1.0000 </r>
       <r>  -18.4496    1.0000 </r>
       <r>  -18.4491    1.0000 </r>
       <r>  -18.4489    1.0000 </r>
       <r>  -18.4486    1.0000 </r>
       <r>  -18.4483    1.0000 </r>
       <r>  -18.4480    1.0000 </r>
       <r>  -18.4470    1.0000 </r>
       <r>  -18.4469    1.0000 </r>
       <r>  -18.4460    1.0000 </r>
       <r>  -18.3871    1.0000 </r>
       <r>  -18.3814    1.0000 </r>
       <r>  -18.3688    1.0000 </r>
       <r>  -18.3684    1.0000 </r>
       <r>  -18.3655    1.0000 </r>
       <r>  -18.3631    1.0000 </r>
       <r>  -18.3554    1.0000 </r>
       <r>  -18.3525    1.0000 </r>
       <r>  -18.2761    1.0000 </r>
       <r>  -18.2729    1.0000 </r>
       <r>  -18.1611    1.0000 </r>
       <r>  -18.1580    1.0000 </r>
       <r>  -18.1476    1.0000 </r>
       <r>  -18.1443    1.0000 </r>
       <r>  -13.5383    1.0000 </r>
       <r>  -13.4298    1.0000 </r>
       <r>  -12.8473    1.0000 </r>
       <r>  -12.7770    1.0000 </r>
       <r>  -12.7241    1.0000 </r>
       <r>  -12.7191    1.0000 </r>
       <r>  -12.7024    1.0000 </r>
       <r>  -12.6812    1.0000 </r>
       <r>  -12.6343    1.0000 </r>
       <r>  -12.6267    1.0000 </r>
       <r>  -12.6228    1.0000 </r>
       <r>  -12.5746    1.0000 </r>
       <r>  -12.5730    1.0000 </r>
       <r>  -12.5290    1.0000 </r>
       <r>  -11.9383    1.0000 </r>
       <r>  -11.8750    1.0000 </r>
       <r>   -9.2954    1.0000 </r>
       <r>   -9.0015    1.0000 </r>
       <r>   -8.5069    1.0000 </r>
       <r>   -8.4662    1.0000 </r>
       <r>   -8.4559    1.0000 </r>
       <r>   -8.4123    1.0000 </r>
       <r>   -8.2836    1.0000 </r>
       <r>   -8.2477    1.0000 </r>
       <r>   -8.2294    1.0000 </r>
       <r>   -8.1884    1.0000 </r>
       <r>   -7.9982    1.0000 </r>
       <r>   -7.9961    1.0000 </r>
       <r>   -7.9632    1.0000 </r>
       <r>   -7.9617    1.0000 </r>
       <r>   -7.3264    1.0000 </r>
       <r>   -7.3246    1.0000 </r>
       <r>   -6.3390    1.0000 </r>
       <r>   -6.3356    1.0000 </r>
       <r>   -6.3145    1.0000 </r>
       <r>   -6.3118    1.0000 </r>
       <r>   -5.4982    1.0000 </r>
       <r>   -5.4635    1.0000 </r>
       <r>   -5.3315    1.0000 </r>
       <r>   -5.3126    1.0000 </r>
       <r>   -5.3080    1.0000 </r>
       <r>   -5.2183    1.0000 </r>
       <r>   -5.1819    1.0000 </r>
       <r>   -5.1383    1.0000 </r>
       <r>   -5.0931    1.0000 </r>
       <r>   -5.0222    1.0000 </r>
       <r>   -3.7757    1.0000 </r>
       <r>   -3.6207    1.0000 </r>
       <r>   -1.3484    1.0000 </r>
       <r>   -1.3308    1.0000 </r>
       <r>   -1.0344    1.0000 </r>
       <r>   -1.0086    1.0000 </r>
       <r>   -0.5128    1.0000 </r>
       <r>   -0.4683    1.0000 </r>
       <r>   -0.4348    1.0000 </r>
       <r>   -0.4212    1.0000 </r>
       <r>   -0.1556    1.0000 </r>
       <r>   -0.1273    1.0000 </r>
       <r>   -0.1202    1.0000 </r>
       <r>   -0.1076    1.0000 </r>
       <r>    0.0638    1.0000 </r>
       <r>    0.2999    1.0000 </r>
       <r>    0.3828    1.0000 </r>
       <r>    0.4909    1.0000 </r>
       <r>    0.5233    1.0000 </r>
       <r>    0.5881    1.0000 </r>
       <r>    0.6588    1.0000 </r>
       <r>    0.7476    1.0000 </r>
       <r>    0.7488    1.0000 </r>
       <r>    0.7682    1.0000 </r>
       <r>    0.7764    1.0000 </r>
       <r>    0.8130    1.0000 </r>
       <r>    0.9045    1.0000 </r>
       <r>    0.9070    1.0000 </r>
       <r>    0.9734    1.0000 </r>
       <r>    1.0038    1.0000 </r>
       <r>    1.0051    1.0000 </r>
       <r>    1.0644    1.0000 </r>
       <r>    1.1070    1.0000 </r>
       <r>    1.1274    1.0000 </r>
       <r>    1.1590    1.0000 </r>
       <r>    1.2533    1.0000 </r>
       <r>    1.2807    1.0000 </r>
       <r>    1.3452    1.0000 </r>
       <r>    1.4227    1.0000 </r>
       <r>    1.4493    1.0000 </r>
       <r>    1.4827    1.0000 </r>
       <r>    1.5046    1.0000 </r>
       <r>    1.5510    1.0000 </r>
       <r>    1.5832    1.0000 </r>
       <r>    1.6381    1.0000 </r>
       <r>    1.6635    1.0000 </r>
       <r>    1.6838    1.0000 </r>
       <r>    1.8028    1.0000 </r>
       <r>    1.8201    1.0000 </r>
       <r>    1.8408    1.0000 </r>
       <r>    1.9044    1.0000 </r>
       <r>    1.9102    1.0000 </r>
       <r>    1.9354    1.0000 </r>
       <r>    1.9554    1.0000 </r>
       <r>    2.1285    1.0000 </r>
       <r>    2.1802    1.0000 </r>
       <r>    2.1978    1.0000 </r>
       <r>    2.2944    1.0000 </r>
       <r>    2.3576    1.0000 </r>
       <r>    2.3966    1.0000 </r>
       <r>    2.5585    1.0000 </r>
       <r>    2.5661    1.0000 </r>
       <r>    2.6013    1.0000 </r>
       <r>    2.6071    1.0000 </r>
       <r>    2.6204    1.0000 </r>
       <r>    2.6217    1.0000 </r>
       <r>    2.6474    1.0000 </r>
       <r>    2.6684    1.0000 </r>
       <r>    2.7137    1.0000 </r>
       <r>    2.7446    1.0000 </r>
       <r>    2.7568    1.0000 </r>
       <r>    2.7747    1.0000 </r>
       <r>    2.7909    1.0000 </r>
       <r>    2.8187    1.0000 </r>
       <r>    2.8589    1.0000 </r>
       <r>    2.9301    1.0000 </r>
       <r>    2.9369    1.0000 </r>
       <r>    2.9497    1.0000 </r>
       <r>    2.9856    1.0000 </r>
       <r>    3.0161    1.0000 </r>
       <r>    3.1003    1.0000 </r>
       <r>    3.1330    1.0000 </r>
       <r>    3.1367    1.0000 </r>
       <r>    3.1604    1.0000 </r>
       <r>    3.1686    1.0000 </r>
       <r>    3.2117    1.0000 </r>
       <r>    3.2125    1.0000 </r>
       <r>    3.2660    1.0000 </r>
       <r>    3.3301    1.0000 </r>
       <r>    3.3337    1.0000 </r>
       <r>    3.4247    1.0000 </r>
       <r>    3.4869    1.0000 </r>
       <r>    3.4944    1.0000 </r>
       <r>    3.5882    1.0000 </r>
       <r>    4.2224    1.0000 </r>
       <r>    4.2271    1.0000 </r>
       <r>    4.2455    1.0000 </r>
       <r>    4.2580    1.0000 </r>
       <r>    5.1262    0.0000 </r>
       <r>    5.1277    0.0000 </r>
       <r>    5.1528    0.0000 </r>
       <r>    5.1678    0.0000 </r>
       <r>    5.7841    0.0000 </r>
       <r>    5.7886    0.0000 </r>
       <r>    5.8242    0.0000 </r>
       <r>    5.8269    0.0000 </r>
       <r>    6.1259    0.0000 </r>
       <r>    6.1427    0.0000 </r>
       <r>    6.1584    0.0000 </r>
       <r>    6.1815    0.0000 </r>
       <r>    6.2623    0.0000 </r>
       <r>    6.2713    0.0000 </r>
       <r>    6.2991    0.0000 </r>
       <r>    6.3020    0.0000 </r>
       <r>    7.1908    0.0000 </r>
       <r>    7.2457    0.0000 </r>
       <r>    7.2732    0.0000 </r>
       <r>    7.3230    0.0000 </r>
       <r>    7.8336    0.0000 </r>
       <r>    7.9244    0.0000 </r>
       <r>    7.9518    0.0000 </r>
       <r>    7.9815    0.0000 </r>
       <r>    8.0256    0.0000 </r>
       <r>    8.0873    0.0000 </r>
       <r>    8.2166    0.0000 </r>
       <r>    8.2223    0.0000 </r>
       <r>    8.5215    0.0000 </r>
       <r>    8.6029    0.0000 </r>
       <r>    8.7117    0.0000 </r>
       <r>    8.7995    0.0000 </r>
       <r>    8.8159    0.0000 </r>
       <r>    8.9441    0.0000 </r>
       <r>    9.0198    0.0000 </r>
       <r>    9.0294    0.0000 </r>
       <r>    9.0400    0.0000 </r>
       <r>    9.0524    0.0000 </r>
       <r>    9.1162    0.0000 </r>
       <r>    9.1465    0.0000 </r>
       <r>    9.1502    0.0000 </r>
       <r>    9.2227    0.0000 </r>
       <r>    9.2340    0.0000 </r>
       <r>    9.2773    0.0000 </r>
       <r>    9.4916    0.0000 </r>
       <r>    9.5332    0.0000 </r>
       <r>    9.5557    0.0000 </r>
       <r>    9.6382    0.0000 </r>
       <r>    9.6902    0.0000 </r>
       <r>    9.7152    0.0000 </r>
       <r>    9.7293    0.0000 </r>
       <r>    9.8868    0.0000 </r>
       <r>   10.1617    0.0000 </r>
       <r>   10.2712    0.0000 </r>
       <r>   10.2778    0.0000 </r>
       <r>   10.3154    0.0000 </r>
       <r>   10.5085    0.0000 </r>
       <r>   10.5439    0.0000 </r>
       <r>   10.6149    0.0000 </r>
       <r>   10.6292    0.0000 </r>
       <r>   10.6595    0.0000 </r>
       <r>   10.7314    0.0000 </r>
       <r>   11.2039    0.0000 </r>
       <r>   11.2973    0.0000 </r>
       <r>   11.4452    0.0000 </r>
       <r>   11.4818    0.0000 </r>
       <r>   11.5858    0.0000 </r>
       <r>   11.6322    0.0000 </r>
       <r>   11.7095    0.0000 </r>
       <r>   11.8044    0.0000 </r>
       <r>   11.8191    0.0000 </r>
       <r>   11.9508    0.0000 </r>
      </set>
      <set comment="kpoint 2">
       <r>  -40.1998    1.0000 </r>
       <r>  -40.0031    1.0000 </r>
       <r>  -40.0006    1.0000 </r>
       <r>  -39.9870    1.0000 </r>
       <r>  -39.9843    1.0000 </r>
       <r>  -39.8619    1.0000 </r>
       <r>  -39.8205    1.0000 </r>
       <r>  -39.7685    1.0000 </r>
       <r>  -39.5348    1.0000 </r>
       <r>  -39.5326    1.0000 </r>
       <r>  -39.4159    1.0000 </r>
       <r>  -39.3922    1.0000 </r>
       <r>  -18.9031    1.0000 </r>
       <r>  -18.9024    1.0000 </r>
       <r>  -18.8325    1.0000 </r>
       <r>  -18.8318    1.0000 </r>
       <r>  -18.8256    1.0000 </r>
       <r>  -18.8250    1.0000 </r>
       <r>  -18.7291    1.0000 </r>
       <r>  -18.7278    1.0000 </r>
       <r>  -18.7164    1.0000 </r>
       <r>  -18.7159    1.0000 </r>
       <r>  -18.6893    1.0000 </r>
       <r>  -18.6874    1.0000 </r>
       <r>  -18.6793    1.0000 </r>
       <r>  -18.6774    1.0000 </r>
       <r>  -18.6705    1.0000 </r>
       <r>  -18.6684    1.0000 </r>
       <r>  -18.6296    1.0000 </r>
       <r>  -18.6271    1.0000 </r>
       <r>  -18.6203    1.0000 </r>
       <r>  -18.6192    1.0000 </r>
       <r>  -18.6183    1.0000 </r>
       <r>  -18.6180    1.0000 </r>
       <r>  -18.6173    1.0000 </r>
       <r>  -18.6166    1.0000 </r>
       <r>  -18.6144    1.0000 </r>
       <r>  -18.6131    1.0000 </r>
       <r>  -18.6128    1.0000 </r>
       <r>  -18.6126    1.0000 </r>
       <r>  -18.6095    1.0000 </r>
       <r>  -18.6092    1.0000 </r>
       <r>  -18.6054    1.0000 </r>
       <r>  -18.6042    1.0000 </r>
       <r>  -18.6038    1.0000 </r>
       <r>  -18.6030    1.0000 </r>
       <r>  -18.5996    1.0000 </r>
       <r>  -18.5990    1.0000 </r>
       <r>  -18.5949    1.0000 </r>
       <r>  -18.5938    1.0000 </r>
       <r>  -18.5935    1.0000 </r>
       <r>  -18.5930    1.0000 </r>
       <r>  -18.5435    1.0000 </r>
       <r>  -18.5386    1.0000 </r>
       <r>  -18.5301    1.0000 </r>
       <r>  -18.5278    1.0000 </r>
       <r>  -18.5256    1.0000 </r>
       <r>  -18.5255    1.0000 </r>
       <r>  -18.5205    1.0000 </r>
       <r>  -18.5179    1.0000 </r>
       <r>  -18.5159    1.0000 </r>
       <r>  -18.5148    1.0000 </r>
       <r>  -18.4704    1.0000 </r>
       <r>  -18.4686    1.0000 </r>
       <r>  -18.4675    1.0000 </r>
       <r>  -18.4656    1.0000 </r>
       <r>  -18.4615    1.0000 </r>
       <r>  -18.4603    1.0000 </r>
       <r>  -18.4505    1.0000 </r>
       <r>  -18.4496    1.0000 </r>
       <r>  -18.4493    1.0000 </r>
       <r>  -18.4489    1.0000 </r>
       <r>  -18.4485    1.0000 </r>
       <r>  -18.4482    1.0000 </r>
       <r>  -18.4476    1.0000 </r>
       <r>  -18.4473    1.0000 </r>
       <r>  -18.4468    1.0000 </r>
       <r>  -18.4460    1.0000 </r>
       <r>  -18.3871    1.0000 </r>
       <r>  -18.3814    1.0000 </r>
       <r>  -18.3689    1.0000 </r>
       <r>  -18.3683    1.0000 </r>
       <r>  -18.3656    1.0000 </r>
       <r>  -18.3631    1.0000 </r>
       <r>  -18.3554    1.0000 </r>
       <r>  -18.3525    1.0000 </r>
       <r>  -18.2761    1.0000 </r>
       <r>  -18.2729    1.0000 </r>
       <r>  -18.1611    1.0000 </r>
       <r>  -18.1580    1.0000 </r>
       <r>  -18.1476    1.0000 </r>
       <r>  -18.1443    1.0000 </r>
       <r>  -13.5377    1.0000 </r>
       <r>  -13.4304    1.0000 </r>
       <r>  -12.8361    1.0000 </r>
       <r>  -12.7935    1.0000 </r>
       <r>  -12.7326    1.0000 </r>
       <r>  -12.7120    1.0000 </r>
       <r>  -12.6844    1.0000 </r>
       <r>  -12.6745    1.0000 </r>
       <r>  -12.6734    1.0000 </r>
       <r>  -12.6244    1.0000 </r>
       <r>  -12.5904    1.0000 </r>
       <r>  -12.5868    1.0000 </r>
       <r>  -12.5730    1.0000 </r>
       <r>  -12.5304    1.0000 </r>
       <r>  -11.9386    1.0000 </r>
       <r>  -11.8747    1.0000 </r>
       <r>   -9.0920    1.0000 </r>
       <r>   -9.0741    1.0000 </r>
       <r>   -8.8186    1.0000 </r>
       <r>   -8.7983    1.0000 </r>
       <r>   -8.2917    1.0000 </r>
       <r>   -8.2905    1.0000 </r>
       <r>   -8.2878    1.0000 </r>
       <r>   -8.2772    1.0000 </r>
       <r>   -8.1038    1.0000 </r>
       <r>   -8.1034    1.0000 </r>
       <r>   -8.1010    1.0000 </r>
       <r>   -8.0921    1.0000 </r>
       <r>   -7.6600    1.0000 </r>
       <r>   -7.6571    1.0000 </r>
       <r>   -7.5495    1.0000 </r>
       <r>   -7.5477    1.0000 </r>
       <r>   -5.9507    1.0000 </r>
       <r>   -5.9122    1.0000 </r>
       <r>   -5.8618    1.0000 </r>
       <r>   -5.8566    1.0000 </r>
       <r>   -5.8175    1.0000 </r>
       <r>   -5.7419    1.0000 </r>
       <r>   -5.7119    1.0000 </r>
       <r>   -5.7054    1.0000 </r>
       <r>   -5.6100    1.0000 </r>
       <r>   -5.5608    1.0000 </r>
       <r>   -5.4710    1.0000 </r>
       <r>   -5.4570    1.0000 </r>
       <r>   -4.3980    1.0000 </r>
       <r>   -4.3856    1.0000 </r>
       <r>   -4.2279    1.0000 </r>
       <r>   -4.2161    1.0000 </r>
       <r>   -1.1057    1.0000 </r>
       <r>   -1.0834    1.0000 </r>
       <r>   -0.7789    1.0000 </r>
       <r>   -0.7688    1.0000 </r>
       <r>   -0.4111    1.0000 </r>
       <r>   -0.2694    1.0000 </r>
       <r>    0.0426    1.0000 </r>
       <r>    0.0841    1.0000 </r>
       <r>    0.1258    1.0000 </r>
       <r>    0.1316    1.0000 </r>
       <r>    0.2095    1.0000 </r>
       <r>    0.2532    1.0000 </r>
       <r>    0.2822    1.0000 </r>
       <r>    0.3274    1.0000 </r>
       <r>    0.3544    1.0000 </r>
       <r>    0.3619    1.0000 </r>
       <r>    0.5753    1.0000 </r>
       <r>    0.5920    1.0000 </r>
       <r>    0.5997    1.0000 </r>
       <r>    0.6118    1.0000 </r>
       <r>    0.6489    1.0000 </r>
       <r>    0.6577    1.0000 </r>
       <r>    0.7435    1.0000 </r>
       <r>    0.7607    1.0000 </r>
       <r>    0.8051    1.0000 </r>
       <r>    0.8648    1.0000 </r>
       <r>    0.9382    1.0000 </r>
       <r>    0.9486    1.0000 </r>
       <r>    1.0060    1.0000 </r>
       <r>    1.0678    1.0000 </r>
       <r>    1.1008    1.0000 </r>
       <r>    1.1498    1.0000 </r>
       <r>    1.2409    1.0000 </r>
       <r>    1.2897    1.0000 </r>
       <r>    1.2958    1.0000 </r>
       <r>    1.3348    1.0000 </r>
       <r>    1.3653    1.0000 </r>
       <r>    1.3710    1.0000 </r>
       <r>    1.4440    1.0000 </r>
       <r>    1.4842    1.0000 </r>
       <r>    1.4855    1.0000 </r>
       <r>    1.5159    1.0000 </r>
       <r>    1.6017    1.0000 </r>
       <r>    1.6316    1.0000 </r>
       <r>    1.6780    1.0000 </r>
       <r>    1.7570    1.0000 </r>
       <r>    1.7945    1.0000 </r>
       <r>    1.8057    1.0000 </r>
       <r>    1.8691    1.0000 </r>
       <r>    1.8702    1.0000 </r>
       <r>    1.9219    1.0000 </r>
       <r>    1.9586    1.0000 </r>
       <r>    2.0006    1.0000 </r>
       <r>    2.0393    1.0000 </r>
       <r>    2.0757    1.0000 </r>
       <r>    2.0873    1.0000 </r>
       <r>    2.1596    1.0000 </r>
       <r>    2.1987    1.0000 </r>
       <r>    2.1998    1.0000 </r>
       <r>    2.3293    1.0000 </r>
       <r>    2.3424    1.0000 </r>
       <r>    2.3746    1.0000 </r>
       <r>    2.4091    1.0000 </r>
       <r>    2.4171    1.0000 </r>
       <r>    2.5041    1.0000 </r>
       <r>    2.5794    1.0000 </r>
       <r>    2.6523    1.0000 </r>
       <r>    2.6542    1.0000 </r>
       <r>    2.6744    1.0000 </r>
       <r>    2.6872    1.0000 </r>
       <r>    2.7252    1.0000 </r>
       <r>    2.7280    1.0000 </r>
       <r>    2.7939    1.0000 </r>
       <r>    2.8157    1.0000 </r>
       <r>    2.8270    1.0000 </r>
       <r>    2.8680    1.0000 </r>
       <r>    2.9111    1.0000 </r>
       <r>    2.9129    1.0000 </r>
       <r>    2.9646    1.0000 </r>
       <r>    2.9671    1.0000 </r>
       <r>    3.1030    1.0000 </r>
       <r>    3.1037    1.0000 </r>
       <r>    3.1284    1.0000 </r>
       <r>    3.1517    1.0000 </r>
       <r>    3.1571    1.0000 </r>
       <r>    3.1851    1.0000 </r>
       <r>    3.3120    1.0000 </r>
       <r>    3.3127    1.0000 </r>
       <r>    3.5329    1.0000 </r>
       <r>    3.5452    1.0000 </r>
       <r>    3.5588    1.0000 </r>
       <r>    3.5705    1.0000 </r>
       <r>    3.5839    1.0000 </r>
       <r>    3.6192    1.0000 </r>
       <r>    3.6947    1.0000 </r>
       <r>    3.7744    1.0000 </r>
       <r>    5.7042    0.0000 </r>
       <r>    5.7103    0.0000 </r>
       <r>    5.7206    0.0000 </r>
       <r>    5.7258    0.0000 </r>
       <r>    5.7953    0.0000 </r>
       <r>    5.7997    0.0000 </r>
       <r>    5.8198    0.0000 </r>
       <r>    5.8206    0.0000 </r>
       <r>    7.2610    0.0000 </r>
       <r>    7.2778    0.0000 </r>
       <r>    7.3482    0.0000 </r>
       <r>    7.3775    0.0000 </r>
       <r>    7.4439    0.0000 </r>
       <r>    7.4565    0.0000 </r>
       <r>    7.4857    0.0000 </r>
       <r>    7.4879    0.0000 </r>
       <r>    7.5027    0.0000 </r>
       <r>    7.5072    0.0000 </r>
       <r>    7.5183    0.0000 </r>
       <r>    7.5534    0.0000 </r>
       <r>    7.8689    0.0000 </r>
       <r>    7.8856    0.0000 </r>
       <r>    7.8934    0.0000 </r>
       <r>    7.9043    0.0000 </r>
       <r>    7.9078    0.0000 </r>
       <r>    7.9353    0.0000 </r>
       <r>    7.9787    0.0000 </r>
       <r>    7.9943    0.0000 </r>
       <r>    8.0330    0.0000 </r>
       <r>    8.0514    0.0000 </r>
       <r>    8.1457    0.0000 </r>
       <r>    8.1509    0.0000 </r>
       <r>    8.3539    0.0000 </r>
       <r>    8.3980    0.0000 </r>
       <r>    8.5516    0.0000 </r>
       <r>    8.5918    0.0000 </r>
       <r>    8.6882    0.0000 </r>
       <r>    8.7113    0.0000 </r>
       <r>    8.7868    0.0000 </r>
       <r>    8.7933    0.0000 </r>
       <r>    8.8522    0.0000 </r>
       <r>    8.8690    0.0000 </r>
       <r>    8.9596    0.0000 </r>
       <r>    8.9622    0.0000 </r>
       <r>    9.2218    0.0000 </r>
       <r>    9.2538    0.0000 </r>
       <r>    9.4905    0.0000 </r>
       <r>    9.5028    0.0000 </r>
       <r>    9.5105    0.0000 </r>
       <r>    9.6777    0.0000 </r>
       <r>   10.2977    0.0000 </r>
       <r>   10.2996    0.0000 </r>
       <r>   10.5031    0.0000 </r>
       <r>   10.5335    0.0000 </r>
       <r>   10.5565    0.0000 </r>
       <r>   10.6297    0.0000 </r>
       <r>   10.6679    0.0000 </r>
       <r>   10.8120    0.0000 </r>
       <r>   10.8131    0.0000 </r>
       <r>   10.8304    0.0000 </r>
       <r>   10.8358    0.0000 </r>
       <r>   10.8996    0.0000 </r>
       <r>   10.9333    0.0000 </r>
       <r>   11.0286    0.0000 </r>
       <r>   11.2979    0.0000 </r>
       <r>   11.3259    0.0000 </r>
       <r>   11.3845    0.0000 </r>
       <r>   11.3865    0.0000 </r>
       <r>   11.4256    0.0000 </r>
       <r>   11.4343    0.0000 </r>
       <r>   11.5613    0.0000 </r>
       <r>   11.5851    0.0000 </r>
      </set>
      <set comment="kpoint 3">
       <r>  -40.1998    1.0000 </r>
       <r>  -40.0031    1.0000 </r>
       <r>  -40.0006    1.0000 </r>
       <r>  -39.9870    1.0000 </r>
       <r>  -39.9843    1.0000 </r>
       <r>  -39.8619    1.0000 </r>
       <r>  -39.8205    1.0000 </r>
       <r>  -39.7685    1.0000 </r>
       <r>  -39.5347    1.0000 </r>
       <r>  -39.5327    1.0000 </r>
       <r>  -39.4159    1.0000 </r>
       <r>  -39.3922    1.0000 </r>
       <r>  -18.9037    1.0000 </r>
       <r>  -18.9019    1.0000 </r>
       <r>  -18.8326    1.0000 </r>
       <r>  -18.8319    1.0000 </r>
       <r>  -18.8256    1.0000 </r>
       <r>  -18.8250    1.0000 </r>
       <r>  -18.7291    1.0000 </r>
       <r>  -18.7279    1.0000 </r>
       <r>  -18.7164    1.0000 </r>
       <r>  -18.7159    1.0000 </r>
       <r>  -18.6892    1.0000 </r>
       <r>  -18.6873    1.0000 </r>
       <r>  -18.6793    1.0000 </r>
       <r>  -18.6774    1.0000 </r>
       <r>  -18.6705    1.0000 </r>
       <r>  -18.6685    1.0000 </r>
       <r>  -18.6298    1.0000 </r>
       <r>  -18.6274    1.0000 </r>
       <r>  -18.6207    1.0000 </r>
       <r>  -18.6191    1.0000 </r>
       <r>  -18.6184    1.0000 </r>
       <r>  -18.6178    1.0000 </r>
       <r>  -18.6168    1.0000 </r>
       <r>  -18.6166    1.0000 </r>
       <r>  -18.6154    1.0000 </r>
       <r>  -18.6142    1.0000 </r>
       <r>  -18.6117    1.0000 </r>
       <r>  -18.6109    1.0000 </r>
       <r>  -18.6092    1.0000 </r>
       <r>  -18.6090    1.0000 </r>
       <r>  -18.6053    1.0000 </r>
       <r>  -18.6040    1.0000 </r>
       <r>  -18.6039    1.0000 </r>
       <r>  -18.6033    1.0000 </r>
       <r>  -18.5998    1.0000 </r>
       <r>  -18.5988    1.0000 </r>
       <r>  -18.5959    1.0000 </r>
       <r>  -18.5941    1.0000 </r>
       <r>  -18.5934    1.0000 </r>
       <r>  -18.5928    1.0000 </r>
       <r>  -18.5436    1.0000 </r>
       <r>  -18.5387    1.0000 </r>
       <r>  -18.5301    1.0000 </r>
       <r>  -18.5278    1.0000 </r>
       <r>  -18.5256    1.0000 </r>
       <r>  -18.5254    1.0000 </r>
       <r>  -18.5206    1.0000 </r>
       <r>  -18.5179    1.0000 </r>
       <r>  -18.5159    1.0000 </r>
       <r>  -18.5147    1.0000 </r>
       <r>  -18.4704    1.0000 </r>
       <r>  -18.4686    1.0000 </r>
       <r>  -18.4675    1.0000 </r>
       <r>  -18.4657    1.0000 </r>
       <r>  -18.4614    1.0000 </r>
       <r>  -18.4604    1.0000 </r>
       <r>  -18.4505    1.0000 </r>
       <r>  -18.4496    1.0000 </r>
       <r>  -18.4491    1.0000 </r>
       <r>  -18.4489    1.0000 </r>
       <r>  -18.4486    1.0000 </r>
       <r>  -18.4482    1.0000 </r>
       <r>  -18.4480    1.0000 </r>
       <r>  -18.4470    1.0000 </r>
       <r>  -18.4469    1.0000 </r>
       <r>  -18.4460    1.0000 </r>
       <r>  -18.3871    1.0000 </r>
       <r>  -18.3814    1.0000 </r>
       <r>  -18.3688    1.0000 </r>
       <r>  -18.3684    1.0000 </r>
       <r>  -18.3655    1.0000 </r>
       <r>  -18.3631    1.0000 </r>
       <r>  -18.3554    1.0000 </r>
       <r>  -18.3525    1.0000 </r>
       <r>  -18.2761    1.0000 </r>
       <r>  -18.2728    1.0000 </r>
       <r>  -18.1611    1.0000 </r>
       <r>  -18.1580    1.0000 </r>
       <r>  -18.1476    1.0000 </r>
       <r>  -18.1444    1.0000 </r>
       <r>  -13.5381    1.0000 </r>
       <r>  -13.4300    1.0000 </r>
       <r>  -12.8454    1.0000 </r>
       <r>  -12.7766    1.0000 </r>
       <r>  -12.7245    1.0000 </r>
       <r>  -12.7190    1.0000 </r>
       <r>  -12.7016    1.0000 </r>
       <r>  -12.6815    1.0000 </r>
       <r>  -12.6342    1.0000 </r>
       <r>  -12.6267    1.0000 </r>
       <r>  -12.6242    1.0000 </r>
       <r>  -12.5757    1.0000 </r>
       <r>  -12.5733    1.0000 </r>
       <r>  -12.5299    1.0000 </r>
       <r>  -11.9373    1.0000 </r>
       <r>  -11.8766    1.0000 </r>
       <r>   -9.2863    1.0000 </r>
       <r>   -9.0077    1.0000 </r>
       <r>   -8.5245    1.0000 </r>
       <r>   -8.4856    1.0000 </r>
       <r>   -8.4740    1.0000 </r>
       <r>   -8.4294    1.0000 </r>
       <r>   -8.2637    1.0000 </r>
       <r>   -8.2269    1.0000 </r>
       <r>   -8.2086    1.0000 </r>
       <r>   -8.1694    1.0000 </r>
       <r>   -8.0022    1.0000 </r>
       <r>   -8.0000    1.0000 </r>
       <r>   -7.9661    1.0000 </r>
       <r>   -7.9647    1.0000 </r>
       <r>   -7.3292    1.0000 </r>
       <r>   -7.3275    1.0000 </r>
       <r>   -6.3309    1.0000 </r>
       <r>   -6.3247    1.0000 </r>
       <r>   -6.3070    1.0000 </r>
       <r>   -6.2997    1.0000 </r>
       <r>   -5.5144    1.0000 </r>
       <r>   -5.4483    1.0000 </r>
       <r>   -5.3713    1.0000 </r>
       <r>   -5.3545    1.0000 </r>
       <r>   -5.3497    1.0000 </r>
       <r>   -5.2380    1.0000 </r>
       <r>   -5.1230    1.0000 </r>
       <r>   -5.0821    1.0000 </r>
       <r>   -5.0561    1.0000 </r>
       <r>   -4.9750    1.0000 </r>
       <r>   -3.8472    1.0000 </r>
       <r>   -3.5379    1.0000 </r>
       <r>   -1.2960    1.0000 </r>
       <r>   -1.2722    1.0000 </r>
       <r>   -1.1069    1.0000 </r>
       <r>   -1.0879    1.0000 </r>
       <r>   -0.3980    1.0000 </r>
       <r>   -0.3719    1.0000 </r>
       <r>   -0.3710    1.0000 </r>
       <r>   -0.3555    1.0000 </r>
       <r>   -0.3285    1.0000 </r>
       <r>   -0.2691    1.0000 </r>
       <r>   -0.2195    1.0000 </r>
       <r>   -0.1952    1.0000 </r>
       <r>   -0.0751    1.0000 </r>
       <r>   -0.0080    1.0000 </r>
       <r>    0.2194    1.0000 </r>
       <r>    0.2691    1.0000 </r>
       <r>    0.2903    1.0000 </r>
       <r>    0.4038    1.0000 </r>
       <r>    0.4584    1.0000 </r>
       <r>    0.4840    1.0000 </r>
       <r>    0.5717    1.0000 </r>
       <r>    0.6825    1.0000 </r>
       <r>    0.7644    1.0000 </r>
       <r>    0.7845    1.0000 </r>
       <r>    0.7997    1.0000 </r>
       <r>    0.8320    1.0000 </r>
       <r>    0.8572    1.0000 </r>
       <r>    0.9390    1.0000 </r>
       <r>    1.0880    1.0000 </r>
       <r>    1.1744    1.0000 </r>
       <r>    1.2062    1.0000 </r>
       <r>    1.2540    1.0000 </r>
       <r>    1.2963    1.0000 </r>
       <r>    1.3159    1.0000 </r>
       <r>    1.4337    1.0000 </r>
       <r>    1.4456    1.0000 </r>
       <r>    1.5592    1.0000 </r>
       <r>    1.6524    1.0000 </r>
       <r>    1.6874    1.0000 </r>
       <r>    1.7274    1.0000 </r>
       <r>    1.7615    1.0000 </r>
       <r>    1.7916    1.0000 </r>
       <r>    1.8232    1.0000 </r>
       <r>    1.8443    1.0000 </r>
       <r>    1.8523    1.0000 </r>
       <r>    1.8624    1.0000 </r>
       <r>    1.8742    1.0000 </r>
       <r>    1.8849    1.0000 </r>
       <r>    1.9228    1.0000 </r>
       <r>    1.9316    1.0000 </r>
       <r>    2.0415    1.0000 </r>
       <r>    2.0976    1.0000 </r>
       <r>    2.1791    1.0000 </r>
       <r>    2.2070    1.0000 </r>
       <r>    2.2376    1.0000 </r>
       <r>    2.3423    1.0000 </r>
       <r>    2.4858    1.0000 </r>
       <r>    2.4904    1.0000 </r>
       <r>    2.5175    1.0000 </r>
       <r>    2.5573    1.0000 </r>
       <r>    2.5895    1.0000 </r>
       <r>    2.5969    1.0000 </r>
       <r>    2.6097    1.0000 </r>
       <r>    2.6124    1.0000 </r>
       <r>    2.6200    1.0000 </r>
       <r>    2.6334    1.0000 </r>
       <r>    2.6775    1.0000 </r>
       <r>    2.7216    1.0000 </r>
       <r>    2.7301    1.0000 </r>
       <r>    2.7834    1.0000 </r>
       <r>    2.8167    1.0000 </r>
       <r>    2.8298    1.0000 </r>
       <r>    2.8410    1.0000 </r>
       <r>    2.8898    1.0000 </r>
       <r>    2.8916    1.0000 </r>
       <r>    2.9491    1.0000 </r>
       <r>    2.9669    1.0000 </r>
       <r>    3.0035    1.0000 </r>
       <r>    3.0298    1.0000 </r>
       <r>    3.0500    1.0000 </r>
       <r>    3.0672    1.0000 </r>
       <r>    3.0901    1.0000 </r>
       <r>    3.1774    1.0000 </r>
       <r>    3.3318    1.0000 </r>
       <r>    3.3550    1.0000 </r>
       <r>    3.4047    1.0000 </r>
       <r>    3.4363    1.0000 </r>
       <r>    3.4609    1.0000 </r>
       <r>    3.4824    1.0000 </r>
       <r>    3.5181    1.0000 </r>
       <r>    3.5512    1.0000 </r>
       <r>    3.6030    1.0000 </r>
       <r>    4.2709    1.0000 </r>
       <r>    4.2759    1.0000 </r>
       <r>    4.2980    1.0000 </r>
       <r>    4.3085    1.0000 </r>
       <r>    5.1920    0.0000 </r>
       <r>    5.1950    0.0000 </r>
       <r>    5.2258    0.0000 </r>
       <r>    5.2278    0.0000 </r>
       <r>    5.7906    0.0000 </r>
       <r>    5.7998    0.0000 </r>
       <r>    5.8308    0.0000 </r>
       <r>    5.8356    0.0000 </r>
       <r>    6.1861    0.0000 </r>
       <r>    6.1994    0.0000 </r>
       <r>    6.2176    0.0000 </r>
       <r>    6.2254    0.0000 </r>
       <r>    6.2708    0.0000 </r>
       <r>    6.2810    0.0000 </r>
       <r>    6.3051    0.0000 </r>
       <r>    6.3187    0.0000 </r>
       <r>    6.8265    0.0000 </r>
       <r>    6.9906    0.0000 </r>
       <r>    6.9981    0.0000 </r>
       <r>    7.0961    0.0000 </r>
       <r>    7.2788    0.0000 </r>
       <r>    7.4113    0.0000 </r>
       <r>    7.5187    0.0000 </r>
       <r>    7.5628    0.0000 </r>
       <r>    7.7966    0.0000 </r>
       <r>    7.8625    0.0000 </r>
       <r>    7.9645    0.0000 </r>
       <r>    7.9896    0.0000 </r>
       <r>    8.0487    0.0000 </r>
       <r>    8.3262    0.0000 </r>
       <r>    8.3639    0.0000 </r>
       <r>    8.5016    0.0000 </r>
       <r>    8.7287    0.0000 </r>
       <r>    8.8949    0.0000 </r>
       <r>    8.9233    0.0000 </r>
       <r>    8.9712    0.0000 </r>
       <r>    9.0650    0.0000 </r>
       <r>    9.0721    0.0000 </r>
       <r>    9.0735    0.0000 </r>
       <r>    9.1400    0.0000 </r>
       <r>    9.1653    0.0000 </r>
       <r>    9.1748    0.0000 </r>
       <r>    9.1949    0.0000 </r>
       <r>    9.2251    0.0000 </r>
       <r>    9.4946    0.0000 </r>
       <r>    9.5229    0.0000 </r>
       <r>    9.7325    0.0000 </r>
       <r>    9.7560    0.0000 </r>
       <r>    9.7827    0.0000 </r>
       <r>    9.8316    0.0000 </r>
[...]
       <r>   11.3629    0.0000 </r>
       <r>   11.3757    0.0000 </r>
       <r>   11.4721    0.0000 </r>
       <r>   11.4783    0.0000 </r>
      </set>
     </set>
    </set>
   </array>
  </eigenvalues>
  <separator name="orbital magnetization" >
   <v name="MAGDIPOLOUT">      0.00000000      0.00000000      0.00000000</v>
  </separator>
  <dos>
   <i name="efermi">      4.30858480 </i>
   <total>
    <array>
     <dimension dim="1">gridpoints</dimension>
     <dimension dim="2">spin</dimension>
     <field>energy</field>
     <field>total</field>
     <field>integrated</field>
     <set>
      <set comment="spin 1">
       <r>   -42.8288     0.0000     0.0000 </r>
       <r>   -42.6360     0.0000     0.0000 </r>
       <r>   -42.4432     0.0000     0.0000 </r>
       <r>   -42.2504     0.0000     0.0000 </r>
       <r>   -42.0576     0.0000     0.0000 </r>
       <r>   -41.8648     0.0000     0.0000 </r>
       <r>   -41.6720     0.0000     0.0000 </r>
       <r>   -41.4792     0.0000     0.0000 </r>
       <r>   -41.2864     0.0000     0.0000 </r>
       <r>   -41.0936     0.0000     0.0000 </r>
       <r>   -40.9009     0.0000     0.0000 </r>
       <r>   -40.7081     0.0000     0.0000 </r>
       <r>   -40.5153     0.0000     0.0000 </r>
       <r>   -40.3225     0.0000     0.0000 </r>
       <r>   -40.1297     0.0000     2.0000 </r>
       <r>   -39.9369     0.0000    10.0000 </r>
       <r>   -39.7441     0.0000    16.0000 </r>
       <r>   -39.5513     0.0000    16.0000 </r>
       <r>   -39.3585     0.0000    24.0000 </r>
       <r>   -39.1657     0.0000    24.0000 </r>
       <r>   -38.9729     0.0000    24.0000 </r>
       <r>   -38.7802     0.0000    24.0000 </r>
       <r>   -38.5874     0.0000    24.0000 </r>
       <r>   -38.3946     0.0000    24.0000 </r>
       <r>   -38.2018     0.0000    24.0000 </r>
       <r>   -38.0090     0.0000    24.0000 </r>
       <r>   -37.8162     0.0000    24.0000 </r>
       <r>   -37.6234     0.0000    24.0000 </r>
       <r>   -37.4306     0.0000    24.0000 </r>
       <r>   -37.2378     0.0000    24.0000 </r>
       <r>   -37.0450     0.0000    24.0000 </r>
       <r>   -36.8522     0.0000    24.0000 </r>
       <r>   -36.6595     0.0000    24.0000 </r>
       <r>   -36.4667     0.0000    24.0000 </r>
       <r>   -36.2739     0.0000    24.0000 </r>
       <r>   -36.0811     0.0000    24.0000 </r>
       <r>   -35.8883     0.0000    24.0000 </r>
       <r>   -35.6955     0.0000    24.0000 </r>
       <r>   -35.5027     0.0000    24.0000 </r>
       <r>   -35.3099     0.0000    24.0000 </r>
       <r>   -35.1171     0.0000    24.0000 </r>
       <r>   -34.9243     0.0000    24.0000 </r>
       <r>   -34.7315     0.0000    24.0000 </r>
       <r>   -34.5388     0.0000    24.0000 </r>
       <r>   -34.3460     0.0000    24.0000 </r>
       <r>   -34.1532     0.0000    24.0000 </r>
       <r>   -33.9604     0.0000    24.0000 </r>
       <r>   -33.7676     0.0000    24.0000 </r>
       <r>   -33.5748     0.0000    24.0000 </r>
       <r>   -33.3820     0.0000    24.0000 </r>
       <r>   -33.1892     0.0000    24.0000 </r>
       <r>   -32.9964     0.0000    24.0000 </r>
       <r>   -32.8036     0.0000    24.0000 </r>
       <r>   -32.6109     0.0000    24.0000 </r>
       <r>   -32.4181     0.0000    24.0000 </r>
       <r>   -32.2253     0.0000    24.0000 </r>
       <r>   -32.0325     0.0000    24.0000 </r>
       <r>   -31.8397     0.0000    24.0000 </r>
       <r>   -31.6469     0.0000    24.0000 </r>
       <r>   -31.4541     0.0000    24.0000 </r>
       <r>   -31.2613     0.0000    24.0000 </r>
       <r>   -31.0685     0.0000    24.0000 </r>
       <r>   -30.8757     0.0000    24.0000 </r>
       <r>   -30.6829     0.0000    24.0000 </r>
       <r>   -30.4902     0.0000    24.0000 </r>
       <r>   -30.2974     0.0000    24.0000 </r>
       <r>   -30.1046     0.0000    24.0000 </r>
       <r>   -29.9118     0.0000    24.0000 </r>
       <r>   -29.7190     0.0000    24.0000 </r>
       <r>   -29.5262     0.0000    24.0000 </r>
       <r>   -29.3334     0.0000    24.0000 </r>
       <r>   -29.1406     0.0000    24.0000 </r>
       <r>   -28.9478     0.0000    24.0000 </r>
       <r>   -28.7550     0.0000    24.0000 </r>
       <r>   -28.5622     0.0000    24.0000 </r>
       <r>   -28.3695     0.0000    24.0000 </r>
       <r>   -28.1767     0.0000    24.0000 </r>
       <r>   -27.9839     0.0000    24.0000 </r>
       <r>   -27.7911     0.0000    24.0000 </r>
       <r>   -27.5983     0.0000    24.0000 </r>
       <r>   -27.4055     0.0000    24.0000 </r>
       <r>   -27.2127     0.0000    24.0000 </r>
       <r>   -27.0199     0.0000    24.0000 </r>
       <r>   -26.8271     0.0000    24.0000 </r>
       <r>   -26.6343     0.0000    24.0000 </r>
       <r>   -26.4415     0.0000    24.0000 </r>
       <r>   -26.2488     0.0000    24.0000 </r>
       <r>   -26.0560     0.0000    24.0000 </r>
       <r>   -25.8632     0.0000    24.0000 </r>
       <r>   -25.6704     0.0000    24.0000 </r>
       <r>   -25.4776     0.0000    24.0000 </r>
       <r>   -25.2848     0.0000    24.0000 </r>
       <r>   -25.0920     0.0000    24.0000 </r>
       <r>   -24.8992     0.0000    24.0000 </r>
       <r>   -24.7064     0.0000    24.0000 </r>
       <r>   -24.5136     0.0000    24.0000 </r>
       <r>   -24.3208     0.0000    24.0000 </r>
       <r>   -24.1281     0.0000    24.0000 </r>
       <r>   -23.9353     0.0000    24.0000 </r>
       <r>   -23.7425     0.0000    24.0000 </r>
       <r>   -23.5497     0.0000    24.0000 </r>
       <r>   -23.3569     0.0000    24.0000 </r>
       <r>   -23.1641     0.0000    24.0000 </r>
       <r>   -22.9713     0.0000    24.0000 </r>
       <r>   -22.7785     0.0000    24.0000 </r>
       <r>   -22.5857     0.0000    24.0000 </r>
       <r>   -22.3929     0.0000    24.0000 </r>
       <r>   -22.2001     0.0000    24.0000 </r>
       <r>   -22.0074     0.0000    24.0000 </r>
       <r>   -21.8146     0.0000    24.0000 </r>
       <r>   -21.6218     0.0000    24.0000 </r>
       <r>   -21.4290     0.0000    24.0000 </r>
       <r>   -21.2362     0.0000    24.0000 </r>
       <r>   -21.0434     0.0000    24.0000 </r>
       <r>   -20.8506     0.0000    24.0000 </r>
       <r>   -20.6578     0.0000    24.0000 </r>
       <r>   -20.4650     0.0000    24.0000 </r>
       <r>   -20.2722     0.0000    24.0000 </r>
       <r>   -20.0794     0.0000    24.0000 </r>
       <r>   -19.8867     0.0000    24.0000 </r>
       <r>   -19.6939     0.0000    24.0000 </r>
       <r>   -19.5011     0.0000    24.0000 </r>
       <r>   -19.3083     0.0000    24.0000 </r>
       <r>   -19.1155     0.0000    24.0000 </r>
       <r>   -18.9227     0.0000    24.0000 </r>
       <r>   -18.7299     0.0000    36.0000 </r>
       <r>   -18.5371     0.0000   108.0000 </r>
       <r>   -18.3443     0.0000   172.0000 </r>
       <r>   -18.1515     0.0000   180.0000 </r>
       <r>   -17.9588     0.0000   184.0000 </r>
       <r>   -17.7660     0.0000   184.0000 </r>
       <r>   -17.5732     0.0000   184.0000 </r>
       <r>   -17.3804     0.0000   184.0000 </r>
       <r>   -17.1876     0.0000   184.0000 </r>
       <r>   -16.9948     0.0000   184.0000 </r>
       <r>   -16.8020     0.0000   184.0000 </r>
       <r>   -16.6092     0.0000   184.0000 </r>
       <r>   -16.4164     0.0000   184.0000 </r>
       <r>   -16.2236     0.0000   184.0000 </r>
       <r>   -16.0308     0.0000   184.0000 </r>
       <r>   -15.8381     0.0000   184.0000 </r>
       <r>   -15.6453     0.0000   184.0000 </r>
       <r>   -15.4525     0.0000   184.0000 </r>
       <r>   -15.2597     0.0000   184.0000 </r>
       <r>   -15.0669     0.0000   184.0000 </r>
       <r>   -14.8741     0.0000   184.0000 </r>
       <r>   -14.6813     0.0000   184.0000 </r>
       <r>   -14.4885     0.0000   184.0000 </r>
       <r>   -14.2957     0.0000   184.0000 </r>
       <r>   -14.1029     0.0000   184.0000 </r>
       <r>   -13.9101     0.0000   184.0000 </r>
       <r>   -13.7174     0.0000   184.0000 </r>
       <r>   -13.5246     0.0000   186.0000 </r>
       <r>   -13.3318     0.0000   188.0000 </r>
       <r>   -13.1390     0.0000   188.0000 </r>
       <r>   -12.9462     0.0000   188.0000 </r>
       <r>   -12.7534    42.7756   192.3377 </r>
       <r>   -12.5606     0.0000   210.0000 </r>
       <r>   -12.3678     0.0000   212.0000 </r>
       <r>   -12.1750     0.0000   212.0000 </r>
       <r>   -11.9822     0.0000   212.0000 </r>
       <r>   -11.7894     0.0000   216.0000 </r>
       <r>   -11.5967     0.0000   216.0000 </r>
       <r>   -11.4039     0.0000   216.0000 </r>
       <r>   -11.2111     0.0000   216.0000 </r>
       <r>   -11.0183     0.0000   216.0000 </r>
       <r>   -10.8255     0.0000   216.0000 </r>
       <r>   -10.6327     0.0000   216.0000 </r>
       <r>   -10.4399     0.0000   216.0000 </r>
       <r>   -10.2471     0.0000   216.0000 </r>
       <r>   -10.0543     0.0000   216.0000 </r>
       <r>    -9.8615     0.0000   216.0000 </r>
       <r>    -9.6687     0.0000   216.0000 </r>
       <r>    -9.4760     0.0000   216.0000 </r>
       <r>    -9.2832     0.5836   216.0025 </r>
       <r>    -9.0904    10.6816   217.3914 </r>
       <r>    -8.8976     0.0000   220.0000 </r>
       <r>    -8.7048    14.3784   222.4842 </r>
       <r>    -8.5120    14.1174   224.9583 </r>
       <r>    -8.3192    23.3691   229.8102 </r>
       <r>    -8.1264    20.5699   233.1863 </r>
       <r>    -7.9336    22.6800   238.0904 </r>
       <r>    -7.7408    15.8220   241.7027 </r>
       <r>    -7.5480    22.8201   245.2669 </r>
       <r>    -7.3553     3.2283   247.9540 </r>
       <r>    -7.1625     0.0000   248.0000 </r>
       <r>    -6.9697     0.0000   248.0000 </r>
       <r>    -6.7769     0.0000   248.0000 </r>
       <r>    -6.5841     0.0000   248.0000 </r>
       <r>    -6.3913     0.0000   248.0000 </r>
       <r>    -6.1985    12.5612   248.7949 </r>
       <r>    -6.0057    29.4196   253.0107 </r>
       <r>    -5.8129    17.0598   256.8026 </r>
       <r>    -5.6201    20.6063   261.6884 </r>
       <r>    -5.4273    21.9746   265.8467 </r>
       <r>    -5.2346    17.0061   269.7111 </r>
       <r>    -5.0418     5.0728   271.8169 </r>
       <r>    -4.8490     7.2726   272.7569 </r>
       <r>    -4.6562     8.4607   274.2511 </r>
       <r>    -4.4634     9.1911   276.1187 </r>
       <r>    -4.2706     6.5962   277.4648 </r>
       <r>    -4.0778     6.1371   278.8076 </r>
       <r>    -3.8850     2.7674   279.6653 </r>
       <r>    -3.6922     0.7281   279.9570 </r>
       <r>    -3.4994     0.0000   280.0000 </r>
       <r>    -3.3067     0.0000   280.0000 </r>
       <r>    -3.1139     0.0000   280.0000 </r>
       <r>    -2.9211     0.0000   280.0000 </r>
       <r>    -2.7283     0.0000   280.0000 </r>
       <r>    -2.5355     0.0000   280.0000 </r>
       <r>    -2.3427     0.0000   280.0000 </r>
       <r>    -2.1499     0.0000   280.0000 </r>
       <r>    -1.9571     0.0000   280.0000 </r>
       <r>    -1.7643     0.0000   280.0000 </r>
       <r>    -1.5715     0.0000   280.0000 </r>
       <r>    -1.3787     0.0000   280.0000 </r>
       <r>    -1.1860     7.1243   280.4711 </r>
       <r>    -0.9932    10.6116   282.1707 </r>
       <r>    -0.8004    12.4299   284.6360 </r>
       <r>    -0.6076     7.5340   286.5299 </r>
       <r>    -0.4148    11.2215   287.8165 </r>
       <r>    -0.2220    23.0465   291.4485 </r>
       <r>    -0.0292    39.7148   297.0456 </r>
       <r>     0.1636    31.6047   304.5920 </r>
       <r>     0.3564    48.2622   310.7376 </r>
       <r>     0.5492    36.2876   318.5293 </r>
       <r>     0.7420    36.7368   325.8493 </r>
       <r>     0.9347    35.1867   332.1205 </r>
       <r>     1.1275    56.0748   340.4259 </r>
       <r>     1.3203    36.1375   349.3616 </r>
       <r>     1.5131    58.3107   358.1568 </r>
       <r>     1.7059    47.3080   367.9863 </r>
       <r>     1.8987    56.6193   379.4095 </r>
       <r>     2.0915    53.2125   387.0550 </r>
       <r>     2.2843    35.5730   395.4593 </r>
       <r>     2.4771    60.6100   404.3798 </r>
       <r>     2.6699    58.0729   416.9170 </r>
       <r>     2.8627    58.5101   429.5473 </r>
       <r>     3.0554    71.3947   442.3614 </r>
       <r>     3.2482    32.5585   452.5740 </r>
       <r>     3.4410    36.5211   459.0040 </r>
       <r>     3.6338    14.3014   465.8779 </r>
       <r>     3.8266    13.0688   469.1212 </r>
       <r>     4.0194     7.3394   471.0886 </r>
       <r>     4.2122     1.6009   471.9505 </r>
       <r>     4.4050     0.0000   472.0000 </r>
       <r>     4.5978     0.0000   472.0000 </r>
       <r>     4.7906     0.0000   472.0000 </r>
       <r>     4.9834     0.0000   472.0000 </r>
       <r>     5.1761     0.2373   472.0037 </r>
       <r>     5.3689     4.2163   472.4150 </r>
       <r>     5.5617     8.4239   473.6334 </r>
       <r>     5.7545     8.4115   475.4045 </r>
       <r>     5.9473    15.5485   479.6299 </r>
       <r>     6.1401    11.9732   482.1823 </r>
       <r>     6.3329    11.8527   484.4166 </r>
       <r>     6.5257    13.6169   486.8721 </r>
       <r>     6.7185    15.3582   489.6656 </r>
       <r>     6.9113    17.1903   492.7985 </r>
       <r>     7.1041    21.3294   496.4116 </r>
       <r>     7.2968    34.4797   501.6800 </r>
       <r>     7.4896    45.0165   509.8268 </r>
       <r>     7.6824    27.3126   515.1813 </r>
       <r>     7.8752    45.5173   522.9140 </r>
       <r>     8.0680    35.9085   531.6646 </r>
       <r>     8.2608    20.1069   536.6096 </r>
       <r>     8.4536    19.1154   540.2385 </r>
       <r>     8.6464    26.5649   544.5463 </r>
       <r>     8.8392    41.5120   550.0636 </r>
       <r>     9.0320    33.1092   558.5300 </r>
       <r>     9.2247    15.0502   562.9303 </r>
       <r>     9.4175    11.2878   565.4944 </r>
       <r>     9.6103    15.7260   568.0431 </r>
       <r>     9.8031     8.9552   570.5474 </r>
       <r>     9.9959     7.8736   572.2377 </r>
       <r>    10.1887    13.8077   574.0999 </r>
       <r>    10.3815    19.5851   577.8128 </r>
       <r>    10.5743    30.2777   582.9584 </r>
       <r>    10.7671    53.1483   590.2844 </r>
       <r>    10.9599    15.2178   596.5650 </r>
       <r>    11.1527    23.4321   600.8099 </r>
       <r>    11.3454    25.5139   605.1205 </r>
       <r>    11.5382    20.1870   609.6256 </r>
       <r>    11.7310    14.0747   612.8996 </r>
       <r>    11.9238     7.2101   614.9264 </r>
       <r>    12.1166     2.3561   615.8096 </r>
       <r>    12.3094     0.1270   615.9970 </r>
       <r>    12.5022     0.0000   616.0000 </r>
       <r>    12.6950     0.0000   616.0000 </r>
       <r>    12.8878     0.0000   616.0000 </r>
       <r>    13.0806     0.0000   616.0000 </r>
       <r>    13.2734     0.0000   616.0000 </r>
       <r>    13.4661     0.0000   616.0000 </r>
       <r>    13.6589     0.0000   616.0000 </r>
       <r>    13.8517     0.0000   616.0000 </r>
       <r>    14.0445     0.0000   616.0000 </r>
       <r>    14.2373     0.0000   616.0000 </r>
       <r>    14.4301     0.0000   616.0000 </r>
       <r>    14.6229     0.0000   616.0000 </r>
       <r>    14.8157     0.0000   616.0000 </r>
       <r>    15.0085     0.0000   616.0000 </r>
      </set>
     </set>
    </array>
   </total>
  </dos>
 </calculation>
 <structure name="finalpos" >
  <crystal>
   <varray name="basis" >
    <v>      11.17850000       0.00000000       0.00000000 </v>
    <v>       0.00000000       9.57460000       0.00000000 </v>
    <v>       0.00000000       0.00000000      11.18240000 </v>
   </varray>
   <i name="volume">   1196.84853820 </i>
   <varray name="rec_basis" >
    <v>       0.08945744       0.00000000       0.00000000 </v>
    <v>       0.00000000       0.10444301       0.00000000 </v>
    <v>       0.00000000       0.00000000       0.08942624 </v>
   </varray>
  </crystal>
  <varray name="positions" >
   <v>       0.37539000       0.00017000       0.43687000 </v>
   <v>       0.12461000       0.99984000       0.18687000 </v>
   <v>       0.62461000       0.99984000       0.18687000 </v>
   <v>       0.87461000       0.00017000       0.18687000 </v>
   <v>       0.12539000       0.99984000       0.93687000 </v>
   <v>       0.37539000       0.00017000       0.93687000 </v>
   <v>       0.12461000       0.99984000       0.68687000 </v>
   <v>       0.37461000       0.00017000       0.68687000 </v>
   <v>       0.62539000       0.99984000       0.93687000 </v>
   <v>       0.87539000       0.00017000       0.93687000 </v>
   <v>       0.62461000       0.99984000       0.68687000 </v>
   <v>       0.87461000       0.00017000       0.68687000 </v>
   <v>       0.37461000       0.00017000       0.18687000 </v>
   <v>       0.87539000       0.00017000       0.43687000 </v>
   <v>       0.00013000       0.29519000       0.06281000 </v>
   <v>       0.25013000       0.70481000       0.06281000 </v>
   <v>       0.24987000       0.29519000       0.31282000 </v>
   <v>       0.49987000       0.70481000       0.31282000 </v>
   <v>       0.50013000       0.29519000       0.06281000 </v>
   <v>       0.75013000       0.70481000       0.06281000 </v>
   <v>       0.74987000       0.29519000       0.31282000 </v>
   <v>       0.99987000       0.70481000       0.31282000 </v>
   <v>       0.00013000       0.29519000       0.56281000 </v>
   <v>       0.25013000       0.70481000       0.56281000 </v>
   <v>       0.24987000       0.29519000       0.81282000 </v>
   <v>       0.49987000       0.70481000       0.81282000 </v>
   <v>       0.50013000       0.29519000       0.56281000 </v>
   <v>       0.75013000       0.70481000       0.56281000 </v>
   <v>       0.74987000       0.29519000       0.81282000 </v>
   <v>       0.99987000       0.70481000       0.81282000 </v>
   <v>       0.25005000       0.32677000       0.06286000 </v>
   <v>       0.00005000       0.67323000       0.06286000 </v>
   <v>       0.49995000       0.32677000       0.31286000 </v>
   <v>       0.24995000       0.67323000       0.31286000 </v>
   <v>       0.75005000       0.32677000       0.06286000 </v>
   <v>       0.50005000       0.67323000       0.06286000 </v>
   <v>       0.99995000       0.32677000       0.31286000 </v>
   <v>       0.74995000       0.67323000       0.31286000 </v>
   <v>       0.25005000       0.32677000       0.56286000 </v>
   <v>       0.00005000       0.67323000       0.56286000 </v>
   <v>       0.49995000       0.32677000       0.81286000 </v>
   <v>       0.24995000       0.67323000       0.81286000 </v>
   <v>       0.75005000       0.32677000       0.56286000 </v>
   <v>       0.50005000       0.67323000       0.56286000 </v>
   <v>       0.99995000       0.32677000       0.81286000 </v>
   <v>       0.74995000       0.67323000       0.81286000 </v>
   <v>       0.49987000       0.07798000       0.06246000 </v>
   <v>       0.24987000       0.92202000       0.06246000 </v>
   <v>       0.25013000       0.07798000       0.31246000 </v>
   <v>       0.00013000       0.92202000       0.31246000 </v>
   <v>       0.99987000       0.07798000       0.06246000 </v>
   <v>       0.74987000       0.92202000       0.06246000 </v>
   <v>       0.75013000       0.07798000       0.31246000 </v>
   <v>       0.50013000       0.92202000       0.31246000 </v>
   <v>       0.49987000       0.07798000       0.56246000 </v>
   <v>       0.24987000       0.92202000       0.56246000 </v>
   <v>       0.25013000       0.07798000       0.81246000 </v>
   <v>       0.00013000       0.92202000       0.81246000 </v>
   <v>       0.99987000       0.07798000       0.56246000 </v>
   <v>       0.74987000       0.92202000       0.56246000 </v>
   <v>       0.75013000       0.07798000       0.81246000 </v>
   <v>       0.50013000       0.92202000       0.81246000 </v>
  </varray>
 </structure>
</modeling>
