<?xml version="1.0" encoding="ISO-8859-1"?>
<modeling>
 <generator>
  <i name="program" type="string">vasp </i>
  <i name="version" type="string">5.4.4.18Apr17-6-g9f103f2a35  </i>
  <i name="subversion" type="string">(build Jul 31 2017 11:33:29) complex            parallel </i>
  <i name="platform" type="string">LinuxIFC </i>
  <i name="date" type="string">2021 09 22 </i>
  <i name="time" type="string">12:47:54 </i>
 </generator>
 <incar>
  <i type="string" name="SYSTEM"> La2O2S</i>
  <i type="string" name="PREC">normal</i>
  <i type="int" name="NELMIN">     4</i>
  <i type="int" name="IBRION">     2</i>
  <i type="int" name="NFREE">    10</i>
  <i name="EDIFF">      0.00000100</i>
  <i name="EDIFFG">     -0.01000000</i>
  <i type="int" name="NSW">   200</i>
  <i type="int" name="ISIF">     3</i>
  <i name="ENCUT">    600.00000000</i>
  <i name="ENAUG">    900.00000000</i>
  <i type="int" name="ISMEAR">    -5</i>
  <i type="logical" name="LWAVE"> F  </i>
  <i type="logical" name="LCHARG"> F  </i>
  <v type="int" name="KPOINT_BSE">    -1     0     0     0</v>
 </incar>
 <structure name="primitive_cell" >
  <crystal>
   <varray name="basis" >
    <v>      11.17850000       0.00000000       0.00000000 </v>
    <v>       0.00000000       9.57460000       0.00000000 </v>
    <v>       0.00000000       0.00000000      11.18240000 </v>
   </varray>
   <i name="volume">   1196.84853820 </i>
   <varray name="rec_basis" >
    <v>       0.08945744       0.00000000       0.00000000 </v>
    <v>       0.00000000       0.10444301       0.00000000 </v>
    <v>       0.00000000       0.00000000       0.08942624 </v>
   </varray>
  </crystal>
  <varray name="positions" >
   <v>       0.12461000      -0.00016000       0.18687000 </v>
   <v>      -0.00013000       0.07798000       0.06246000 </v>
   <v>       0.24987000      -0.07798000       0.06246000 </v>
   <v>       0.00013000      -0.07798000       0.31246000 </v>
   <v>       0.25013000       0.07798000       0.31246000 </v>
   <v>       0.37461000       0.00017000       0.18687000 </v>
   <v>       0.12539000      -0.00016000      -0.06313000 </v>
   <v>       0.00013000       0.29519000       0.06281000 </v>
   <v>       0.25013000      -0.29519000       0.06281000 </v>
   <v>      -0.00013000      -0.29519000       0.31282000 </v>
   <v>       0.24987000       0.29519000       0.31282000 </v>
   <v>       0.00005000      -0.32677000       0.06286000 </v>
   <v>       0.25005000       0.32677000       0.06286000 </v>
   <v>      -0.00005000       0.32677000       0.31286000 </v>
   <v>       0.24995000      -0.32677000       0.31286000 </v>
   <v>      -0.12461000       0.00017000       0.43687000 </v>
   <v>       0.00013000      -0.07798000      -0.18754000 </v>
   <v>      -0.25013000      -0.07798000       0.06246000 </v>
   <v>      -0.24987000       0.07798000       0.31246000 </v>
   <v>       0.25013000       0.07798000      -0.18754000 </v>
   <v>       0.49987000       0.07798000       0.06246000 </v>
   <v>      -0.00013000       0.07798000      -0.43754000 </v>
   <v>      -0.49987000      -0.07798000       0.31246000 </v>
   <v>       0.24987000      -0.07798000      -0.43754000 </v>
   <v>      -0.00013000      -0.29519000      -0.18718000 </v>
   <v>      -0.24987000      -0.29519000       0.06281000 </v>
   <v>       0.24987000       0.29519000      -0.18718000 </v>
   <v>      -0.25013000       0.29519000       0.31282000 </v>
   <v>      -0.49987000       0.29519000       0.06281000 </v>
   <v>       0.49987000      -0.29519000       0.31282000 </v>
   <v>       0.00013000       0.29519000      -0.43719000 </v>
   <v>       0.25013000      -0.29519000      -0.43719000 </v>
   <v>      -0.00005000       0.32677000      -0.18714000 </v>
   <v>       0.24995000      -0.32677000      -0.18714000 </v>
   <v>      -0.24995000       0.32677000       0.06286000 </v>
   <v>      -0.25005000      -0.32677000       0.31286000 </v>
   <v>      -0.49995000      -0.32677000       0.06286000 </v>
   <v>       0.49995000       0.32677000       0.31286000 </v>
   <v>       0.00005000      -0.32677000      -0.43714000 </v>
   <v>       0.25005000       0.32677000      -0.43714000 </v>
   <v>      -0.37539000      -0.00016000       0.18687000 </v>
   <v>       0.12461000      -0.00016000      -0.31313000 </v>
   <v>      -0.24987000       0.07798000      -0.18754000 </v>
   <v>      -0.49987000      -0.07798000      -0.18754000 </v>
   <v>      -0.25013000      -0.07798000      -0.43754000 </v>
   <v>       0.49987000       0.07798000      -0.43754000 </v>
   <v>      -0.37461000      -0.00016000       0.43687000 </v>
   <v>       0.37461000       0.00017000      -0.31313000 </v>
   <v>      -0.25013000       0.29519000      -0.18718000 </v>
   <v>       0.49987000      -0.29519000      -0.18718000 </v>
   <v>      -0.24987000      -0.29519000      -0.43719000 </v>
   <v>      -0.49987000       0.29519000      -0.43719000 </v>
   <v>      -0.25005000      -0.32677000      -0.18714000 </v>
   <v>       0.49995000       0.32677000      -0.18714000 </v>
   <v>      -0.24995000       0.32677000      -0.43714000 </v>
   <v>      -0.49995000      -0.32677000      -0.43714000 </v>
   <v>      -0.37539000      -0.00016000      -0.31313000 </v>
  </varray>
 </structure>
 <varray name="primitive_index" >
  <v type="int" >        1 </v>
  <v type="int" >       46 </v>
  <v type="int" >       43 </v>
  <v type="int" >       45 </v>
  <v type="int" >       44 </v>
  <v type="int" >        2 </v>
  <v type="int" >        6 </v>
  <v type="int" >       10 </v>
  <v type="int" >       11 </v>
  <v type="int" >       17 </v>
  <v type="int" >       12 </v>
  <v type="int" >       27 </v>
  <v type="int" >       26 </v>
  <v type="int" >       32 </v>
  <v type="int" >       29 </v>
  <v type="int" >        4 </v>
  <v type="int" >       53 </v>
  <v type="int" >       47 </v>
  <v type="int" >       48 </v>
  <v type="int" >       52 </v>
  <v type="int" >       42 </v>
  <v type="int" >       54 </v>
  <v type="int" >       49 </v>
  <v type="int" >       51 </v>
  <v type="int" >       25 </v>
  <v type="int" >       15 </v>
  <v type="int" >       20 </v>
  <v type="int" >       16 </v>
  <v type="int" >       14 </v>
  <v type="int" >       13 </v>
  <v type="int" >       18 </v>
  <v type="int" >       19 </v>
  <v type="int" >       40 </v>
  <v type="int" >       37 </v>
  <v type="int" >       30 </v>
  <v type="int" >       33 </v>
  <v type="int" >       31 </v>
  <v type="int" >       28 </v>
  <v type="int" >       35 </v>
  <v type="int" >       34 </v>
  <v type="int" >        5 </v>
  <v type="int" >        7 </v>
  <v type="int" >       56 </v>
  <v type="int" >       57 </v>
  <v type="int" >       55 </v>
  <v type="int" >       50 </v>
  <v type="int" >        3 </v>
  <v type="int" >        8 </v>
  <v type="int" >       24 </v>
  <v type="int" >       21 </v>
  <v type="int" >       23 </v>
  <v type="int" >       22 </v>
  <v type="int" >       41 </v>
  <v type="int" >       36 </v>
  <v type="int" >       38 </v>
  <v type="int" >       39 </v>
  <v type="int" >        9 </v>
 </varray>
 <kpoints>
  <generation param="Gamma">
   <v type="int" name="divisions">       2        2        2 </v>
   <v name="usershift">      0.00000000       0.00000000       0.00000000 </v>
   <v name="genvec1">      0.50000000       0.00000000       0.00000000 </v>
   <v name="genvec2">      0.00000000       0.50000000       0.00000000 </v>
   <v name="genvec3">      0.00000000       0.00000000       0.50000000 </v>
   <v name="shift">      0.00000000       0.00000000       0.00000000 </v>
  </generation>
  <varray name="kpointlist" >
   <v>       0.00000000       0.00000000       0.00000000 </v>
   <v>       0.50000000       0.00000000       0.00000000 </v>
   <v>       0.00000000       0.50000000       0.00000000 </v>
   <v>       0.50000000       0.50000000       0.00000000 </v>
   <v>       0.00000000       0.00000000       0.50000000 </v>
   <v>       0.50000000       0.00000000       0.50000000 </v>
   <v>       0.00000000       0.50000000       0.50000000 </v>
   <v>       0.50000000       0.50000000       0.50000000 </v>
  </varray>
  <varray name="weights" >
   <v>       0.12500000 </v>
   <v>       0.12500000 </v>
   <v>       0.12500000 </v>
   <v>       0.12500000 </v>
   <v>       0.12500000 </v>
   <v>       0.12500000 </v>
   <v>       0.12500000 </v>
   <v>       0.12500000 </v>
  </varray>
  <varray name="tetrahedronlist"  type="int" >
   <v type="int" >        2        1        2        4        5 </v>
   <v type="int" >        2        1        3        4        5 </v>
   <v type="int" >        2        3        4        5        7 </v>
   <v type="int" >        2        2        4        5        6 </v>
   <v type="int" >        2        4        5        6        8 </v>
   <v type="int" >        2        4        5        7        8 </v>
   <v type="int" >        2        1        2        3        6 </v>
   <v type="int" >        2        2        3        4        6 </v>
   <v type="int" >        2        3        4        6        8 </v>
   <v type="int" >        2        1        3        5        6 </v>
   <v type="int" >        2        3        5        6        7 </v>
   <v type="int" >        2        3        6        7        8 </v>
   <v type="int" >        2        2        3        4        7 </v>
   <v type="int" >        2        1        2        3        7 </v>
   <v type="int" >        2        1        2        5        7 </v>
   <v type="int" >        2        2        4        7        8 </v>
   <v type="int" >        2        2        6        7        8 </v>
   <v type="int" >        2        2        5        6        7 </v>
   <v type="int" >        2        1        3        4        8 </v>
   <v type="int" >        2        1        2        4        8 </v>
   <v type="int" >        2        1        2        6        8 </v>
   <v type="int" >        2        1        3        7        8 </v>
   <v type="int" >        2        1        5        7        8 </v>
   <v type="int" >        2        1        5        6        8 </v>
  </varray>
  <i name="volumeweight">      0.02083333 </i>
 </kpoints>
 <parameters>
  <separator name="general" >
   <i type="string" name="SYSTEM">La2O2S</i>
   <i type="logical" name="LCOMPAT"> F  </i>
  </separator>
  <separator name="electronic" >
   <i type="string" name="PREC">normal</i>
   <i name="ENMAX">    600.00000000</i>
   <i name="ENAUG">    900.00000000</i>
   <i name="EDIFF">      0.00000100</i>
   <i type="int" name="IALGO">    38</i>
   <i type="int" name="IWAVPR">    11</i>
   <i type="int" name="NBANDS">   280</i>
   <i name="NELECT">    452.00000000</i>
   <i type="int" name="TURBO">     0</i>
   <i type="int" name="IRESTART">     0</i>
   <i type="int" name="NREBOOT">     0</i>
   <i type="int" name="NMIN">     0</i>
   <i name="EREF">      0.00000000</i>
   <separator name="electronic smearing" >
    <i type="int" name="ISMEAR">    -5</i>
    <i name="SIGMA">      0.20000000</i>
    <i name="KSPACING">      0.50000000</i>
    <i type="logical" name="KGAMMA"> T  </i>
   </separator>
   <separator name="electronic projectors" >
    <i type="logical" name="LREAL"> F  </i>
    <v name="ROPT">      0.00000000      0.00000000      0.00000000      0.00000000      0.00000000</v>
    <i type="int" name="LMAXPAW">  -100</i>
    <i type="int" name="LMAXMIX">     2</i>
    <i type="logical" name="NLSPLINE"> F  </i>
   </separator>
   <separator name="electronic startup" >
    <i type="int" name="ISTART">     0</i>
    <i type="int" name="ICHARG">     2</i>
    <i type="int" name="INIWAV">     1</i>
   </separator>
   <separator name="electronic spin" >
    <i type="int" name="ISPIN">     1</i>
    <i type="logical" name="LNONCOLLINEAR"> F  </i>
    <v name="MAGMOM">      1.00000000      1.00000000      1.00000000      1.00000000      1.00000000      1.00000000      1.00000000      1.00000000      1.00000000      1.00000000      1.00000000      1.00000000      1.00000000      1.00000000      1.00000000      1.00000000      1.00000000      1.00000000      1.00000000      1.00000000
      1.00000000      1.00000000      1.00000000      1.00000000      1.00000000      1.00000000      1.00000000      1.00000000      1.00000000      1.00000000      1.00000000      1.00000000      1.00000000      1.00000000      1.00000000      1.00000000      1.00000000      1.00000000      1.00000000      1.00000000
      1.00000000      1.00000000      1.00000000      1.00000000      1.00000000      1.00000000      1.00000000      1.00000000      1.00000000      1.00000000      1.00000000      1.00000000      1.00000000      1.00000000      1.00000000      1.00000000      1.00000000</v>
    <i name="NUPDOWN">     -1.00000000</i>
    <i type="logical" name="LSORBIT"> F  </i>
    <v name="SAXIS">      0.00000000      0.00000000      1.00000000</v>
    <i type="logical" name="LSPIRAL"> F  </i>
    <v name="QSPIRAL">      0.00000000      0.00000000      0.00000000</v>
    <i type="logical" name="LZEROZ"> F  </i>
   </separator>
   <separator name="electronic exchange-correlation" >
    <i type="logical" name="LASPH"> F  </i>
    <i type="logical" name="LMETAGGA"> F  </i>
   </separator>
   <separator name="electronic convergence" >
    <i type="int" name="NELM">    60</i>
    <i type="int" name="NELMDL">    -5</i>
    <i type="int" name="NELMIN">     4</i>
    <i name="ENINI">    600.00000000</i>
    <separator name="electronic convergence detail" >
     <i type="logical" name="LDIAG"> T  </i>
     <i type="logical" name="LSUBROT"> F  </i>
     <i name="WEIMIN">      0.00100000</i>
     <i name="EBREAK">      0.00000000</i>
     <i name="DEPER">      0.30000000</i>
     <i type="int" name="NRMM">     4</i>
     <i name="TIME">      0.40000000</i>
    </separator>
   </separator>
   <separator name="electronic mixer" >
    <i name="AMIX">      0.40000000</i>
    <i name="BMIX">      1.00000000</i>
    <i name="AMIN">      0.10000000</i>
    <i name="AMIX_MAG">      1.60000000</i>
    <i name="BMIX_MAG">      1.00000000</i>
    <separator name="electronic mixer details" >
     <i type="int" name="IMIX">     4</i>
     <i type="logical" name="MIXFIRST"> F  </i>
     <i type="int" name="MAXMIX">   -45</i>
     <i name="WC">    100.00000000</i>
     <i type="int" name="INIMIX">     1</i>
     <i type="int" name="MIXPRE">     1</i>
     <i type="int" name="MREMOVE">     5</i>
    </separator>
   </separator>
   <separator name="electronic dipolcorrection" >
    <i type="logical" name="LDIPOL"> F  </i>
    <i type="logical" name="LMONO"> F  </i>
    <i type="int" name="IDIPOL">     0</i>
    <i name="EPSILON">      1.00000000</i>
    <v name="DIPOL">   -100.00000000   -100.00000000   -100.00000000</v>
    <i name="EFIELD">      0.00000000</i>
   </separator>
  </separator>
  <separator name="grids" >
   <i type="int" name="NGX">    70</i>
   <i type="int" name="NGY">    60</i>
   <i type="int" name="NGZ">    70</i>
   <i type="int" name="NGXF">   140</i>
   <i type="int" name="NGYF">   120</i>
   <i type="int" name="NGZF">   140</i>
   <i type="logical" name="ADDGRID"> F  </i>
  </separator>
  <separator name="ionic" >
   <i type="int" name="NSW">   200</i>
   <i type="int" name="IBRION">     2</i>
   <i type="int" name="MDALGO">     0</i>
   <i type="int" name="ISIF">     3</i>
   <i name="PSTRESS">      0.00000000</i>
   <i name="EDIFFG">     -0.01000000</i>
   <i type="int" name="NFREE">    10</i>
   <i name="POTIM">      0.50000000</i>
   <i name="SMASS">     -3.00000000</i>
   <i name="SCALEE">      1.00000000</i>
  </separator>
  <separator name="ionic md" >
   <i name="TEBEG">      0.00010000</i>
   <i name="TEEND">      0.00010000</i>
   <i type="int" name="NBLOCK">     1</i>
   <i type="int" name="KBLOCK">   200</i>
   <i type="int" name="NPACO">   256</i>
   <i name="APACO">     16.00000000</i>
  </separator>
  <separator name="symmetry" >
   <i type="int" name="ISYM">     2</i>
   <i name="SYMPREC">      0.00001000</i>
  </separator>
  <separator name="dos" >
   <i type="int" name="LORBIT">     0</i>
   <v name="RWIGS">     -1.00000000     -1.00000000     -1.00000000     -1.00000000     -1.00000000</v>
   <i type="int" name="NEDOS">   301</i>
   <i name="EMIN">     10.00000000</i>
   <i name="EMAX">    -10.00000000</i>
   <i name="EFERMI">      0.00000000</i>
  </separator>
  <separator name="writing" >
   <i type="int" name="NWRITE">     2</i>
   <i type="logical" name="LWAVE"> F  </i>
   <i type="logical" name="LDOWNSAMPLE"> F  </i>
   <i type="logical" name="LCHARG"> F  </i>
   <i type="logical" name="LPARD"> F  </i>
   <i type="logical" name="LVTOT"> F  </i>
   <i type="logical" name="LVHAR"> F  </i>
   <i type="logical" name="LELF"> F  </i>
   <i type="logical" name="LOPTICS"> F  </i>
   <v name="STM">      0.00000000      0.00000000      0.00000000      0.00000000      0.00000000      0.00000000      0.00000000</v>
  </separator>
  <separator name="performance" >
   <i type="int" name="NPAR">    28</i>
   <i type="int" name="NSIM">     4</i>
   <i type="int" name="NBLK">    -1</i>
   <i type="logical" name="LPLANE"> T  </i>
   <i type="logical" name="LSCALAPACK"> T  </i>
   <i type="logical" name="LSCAAWARE"> F  </i>
   <i type="logical" name="LSCALU"> F  </i>
   <i type="logical" name="LASYNC"> F  </i>
   <i type="logical" name="LORBITALREAL"> F  </i>
  </separator>
  <separator name="miscellaneous" >
   <i type="int" name="IDIOT">     3</i>
   <i type="int" name="ISPECIAL">     0</i>
   <i type="logical" name="LMUSIC"> F  </i>
   <v name="POMASS">      7.01000000     24.30500000    208.98000000     32.06600000     16.00000000</v>
   <v name="DARWINR">      0.00000000      0.00000000      0.00000000      0.00000000      0.00000000</v>
   <v name="DARWINV">      1.00000000      1.00000000      1.00000000      1.00000000      1.00000000</v>
   <i type="logical" name="LCORR"> T  </i>
  </separator>
  <i type="logical" name="GGA_COMPAT"> T  </i>
  <i type="logical" name="LBERRY"> F  </i>
  <i type="int" name="ICORELEVEL">     0</i>
  <i type="logical" name="LDAU"> F  </i>
  <i type="int" name="I_CONSTRAINED_M">     0</i>
  <separator name="electronic exchange-correlation" >
   <i type="string" name="GGA">--</i>
   <i type="int" name="VOSKOWN">     0</i>
   <i type="logical" name="LHFCALC"> F  </i>
   <i type="string" name="PRECFOCK"></i>
   <i type="logical" name="LSYMGRAD"> F  </i>
   <i type="logical" name="LHFONE"> F  </i>
   <i type="logical" name="LRHFCALC"> F  </i>
   <i type="logical" name="LTHOMAS"> F  </i>
   <i type="logical" name="LMODELHF"> F  </i>
   <i name="ENCUT4O">     -1.00000000</i>
   <i type="int" name="EXXOEP">     0</i>
   <i type="int" name="FOURORBIT">     0</i>
   <i name="AEXX">      0.00000000</i>
   <i name="HFALPHA">      0.00000000</i>
   <i name="MCALPHA">      0.00000000</i>
   <i name="ALDAX">      1.00000000</i>
   <i name="AGGAX">      1.00000000</i>
   <i name="ALDAC">      1.00000000</i>
   <i name="AGGAC">      1.00000000</i>
   <i type="int" name="NKREDX">     1</i>
   <i type="int" name="NKREDY">     1</i>
   <i type="int" name="NKREDZ">     1</i>
   <i type="logical" name="SHIFTRED"> F  </i>
   <i type="logical" name="ODDONLY"> F  </i>
   <i type="logical" name="EVENONLY"> F  </i>
   <i type="int" name="LMAXFOCK">     0</i>
   <i type="int" name="NMAXFOCKAE">     0</i>
   <i type="logical" name="LFOCKAEDFT"> F  </i>
   <i name="HFSCREEN">      0.00000000</i>
   <i name="HFSCREENC">      0.00000000</i>
   <i type="int" name="NBANDSGWLOW">     0</i>
  </separator>
  <separator name="vdW DFT" >
   <i type="logical" name="LUSE_VDW"> F  </i>
   <i name="Zab_VDW">     -0.84910000</i>
   <i name="PARAM1">      0.12340000</i>
   <i name="PARAM2">      1.00000000</i>
   <i name="PARAM3">      0.00000000</i>
  </separator>
  <separator name="model GW" >
   <i type="int" name="MODEL_GW">     0</i>
   <i name="MODEL_EPS0">     12.59840567</i>
   <i name="MODEL_ALPHA">      1.00000000</i>
  </separator>
  <separator name="linear response parameters" >
   <i type="logical" name="LEPSILON"> F  </i>
   <i type="logical" name="LRPA"> F  </i>
   <i type="logical" name="LNABLA"> F  </i>
   <i type="logical" name="LVEL"> F  </i>
   <i type="int" name="KINTER">     0</i>
   <i name="CSHIFT">      0.10000000</i>
   <i name="OMEGAMAX">     -1.00000000</i>
   <i name="DEG_THRESHOLD">      0.00200000</i>
   <i name="RTIME">     -0.10000000</i>
   <i name="WPLASMAI">      0.00000000</i>
   <v name="DFIELD">      0.00000000      0.00000000      0.00000000</v>
   <v name="WPLASMA">      0.00000000      0.00000000      0.00000000      0.00000000      0.00000000      0.00000000      0.00000000      0.00000000      0.00000000</v>
  </separator>
  <separator name="orbital magnetization" >
   <i type="logical" name="NUCIND"> F  </i>
   <v name="MAGPOS">      0.00000000      0.00000000      0.00000000</v>
   <i type="logical" name="LNICSALL"> T  </i>
   <i type="logical" name="ORBITALMAG"> F  </i>
   <i type="logical" name="LMAGBLOCH"> F  </i>
   <i type="logical" name="LCHIMAG"> F  </i>
   <i type="logical" name="LGAUGE"> T  </i>
   <i type="int" name="MAGATOM">     0</i>
   <v name="MAGDIPOL">      0.00000000      0.00000000      0.00000000</v>
   <v name="AVECCONST">      0.00000000      0.00000000      0.00000000</v>
  </separator>
  <separator name="response functions" >
   <i type="logical" name="LADDER"> F  </i>
   <i type="logical" name="LRPAFORCE"> F  </i>
   <i type="logical" name="LFXC"> F  </i>
   <i type="logical" name="LHARTREE"> T  </i>
   <i type="int" name="IBSE">     0</i>
   <v type="int" name="KPOINT">    -1     0     0     0</v>
   <i type="logical" name="LTCTE"> F  </i>
   <i type="logical" name="LTETE"> F  </i>
   <i type="logical" name="LTRIPLET"> F  </i>
   <i type="logical" name="LFXCEPS"> F  </i>
   <i type="logical" name="LFXHEG"> F  </i>
   <i type="int" name="NATURALO">     2</i>
   <i type="logical" name="L2ORDER"> F  </i>
   <i type="logical" name="LMP2LT"> F  </i>
   <i type="logical" name="LUSEW"> F  </i>
   <i name="ENCUTGW">     -2.00000000</i>
   <i name="ENCUTGWSOFT">     -2.00000000</i>
   <i name="ENCUTLF">     -1.00000000</i>
   <i type="int" name="LMAXMP2">    -1</i>
   <i name="SCISSOR">      0.00000000</i>
   <i type="int" name="NOMEGA">     0</i>
   <i type="int" name="NOMEGAR">     0</i>
   <i type="int" name="NBANDSGW">    -1</i>
   <i type="int" name="NBANDSO">    -1</i>
   <i type="int" name="NBANDSV">    -1</i>
   <i type="int" name="NELM">     1</i>
   <i type="int" name="NELMHF">     1</i>
   <i type="int" name="DIM">     3</i>
   <i type="int" name="ANTIRES">     0</i>
   <i name="OMEGAMAX">    -30.00000000</i>
   <i name="OMEGAMIN">    -30.00000000</i>
   <i name="OMEGATL">   -200.00000000</i>
   <i type="int" name="OMEGAGRID">   140</i>
   <i name="CSHIFT">     -0.10000000</i>
   <i type="logical" name="SELFENERGY"> F  </i>
   <i type="logical" name="LSPECTRAL"> F  </i>
   <i type="logical" name="LSPECTRALGW"> F  </i>
   <i type="logical" name="LSINGLES"> F  </i>
   <i type="logical" name="LFERMIGW"> F  </i>
   <i type="logical" name="ODDONLYGW"> F  </i>
   <i type="logical" name="EVENONLYGW"> F  </i>
   <i type="int" name="NKREDLFX">     1</i>
   <i type="int" name="NKREDLFY">     1</i>
   <i type="int" name="NKREDLFZ">     1</i>
   <i type="int" name="MAXMEM">  2800</i>
   <i type="int" name="TELESCOPE">     0</i>
   <i type="int" name="TAUPAR">     1</i>
   <i type="int" name="OMEGAPAR">    -1</i>
   <i name="LAMBDA">      1.00000000</i>
  </separator>
  <separator name="External order field" >
   <i name="OFIELD_KAPPA">      0.00000000</i>
   <v name="OFIELD_K">      0.00000000      0.00000000      0.00000000</v>
   <i name="OFIELD_Q6_NEAR">      0.00000000</i>
   <i name="OFIELD_Q6_FAR">      0.00000000</i>
   <i name="OFIELD_A">      0.00000000</i>
  </separator>
 </parameters>
 <atominfo>
  <atoms>      57 </atoms>
  <types>       5 </types>
  <array name="atoms" >
   <dimension dim="1">ion</dimension>
   <field type="string">element</field>
   <field type="int">atomtype</field>
   <set>
    <rc><c>Li</c><c>   1</c></rc>
    <rc><c>Li</c><c>   1</c></rc>
    <rc><c>Mg</c><c>   2</c></rc>
    <rc><c>Mg</c><c>   2</c></rc>
    <rc><c>Mg</c><c>   2</c></rc>
    <rc><c>Mg</c><c>   2</c></rc>
    <rc><c>Mg</c><c>   2</c></rc>
    <rc><c>Mg</c><c>   2</c></rc>
    <rc><c>Mg</c><c>   2</c></rc>
    <rc><c>Bi</c><c>   3</c></rc>
    <rc><c>Bi</c><c>   3</c></rc>
    <rc><c>Bi</c><c>   3</c></rc>
    <rc><c>Bi</c><c>   3</c></rc>
    <rc><c>Bi</c><c>   3</c></rc>
    <rc><c>Bi</c><c>   3</c></rc>
    <rc><c>Bi</c><c>   3</c></rc>
    <rc><c>Bi</c><c>   3</c></rc>
    <rc><c>Bi</c><c>   3</c></rc>
    <rc><c>Bi</c><c>   3</c></rc>
    <rc><c>Bi</c><c>   3</c></rc>
    <rc><c>Bi</c><c>   3</c></rc>
    <rc><c>Bi</c><c>   3</c></rc>
    <rc><c>Bi</c><c>   3</c></rc>
    <rc><c>Bi</c><c>   3</c></rc>
    <rc><c>Bi</c><c>   3</c></rc>
    <rc><c>S </c><c>   4</c></rc>
    <rc><c>S </c><c>   4</c></rc>
    <rc><c>S </c><c>   4</c></rc>
    <rc><c>S </c><c>   4</c></rc>
    <rc><c>S </c><c>   4</c></rc>
    <rc><c>S </c><c>   4</c></rc>
    <rc><c>S </c><c>   4</c></rc>
    <rc><c>S </c><c>   4</c></rc>
    <rc><c>S </c><c>   4</c></rc>
    <rc><c>S </c><c>   4</c></rc>
    <rc><c>S </c><c>   4</c></rc>
    <rc><c>S </c><c>   4</c></rc>
    <rc><c>S </c><c>   4</c></rc>
    <rc><c>S </c><c>   4</c></rc>
    <rc><c>S </c><c>   4</c></rc>
    <rc><c>S </c><c>   4</c></rc>
    <rc><c>O </c><c>   5</c></rc>
    <rc><c>O </c><c>   5</c></rc>
    <rc><c>O </c><c>   5</c></rc>
    <rc><c>O </c><c>   5</c></rc>
    <rc><c>O </c><c>   5</c></rc>
    <rc><c>O </c><c>   5</c></rc>
    <rc><c>O </c><c>   5</c></rc>
    <rc><c>O </c><c>   5</c></rc>
    <rc><c>O </c><c>   5</c></rc>
    <rc><c>O </c><c>   5</c></rc>
    <rc><c>O </c><c>   5</c></rc>
    <rc><c>O </c><c>   5</c></rc>
    <rc><c>O </c><c>   5</c></rc>
    <rc><c>O </c><c>   5</c></rc>
    <rc><c>O </c><c>   5</c></rc>
    <rc><c>O </c><c>   5</c></rc>
   </set>
  </array>
  <array name="atomtypes" >
   <dimension dim="1">type</dimension>
   <field type="int">atomspertype</field>
   <field type="string">element</field>
   <field>mass</field>
   <field>valence</field>
   <field type="string">pseudopotential</field>
   <set>
    <rc><c>   2</c><c>Li</c><c>      7.01000000</c><c>      3.00000000</c><c>  PAW_PBE Li_sv 10Sep2004               </c></rc>
    <rc><c>   7</c><c>Mg</c><c>     24.30500000</c><c>      2.00000000</c><c>  PAW_PBE Mg 13Apr2007                  </c></rc>
    <rc><c>  16</c><c>Bi</c><c>    208.98000000</c><c>     15.00000000</c><c>  PAW_PBE Bi_d 06Sep2000                </c></rc>
    <rc><c>  16</c><c>S </c><c>     32.06600000</c><c>      6.00000000</c><c>  PAW_PBE S 06Sep2000                   </c></rc>
    <rc><c>  16</c><c>O </c><c>     16.00000000</c><c>      6.00000000</c><c>  PAW_PBE O 08Apr2002                   </c></rc>
   </set>
  </array>
 </atominfo>
 <structure name="initialpos" >
  <crystal>
   <varray name="basis" >
    <v>      11.17850000       0.00000000       0.00000000 </v>
    <v>       0.00000000       9.57460000       0.00000000 </v>
    <v>       0.00000000       0.00000000      11.18240000 </v>
   </varray>
   <i name="volume">   1196.84853820 </i>
   <varray name="rec_basis" >
    <v>       0.08945744       0.00000000       0.00000000 </v>
    <v>       0.00000000       0.10444301       0.00000000 </v>
    <v>       0.00000000       0.00000000       0.08942624 </v>
   </varray>
  </crystal>
  <varray name="positions" >
   <v>       0.12461000       0.99984000       0.18687000 </v>
   <v>       0.37461000       0.00017000       0.18687000 </v>
   <v>       0.62539000       0.99984000       0.43687000 </v>
   <v>       0.87539000       0.00017000       0.43687000 </v>
   <v>       0.62461000       0.99984000       0.18687000 </v>
   <v>       0.12539000       0.99984000       0.93687000 </v>
   <v>       0.12461000       0.99984000       0.68687000 </v>
   <v>       0.37461000       0.00017000       0.68687000 </v>
   <v>       0.62461000       0.99984000       0.68687000 </v>
   <v>       0.00013000       0.29519000       0.06281000 </v>
   <v>       0.25013000       0.70481000       0.06281000 </v>
   <v>       0.24987000       0.29519000       0.31282000 </v>
   <v>       0.49987000       0.70481000       0.31282000 </v>
   <v>       0.50013000       0.29519000       0.06281000 </v>
   <v>       0.75013000       0.70481000       0.06281000 </v>
   <v>       0.74987000       0.29519000       0.31282000 </v>
   <v>       0.99987000       0.70481000       0.31282000 </v>
   <v>       0.00013000       0.29519000       0.56281000 </v>
   <v>       0.25013000       0.70481000       0.56281000 </v>
   <v>       0.24987000       0.29519000       0.81282000 </v>
   <v>       0.49987000       0.70481000       0.81282000 </v>
   <v>       0.50013000       0.29519000       0.56281000 </v>
   <v>       0.75013000       0.70481000       0.56281000 </v>
   <v>       0.74987000       0.29519000       0.81282000 </v>
   <v>       0.99987000       0.70481000       0.81282000 </v>
   <v>       0.25005000       0.32677000       0.06286000 </v>
   <v>       0.00005000       0.67323000       0.06286000 </v>
   <v>       0.49995000       0.32677000       0.31286000 </v>
   <v>       0.24995000       0.67323000       0.31286000 </v>
   <v>       0.75005000       0.32677000       0.06286000 </v>
   <v>       0.50005000       0.67323000       0.06286000 </v>
   <v>       0.99995000       0.32677000       0.31286000 </v>
   <v>       0.74995000       0.67323000       0.31286000 </v>
   <v>       0.25005000       0.32677000       0.56286000 </v>
   <v>       0.00005000       0.67323000       0.56286000 </v>
   <v>       0.49995000       0.32677000       0.81286000 </v>
   <v>       0.24995000       0.67323000       0.81286000 </v>
   <v>       0.75005000       0.32677000       0.56286000 </v>
   <v>       0.50005000       0.67323000       0.56286000 </v>
   <v>       0.99995000       0.32677000       0.81286000 </v>
   <v>       0.74995000       0.67323000       0.81286000 </v>
   <v>       0.49987000       0.07798000       0.06246000 </v>
   <v>       0.24987000       0.92202000       0.06246000 </v>
   <v>       0.25013000       0.07798000       0.31246000 </v>
   <v>       0.00013000       0.92202000       0.31246000 </v>
   <v>       0.99987000       0.07798000       0.06246000 </v>
   <v>       0.74987000       0.92202000       0.06246000 </v>
   <v>       0.75013000       0.07798000       0.31246000 </v>
   <v>       0.50013000       0.92202000       0.31246000 </v>
   <v>       0.49987000       0.07798000       0.56246000 </v>
   <v>       0.24987000       0.92202000       0.56246000 </v>
   <v>       0.25013000       0.07798000       0.81246000 </v>
   <v>       0.00013000       0.92202000       0.81246000 </v>
   <v>       0.99987000       0.07798000       0.56246000 </v>
   <v>       0.74987000       0.92202000       0.56246000 </v>
   <v>       0.75013000       0.07798000       0.81246000 </v>
   <v>       0.50013000       0.92202000       0.81246000 </v>
  </varray>
 </structure>
 <calculation>
  <scstep>
   <time name="dav">   61.38   61.52</time>
   <time name="total">   61.46   61.62</time>
   <energy>
    <i name="alphaZ">   1047.62774490 </i>
    <i name="ewald"> -29932.76191827 </i>
    <i name="hartreedc"> -12713.69558418 </i>
    <i name="XCdc">   1099.65051629 </i>
    <i name="pawpsdc">  36446.83583027 </i>
    <i name="pawaedc"> -35618.96860492 </i>
    <i name="eentropy">      0.00000000 </i>
    <i name="bandstr">   1947.91287085 </i>
    <i name="atom">  43261.00331033 </i>
    <i name="e_fr_energy">   5537.60416529 </i>
    <i name="e_wo_entrp">   5537.60416529 </i>
    <i name="e_0_energy">   5537.60416529 </i>
   </energy>
  </scstep>
  <scstep>
   <time name="dav">   61.76   61.79</time>
   <time name="total">   61.77   61.80</time>
   <energy>
    <i name="e_fr_energy">    729.49302936 </i>
    <i name="e_wo_entrp">    729.49302936 </i>
    <i name="e_0_energy">    729.49302936 </i>
   </energy>
  </scstep>
  <scstep>
   <time name="dav">   71.70   71.70</time>
   <time name="total">   71.70   71.70</time>
   <energy>
    <i name="e_fr_energy">   -241.91290619 </i>
    <i name="e_wo_entrp">   -241.91290619 </i>
    <i name="e_0_energy">   -241.91290619 </i>
   </energy>
  </scstep>
  <scstep>
   <time name="dav">   73.48   73.48</time>
   <time name="total">   73.49   73.49</time>
   <energy>
    <i name="e_fr_energy">   -324.83957144 </i>
    <i name="e_wo_entrp">   -324.83957144 </i>
    <i name="e_0_energy">   -324.83957144 </i>
   </energy>
  </scstep>
  <scstep>
   <time name="dav">   89.50   89.50</time>
   <time name="total">   90.22   90.22</time>
   <energy>
    <i name="e_fr_energy">   -329.93495454 </i>
    <i name="e_wo_entrp">   -329.93495454 </i>
    <i name="e_0_energy">   -329.93495454 </i>
   </energy>
  </scstep>
  <scstep>
   <time name="dav">   90.96   91.37</time>
   <time name="total">   91.74   92.19</time>
   <energy>
    <i name="e_fr_energy">   -277.61588211 </i>
    <i name="e_wo_entrp">   -277.61588211 </i>
    <i name="e_0_energy">   -277.61588211 </i>
   </energy>
  </scstep>
  <scstep>
   <time name="dav">   65.34   66.16</time>
   <time name="total">   66.13   66.95</time>
   <energy>
    <i name="e_fr_energy">   -278.88917517 </i>
    <i name="e_wo_entrp">   -278.88917517 </i>
    <i name="e_0_energy">   -278.88917517 </i>
   </energy>
  </scstep>
  <scstep>
   <time name="dav">   76.59   77.26</time>
   <time name="total">   77.35   78.08</time>
   <energy>
    <i name="e_fr_energy">   -278.00741114 </i>
    <i name="e_wo_entrp">   -278.00741114 </i>
    <i name="e_0_energy">   -278.00741114 </i>
   </energy>
  </scstep>
  <scstep>
   <time name="dav">   73.81   74.07</time>
   <time name="total">   74.62   74.88</time>
   <energy>
    <i name="e_fr_energy">   -277.55522603 </i>
    <i name="e_wo_entrp">   -277.55522603 </i>
    <i name="e_0_energy">   -277.55522603 </i>
   </energy>
  </scstep>
  <scstep>
   <time name="dav">   79.13   79.42</time>
   <time name="total">   79.91   80.21</time>
   <energy>
    <i name="e_fr_energy">   -277.59061163 </i>
    <i name="e_wo_entrp">   -277.59061163 </i>
    <i name="e_0_energy">   -277.59061163 </i>
   </energy>
  </scstep>
  <scstep>
   <time name="dav">   77.29   77.77</time>
   <time name="total">   78.07   78.56</time>
   <energy>
    <i name="e_fr_energy">   -277.58823471 </i>
    <i name="e_wo_entrp">   -277.58823471 </i>
    <i name="e_0_energy">   -277.58823471 </i>
   </energy>
  </scstep>
  <scstep>
   <time name="dav">   76.89   77.13</time>
   <time name="total">   77.67   77.91</time>
   <energy>
    <i name="e_fr_energy">   -277.58993217 </i>
    <i name="e_wo_entrp">   -277.58993217 </i>
    <i name="e_0_energy">   -277.58993217 </i>
   </energy>
  </scstep>
  <scstep>
   <time name="dav">   76.89   76.91</time>
   <time name="total">   77.68   77.70</time>
   <energy>
    <i name="e_fr_energy">   -277.59202589 </i>
    <i name="e_wo_entrp">   -277.59202589 </i>
    <i name="e_0_energy">   -277.59202589 </i>
   </energy>
  </scstep>
  <scstep>
   <time name="dav">   73.32   73.31</time>
   <time name="total">   74.11   74.10</time>
   <energy>
    <i name="e_fr_energy">   -277.59208612 </i>
    <i name="e_wo_entrp">   -277.59208612 </i>
    <i name="e_0_energy">   -277.59208612 </i>
   </energy>
  </scstep>
  <scstep>
   <time name="dav">   75.37   75.41</time>
   <time name="total">   76.26   76.29</time>
   <energy>
    <i name="e_fr_energy">   -277.59215277 </i>
    <i name="e_wo_entrp">   -277.59215277 </i>
    <i name="e_0_energy">   -277.59215277 </i>
   </energy>
  </scstep>
  <scstep>
   <time name="dav">   73.98   73.96</time>
   <time name="total">   74.76   74.74</time>
   <energy>
    <i name="e_fr_energy">   -277.59220266 </i>
    <i name="e_wo_entrp">   -277.59220266 </i>
    <i name="e_0_energy">   -277.59220266 </i>
   </energy>
  </scstep>
  <scstep>
   <time name="dav">   72.47   72.45</time>
   <time name="total">   73.25   73.24</time>
   <energy>
    <i name="e_fr_energy">   -277.59221039 </i>
    <i name="e_wo_entrp">   -277.59221039 </i>
    <i name="e_0_energy">   -277.59221039 </i>
   </energy>
  </scstep>
  <scstep>
   <time name="dav">   67.03   67.00</time>
   <time name="total">   67.10   67.08</time>
   <energy>
    <i name="alphaZ">   1047.62774490 </i>
    <i name="ewald"> -29932.76191827 </i>
    <i name="hartreedc"> -12942.37669342 </i>
    <i name="XCdc">   1124.86093946 </i>
    <i name="pawpsdc">  43445.31733469 </i>
    <i name="pawaedc"> -42589.40147220 </i>
    <i name="eentropy">      0.00000000 </i>
    <i name="bandstr">  -3691.86145618 </i>
    <i name="atom">  43261.00331033 </i>
    <i name="e_fr_energy">   -277.59221069 </i>
    <i name="e_wo_entrp">   -277.59221069 </i>
    <i name="e_0_energy">   -277.59221069 </i>
   </energy>
  </scstep>
  <structure>
   <crystal>
    <varray name="basis" >
     <v>      11.17850000       0.00000000       0.00000000 </v>
     <v>       0.00000000       9.57460000       0.00000000 </v>
     <v>       0.00000000       0.00000000      11.18240000 </v>
    </varray>
    <i name="volume">   1196.84853820 </i>
    <varray name="rec_basis" >
     <v>       0.08945744       0.00000000       0.00000000 </v>
     <v>       0.00000000       0.10444301       0.00000000 </v>
     <v>       0.00000000       0.00000000       0.08942624 </v>
    </varray>
   </crystal>
   <varray name="positions" >
    <v>       0.12461000       0.99984000       0.18687000 </v>
    <v>       0.37461000       0.00017000       0.18687000 </v>
    <v>       0.62539000       0.99984000       0.43687000 </v>
    <v>       0.87539000       0.00017000       0.43687000 </v>
    <v>       0.62461000       0.99984000       0.18687000 </v>
    <v>       0.12539000       0.99984000       0.93687000 </v>
    <v>       0.12461000       0.99984000       0.68687000 </v>
    <v>       0.37461000       0.00017000       0.68687000 </v>
    <v>       0.62461000       0.99984000       0.68687000 </v>
    <v>       0.00013000       0.29519000       0.06281000 </v>
    <v>       0.25013000       0.70481000       0.06281000 </v>
    <v>       0.24987000       0.29519000       0.31282000 </v>
    <v>       0.49987000       0.70481000       0.31282000 </v>
    <v>       0.50013000       0.29519000       0.06281000 </v>
    <v>       0.75013000       0.70481000       0.06281000 </v>
    <v>       0.74987000       0.29519000       0.31282000 </v>
    <v>       0.99987000       0.70481000       0.31282000 </v>
    <v>       0.00013000       0.29519000       0.56281000 </v>
    <v>       0.25013000       0.70481000       0.56281000 </v>
    <v>       0.24987000       0.29519000       0.81282000 </v>
    <v>       0.49987000       0.70481000       0.81282000 </v>
    <v>       0.50013000       0.29519000       0.56281000 </v>
    <v>       0.75013000       0.70481000       0.56281000 </v>
    <v>       0.74987000       0.29519000       0.81282000 </v>
    <v>       0.99987000       0.70481000       0.81282000 </v>
    <v>       0.25005000       0.32677000       0.06286000 </v>
    <v>       0.00005000       0.67323000       0.06286000 </v>
    <v>       0.49995000       0.32677000       0.31286000 </v>
    <v>       0.24995000       0.67323000       0.31286000 </v>
    <v>       0.75005000       0.32677000       0.06286000 </v>
    <v>       0.50005000       0.67323000       0.06286000 </v>
    <v>       0.99995000       0.32677000       0.31286000 </v>
    <v>       0.74995000       0.67323000       0.31286000 </v>
    <v>       0.25005000       0.32677000       0.56286000 </v>
    <v>       0.00005000       0.67323000       0.56286000 </v>
    <v>       0.49995000       0.32677000       0.81286000 </v>
    <v>       0.24995000       0.67323000       0.81286000 </v>
    <v>       0.75005000       0.32677000       0.56286000 </v>
    <v>       0.50005000       0.67323000       0.56286000 </v>
    <v>       0.99995000       0.32677000       0.81286000 </v>
    <v>       0.74995000       0.67323000       0.81286000 </v>
    <v>       0.49987000       0.07798000       0.06246000 </v>
    <v>       0.24987000       0.92202000       0.06246000 </v>
    <v>       0.25013000       0.07798000       0.31246000 </v>
    <v>       0.00013000       0.92202000       0.31246000 </v>
    <v>       0.99987000       0.07798000       0.06246000 </v>
    <v>       0.74987000       0.92202000       0.06246000 </v>
    <v>       0.75013000       0.07798000       0.31246000 </v>
    <v>       0.50013000       0.92202000       0.31246000 </v>
    <v>       0.49987000       0.07798000       0.56246000 </v>
    <v>       0.24987000       0.92202000       0.56246000 </v>
    <v>       0.25013000       0.07798000       0.81246000 </v>
    <v>       0.00013000       0.92202000       0.81246000 </v>
    <v>       0.99987000       0.07798000       0.56246000 </v>
    <v>       0.74987000       0.92202000       0.56246000 </v>
    <v>       0.75013000       0.07798000       0.81246000 </v>
    <v>       0.50013000       0.92202000       0.81246000 </v>
   </varray>
  </structure>
  <varray name="forces" >
   <v>      -0.27166562       0.12899145       0.63286187 </v>
   <v>      -0.50782535       0.25479294      -0.08533989 </v>
   <v>      -1.34033923      -0.09578813      -0.30615558 </v>
   <v>       2.25730412      -0.09607764      -0.27227441 </v>
   <v>       0.59352269      -0.18869050      -2.44693935 </v>
   <v>      -0.68189977      -0.10010088       1.34867618 </v>
   <v>      -1.60897394      -0.19246785      -1.40882575 </v>
   <v>      -0.06648662      -0.42849860       0.16662101 </v>
   <v>       1.58613670       0.23204687       2.51978407 </v>
   <v>      -0.33616881      -0.99475803       0.12934648 </v>
   <v>       0.03203082      -0.01268109       0.17890712 </v>
   <v>      -0.21010310      -1.90129597      -0.09142770 </v>
   <v>      -0.51674890      -1.09944951      -0.36146363 </v>
   <v>       0.00274584      -0.92610614      -0.31130469 </v>
   <v>       0.27454541       1.88089194      -0.32739681 </v>
   <v>       0.46605771       2.12179727      -0.77811406 </v>
   <v>       0.29782427       0.96699507      -0.41384753 </v>
   <v>       0.10284401      -0.00248599      -0.07486703 </v>
   <v>      -0.25643309      -0.16145301      -0.63608010 </v>
   <v>       0.06661803       2.02225302       0.56303222 </v>
   <v>       0.22667773      -0.13572417       0.83132181 </v>
   <v>      -0.32369077       2.06633514      -0.17331758 </v>
   <v>       0.46468055      -2.11990073       0.45417653 </v>
   <v>       0.27585297      -1.83667539       0.59366546 </v>
   <v>      -0.56470179      -0.08296887       0.35017514 </v>
   <v>       0.02808817       0.24720596      -0.41518311 </v>
   <v>       0.27262666      -0.20282261      -0.17144680 </v>
   <v>       0.44570414       0.05521761       0.39768087 </v>
   <v>       0.25735756      -0.16299740       0.12882399 </v>
   <v>      -0.12896003       0.14844210       0.42905619 </v>
   <v>      -0.16694161      -0.16847935       0.16915958 </v>
   <v>      -0.42678839       0.14306020       0.29237110 </v>
   <v>      -0.29782441      -0.00897689       0.55762449 </v>
   <v>       0.22907040      -0.03090819       0.43500586 </v>
   <v>      -0.13289478      -0.07056777       0.09593770 </v>
   <v>      -0.33756100       0.03209230      -0.51304736 </v>
   <v>       0.02991651      -0.07802530      -0.20101778 </v>
   <v>      -0.28397889      -0.05589395      -0.38781275 </v>
   <v>       0.19559372       0.06541176      -0.02954756 </v>
   <v>       0.45978459       0.08839615      -0.23021380 </v>
   <v>      -0.15590315      -0.08002425      -0.56823363 </v>
   <v>       0.35808263       0.73522060       1.74255700 </v>
   <v>      -0.99847047      -0.15051916      -0.12964857 </v>
   <v>       0.15951661       1.54399759      -1.00646714 </v>
   <v>      -0.79313500      -0.90738740       0.73098341 </v>
   <v>       1.72162396       0.80606235      -0.55574772 </v>
   <v>      -1.03361834      -1.55234709       1.23713444 </v>
   <v>      -1.20011080      -1.61344523       1.49334127 </v>
   <v>       1.80097581       0.91652514      -0.14748071 </v>
   <v>       1.20711487      -1.64081016       0.84869958 </v>
   <v>       0.20149660       0.33386885       2.27347578 </v>
   <v>      -0.91347534      -1.43747060      -1.22791730 </v>
   <v>       2.31746799       0.16107991      -0.19887270 </v>
   <v>      -0.14124126       0.18431396       0.02224970 </v>
   <v>      -1.25680615       1.69025798      -1.34877842 </v>
   <v>      -1.12360258       1.41493365      -1.36751974 </v>
   <v>      -0.25491190       0.29560809      -2.43637968 </v>
  </varray>
  <varray name="stress" >
   <v>       0.11923508       0.41221348      -0.95943436 </v>
   <v>       0.41221350     -12.44409522      -0.96548832 </v>
   <v>      -0.95943440      -0.96548832      -3.13028425 </v>
  </varray>
  <energy>
   <i name="e_fr_energy">   -288.33712546 </i>
   <i name="e_wo_entrp">   -288.33712546 </i>
   <i name="e_0_energy">      0.00000000 </i>
  </energy>
  <time name="totalsc"> 1468.56 1472.10</time>
 </calculation>
 <calculation>
  <scstep>
   <time name="dav">   63.74   63.74</time>
   <time name="total">   64.52   64.52</time>
   <energy>
    <i name="alphaZ">   1057.95059516 </i>
    <i name="ewald"> -29984.95641808 </i>
    <i name="hartreedc"> -13007.84953534 </i>
    <i name="XCdc">   1130.76561559 </i>
    <i name="pawpsdc">  43444.87387020 </i>
    <i name="pawaedc"> -42588.95344140 </i>
    <i name="eentropy">      0.00000000 </i>
    <i name="bandstr">  -3589.09769313 </i>
    <i name="atom">  43261.00331033 </i>
    <i name="e_fr_energy">   -276.26369665 </i>
    <i name="e_wo_entrp">   -276.26369665 </i>
    <i name="e_0_energy">   -276.26369665 </i>
   </energy>
  </scstep>
  <scstep>
   <time name="dav">   70.63   70.64</time>
   <time name="total">   71.41   71.42</time>
   <energy>
    <i name="e_fr_energy">   -281.29282546 </i>
    <i name="e_wo_entrp">   -281.29282546 </i>
    <i name="e_0_energy">   -281.29282546 </i>
   </energy>
  </scstep>
  <scstep>
   <time name="dav">   83.37   83.38</time>
   <time name="total">   84.16   84.16</time>
   <energy>
    <i name="e_fr_energy">   -281.07373851 </i>
    <i name="e_wo_entrp">   -281.07373851 </i>
    <i name="e_0_energy">   -281.07373851 </i>
   </energy>
  </scstep>
  <scstep>
   <time name="dav">   78.90   79.07</time>
   <time name="total">   79.68   79.85</time>
   <energy>
    <i name="e_fr_energy">   -280.92828704 </i>
    <i name="e_wo_entrp">   -280.92828704 </i>
    <i name="e_0_energy">   -280.92828704 </i>
   </energy>
  </scstep>
  <scstep>
   <time name="dav">   72.69   72.74</time>
   <time name="total">   73.47   73.52</time>
   <energy>
    <i name="e_fr_energy">   -280.88853676 </i>
    <i name="e_wo_entrp">   -280.88853676 </i>
    <i name="e_0_energy">   -280.88853676 </i>
   </energy>
  </scstep>
  <scstep>
   <time name="dav">   75.36   75.37</time>
   <time name="total">   76.14   76.15</time>
   <energy>
    <i name="e_fr_energy">   -280.88830650 </i>
    <i name="e_wo_entrp">   -280.88830650 </i>
    <i name="e_0_energy">   -280.88830650 </i>
   </energy>
  </scstep>
  <scstep>
   <time name="dav">   76.86   77.04</time>
   <time name="total">   77.63   77.82</time>
   <energy>
    <i name="e_fr_energy">   -280.88763619 </i>
    <i name="e_wo_entrp">   -280.88763619 </i>
    <i name="e_0_energy">   -280.88763619 </i>
   </energy>
  </scstep>
  <scstep>
   <time name="dav">   73.44   73.72</time>
   <time name="total">   74.23   74.51</time>
   <energy>
    <i name="e_fr_energy">   -280.88707276 </i>
    <i name="e_wo_entrp">   -280.88707276 </i>
    <i name="e_0_energy">   -280.88707276 </i>
   </energy>
  </scstep>
  <scstep>
   <time name="dav">   79.86   80.18</time>
   <time name="total">   80.65   80.97</time>
   <energy>
    <i name="e_fr_energy">   -280.88709806 </i>
    <i name="e_wo_entrp">   -280.88709806 </i>
    <i name="e_0_energy">   -280.88709806 </i>
   </energy>
  </scstep>
  <scstep>
   <time name="dav">   68.56   68.70</time>
   <time name="total">   69.34   69.49</time>
   <energy>
    <i name="e_fr_energy">   -280.88710962 </i>
    <i name="e_wo_entrp">   -280.88710962 </i>
    <i name="e_0_energy">   -280.88710962 </i>
   </energy>
  </scstep>
  <scstep>
   <time name="dav">   69.37   69.48</time>
   <time name="total">   70.15   70.26</time>
   <energy>
    <i name="e_fr_energy">   -280.88711509 </i>
    <i name="e_wo_entrp">   -280.88711509 </i>
    <i name="e_0_energy">   -280.88711509 </i>
   </energy>
  </scstep>
  <scstep>
   <time name="dav">   78.43   78.60</time>
   <time name="total">   79.21   79.38</time>
   <energy>
    <i name="e_fr_energy">   -280.88711402 </i>
    <i name="e_wo_entrp">   -280.88711402 </i>
    <i name="e_0_energy">   -280.88711402 </i>
   </energy>
  </scstep>
  <scstep>
   <time name="dav">   61.48   62.15</time>
   <time name="total">   61.55   62.22</time>
   <energy>
    <i name="alphaZ">   1057.95059516 </i>
    <i name="ewald"> -29984.95641808 </i>
    <i name="hartreedc"> -12933.00876916 </i>
    <i name="XCdc">   1128.01949158 </i>
    <i name="pawpsdc">  43773.60829340 </i>
    <i name="pawaedc"> -42920.47575257 </i>
    <i name="eentropy">      0.00000000 </i>
    <i name="bandstr">  -3663.02786476 </i>
    <i name="atom">  43261.00331033 </i>
    <i name="e_fr_energy">   -280.88711409 </i>
    <i name="e_wo_entrp">   -280.88711409 </i>
    <i name="e_0_energy">   -280.88711409 </i>
   </energy>
  </scstep>
  <structure>
   <crystal>
    <varray name="basis" >
     <v>      11.17934270       0.00291334      -0.00678084 </v>
     <v>       0.00249533       9.49926984      -0.00584457 </v>
     <v>      -0.00678321      -0.00682601      11.16026886 </v>
    </varray>
    <i name="volume">   1185.17040474 </i>
    <varray name="rec_basis" >
     <v>       0.08945074      -0.00002346       0.00005435 </v>
     <v>      -0.00002739       0.10527130       0.00006437 </v>
     <v>       0.00005433       0.00005512       0.08960364 </v>
    </varray>
   </crystal>
   <varray name="positions" >
    <v>       0.12343758       0.00048994       0.18960027 </v>
    <v>       0.37241840       0.00145380       0.18650183 </v>
    <v>       0.61960555       0.99935736       0.43554920 </v>
    <v>       0.88513177      -0.00031410       0.43569536 </v>
    <v>       0.62717144       0.99888926       0.17631351 </v>
    <v>       0.12244715       0.99933563       0.94268840 </v>
    <v>       0.11766621       0.99887023       0.68079210 </v>
    <v>       0.37432307      -0.00198904       0.68758883 </v>
    <v>       0.63145523       0.00100919       0.69774075 </v>
    <v>      -0.00132079       0.29017780       0.06336802 </v>
    <v>       0.25026823       0.70474610       0.06358183 </v>
    <v>       0.24896327       0.28561012       0.31242557 </v>
    <v>       0.49763989       0.69927031       0.31126059 </v>
    <v>       0.50014185       0.29052371       0.06146698 </v>
    <v>       0.75131485       0.71428708       0.06139756 </v>
    <v>       0.75188135       0.30588090       0.30946309 </v>
    <v>       0.00115531       0.70968231       0.31103460 </v>
    <v>       0.00057384       0.29517747       0.56248701 </v>
    <v>       0.24902332       0.70399650       0.56006585 </v>
    <v>       0.25015750       0.30537934       0.81524901 </v>
    <v>       0.50084826       0.70412614       0.81640645 </v>
    <v>       0.49873306       0.30560145       0.56206228 </v>
    <v>       0.75213541       0.69412865       0.56476939 </v>
    <v>       0.75106049       0.28593571       0.81538117 </v>
    <v>       0.99743294       0.70439195       0.81433071 </v>
    <v>       0.25017122       0.32801557       0.06106883 </v>
    <v>       0.00122657       0.67220806       0.06212035 </v>
    <v>       0.50187351       0.32704822       0.31457566 </v>
    <v>       0.25106067       0.67240872       0.31341577 </v>
    <v>       0.74949345       0.32751794       0.06471102 </v>
    <v>       0.49932954       0.67238110       0.06358978 </v>
    <v>       0.99810812       0.32749082       0.31412134 </v>
    <v>       0.74866469       0.67318477       0.31526568 </v>
    <v>       0.25103859       0.32661427       0.56473668 </v>
    <v>      -0.00052353       0.67287444       0.56327389 </v>
    <v>       0.49849320       0.32693170       0.81064663 </v>
    <v>       0.25007911       0.67283686       0.81199278 </v>
    <v>       0.74882444       0.32648837       0.56118691 </v>
    <v>       0.50089412       0.67355958       0.56273253 </v>
    <v>       0.00193428       0.32721539       0.81186682 </v>
    <v>       0.74927717       0.67282679       0.81040855 </v>
    <v>       0.50141536       0.08168449       0.06997767 </v>
    <v>       0.24556094       0.92126159       0.06190068 </v>
    <v>       0.25081842       0.08575960       0.30811794 </v>
    <v>      -0.00329290       0.91744803       0.31561358 </v>
    <v>       0.00729995       0.08204143       0.06006242 </v>
    <v>       0.74540925       0.91419833       0.06779719 </v>
    <v>       0.74495072       0.06985048       0.31890251 </v>
    <v>       0.50790241       0.92663801       0.31182374 </v>
    <v>       0.50507950       0.06971260       0.56612143 </v>
    <v>       0.25073959       0.92370223       0.57226814 </v>
    <v>       0.24618775       0.07073715       0.80716257 </v>
    <v>       0.01013141       0.92283162       0.81160203 </v>
    <v>       0.99926045       0.07890869       0.56255599 </v>
    <v>       0.74444605       0.93053655       0.55664116 </v>
    <v>       0.74528091       0.08510930       0.80656030 </v>
    <v>       0.49902989       0.92350945       0.80194907 </v>
   </varray>
  </structure>
  <varray name="forces" >
   <v>      -0.20951215       0.07398488       0.53535134 </v>
   <v>      -0.23332211       0.13602147       0.00503947 </v>
   <v>      -0.55562468       0.05318129       0.22450331 </v>
   <v>       0.25360052       0.08097744       0.04081646 </v>
   <v>       0.42930696       0.06275146      -0.44670332 </v>
   <v>       0.05464475      -0.06412487      -0.00618310 </v>
   <v>      -0.58433049      -0.04227883      -0.54025517 </v>
   <v>       0.01823933       0.01867346       0.02352412 </v>
   <v>       0.60956561      -0.18279668       0.35945987 </v>
   <v>      -0.22526410       1.03688790       0.06362568 </v>
   <v>       0.02784559      -0.43666663      -0.07090653 </v>
   <v>      -0.01957532       2.27928968       0.14588026 </v>
   <v>      -0.05794672       0.15519196      -0.03410270 </v>
   <v>      -0.10785654       0.89851543      -0.22495187 </v>
   <v>       0.31985260      -2.26677889      -0.17047579 </v>
   <v>       0.08076693      -0.14637506      -0.16705422 </v>
   <v>       0.03834051      -1.20524458      -0.24908242 </v>
   <v>      -0.02049291       0.61348984       0.01788350 </v>
   <v>       0.01245426       0.10962237      -0.22163716 </v>
   <v>       0.00820962      -0.08851088       0.19759204 </v>
   <v>      -0.05712318       0.07964644       0.30602247 </v>
   <v>      -0.06173272      -0.13557824      -0.10564521 </v>
   <v>       0.03918095       0.20061532      -0.00710158 </v>
   <v>       0.30005932       1.98995768       0.32103139 </v>
   <v>      -0.15122601      -0.02337488       0.16106882 </v>
   <v>      -0.00468627       0.22568718      -0.19776181 </v>
   <v>       0.17223475      -0.10805980      -0.12354342 </v>
   <v>       0.19352045       0.20703273       0.15071384 </v>
   <v>       0.10239614      -0.05478667       0.02024632 </v>
   <v>      -0.09892305       0.02875428       0.21752566 </v>
   <v>      -0.04993230      -0.09667690       0.11157894 </v>
   <v>      -0.21859034       0.05335255       0.14975058 </v>
   <v>      -0.09651992      -0.27744833       0.22034509 </v>
   <v>       0.06815798       0.06229313       0.20311654 </v>
   <v>      -0.02328225      -0.03285233       0.04143027 </v>
   <v>      -0.10308931       0.09895368      -0.24188092 </v>
   <v>       0.04454395      -0.29153878      -0.07524824 </v>
   <v>      -0.07845179       0.23861871      -0.11273012 </v>
   <v>       0.03816218      -0.20807498      -0.00796161 </v>
   <v>       0.22172956       0.11820660      -0.09049661 </v>
   <v>      -0.13145242       0.01500203      -0.27102387 </v>
   <v>       0.09817137      -0.85228338       1.10656290 </v>
   <v>      -0.73758974       0.21283218       0.24008222 </v>
   <v>       0.02104328      -2.56993382      -1.02421418 </v>
   <v>      -0.17299659       0.99388426       0.23254290 </v>
   <v>       1.15304522      -0.98623847      -0.08791844 </v>
   <v>      -0.57727995       2.22598033       0.60565004 </v>
   <v>      -0.46451679       0.71711355       0.49020530 </v>
   <v>       0.73421642      -0.61159446      -0.80863016 </v>
   <v>       0.61184941       0.68829245       0.86543682 </v>
   <v>      -0.12050893      -0.34194648       1.18282347 </v>
   <v>      -0.83400317       0.63765300      -0.61528091 </v>
   <v>       1.28164203      -0.19193616       0.03104120 </v>
   <v>      -0.11946627      -0.15951472      -0.15487239 </v>
   <v>      -0.43385730      -0.74514150      -0.55173847 </v>
   <v>      -0.40026413      -1.85849411      -0.47882653 </v>
   <v>       0.01663778      -0.33421286      -1.18462409 </v>
  </varray>
  <varray name="stress" >
   <v>       8.59477748      -0.84916506       1.38041087 </v>
   <v>      -0.84916485      15.12972812       2.51557090 </v>
   <v>       1.38041098       2.51557061      10.33295325 </v>
  </varray>
  <energy>
   <i name="e_fr_energy">   -291.70527869 </i>
   <i name="e_wo_entrp">   -291.70527869 </i>
   <i name="e_0_energy">      0.00000000 </i>
  </energy>
  <time name="totalsc"> 1070.83 1073.87</time>
 </calculation>
 <calculation>
  <scstep>
   <time name="dav">   67.20   67.55</time>
   <time name="total">   67.98   68.33</time>
   <energy>
    <i name="alphaZ">   1057.75538820 </i>
    <i name="ewald"> -29984.70638371 </i>
    <i name="hartreedc"> -12931.12954219 </i>
    <i name="XCdc">   1127.89779740 </i>
    <i name="pawpsdc">  43773.56346717 </i>
    <i name="pawaedc"> -42920.43097730 </i>
    <i name="eentropy">      0.00000000 </i>
    <i name="bandstr">  -3664.84232091 </i>
    <i name="atom">  43261.00331033 </i>
    <i name="e_fr_energy">   -280.88926100 </i>
    <i name="e_wo_entrp">   -280.88926100 </i>
    <i name="e_0_energy">   -280.88926100 </i>
   </energy>
  </scstep>
  <scstep>
   <time name="dav">   70.16   70.54</time>
   <time name="total">   70.95   71.33</time>
   <energy>
    <i name="e_fr_energy">   -280.89098489 </i>
    <i name="e_wo_entrp">   -280.89098489 </i>
    <i name="e_0_energy">   -280.89098489 </i>
   </energy>
  </scstep>
  <scstep>
   <time name="dav">   80.10   80.40</time>
   <time name="total">   80.90   81.21</time>
   <energy>
    <i name="e_fr_energy">   -280.89091993 </i>
    <i name="e_wo_entrp">   -280.89091993 </i>
    <i name="e_0_energy">   -280.89091993 </i>
   </energy>
  </scstep>
  <scstep>
   <time name="dav">   70.75   70.98</time>
   <time name="total">   71.53   71.76</time>
   <energy>
    <i name="e_fr_energy">   -280.89083680 </i>
    <i name="e_wo_entrp">   -280.89083680 </i>
    <i name="e_0_energy">   -280.89083680 </i>
   </energy>
  </scstep>
  <scstep>
   <time name="dav">   75.77   76.05</time>
   <time name="total">   76.55   76.83</time>
   <energy>
    <i name="e_fr_energy">   -280.89082168 </i>
    <i name="e_wo_entrp">   -280.89082168 </i>
    <i name="e_0_energy">   -280.89082168 </i>
   </energy>
  </scstep>
  <scstep>
   <time name="dav">   71.48   71.86</time>
   <time name="total">   72.25   72.65</time>
   <energy>
    <i name="e_fr_energy">   -280.89082021 </i>
    <i name="e_wo_entrp">   -280.89082021 </i>
    <i name="e_0_energy">   -280.89082021 </i>
   </energy>
  </scstep>
  <scstep>
   <time name="dav">   58.15   58.44</time>
   <time name="total">   58.94   59.23</time>
   <energy>
    <i name="e_fr_energy">   -280.89081904 </i>
    <i name="e_wo_entrp">   -280.89081904 </i>
    <i name="e_0_energy">   -280.89081904 </i>
   </energy>
  </scstep>
  <scstep>
   <time name="dav">   47.91   48.14</time>
   <time name="total">   47.98   48.22</time>
   <energy>
    <i name="alphaZ">   1057.75538820 </i>
    <i name="ewald"> -29984.70638371 </i>
    <i name="hartreedc"> -12932.61311349 </i>
    <i name="XCdc">   1127.95497134 </i>
    <i name="pawpsdc">  43764.91114212 </i>
    <i name="pawaedc"> -42911.68312270 </i>
    <i name="eentropy">      0.00000000 </i>
    <i name="bandstr">  -3663.51301034 </i>
    <i name="atom">  43261.00331033 </i>
    <i name="e_fr_energy">   -280.89081826 </i>
    <i name="e_wo_entrp">   -280.89081826 </i>
    <i name="e_0_energy">   -280.89081826 </i>
   </energy>
  </scstep>
  <structure>
   <crystal>
    <varray name="basis" >
     <v>      11.17932689       0.00285870      -0.00665367 </v>
     <v>       0.00244853       9.50068270      -0.00573495 </v>
     <v>      -0.00665599      -0.00669799      11.16068394 </v>
    </varray>
    <i name="volume">   1185.38912593 </i>
    <varray name="rec_basis" >
     <v>       0.08945086      -0.00002302       0.00005333 </v>
     <v>      -0.00002688       0.10525564       0.00006315 </v>
     <v>       0.00005331       0.00005407       0.08960031 </v>
    </varray>
   </crystal>
   <varray name="positions" >
    <v>       0.12345954       0.00047761       0.18954896 </v>
    <v>       0.37245951       0.00142952       0.18650876 </v>
    <v>       0.61971404       0.99936647       0.43557409 </v>
    <v>       0.88494908      -0.00030487       0.43571733 </v>
    <v>       0.62712352       0.99890739       0.17651188 </v>
    <v>       0.12250227       0.99934507       0.94257910 </v>
    <v>       0.11779650       0.99888860       0.68090641 </v>
    <v>       0.37432843      -0.00194823       0.68757535 </v>
    <v>       0.63132674       0.00098698       0.69753637 </v>
    <v>      -0.00129361       0.29027254       0.06335760 </v>
    <v>       0.25026563       0.70474730       0.06356733 </v>
    <v>       0.24898023       0.28579122       0.31243308 </v>
    <v>       0.49768170       0.69937504       0.31128997 </v>
    <v>       0.50014162       0.29061195       0.06149227 </v>
    <v>       0.75129268       0.71410794       0.06142399 </v>
    <v>       0.75184371       0.30567886       0.30952605 </v>
    <v>       0.00113125       0.70959023       0.31106809 </v>
    <v>       0.00056552       0.29517772       0.56249308 </v>
    <v>       0.24904410       0.70401191       0.56011744 </v>
    <v>       0.25015212       0.30518669       0.81520326 </v>
    <v>       0.50082987       0.70413902       0.81633905 </v>
    <v>       0.49875931       0.30540463       0.56207624 </v>
    <v>       0.75209773       0.69433056       0.56473265 </v>
    <v>       0.75103809       0.28611063       0.81533311 </v>
    <v>       0.99747862       0.70439982       0.81430235 </v>
    <v>       0.25016897       0.32799205       0.06110248 </v>
    <v>       0.00120450       0.67222739       0.06213425 </v>
    <v>       0.50183742       0.32704295       0.31454339 </v>
    <v>       0.25103983       0.67242424       0.31340532 </v>
    <v>       0.74950387       0.32750377       0.06467623 </v>
    <v>       0.49934304       0.67239713       0.06357608 </v>
    <v>       0.99814266       0.32747717       0.31409765 </v>
    <v>       0.74868877       0.67318558       0.31522049 </v>
    <v>       0.25102003       0.32661719       0.56470141 </v>
    <v>      -0.00051278       0.67288115       0.56326612 </v>
    <v>       0.49852055       0.32692867       0.81068824 </v>
    <v>       0.25007670       0.67284431       0.81200908 </v>
    <v>       0.74884744       0.32649371       0.56121837 </v>
    <v>       0.50087829       0.67355336       0.56273491 </v>
    <v>       0.00189708       0.32720700       0.81188546 </v>
    <v>       0.74928982       0.67283444       0.81045463 </v>
    <v>       0.50138631       0.08161436       0.06983634 </v>
    <v>       0.24564175       0.92127591       0.06191124 </v>
    <v>       0.25080559       0.08561259       0.30819946 </v>
    <v>      -0.00322877       0.91753440       0.31555440 </v>
    <v>       0.00716065       0.08196473       0.06010735 </v>
    <v>       0.74549281       0.91434610       0.06769702 </v>
    <v>       0.74504775       0.07000405       0.31878158 </v>
    <v>       0.50775667       0.92655076       0.31183557 </v>
    <v>       0.50498173       0.06986887       0.56605264 </v>
    <v>       0.25072318       0.92367031       0.57208379 </v>
    <v>       0.24626171       0.07087412       0.80726224 </v>
    <v>       0.00994386       0.92281634       0.81161803 </v>
    <v>       0.99927188       0.07889112       0.56255418 </v>
    <v>       0.74454787       0.93037559       0.55675048 </v>
    <v>       0.74537195       0.08497457       0.80667116 </v>
    <v>       0.49905064       0.92348143       0.80214660 </v>
   </varray>
  </structure>
  <varray name="forces" >
   <v>      -0.21085807       0.07522710       0.53736092 </v>
   <v>      -0.23840992       0.13857976       0.00362495 </v>
   <v>      -0.57051014       0.04914097       0.21196353 </v>
   <v>       0.29150323       0.07578328       0.03312273 </v>
   <v>       0.43532166       0.05572679      -0.48796949 </v>
   <v>       0.03918109      -0.06267064       0.02070340 </v>
   <v>      -0.60445858      -0.04434139      -0.55601686 </v>
   <v>       0.01686772       0.00858748       0.02634626 </v>
   <v>       0.63470549      -0.16796308       0.40669169 </v>
   <v>      -0.22543188       0.99003816       0.06428194 </v>
   <v>       0.02789174      -0.42817661      -0.06632814 </v>
   <v>      -0.02216924       2.16184228       0.13856069 </v>
   <v>      -0.06716249       0.13621156      -0.04039649 </v>
   <v>      -0.10541842       0.85676545      -0.22471625 </v>
   <v>       0.31519104      -2.15268815      -0.16914526 </v>
   <v>       0.08864348      -0.11768870      -0.17926133 </v>
   <v>       0.04199394      -1.15388121      -0.25113864 </v>
   <v>      -0.01840831       0.60087049       0.01602465 </v>
   <v>       0.00750368       0.10422279      -0.22996471 </v>
   <v>       0.00937217      -0.06057570       0.20518466 </v>
   <v>      -0.05173202       0.07508766       0.31618361 </v>
   <v>      -0.06679124      -0.10752501      -0.10709870 </v>
   <v>       0.04727228       0.17131427       0.00215137 </v>
   <v>       0.29594098       1.88704599       0.32133912 </v>
   <v>      -0.15898083      -0.02511131       0.16482686 </v>
   <v>      -0.00409302       0.22627688      -0.20285171 </v>
   <v>       0.17415673      -0.11011089      -0.12461755 </v>
   <v>       0.19839144       0.20458752       0.15555668 </v>
   <v>       0.10553457      -0.05696160       0.02253722 </v>
   <v>      -0.09929590       0.03126275       0.22253366 </v>
   <v>      -0.05234027      -0.09826973       0.11267689 </v>
   <v>      -0.22321923       0.05532006       0.15256109 </v>
   <v>      -0.10025784      -0.27309168       0.22698525 </v>
   <v>       0.07129327       0.06092711       0.20766186 </v>
   <v>      -0.02567278      -0.03376999       0.04248980 </v>
   <v>      -0.10779080       0.09803702      -0.24733312 </v>
   <v>       0.04404743      -0.28783063      -0.07773777 </v>
   <v>      -0.08242056       0.23382275      -0.11801539 </v>
   <v>       0.04122051      -0.20357450      -0.00807967 </v>
   <v>       0.22661599       0.11790409      -0.09313811 </v>
   <v>      -0.13178239       0.01293812      -0.27744754 </v>
   <v>       0.10464126      -0.81649274       1.11815278 </v>
   <v>      -0.74313439       0.20559819       0.23267788 </v>
   <v>       0.02240799      -2.45438883      -1.02152018 </v>
   <v>      -0.18557964       0.94954728       0.24311561 </v>
   <v>       1.16451550      -0.94601041      -0.09871597 </v>
   <v>      -0.58579974       2.12260977       0.61646884 </v>
   <v>      -0.48099792       0.68532135       0.51112946 </v>
   <v>       0.75794188      -0.58506653      -0.79303195 </v>
   <v>       0.62458343       0.65634094       0.86529494 </v>
   <v>      -0.11333539      -0.32754859       1.20598413 </v>
   <v>      -0.83616477       0.60879484      -0.62743718 </v>
   <v>       1.30246185      -0.18372665       0.02575906 </v>
   <v>      -0.11895641      -0.15299763      -0.15068612 </v>
   <v>      -0.45088666      -0.71223665      -0.56897511 </v>
   <v>      -0.41756401      -1.77307900      -0.49732876 </v>
   <v>       0.01042249      -0.31995484      -1.21099952 </v>
  </varray>
  <varray name="stress" >
   <v>       8.38088708      -0.80903417       1.33474419 </v>
   <v>      -0.80903434      14.17713122       2.40110666 </v>
   <v>       1.33474433       2.40110655      10.02416638 </v>
  </varray>
  <energy>
   <i name="e_fr_energy">   -291.70735275 </i>
   <i name="e_wo_entrp">   -291.70735275 </i>
   <i name="e_0_energy">      0.00000000 </i>
  </energy>
  <time name="totalsc">  656.31  659.12</time>
 </calculation>
 <calculation>
  <scstep>
   <time name="dav">   70.83   71.07</time>
   <time name="total">   71.60   71.85</time>
   <energy>
    <i name="alphaZ">   1040.71706534 </i>
    <i name="ewald"> -29925.38071444 </i>
    <i name="hartreedc"> -12762.81378795 </i>
    <i name="XCdc">   1118.33157065 </i>
    <i name="pawpsdc">  43764.95890921 </i>
    <i name="pawaedc"> -42911.73204975 </i>
    <i name="eentropy">      0.00000000 </i>
    <i name="bandstr">  -3865.16524913 </i>
    <i name="atom">  43261.00331033 </i>
    <i name="e_fr_energy">   -280.08094574 </i>
    <i name="e_wo_entrp">   -280.08094574 </i>
    <i name="e_0_energy">   -280.08094574 </i>
   </energy>
  </scstep>
  <scstep>
   <time name="dav">   68.24   68.46</time>
   <time name="total">   69.02   69.24</time>
   <energy>
    <i name="e_fr_energy">   -282.01991681 </i>
    <i name="e_wo_entrp">   -282.01991681 </i>
    <i name="e_0_energy">   -282.01991681 </i>
   </energy>
  </scstep>
  <scstep>
   <time name="dav">   78.63   78.93</time>
   <time name="total">   79.41   79.72</time>
   <energy>
    <i name="e_fr_energy">   -281.86836910 </i>
    <i name="e_wo_entrp">   -281.86836910 </i>
    <i name="e_0_energy">   -281.86836910 </i>
   </energy>
  </scstep>
  <scstep>
   <time name="dav">   79.83   80.28</time>
   <time name="total">   80.61   81.07</time>
   <energy>
    <i name="e_fr_energy">   -281.81549770 </i>
    <i name="e_wo_entrp">   -281.81549770 </i>
    <i name="e_0_energy">   -281.81549770 </i>
   </energy>
  </scstep>
  <scstep>
   <time name="dav">   74.28   74.57</time>
   <time name="total">   75.06   75.36</time>
   <energy>
    <i name="e_fr_energy">   -281.78974146 </i>
    <i name="e_wo_entrp">   -281.78974146 </i>
    <i name="e_0_energy">   -281.78974146 </i>
   </energy>
  </scstep>
  <scstep>
   <time name="dav">   73.26   73.92</time>
   <time name="total">   74.04   74.71</time>
   <energy>
    <i name="e_fr_energy">   -281.78788315 </i>
    <i name="e_wo_entrp">   -281.78788315 </i>
    <i name="e_0_energy">   -281.78788315 </i>
   </energy>
  </scstep>
  <scstep>
   <time name="dav">   77.27   77.54</time>
   <time name="total">   78.05   78.32</time>
   <energy>
    <i name="e_fr_energy">   -281.78780805 </i>
    <i name="e_wo_entrp">   -281.78780805 </i>
    <i name="e_0_energy">   -281.78780805 </i>
   </energy>
  </scstep>
  <scstep>
   <time name="dav">   75.17   75.56</time>
   <time name="total">   75.95   76.34</time>
   <energy>
    <i name="e_fr_energy">   -281.78761944 </i>
    <i name="e_wo_entrp">   -281.78761944 </i>
    <i name="e_0_energy">   -281.78761944 </i>
   </energy>
  </scstep>
  <scstep>
   <time name="dav">   82.74   83.56</time>
   <time name="total">   83.49   84.36</time>
   <energy>
    <i name="e_fr_energy">   -281.78762120 </i>
    <i name="e_wo_entrp">   -281.78762120 </i>
    <i name="e_0_energy">   -281.78762120 </i>
   </energy>
  </scstep>
  <scstep>
   <time name="dav">   80.60   81.57</time>
   <time name="total">   81.38   82.36</time>
   <energy>
    <i name="e_fr_energy">   -281.78762582 </i>
    <i name="e_wo_entrp">   -281.78762582 </i>
    <i name="e_0_energy">   -281.78762582 </i>
   </energy>
  </scstep>
  <scstep>
   <time name="dav">   65.62   65.79</time>
   <time name="total">   66.41   66.57</time>
   <energy>
    <i name="e_fr_energy">   -281.78762988 </i>
    <i name="e_wo_entrp">   -281.78762988 </i>
    <i name="e_0_energy">   -281.78762988 </i>
   </energy>
  </scstep>
  <scstep>
   <time name="dav">   64.34   64.52</time>
   <time name="total">   65.12   65.31</time>
   <energy>
    <i name="e_fr_energy">   -281.78763295 </i>
    <i name="e_wo_entrp">   -281.78763295 </i>
    <i name="e_0_energy">   -281.78763295 </i>
   </energy>
  </scstep>
  <scstep>
   <time name="dav">   58.60   58.76</time>
   <time name="total">   59.39   59.57</time>
   <energy>
    <i name="e_fr_energy">   -281.78763471 </i>
    <i name="e_wo_entrp">   -281.78763471 </i>
    <i name="e_0_energy">   -281.78763471 </i>
   </energy>
  </scstep>
  <scstep>
   <time name="dav">   44.93   45.06</time>
   <time name="total">   45.00   45.13</time>
   <energy>
    <i name="alphaZ">   1040.71706534 </i>
    <i name="ewald"> -29925.38071444 </i>
    <i name="hartreedc"> -12910.47273811 </i>
    <i name="XCdc">   1125.03937821 </i>
    <i name="pawpsdc">  43237.68662134 </i>
    <i name="pawaedc"> -42377.78072427 </i>
    <i name="eentropy">      0.00000000 </i>
    <i name="bandstr">  -3732.59983343 </i>
    <i name="atom">  43261.00331033 </i>
    <i name="e_fr_energy">   -281.78763502 </i>
    <i name="e_wo_entrp">   -281.78763502 </i>
    <i name="e_0_energy">   -281.78763502 </i>
   </energy>
  </scstep>
  <structure>
   <crystal>
    <varray name="basis" >
     <v>      11.23811982      -0.00157105      -0.00018195 </v>
     <v>      -0.00131306       9.55378969       0.00606816 </v>
     <v>      -0.00019487       0.00716756      11.22133063 </v>
    </varray>
    <i name="volume">   1204.79597848 </i>
    <varray name="rec_basis" >
     <v>       0.08898286       0.00001223       0.00000154 </v>
     <v>       0.00001463       0.10467055      -0.00006686 </v>
     <v>       0.00000143      -0.00005660       0.08911603 </v>
    </varray>
   </crystal>
   <varray name="positions" >
    <v>       0.12207013       0.00113188       0.19299381 </v>
    <v>       0.37052794       0.00266609       0.18637131 </v>
    <v>       0.61486960       0.99941563       0.43593674 </v>
    <v>       0.89023039      -0.00012509       0.43537651 </v>
    <v>       0.63005040       0.99878763       0.17003816 </v>
    <v>       0.12145542       0.99881991       0.94507820 </v>
    <v>       0.11232371       0.99825831       0.67599007 </v>
    <v>       0.37428273      -0.00280429       0.68798618 </v>
    <v>       0.63688982       0.00062731       0.70379511 </v>
    <v>      -0.00286303       0.29319286       0.06386620 </v>
    <v>       0.25044321       0.70255460       0.06360048 </v>
    <v>       0.24850872       0.29273541       0.31286963 </v>
    <v>       0.49647065       0.69775517       0.31046832 </v>
    <v>       0.49969188       0.29300046       0.05996905 </v>
    <v>       0.75313842       0.70716618       0.06010789 </v>
    <v>       0.75305439       0.30953714       0.30736587 </v>
    <v>       0.00184302       0.70578210       0.30924529 </v>
    <v>       0.00066921       0.29821208       0.56242988 </v>
    <v>       0.24861743       0.70419874       0.55798995 </v>
    <v>       0.25031157       0.30912804       0.81709543 </v>
    <v>       0.50101367       0.70423582       0.81918684 </v>
    <v>       0.49789322       0.30919948       0.56130666 </v>
    <v>       0.75313149       0.69074591       0.56555256 </v>
    <v>       0.75280288       0.29180113       0.81778210 </v>
    <v>       0.99578825       0.70410001       0.81563695 </v>
    <v>       0.25020017       0.32965469       0.05948764 </v>
    <v>       0.00243947       0.67124350       0.06129136 </v>
    <v>       0.50348630       0.32819434       0.31592572 </v>
    <v>       0.25195315       0.67179377       0.31373287 </v>
    <v>       0.74884777       0.32797505       0.06640135 </v>
    <v>       0.49882075       0.67154693       0.06436294 </v>
    <v>       0.99642194       0.32805878       0.31527653 </v>
    <v>       0.74772773       0.67178691       0.31719346 </v>
    <v>       0.25173627       0.32686147       0.56637382 </v>
    <v>      -0.00086003       0.67256248       0.56362022 </v>
    <v>       0.49745343       0.32749092       0.80870569 </v>
    <v>       0.25031939       0.67122383       0.81131429 </v>
    <v>       0.74798538       0.32755861       0.56001695 </v>
    <v>       0.50140470       0.67266066       0.56264715 </v>
    <v>       0.00369120       0.32798796       0.81107433 </v>
    <v>       0.74844375       0.67273055       0.80824354 </v>
    <v>       0.50248049       0.07903306       0.07776573 </v>
    <v>       0.24066535       0.92200195       0.06267889 </v>
    <v>       0.25118491       0.07643416       0.30199684 </v>
    <v>      -0.00544125       0.92043485       0.31790818 </v>
    <v>       0.01523929       0.07886830       0.05869204 </v>
    <v>       0.74113106       0.92182887       0.07256444 </v>
    <v>       0.74084106       0.07008757       0.32364964 </v>
    <v>       0.51422720       0.92551111       0.30816020 </v>
    <v>       0.50982425       0.06974587       0.57129882 </v>
    <v>       0.25060124       0.92272096       0.58134057 </v>
    <v>       0.24103381       0.07093346       0.80236222 </v>
    <v>       0.01967903       0.92222207       0.81137896 </v>
    <v>       0.99850814       0.07850398       0.56194440 </v>
    <v>       0.74036369       0.93031974       0.55188674 </v>
    <v>       0.74157020       0.07897410       0.80207962 </v>
    <v>       0.49863506       0.92247698       0.79257569 </v>
   </varray>
  </structure>
  <varray name="forces" >
   <v>      -0.14199656       0.08571318       0.42982064 </v>
   <v>      -0.12295114       0.14039518       0.00555882 </v>
   <v>      -0.21140952       0.10522587       0.32039210 </v>
   <v>      -0.73112337       0.19230824       0.23883896 </v>
   <v>      -0.38886875       0.45123764       1.28426147 </v>
   <v>       0.60739259      -0.16849355      -0.70472047 </v>
   <v>       0.05558181       0.02093869      -0.07688009 </v>
   <v>      -0.04282978       0.32161305      -0.00505857 </v>
   <v>      -0.86722101      -0.90808775      -1.52980797 </v>
   <v>       0.18100036      -0.67487377      -0.06361302 </v>
   <v>       0.02634884       0.39830877      -0.23399743 </v>
   <v>       0.17028102      -1.66759304      -0.07068341 </v>
   <v>       0.32811976       0.67288523       0.13021397 </v>
   <v>      -0.18522407      -0.55320428       0.04433783 </v>
   <v>      -0.08295128       1.47912536       0.31280418 </v>
   <v>      -0.25936401      -0.81274171       0.39783274 </v>
   <v>      -0.24370193       0.47954584       0.03749422 </v>
   <v>      -0.12604818      -0.06749963       0.07426081 </v>
   <v>       0.15734224       0.41603573       0.18053254 </v>
   <v>      -0.00143032      -0.70761917      -0.08177413 </v>
   <v>      -0.27988705       0.41806697      -0.11392023 </v>
[...]
       <r>    8.4519    0.0000 </r>
       <r>    8.4979    0.0000 </r>
       <r>    8.5257    0.0000 </r>
       <r>    8.6391    0.0000 </r>
       <r>    8.7583    0.0000 </r>
       <r>    8.8588    0.0000 </r>
       <r>    9.6910    0.0000 </r>
       <r>    9.7794    0.0000 </r>
       <r>    9.9900    0.0000 </r>
       <r>   10.1111    0.0000 </r>
       <r>   10.1912    0.0000 </r>
       <r>   10.2009    0.0000 </r>
      </set>
     </set>
    </set>
   </array>
  </eigenvalues>
  <separator name="orbital magnetization" >
   <v name="MAGDIPOLOUT">      0.00000000      0.00000000      0.00000000</v>
  </separator>
  <dos>
   <i name="efermi">      4.00141940 </i>
   <total>
    <array>
     <dimension dim="1">gridpoints</dimension>
     <dimension dim="2">spin</dimension>
     <field>energy</field>
     <field>total</field>
     <field>integrated</field>
     <set>
      <set comment="spin 1">
       <r>   -42.0836     0.0000     0.0000 </r>
       <r>   -41.9009     0.0000     0.0000 </r>
       <r>   -41.7182     0.0000     0.0000 </r>
       <r>   -41.5355     0.0000     0.0000 </r>
       <r>   -41.3528     0.0000     0.0000 </r>
       <r>   -41.1701     0.0000     0.0000 </r>
       <r>   -40.9874     0.0000     0.0000 </r>
       <r>   -40.8047     0.0000     0.0000 </r>
       <r>   -40.6220     0.0000     0.0000 </r>
       <r>   -40.4393     0.0000     0.0000 </r>
       <r>   -40.2566     0.0000     0.0000 </r>
       <r>   -40.0739     0.0000     0.0000 </r>
       <r>   -39.8913     0.0000     0.0000 </r>
       <r>   -39.7086     0.0000     0.0000 </r>
       <r>   -39.5259     0.0000     2.0000 </r>
       <r>   -39.3432     0.0000     2.0000 </r>
       <r>   -39.1605     0.0000     4.0000 </r>
       <r>   -38.9778     0.0000     4.0000 </r>
       <r>   -38.7951     0.0000     4.0000 </r>
       <r>   -38.6124     0.0000     4.0000 </r>
       <r>   -38.4297     0.0000     4.0000 </r>
       <r>   -38.2470     0.0000     4.0000 </r>
       <r>   -38.0643     0.0000     4.0000 </r>
       <r>   -37.8816     0.0000     4.0000 </r>
       <r>   -37.6989     0.0000     4.0000 </r>
       <r>   -37.5162     0.0000     4.0000 </r>
       <r>   -37.3335     0.0000     4.0000 </r>
       <r>   -37.1508     0.0000     4.0000 </r>
       <r>   -36.9681     0.0000     4.0000 </r>
       <r>   -36.7854     0.0000     4.0000 </r>
       <r>   -36.6027     0.0000     4.0000 </r>
       <r>   -36.4200     0.0000     4.0000 </r>
       <r>   -36.2373     0.0000     4.0000 </r>
       <r>   -36.0546     0.0000     4.0000 </r>
       <r>   -35.8719     0.0000     4.0000 </r>
       <r>   -35.6892     0.0000     4.0000 </r>
       <r>   -35.5066     0.0000     4.0000 </r>
       <r>   -35.3239     0.0000     4.0000 </r>
       <r>   -35.1412     0.0000     4.0000 </r>
       <r>   -34.9585     0.0000     4.0000 </r>
       <r>   -34.7758     0.0000     4.0000 </r>
       <r>   -34.5931     0.0000     4.0000 </r>
       <r>   -34.4104     0.0000     4.0000 </r>
       <r>   -34.2277     0.0000     4.0000 </r>
       <r>   -34.0450     0.0000     4.0000 </r>
       <r>   -33.8623     0.0000     4.0000 </r>
       <r>   -33.6796     0.0000     4.0000 </r>
       <r>   -33.4969     0.0000     4.0000 </r>
       <r>   -33.3142     0.0000     4.0000 </r>
       <r>   -33.1315     0.0000     4.0000 </r>
       <r>   -32.9488     0.0000     4.0000 </r>
       <r>   -32.7661     0.0000     4.0000 </r>
       <r>   -32.5834     0.0000     4.0000 </r>
       <r>   -32.4007     0.0000     4.0000 </r>
       <r>   -32.2180     0.0000     4.0000 </r>
       <r>   -32.0353     0.0000     4.0000 </r>
       <r>   -31.8526     0.0000     4.0000 </r>
       <r>   -31.6699     0.0000     4.0000 </r>
       <r>   -31.4872     0.0000     4.0000 </r>
       <r>   -31.3045     0.0000     4.0000 </r>
       <r>   -31.1219     0.0000     4.0000 </r>
       <r>   -30.9392     0.0000     4.0000 </r>
       <r>   -30.7565     0.0000     4.0000 </r>
       <r>   -30.5738     0.0000     4.0000 </r>
       <r>   -30.3911     0.0000     4.0000 </r>
       <r>   -30.2084     0.0000     4.0000 </r>
       <r>   -30.0257     0.0000     4.0000 </r>
       <r>   -29.8430     0.0000     4.0000 </r>
       <r>   -29.6603     0.0000     4.0000 </r>
       <r>   -29.4776     0.0000     4.0000 </r>
       <r>   -29.2949     0.0000     4.0000 </r>
       <r>   -29.1122     0.0000     4.0000 </r>
       <r>   -28.9295     0.0000     4.0000 </r>
       <r>   -28.7468     0.0000     4.0000 </r>
       <r>   -28.5641     0.0000     4.0000 </r>
       <r>   -28.3814     0.0000     4.0000 </r>
       <r>   -28.1987     0.0000     4.0000 </r>
       <r>   -28.0160     0.0000     4.0000 </r>
       <r>   -27.8333     0.0000     4.0000 </r>
       <r>   -27.6506     0.0000     4.0000 </r>
       <r>   -27.4679     0.0000     4.0000 </r>
       <r>   -27.2852     0.0000     4.0000 </r>
       <r>   -27.1025     0.0000     4.0000 </r>
       <r>   -26.9198     0.0000     4.0000 </r>
       <r>   -26.7372     0.0000     4.0000 </r>
       <r>   -26.5545     0.0000     4.0000 </r>
       <r>   -26.3718     0.0000     4.0000 </r>
       <r>   -26.1891     0.0000     4.0000 </r>
       <r>   -26.0064     0.0000     4.0000 </r>
       <r>   -25.8237     0.0000     4.0000 </r>
       <r>   -25.6410     0.0000     4.0000 </r>
       <r>   -25.4583     0.0000     4.0000 </r>
       <r>   -25.2756     0.0000     4.0000 </r>
       <r>   -25.0929     0.0000     4.0000 </r>
       <r>   -24.9102     0.0000     4.0000 </r>
       <r>   -24.7275     0.0000     4.0000 </r>
       <r>   -24.5448     0.0000     4.0000 </r>
       <r>   -24.3621     0.0000     4.0000 </r>
       <r>   -24.1794     0.0000     4.0000 </r>
       <r>   -23.9967     0.0000     4.0000 </r>
       <r>   -23.8140     0.0000     4.0000 </r>
       <r>   -23.6313     0.0000     4.0000 </r>
       <r>   -23.4486     0.0000     4.0000 </r>
       <r>   -23.2659     0.0000     4.0000 </r>
       <r>   -23.0832     0.0000     4.0000 </r>
       <r>   -22.9005     0.0000     4.0000 </r>
       <r>   -22.7178     0.0000     4.0000 </r>
       <r>   -22.5351     0.0000     4.0000 </r>
       <r>   -22.3525     0.0000     4.0000 </r>
       <r>   -22.1698     0.0000     4.0000 </r>
       <r>   -21.9871     0.0000     4.0000 </r>
       <r>   -21.8044     0.0000     4.0000 </r>
       <r>   -21.6217     0.0000     4.0000 </r>
       <r>   -21.4390     0.0000     4.0000 </r>
       <r>   -21.2563     0.0000     4.0000 </r>
       <r>   -21.0736     0.0000     4.0000 </r>
       <r>   -20.8909     0.0000     4.0000 </r>
       <r>   -20.7082     0.0000     4.0000 </r>
       <r>   -20.5255     0.0000     4.0000 </r>
       <r>   -20.3428     0.0000     4.0000 </r>
       <r>   -20.1601     0.0000     4.0000 </r>
       <r>   -19.9774     0.0000     4.0000 </r>
       <r>   -19.7947     0.0000     4.0000 </r>
       <r>   -19.6120     0.0000     4.0000 </r>
       <r>   -19.4293     0.0000     4.0000 </r>
       <r>   -19.2466     0.0000     4.0000 </r>
       <r>   -19.0639     0.0000    18.0000 </r>
       <r>   -18.8812     0.0000    78.0000 </r>
       <r>   -18.6985     0.0000   140.0000 </r>
       <r>   -18.5158     0.0000   156.0000 </r>
       <r>   -18.3331     0.0000   164.0000 </r>
       <r>   -18.1504     0.0000   164.0000 </r>
       <r>   -17.9678     0.0000   164.0000 </r>
       <r>   -17.7851     0.0000   164.0000 </r>
       <r>   -17.6024     0.0000   164.0000 </r>
       <r>   -17.4197     0.0000   164.0000 </r>
       <r>   -17.2370     0.0000   164.0000 </r>
       <r>   -17.0543     0.0000   164.0000 </r>
       <r>   -16.8716     0.0000   164.0000 </r>
       <r>   -16.6889     0.0000   164.0000 </r>
       <r>   -16.5062     0.0000   164.0000 </r>
       <r>   -16.3235     0.0000   164.0000 </r>
       <r>   -16.1408     0.0000   164.0000 </r>
       <r>   -15.9581     0.0000   164.0000 </r>
       <r>   -15.7754     0.0000   164.0000 </r>
       <r>   -15.5927     0.0000   164.0000 </r>
       <r>   -15.4100     0.0000   164.0000 </r>
       <r>   -15.2273     0.0000   164.0000 </r>
       <r>   -15.0446     0.0000   164.0000 </r>
       <r>   -14.8619     0.0000   164.0000 </r>
       <r>   -14.6792     0.0000   164.0000 </r>
       <r>   -14.4965     0.0000   164.0000 </r>
       <r>   -14.3138     0.0000   164.0000 </r>
       <r>   -14.1311     0.0000   164.0000 </r>
       <r>   -13.9484     0.0000   164.0000 </r>
       <r>   -13.7657     0.0000   164.0000 </r>
       <r>   -13.5831     0.0000   166.0000 </r>
       <r>   -13.4004     0.0000   170.0000 </r>
       <r>   -13.2177     0.0000   176.0000 </r>
       <r>   -13.0350     0.0000   182.0000 </r>
       <r>   -12.8523     0.0000   184.0000 </r>
       <r>   -12.6696     0.0000   192.0000 </r>
       <r>   -12.4869     0.0000   196.0000 </r>
       <r>   -12.3042     0.0000   196.0000 </r>
       <r>   -12.1215     0.0000   196.0000 </r>
       <r>   -11.9388     0.0000   196.0000 </r>
       <r>   -11.7561     0.0000   196.0000 </r>
       <r>   -11.5734     0.0000   196.0000 </r>
       <r>   -11.3907     0.0000   196.0000 </r>
       <r>   -11.2080     0.0000   196.0000 </r>
       <r>   -11.0253     0.0000   196.0000 </r>
       <r>   -10.8426     0.0000   196.0000 </r>
       <r>   -10.6599     0.0000   196.0000 </r>
       <r>   -10.4772     0.0000   196.0000 </r>
       <r>   -10.2945     0.0000   196.0000 </r>
       <r>   -10.1118     0.0000   196.0000 </r>
       <r>    -9.9291     0.0000   196.0000 </r>
       <r>    -9.7464     0.0000   196.0000 </r>
       <r>    -9.5637    13.1158   196.6932 </r>
       <r>    -9.3810     4.6959   198.0519 </r>
       <r>    -9.1984     4.7481   199.8227 </r>
       <r>    -9.0157    21.7643   200.7487 </r>
       <r>    -8.8330     0.0000   204.0000 </r>
       <r>    -8.6503    21.6785   207.3501 </r>
       <r>    -8.4676    14.0629   211.5410 </r>
       <r>    -8.2849    30.0688   213.4563 </r>
       <r>    -8.1022    28.0133   220.2544 </r>
       <r>    -7.9195     0.0000   224.0000 </r>
       <r>    -7.7368    20.0708   227.2614 </r>
       <r>    -7.5541     0.0000   228.0000 </r>
       <r>    -7.3714     0.0000   228.0000 </r>
       <r>    -7.1887     0.0000   228.0000 </r>
       <r>    -7.0060     0.0000   228.0000 </r>
       <r>    -6.8233     0.0000   228.0000 </r>
       <r>    -6.6406     0.0000   228.0000 </r>
       <r>    -6.4579    29.8337   229.9464 </r>
       <r>    -6.2752    22.5584   234.5498 </r>
       <r>    -6.0925     5.4648   236.0151 </r>
       <r>    -5.9098    24.6069   241.5160 </r>
       <r>    -5.7271    21.1868   244.9286 </r>
       <r>    -5.5444    19.6451   249.3477 </r>
       <r>    -5.3617     7.8786   251.7296 </r>
       <r>    -5.1790     9.2850   252.4734 </r>
       <r>    -4.9964    11.2143   254.9953 </r>
       <r>    -4.8137     4.0409   256.2904 </r>
       <r>    -4.6310     7.4335   257.2954 </r>
       <r>    -4.4483     6.7354   258.9831 </r>
       <r>    -4.2656     2.4175   259.6563 </r>
       <r>    -4.0829     0.8371   259.9532 </r>
       <r>    -3.9002     0.0000   260.0000 </r>
       <r>    -3.7175     0.0000   260.0000 </r>
       <r>    -3.5348     0.0000   260.0000 </r>
       <r>    -3.3521     0.0000   260.0000 </r>
       <r>    -3.1694     0.0000   260.0000 </r>
       <r>    -2.9867     0.0000   260.0000 </r>
       <r>    -2.8040     0.0000   260.0000 </r>
       <r>    -2.6213     0.0000   260.0000 </r>
       <r>    -2.4386     0.0000   260.0000 </r>
       <r>    -2.2559     0.0000   260.0000 </r>
       <r>    -2.0732     0.0000   260.0000 </r>
       <r>    -1.8905     0.0000   260.0000 </r>
       <r>    -1.7078     0.0000   260.0000 </r>
       <r>    -1.5251     1.2499   260.0231 </r>
       <r>    -1.3424     8.1451   261.0864 </r>
       <r>    -1.1597     7.9919   262.6412 </r>
       <r>    -0.9770    14.2435   264.6693 </r>
       <r>    -0.7943    10.9208   267.1440 </r>
       <r>    -0.6117    28.0191   271.1256 </r>
       <r>    -0.4290    35.4728   277.2561 </r>
       <r>    -0.2463    38.3101   283.7873 </r>
       <r>    -0.0636    35.5928   290.2943 </r>
       <r>     0.1191    38.1921   297.0399 </r>
       <r>     0.3018    26.7479   303.8920 </r>
       <r>     0.4845    53.0289   310.6206 </r>
       <r>     0.6672    40.3141   318.4364 </r>
       <r>     0.8499    35.3079   325.9006 </r>
       <r>     1.0326    57.6833   334.5500 </r>
       <r>     1.2153    47.2072   342.8096 </r>
       <r>     1.3980    42.2241   351.4916 </r>
       <r>     1.5807    37.6824   358.5995 </r>
       <r>     1.7634    38.7149   366.1829 </r>
       <r>     1.9461    47.0127   373.8117 </r>
       <r>     2.1288    59.0293   383.3700 </r>
       <r>     2.3115    54.9604   393.9071 </r>
       <r>     2.4942    52.7461   403.9619 </r>
       <r>     2.6769    58.0636   415.0501 </r>
       <r>     2.8596    60.2116   425.9573 </r>
       <r>     3.0423    36.0462   435.3701 </r>
       <r>     3.2250    36.6498   442.2229 </r>
       <r>     3.4077    19.5925   447.6262 </r>
       <r>     3.5904    11.5505   450.5703 </r>
       <r>     3.7730     2.8523   451.8741 </r>
       <r>     3.9557     0.0000   452.0000 </r>
       <r>     4.1384     0.0000   452.0000 </r>
       <r>     4.3211     0.0000   452.0000 </r>
       <r>     4.5038     0.0000   452.0000 </r>
       <r>     4.6865     0.0000   452.0000 </r>
       <r>     4.8692     0.0000   452.0000 </r>
       <r>     5.0519     4.1013   452.2319 </r>
       <r>     5.2346    10.2028   453.6298 </r>
       <r>     5.4173    10.3623   455.5586 </r>
       <r>     5.6000    21.3878   458.6811 </r>
       <r>     5.7827    15.1512   462.2934 </r>
       <r>     5.9654    13.9910   464.9269 </r>
       <r>     6.1481    14.4631   467.5029 </r>
       <r>     6.3308    15.9141   470.2732 </r>
       <r>     6.5135    18.0701   473.3641 </r>
       <r>     6.6962    21.2101   476.9431 </r>
       <r>     6.8789    21.7319   480.9581 </r>
       <r>     7.0616    28.0983   485.2753 </r>
       <r>     7.2443    32.7286   491.1022 </r>
       <r>     7.4270    35.9477   496.8954 </r>
       <r>     7.6097    28.1846   502.5470 </r>
       <r>     7.7924    30.3986   508.0999 </r>
       <r>     7.9751    29.3624   513.9052 </r>
       <r>     8.1577    29.2092   519.2559 </r>
       <r>     8.3404    31.6239   524.5529 </r>
       <r>     8.5231    39.3754   531.0324 </r>
       <r>     8.7058    29.2476   537.4475 </r>
       <r>     8.8885    20.4193   541.7527 </r>
       <r>     9.0712    18.1899   545.3531 </r>
       <r>     9.2539     5.7442   547.9380 </r>
       <r>     9.4366    10.4020   549.2311 </r>
       <r>     9.6193    10.4198   551.1982 </r>
       <r>     9.8020     9.6689   553.3120 </r>
       <r>     9.9847    14.8769   555.4865 </r>
       <r>    10.1674    20.2359   559.2211 </r>
       <r>    10.3501     0.0000   560.0000 </r>
       <r>    10.5328     0.0000   560.0000 </r>
       <r>    10.7155     0.0000   560.0000 </r>
       <r>    10.8982     0.0000   560.0000 </r>
       <r>    11.0809     0.0000   560.0000 </r>
       <r>    11.2636     0.0000   560.0000 </r>
       <r>    11.4463     0.0000   560.0000 </r>
       <r>    11.6290     0.0000   560.0000 </r>
       <r>    11.8117     0.0000   560.0000 </r>
       <r>    11.9944     0.0000   560.0000 </r>
       <r>    12.1771     0.0000   560.0000 </r>
       <r>    12.3598     0.0000   560.0000 </r>
       <r>    12.5424     0.0000   560.0000 </r>
       <r>    12.7251     0.0000   560.0000 </r>
      </set>
     </set>
    </array>
   </total>
  </dos>
 </calculation>
 <structure name="finalpos" >
  <crystal>
   <varray name="basis" >
    <v>      11.21719760      -0.01051667       0.02715741 </v>
    <v>      -0.00704946       9.64290153       0.03842071 </v>
    <v>       0.02687662       0.04833509      11.27753571 </v>
   </varray>
   <i name="volume">   1219.82094552 </i>
   <varray name="rec_basis" >
    <v>       0.08914940       0.00006602      -0.00021274 </v>
    <v>       0.00009831       0.10370507      -0.00044471 </v>
    <v>      -0.00021502      -0.00035347       0.08867388 </v>
   </varray>
  </crystal>
  <varray name="positions" >
   <v>       0.07165706       0.02427980       0.21887901 </v>
   <v>       0.34299978       0.01190084       0.14497018 </v>
   <v>       0.59806844       0.00008944       0.44905990 </v>
   <v>       0.86547496       0.00564410       0.44688677 </v>
   <v>       0.63521742       0.00869609       0.19444792 </v>
   <v>       0.14279363      -0.00083684       0.93017062 </v>
   <v>       0.10597861      -0.00125883       0.66499074 </v>
   <v>       0.37182775       0.00182891       0.68978310 </v>
   <v>       0.64682274      -0.02452558       0.70438768 </v>
   <v>       0.00777358       0.30057377       0.05811288 </v>
   <v>       0.25430738       0.69235673       0.05876896 </v>
   <v>       0.24744873       0.27766356       0.30243923 </v>
   <v>       0.50132673       0.68552646       0.30809845 </v>
   <v>       0.50318084       0.30213991       0.07317403 </v>
   <v>       0.75306550       0.70811840       0.06488401 </v>
   <v>       0.74786040       0.31912817       0.31380802 </v>
   <v>      -0.00188789       0.70851973       0.31261293 </v>
   <v>      -0.00126042       0.31021158       0.55898665 </v>
   <v>       0.24947189       0.69480655       0.55825010 </v>
   <v>       0.24856726       0.31746375       0.80818760 </v>
   <v>       0.49966672       0.68362030       0.81209131 </v>
   <v>       0.50167721       0.31401538       0.57054877 </v>
   <v>       0.74818065       0.68165002       0.56063823 </v>
   <v>       0.75093963       0.29906519       0.81691508 </v>
   <v>       0.00309270       0.69346278       0.81596314 </v>
   <v>       0.25599258       0.35976007       0.06717580 </v>
   <v>       0.00618990       0.66268470       0.05963779 </v>
   <v>       0.50389670       0.35396629       0.31828355 </v>
   <v>       0.25441536       0.68778661       0.31088013 </v>
   <v>       0.75290629       0.29040392       0.07499195 </v>
   <v>       0.50696913       0.65406712       0.06307635 </v>
   <v>       0.00271171       0.33112894       0.31530162 </v>
   <v>       0.75598772       0.63324286       0.31050995 </v>
   <v>       0.25489711       0.33900121       0.56785577 </v>
   <v>       0.00465730       0.66353446       0.56027327 </v>
   <v>       0.50181307       0.33909031       0.81201755 </v>
   <v>       0.25323975       0.63200571       0.80744621 </v>
   <v>       0.75459210       0.36329000       0.56990691 </v>
   <v>       0.50482716       0.63732685       0.56186392 </v>
   <v>       0.00399868       0.35056627       0.81238443 </v>
   <v>       0.74933124       0.71812831       0.80145496 </v>
   <v>       0.49638976       0.09611373       0.11525317 </v>
   <v>       0.25824827       0.90247310       0.03008078 </v>
   <v>       0.23309347       0.07649743       0.26461137 </v>
   <v>      -0.03095621       0.91691744       0.32777847 </v>
   <v>       0.04835399       0.09544241       0.05254532 </v>
   <v>       0.74559528       0.90900587       0.09796323 </v>
   <v>       0.72475590       0.09586323       0.34829278 </v>
   <v>       0.53823086       0.89812144       0.31487336 </v>
   <v>       0.51271218       0.08568960       0.58690749 </v>
   <v>       0.24852810       0.90605370       0.59560153 </v>
   <v>       0.23261352       0.09224808       0.78450930 </v>
   <v>       0.04737362       0.90149094       0.80809765 </v>
   <v>       0.98589396       0.09194486       0.56043986 </v>
   <v>       0.72810134       0.90975871       0.54640081 </v>
   <v>       0.74810446       0.09709633       0.78814188 </v>
   <v>       0.49611440       0.89470928       0.77037752 </v>
  </varray>
 </structure>
</modeling>
