<?xml version="1.0" encoding="ISO-8859-1"?>
<modeling>
 <generator>
  <i name="program" type="string">vasp </i>
  <i name="version" type="string">5.4.4.18Apr17-6-g9f103f2a35  </i>
  <i name="subversion" type="string">(build Jul 31 2017 11:33:29) complex            parallel </i>
  <i name="platform" type="string">LinuxIFC </i>
  <i name="date" type="string">2021 09 29 </i>
  <i name="time" type="string">06:12:06 </i>
 </generator>
 <incar>
  <i type="string" name="SYSTEM"> La2O2S</i>
  <i type="string" name="PREC">normal</i>
  <i type="int" name="NELMIN">     4</i>
  <i type="int" name="IBRION">     2</i>
  <i type="int" name="NFREE">    10</i>
  <i name="EDIFF">      0.00000100</i>
  <i name="EDIFFG">     -0.01000000</i>
  <i type="int" name="NSW">     1</i>
  <i type="int" name="ISIF">     2</i>
  <i name="ENCUT">    600.00000000</i>
  <i name="ENAUG">    900.00000000</i>
  <i type="int" name="ISMEAR">    -5</i>
  <i type="logical" name="LWAVE"> F  </i>
  <i type="logical" name="LCHARG"> F  </i>
  <v type="int" name="KPOINT_BSE">    -1     0     0     0</v>
 </incar>
 <structure name="primitive_cell" >
  <crystal>
   <varray name="basis" >
    <v>      11.17850000       0.00000000       0.00000000 </v>
    <v>       0.00000000       9.57460000       0.00000000 </v>
    <v>       0.00000000       0.00000000      11.18240000 </v>
   </varray>
   <i name="volume">   1196.84853820 </i>
   <varray name="rec_basis" >
    <v>       0.08945744       0.00000000       0.00000000 </v>
    <v>       0.00000000       0.10444301       0.00000000 </v>
    <v>       0.00000000       0.00000000       0.08942624 </v>
   </varray>
  </crystal>
  <varray name="positions" >
   <v>       0.37539000       0.00017000       0.43687000 </v>
   <v>      -0.49987000      -0.07798000       0.31246000 </v>
   <v>       0.25013000       0.07798000       0.31246000 </v>
   <v>       0.49987000       0.07798000      -0.43754000 </v>
   <v>       0.24987000      -0.07798000      -0.43754000 </v>
   <v>      -0.37461000      -0.00016000       0.43687000 </v>
   <v>       0.37461000       0.00017000      -0.31313000 </v>
   <v>       0.37461000       0.00017000       0.18687000 </v>
   <v>       0.49987000      -0.29519000       0.31282000 </v>
   <v>       0.24987000       0.29519000       0.31282000 </v>
   <v>      -0.49987000       0.29519000      -0.43719000 </v>
   <v>       0.25013000      -0.29519000      -0.43719000 </v>
   <v>       0.49995000       0.32677000       0.31286000 </v>
   <v>       0.24995000      -0.32677000       0.31286000 </v>
   <v>      -0.49995000      -0.32677000      -0.43714000 </v>
   <v>       0.25005000       0.32677000      -0.43714000 </v>
   <v>      -0.37539000      -0.00016000      -0.31313000 </v>
   <v>       0.12461000      -0.00016000       0.18687000 </v>
   <v>       0.12461000      -0.00016000      -0.31313000 </v>
   <v>       0.49987000       0.07798000       0.06246000 </v>
   <v>      -0.24987000       0.07798000       0.31246000 </v>
   <v>      -0.25013000      -0.07798000      -0.43754000 </v>
   <v>       0.24987000      -0.07798000       0.06246000 </v>
   <v>       0.00013000      -0.07798000       0.31246000 </v>
   <v>      -0.49987000      -0.07798000      -0.18754000 </v>
   <v>      -0.00013000       0.07798000      -0.43754000 </v>
   <v>       0.25013000       0.07798000      -0.18754000 </v>
   <v>      -0.49987000       0.29519000       0.06281000 </v>
   <v>      -0.25013000       0.29519000       0.31282000 </v>
   <v>       0.25013000      -0.29519000       0.06281000 </v>
   <v>      -0.24987000      -0.29519000      -0.43719000 </v>
   <v>      -0.00013000      -0.29519000       0.31282000 </v>
   <v>       0.00013000       0.29519000      -0.43719000 </v>
   <v>       0.49987000      -0.29519000      -0.18718000 </v>
   <v>       0.24987000       0.29519000      -0.18718000 </v>
   <v>      -0.49995000      -0.32677000       0.06286000 </v>
   <v>       0.25005000       0.32677000       0.06286000 </v>
   <v>      -0.25005000      -0.32677000       0.31286000 </v>
   <v>      -0.24995000       0.32677000      -0.43714000 </v>
   <v>      -0.00005000       0.32677000       0.31286000 </v>
   <v>       0.00005000      -0.32677000      -0.43714000 </v>
   <v>       0.49995000       0.32677000      -0.18714000 </v>
   <v>       0.24995000      -0.32677000      -0.18714000 </v>
   <v>      -0.12461000       0.00017000       0.43687000 </v>
   <v>       0.37539000       0.00017000      -0.06313000 </v>
   <v>      -0.25013000      -0.07798000       0.06246000 </v>
   <v>      -0.00013000       0.07798000       0.06246000 </v>
   <v>      -0.24987000       0.07798000      -0.18754000 </v>
   <v>       0.00013000      -0.07798000      -0.18754000 </v>
   <v>      -0.12539000       0.00017000       0.18687000 </v>
   <v>      -0.12539000       0.00017000      -0.31313000 </v>
   <v>       0.12539000      -0.00016000      -0.06313000 </v>
   <v>      -0.37461000      -0.00016000      -0.06313000 </v>
   <v>      -0.24987000      -0.29519000       0.06281000 </v>
   <v>       0.00013000       0.29519000       0.06281000 </v>
   <v>      -0.25013000       0.29519000      -0.18718000 </v>
   <v>      -0.00013000      -0.29519000      -0.18718000 </v>
   <v>      -0.24995000       0.32677000       0.06286000 </v>
   <v>       0.00005000      -0.32677000       0.06286000 </v>
   <v>      -0.25005000      -0.32677000      -0.18714000 </v>
   <v>      -0.00005000       0.32677000      -0.18714000 </v>
   <v>      -0.12461000       0.00017000      -0.06313000 </v>
  </varray>
 </structure>
 <varray name="primitive_index" >
  <v type="int" >        1 </v>
  <v type="int" >       54 </v>
  <v type="int" >       49 </v>
  <v type="int" >       55 </v>
  <v type="int" >       56 </v>
  <v type="int" >        3 </v>
  <v type="int" >        9 </v>
  <v type="int" >       13 </v>
  <v type="int" >       18 </v>
  <v type="int" >       17 </v>
  <v type="int" >       27 </v>
  <v type="int" >       24 </v>
  <v type="int" >       33 </v>
  <v type="int" >       34 </v>
  <v type="int" >       44 </v>
  <v type="int" >       39 </v>
  <v type="int" >       12 </v>
  <v type="int" >        2 </v>
  <v type="int" >        8 </v>
  <v type="int" >       47 </v>
  <v type="int" >       53 </v>
  <v type="int" >       60 </v>
  <v type="int" >       48 </v>
  <v type="int" >       50 </v>
  <v type="int" >       62 </v>
  <v type="int" >       59 </v>
  <v type="int" >       57 </v>
  <v type="int" >       19 </v>
  <v type="int" >       21 </v>
  <v type="int" >       16 </v>
  <v type="int" >       28 </v>
  <v type="int" >       22 </v>
  <v type="int" >       23 </v>
  <v type="int" >       26 </v>
  <v type="int" >       25 </v>
  <v type="int" >       36 </v>
  <v type="int" >       31 </v>
  <v type="int" >       38 </v>
  <v type="int" >       43 </v>
  <v type="int" >       37 </v>
  <v type="int" >       40 </v>
  <v type="int" >       41 </v>
  <v type="int" >       42 </v>
  <v type="int" >        4 </v>
  <v type="int" >        7 </v>
  <v type="int" >       52 </v>
  <v type="int" >       51 </v>
  <v type="int" >       61 </v>
  <v type="int" >       58 </v>
  <v type="int" >        5 </v>
  <v type="int" >       14 </v>
  <v type="int" >        6 </v>
  <v type="int" >       10 </v>
  <v type="int" >       20 </v>
  <v type="int" >       15 </v>
  <v type="int" >       29 </v>
  <v type="int" >       30 </v>
  <v type="int" >       35 </v>
  <v type="int" >       32 </v>
  <v type="int" >       46 </v>
  <v type="int" >       45 </v>
  <v type="int" >       11 </v>
 </varray>
 <kpoints>
  <generation param="Gamma">
   <v type="int" name="divisions">       2        2        2 </v>
   <v name="usershift">      0.00000000       0.00000000       0.00000000 </v>
   <v name="genvec1">      0.50000000       0.00000000       0.00000000 </v>
   <v name="genvec2">      0.00000000       0.50000000       0.00000000 </v>
   <v name="genvec3">      0.00000000       0.00000000       0.50000000 </v>
   <v name="shift">      0.00000000       0.00000000       0.00000000 </v>
  </generation>
  <varray name="kpointlist" >
   <v>       0.00000000       0.00000000       0.00000000 </v>
   <v>       0.50000000       0.00000000       0.00000000 </v>
   <v>       0.00000000       0.50000000       0.00000000 </v>
   <v>       0.50000000       0.50000000       0.00000000 </v>
   <v>       0.00000000       0.00000000       0.50000000 </v>
   <v>       0.50000000       0.00000000       0.50000000 </v>
   <v>       0.00000000       0.50000000       0.50000000 </v>
   <v>       0.50000000       0.50000000       0.50000000 </v>
  </varray>
  <varray name="weights" >
   <v>       0.12500000 </v>
   <v>       0.12500000 </v>
   <v>       0.12500000 </v>
   <v>       0.12500000 </v>
   <v>       0.12500000 </v>
   <v>       0.12500000 </v>
   <v>       0.12500000 </v>
   <v>       0.12500000 </v>
  </varray>
  <varray name="tetrahedronlist"  type="int" >
   <v type="int" >        2        1        2        4        5 </v>
   <v type="int" >        2        1        3        4        5 </v>
   <v type="int" >        2        3        4        5        7 </v>
   <v type="int" >        2        2        4        5        6 </v>
   <v type="int" >        2        4        5        6        8 </v>
   <v type="int" >        2        4        5        7        8 </v>
   <v type="int" >        2        1        2        3        6 </v>
   <v type="int" >        2        2        3        4        6 </v>
   <v type="int" >        2        3        4        6        8 </v>
   <v type="int" >        2        1        3        5        6 </v>
   <v type="int" >        2        3        5        6        7 </v>
   <v type="int" >        2        3        6        7        8 </v>
   <v type="int" >        2        2        3        4        7 </v>
   <v type="int" >        2        1        2        3        7 </v>
   <v type="int" >        2        1        2        5        7 </v>
   <v type="int" >        2        2        4        7        8 </v>
   <v type="int" >        2        2        6        7        8 </v>
   <v type="int" >        2        2        5        6        7 </v>
   <v type="int" >        2        1        3        4        8 </v>
   <v type="int" >        2        1        2        4        8 </v>
   <v type="int" >        2        1        2        6        8 </v>
   <v type="int" >        2        1        3        7        8 </v>
   <v type="int" >        2        1        5        7        8 </v>
   <v type="int" >        2        1        5        6        8 </v>
  </varray>
  <i name="volumeweight">      0.02083333 </i>
 </kpoints>
 <parameters>
  <separator name="general" >
   <i type="string" name="SYSTEM">La2O2S</i>
   <i type="logical" name="LCOMPAT"> F  </i>
  </separator>
  <separator name="electronic" >
   <i type="string" name="PREC">normal</i>
   <i name="ENMAX">    600.00000000</i>
   <i name="ENAUG">    900.00000000</i>
   <i name="EDIFF">      0.00000100</i>
   <i type="int" name="IALGO">    38</i>
   <i type="int" name="IWAVPR">    11</i>
   <i type="int" name="NBANDS">   308</i>
   <i name="NELECT">    472.00000000</i>
   <i type="int" name="TURBO">     0</i>
   <i type="int" name="IRESTART">     0</i>
   <i type="int" name="NREBOOT">     0</i>
   <i type="int" name="NMIN">     0</i>
   <i name="EREF">      0.00000000</i>
   <separator name="electronic smearing" >
    <i type="int" name="ISMEAR">    -5</i>
    <i name="SIGMA">      0.20000000</i>
    <i name="KSPACING">      0.50000000</i>
    <i type="logical" name="KGAMMA"> T  </i>
   </separator>
   <separator name="electronic projectors" >
    <i type="logical" name="LREAL"> F  </i>
    <v name="ROPT">      0.00000000      0.00000000      0.00000000      0.00000000      0.00000000</v>
    <i type="int" name="LMAXPAW">  -100</i>
    <i type="int" name="LMAXMIX">     2</i>
    <i type="logical" name="NLSPLINE"> F  </i>
   </separator>
   <separator name="electronic startup" >
    <i type="int" name="ISTART">     0</i>
    <i type="int" name="ICHARG">     2</i>
    <i type="int" name="INIWAV">     1</i>
   </separator>
   <separator name="electronic spin" >
    <i type="int" name="ISPIN">     1</i>
    <i type="logical" name="LNONCOLLINEAR"> F  </i>
    <v name="MAGMOM">      1.00000000      1.00000000      1.00000000      1.00000000      1.00000000      1.00000000      1.00000000      1.00000000      1.00000000      1.00000000      1.00000000      1.00000000      1.00000000      1.00000000      1.00000000      1.00000000      1.00000000      1.00000000      1.00000000      1.00000000
      1.00000000      1.00000000      1.00000000      1.00000000      1.00000000      1.00000000      1.00000000      1.00000000      1.00000000      1.00000000      1.00000000      1.00000000      1.00000000      1.00000000      1.00000000      1.00000000      1.00000000      1.00000000      1.00000000      1.00000000
      1.00000000      1.00000000      1.00000000      1.00000000      1.00000000      1.00000000      1.00000000      1.00000000      1.00000000      1.00000000      1.00000000      1.00000000      1.00000000      1.00000000      1.00000000      1.00000000      1.00000000      1.00000000      1.00000000      1.00000000
      1.00000000      1.00000000</v>
    <i name="NUPDOWN">     -1.00000000</i>
    <i type="logical" name="LSORBIT"> F  </i>
    <v name="SAXIS">      0.00000000      0.00000000      1.00000000</v>
    <i type="logical" name="LSPIRAL"> F  </i>
    <v name="QSPIRAL">      0.00000000      0.00000000      0.00000000</v>
    <i type="logical" name="LZEROZ"> F  </i>
   </separator>
   <separator name="electronic exchange-correlation" >
    <i type="logical" name="LASPH"> F  </i>
    <i type="logical" name="LMETAGGA"> F  </i>
   </separator>
   <separator name="electronic convergence" >
    <i type="int" name="NELM">    60</i>
    <i type="int" name="NELMDL">    -5</i>
    <i type="int" name="NELMIN">     4</i>
    <i name="ENINI">    600.00000000</i>
    <separator name="electronic convergence detail" >
     <i type="logical" name="LDIAG"> T  </i>
     <i type="logical" name="LSUBROT"> F  </i>
     <i name="WEIMIN">      0.00100000</i>
     <i name="EBREAK">      0.00000000</i>
     <i name="DEPER">      0.30000000</i>
     <i type="int" name="NRMM">     4</i>
     <i name="TIME">      0.40000000</i>
    </separator>
   </separator>
   <separator name="electronic mixer" >
    <i name="AMIX">      0.40000000</i>
    <i name="BMIX">      1.00000000</i>
    <i name="AMIN">      0.10000000</i>
    <i name="AMIX_MAG">      1.60000000</i>
    <i name="BMIX_MAG">      1.00000000</i>
    <separator name="electronic mixer details" >
     <i type="int" name="IMIX">     4</i>
     <i type="logical" name="MIXFIRST"> F  </i>
     <i type="int" name="MAXMIX">   -45</i>
     <i name="WC">    100.00000000</i>
     <i type="int" name="INIMIX">     1</i>
     <i type="int" name="MIXPRE">     1</i>
     <i type="int" name="MREMOVE">     5</i>
    </separator>
   </separator>
   <separator name="electronic dipolcorrection" >
    <i type="logical" name="LDIPOL"> F  </i>
    <i type="logical" name="LMONO"> F  </i>
    <i type="int" name="IDIPOL">     0</i>
    <i name="EPSILON">      1.00000000</i>
    <v name="DIPOL">   -100.00000000   -100.00000000   -100.00000000</v>
    <i name="EFIELD">      0.00000000</i>
   </separator>
  </separator>
  <separator name="grids" >
   <i type="int" name="NGX">    70</i>
   <i type="int" name="NGY">    60</i>
   <i type="int" name="NGZ">    70</i>
   <i type="int" name="NGXF">   140</i>
   <i type="int" name="NGYF">   120</i>
   <i type="int" name="NGZF">   140</i>
   <i type="logical" name="ADDGRID"> F  </i>
  </separator>
  <separator name="ionic" >
   <i type="int" name="NSW">     1</i>
   <i type="int" name="IBRION">     2</i>
   <i type="int" name="MDALGO">     0</i>
   <i type="int" name="ISIF">     2</i>
   <i name="PSTRESS">      0.00000000</i>
   <i name="EDIFFG">     -0.01000000</i>
   <i type="int" name="NFREE">    10</i>
   <i name="POTIM">      0.50000000</i>
   <i name="SMASS">     -3.00000000</i>
   <i name="SCALEE">      1.00000000</i>
  </separator>
  <separator name="ionic md" >
   <i name="TEBEG">      0.00010000</i>
   <i name="TEEND">      0.00010000</i>
   <i type="int" name="NBLOCK">     1</i>
   <i type="int" name="KBLOCK">     1</i>
   <i type="int" name="NPACO">   256</i>
   <i name="APACO">     16.00000000</i>
  </separator>
  <separator name="symmetry" >
   <i type="int" name="ISYM">     2</i>
   <i name="SYMPREC">      0.00001000</i>
  </separator>
  <separator name="dos" >
   <i type="int" name="LORBIT">     0</i>
   <v name="RWIGS">     -1.00000000     -1.00000000     -1.00000000     -1.00000000     -1.00000000</v>
   <i type="int" name="NEDOS">   301</i>
   <i name="EMIN">     10.00000000</i>
   <i name="EMAX">    -10.00000000</i>
   <i name="EFERMI">      0.00000000</i>
  </separator>
  <separator name="writing" >
   <i type="int" name="NWRITE">     2</i>
   <i type="logical" name="LWAVE"> F  </i>
   <i type="logical" name="LDOWNSAMPLE"> F  </i>
   <i type="logical" name="LCHARG"> F  </i>
   <i type="logical" name="LPARD"> F  </i>
   <i type="logical" name="LVTOT"> F  </i>
   <i type="logical" name="LVHAR"> F  </i>
   <i type="logical" name="LELF"> F  </i>
   <i type="logical" name="LOPTICS"> F  </i>
   <v name="STM">      0.00000000      0.00000000      0.00000000      0.00000000      0.00000000      0.00000000      0.00000000</v>
  </separator>
  <separator name="performance" >
   <i type="int" name="NPAR">    28</i>
   <i type="int" name="NSIM">     4</i>
   <i type="int" name="NBLK">    -1</i>
   <i type="logical" name="LPLANE"> T  </i>
   <i type="logical" name="LSCALAPACK"> T  </i>
   <i type="logical" name="LSCAAWARE"> F  </i>
   <i type="logical" name="LSCALU"> F  </i>
   <i type="logical" name="LASYNC"> F  </i>
   <i type="logical" name="LORBITALREAL"> F  </i>
  </separator>
  <separator name="miscellaneous" >
   <i type="int" name="IDIOT">     3</i>
   <i type="int" name="ISPECIAL">     0</i>
   <i type="logical" name="LMUSIC"> F  </i>
   <v name="POMASS">      7.01000000     24.30500000    208.98000000     32.06600000     16.00000000</v>
   <v name="DARWINR">      0.00000000      0.00000000      0.00000000      0.00000000      0.00000000</v>
   <v name="DARWINV">      1.00000000      1.00000000      1.00000000      1.00000000      1.00000000</v>
   <i type="logical" name="LCORR"> T  </i>
  </separator>
  <i type="logical" name="GGA_COMPAT"> T  </i>
  <i type="logical" name="LBERRY"> F  </i>
  <i type="int" name="ICORELEVEL">     0</i>
  <i type="logical" name="LDAU"> F  </i>
  <i type="int" name="I_CONSTRAINED_M">     0</i>
  <separator name="electronic exchange-correlation" >
   <i type="string" name="GGA">--</i>
   <i type="int" name="VOSKOWN">     0</i>
   <i type="logical" name="LHFCALC"> F  </i>
   <i type="string" name="PRECFOCK"></i>
   <i type="logical" name="LSYMGRAD"> F  </i>
   <i type="logical" name="LHFONE"> F  </i>
   <i type="logical" name="LRHFCALC"> F  </i>
   <i type="logical" name="LTHOMAS"> F  </i>
   <i type="logical" name="LMODELHF"> F  </i>
   <i name="ENCUT4O">     -1.00000000</i>
   <i type="int" name="EXXOEP">     0</i>
   <i type="int" name="FOURORBIT">     0</i>
   <i name="AEXX">      0.00000000</i>
   <i name="HFALPHA">      0.00000000</i>
   <i name="MCALPHA">      0.00000000</i>
   <i name="ALDAX">      1.00000000</i>
   <i name="AGGAX">      1.00000000</i>
   <i name="ALDAC">      1.00000000</i>
   <i name="AGGAC">      1.00000000</i>
   <i type="int" name="NKREDX">     1</i>
   <i type="int" name="NKREDY">     1</i>
   <i type="int" name="NKREDZ">     1</i>
   <i type="logical" name="SHIFTRED"> F  </i>
   <i type="logical" name="ODDONLY"> F  </i>
   <i type="logical" name="EVENONLY"> F  </i>
   <i type="int" name="LMAXFOCK">     0</i>
   <i type="int" name="NMAXFOCKAE">     0</i>
   <i type="logical" name="LFOCKAEDFT"> F  </i>
   <i name="HFSCREEN">      0.00000000</i>
   <i name="HFSCREENC">      0.00000000</i>
   <i type="int" name="NBANDSGWLOW">     0</i>
  </separator>
  <separator name="vdW DFT" >
   <i type="logical" name="LUSE_VDW"> F  </i>
   <i name="Zab_VDW">     -0.84910000</i>
   <i name="PARAM1">      0.12340000</i>
   <i name="PARAM2">      1.00000000</i>
   <i name="PARAM3">      0.00000000</i>
  </separator>
  <separator name="model GW" >
   <i type="int" name="MODEL_GW">     0</i>
   <i name="MODEL_EPS0">     11.58240521</i>
   <i name="MODEL_ALPHA">      1.00000000</i>
  </separator>
  <separator name="linear response parameters" >
   <i type="logical" name="LEPSILON"> F  </i>
   <i type="logical" name="LRPA"> F  </i>
   <i type="logical" name="LNABLA"> F  </i>
   <i type="logical" name="LVEL"> F  </i>
   <i type="int" name="KINTER">     0</i>
   <i name="CSHIFT">      0.10000000</i>
   <i name="OMEGAMAX">     -1.00000000</i>
   <i name="DEG_THRESHOLD">      0.00200000</i>
   <i name="RTIME">     -0.10000000</i>
   <i name="WPLASMAI">      0.00000000</i>
   <v name="DFIELD">      0.00000000      0.00000000      0.00000000</v>
   <v name="WPLASMA">      0.00000000      0.00000000      0.00000000      0.00000000      0.00000000      0.00000000      0.00000000      0.00000000      0.00000000</v>
  </separator>
  <separator name="orbital magnetization" >
   <i type="logical" name="NUCIND"> F  </i>
   <v name="MAGPOS">      0.00000000      0.00000000      0.00000000</v>
   <i type="logical" name="LNICSALL"> T  </i>
   <i type="logical" name="ORBITALMAG"> F  </i>
   <i type="logical" name="LMAGBLOCH"> F  </i>
   <i type="logical" name="LCHIMAG"> F  </i>
   <i type="logical" name="LGAUGE"> T  </i>
   <i type="int" name="MAGATOM">     0</i>
   <v name="MAGDIPOL">      0.00000000      0.00000000      0.00000000</v>
   <v name="AVECCONST">      0.00000000      0.00000000      0.00000000</v>
  </separator>
  <separator name="response functions" >
   <i type="logical" name="LADDER"> F  </i>
   <i type="logical" name="LRPAFORCE"> F  </i>
   <i type="logical" name="LFXC"> F  </i>
   <i type="logical" name="LHARTREE"> T  </i>
   <i type="int" name="IBSE">     0</i>
   <v type="int" name="KPOINT">    -1     0     0     0</v>
   <i type="logical" name="LTCTE"> F  </i>
   <i type="logical" name="LTETE"> F  </i>
   <i type="logical" name="LTRIPLET"> F  </i>
   <i type="logical" name="LFXCEPS"> F  </i>
   <i type="logical" name="LFXHEG"> F  </i>
   <i type="int" name="NATURALO">     2</i>
   <i type="logical" name="L2ORDER"> F  </i>
   <i type="logical" name="LMP2LT"> F  </i>
   <i type="logical" name="LUSEW"> F  </i>
   <i name="ENCUTGW">     -2.00000000</i>
   <i name="ENCUTGWSOFT">     -2.00000000</i>
   <i name="ENCUTLF">     -1.00000000</i>
   <i type="int" name="LMAXMP2">    -1</i>
   <i name="SCISSOR">      0.00000000</i>
   <i type="int" name="NOMEGA">     0</i>
   <i type="int" name="NOMEGAR">     0</i>
   <i type="int" name="NBANDSGW">    -1</i>
   <i type="int" name="NBANDSO">    -1</i>
   <i type="int" name="NBANDSV">    -1</i>
   <i type="int" name="NELM">     1</i>
   <i type="int" name="NELMHF">     1</i>
   <i type="int" name="DIM">     3</i>
   <i type="int" name="ANTIRES">     0</i>
   <i name="OMEGAMAX">    -30.00000000</i>
   <i name="OMEGAMIN">    -30.00000000</i>
   <i name="OMEGATL">   -200.00000000</i>
   <i type="int" name="OMEGAGRID">   140</i>
   <i name="CSHIFT">     -0.10000000</i>
   <i type="logical" name="SELFENERGY"> F  </i>
   <i type="logical" name="LSPECTRAL"> F  </i>
   <i type="logical" name="LSPECTRALGW"> F  </i>
   <i type="logical" name="LSINGLES"> F  </i>
   <i type="logical" name="LFERMIGW"> F  </i>
   <i type="logical" name="ODDONLYGW"> F  </i>
   <i type="logical" name="EVENONLYGW"> F  </i>
   <i type="int" name="NKREDLFX">     1</i>
   <i type="int" name="NKREDLFY">     1</i>
   <i type="int" name="NKREDLFZ">     1</i>
   <i type="int" name="MAXMEM">  2800</i>
   <i type="int" name="TELESCOPE">     0</i>
   <i type="int" name="TAUPAR">     1</i>
   <i type="int" name="OMEGAPAR">    -1</i>
   <i name="LAMBDA">      1.00000000</i>
  </separator>
  <separator name="External order field" >
   <i name="OFIELD_KAPPA">      0.00000000</i>
   <v name="OFIELD_K">      0.00000000      0.00000000      0.00000000</v>
   <i name="OFIELD_Q6_NEAR">      0.00000000</i>
   <i name="OFIELD_Q6_FAR">      0.00000000</i>
   <i name="OFIELD_A">      0.00000000</i>
  </separator>
 </parameters>
 <atominfo>
  <atoms>      62 </atoms>
  <types>       5 </types>
  <array name="atoms" >
   <dimension dim="1">ion</dimension>
   <field type="string">element</field>
   <field type="int">atomtype</field>
   <set>
    <rc><c>Li</c><c>   1</c></rc>
    <rc><c>Li</c><c>   1</c></rc>
    <rc><c>Li</c><c>   1</c></rc>
    <rc><c>Li</c><c>   1</c></rc>
    <rc><c>Li</c><c>   1</c></rc>
    <rc><c>Li</c><c>   1</c></rc>
    <rc><c>Li</c><c>   1</c></rc>
    <rc><c>Li</c><c>   1</c></rc>
    <rc><c>Li</c><c>   1</c></rc>
    <rc><c>Li</c><c>   1</c></rc>
    <rc><c>Li</c><c>   1</c></rc>
    <rc><c>Li</c><c>   1</c></rc>
    <rc><c>Mg</c><c>   2</c></rc>
    <rc><c>Mg</c><c>   2</c></rc>
    <rc><c>Bi</c><c>   3</c></rc>
    <rc><c>Bi</c><c>   3</c></rc>
    <rc><c>Bi</c><c>   3</c></rc>
    <rc><c>Bi</c><c>   3</c></rc>
    <rc><c>Bi</c><c>   3</c></rc>
    <rc><c>Bi</c><c>   3</c></rc>
    <rc><c>Bi</c><c>   3</c></rc>
    <rc><c>Bi</c><c>   3</c></rc>
    <rc><c>Bi</c><c>   3</c></rc>
    <rc><c>Bi</c><c>   3</c></rc>
    <rc><c>Bi</c><c>   3</c></rc>
    <rc><c>Bi</c><c>   3</c></rc>
    <rc><c>Bi</c><c>   3</c></rc>
    <rc><c>Bi</c><c>   3</c></rc>
    <rc><c>Bi</c><c>   3</c></rc>
    <rc><c>Bi</c><c>   3</c></rc>
    <rc><c>S </c><c>   4</c></rc>
    <rc><c>S </c><c>   4</c></rc>
    <rc><c>S </c><c>   4</c></rc>
    <rc><c>S </c><c>   4</c></rc>
    <rc><c>S </c><c>   4</c></rc>
    <rc><c>S </c><c>   4</c></rc>
    <rc><c>S </c><c>   4</c></rc>
    <rc><c>S </c><c>   4</c></rc>
    <rc><c>S </c><c>   4</c></rc>
    <rc><c>S </c><c>   4</c></rc>
    <rc><c>S </c><c>   4</c></rc>
    <rc><c>S </c><c>   4</c></rc>
    <rc><c>S </c><c>   4</c></rc>
    <rc><c>S </c><c>   4</c></rc>
    <rc><c>S </c><c>   4</c></rc>
    <rc><c>S </c><c>   4</c></rc>
    <rc><c>O </c><c>   5</c></rc>
    <rc><c>O </c><c>   5</c></rc>
    <rc><c>O </c><c>   5</c></rc>
    <rc><c>O </c><c>   5</c></rc>
    <rc><c>O </c><c>   5</c></rc>
    <rc><c>O </c><c>   5</c></rc>
    <rc><c>O </c><c>   5</c></rc>
    <rc><c>O </c><c>   5</c></rc>
    <rc><c>O </c><c>   5</c></rc>
    <rc><c>O </c><c>   5</c></rc>
    <rc><c>O </c><c>   5</c></rc>
    <rc><c>O </c><c>   5</c></rc>
    <rc><c>O </c><c>   5</c></rc>
    <rc><c>O </c><c>   5</c></rc>
    <rc><c>O </c><c>   5</c></rc>
    <rc><c>O </c><c>   5</c></rc>
   </set>
  </array>
  <array name="atomtypes" >
   <dimension dim="1">type</dimension>
   <field type="int">atomspertype</field>
   <field type="string">element</field>
   <field>mass</field>
   <field>valence</field>
   <field type="string">pseudopotential</field>
   <set>
    <rc><c>  12</c><c>Li</c><c>      7.01000000</c><c>      3.00000000</c><c>  PAW_PBE Li_sv 10Sep2004               </c></rc>
    <rc><c>   2</c><c>Mg</c><c>     24.30500000</c><c>      2.00000000</c><c>  PAW_PBE Mg 13Apr2007                  </c></rc>
    <rc><c>  16</c><c>Bi</c><c>    208.98000000</c><c>     15.00000000</c><c>  PAW_PBE Bi_d 06Sep2000                </c></rc>
    <rc><c>  16</c><c>S </c><c>     32.06600000</c><c>      6.00000000</c><c>  PAW_PBE S 06Sep2000                   </c></rc>
    <rc><c>  16</c><c>O </c><c>     16.00000000</c><c>      6.00000000</c><c>  PAW_PBE O 08Apr2002                   </c></rc>
   </set>
  </array>
 </atominfo>
 <structure name="initialpos" >
  <crystal>
   <varray name="basis" >
    <v>      11.17850000       0.00000000       0.00000000 </v>
    <v>       0.00000000       9.57460000       0.00000000 </v>
    <v>       0.00000000       0.00000000      11.18240000 </v>
   </varray>
   <i name="volume">   1196.84853820 </i>
   <varray name="rec_basis" >
    <v>       0.08945744       0.00000000       0.00000000 </v>
    <v>       0.00000000       0.10444301       0.00000000 </v>
    <v>       0.00000000       0.00000000       0.08942624 </v>
   </varray>
  </crystal>
  <varray name="positions" >
   <v>       0.37539000       0.00017000       0.43687000 </v>
   <v>       0.12461000       0.99984000       0.18687000 </v>
   <v>       0.62539000       0.99984000       0.43687000 </v>
   <v>       0.87539000       0.00017000       0.43687000 </v>
   <v>       0.87461000       0.00017000       0.18687000 </v>
   <v>       0.12539000       0.99984000       0.93687000 </v>
   <v>       0.37539000       0.00017000       0.93687000 </v>
   <v>       0.12461000       0.99984000       0.68687000 </v>
   <v>       0.37461000       0.00017000       0.68687000 </v>
   <v>       0.62539000       0.99984000       0.93687000 </v>
   <v>       0.87539000       0.00017000       0.93687000 </v>
   <v>       0.62461000       0.99984000       0.68687000 </v>
   <v>       0.37461000       0.00017000       0.18687000 </v>
   <v>       0.87461000       0.00017000       0.68687000 </v>
   <v>       0.00013000       0.29519000       0.06281000 </v>
   <v>       0.25013000       0.70481000       0.06281000 </v>
   <v>       0.24987000       0.29519000       0.31282000 </v>
   <v>       0.49987000       0.70481000       0.31282000 </v>
   <v>       0.50013000       0.29519000       0.06281000 </v>
   <v>       0.75013000       0.70481000       0.06281000 </v>
   <v>       0.74987000       0.29519000       0.31282000 </v>
   <v>       0.99987000       0.70481000       0.31282000 </v>
   <v>       0.00013000       0.29519000       0.56281000 </v>
   <v>       0.25013000       0.70481000       0.56281000 </v>
   <v>       0.24987000       0.29519000       0.81282000 </v>
   <v>       0.49987000       0.70481000       0.81282000 </v>
   <v>       0.50013000       0.29519000       0.56281000 </v>
   <v>       0.75013000       0.70481000       0.56281000 </v>
   <v>       0.74987000       0.29519000       0.81282000 </v>
   <v>       0.99987000       0.70481000       0.81282000 </v>
   <v>       0.25005000       0.32677000       0.06286000 </v>
   <v>       0.00005000       0.67323000       0.06286000 </v>
   <v>       0.49995000       0.32677000       0.31286000 </v>
   <v>       0.24995000       0.67323000       0.31286000 </v>
   <v>       0.75005000       0.32677000       0.06286000 </v>
   <v>       0.50005000       0.67323000       0.06286000 </v>
   <v>       0.99995000       0.32677000       0.31286000 </v>
   <v>       0.74995000       0.67323000       0.31286000 </v>
   <v>       0.25005000       0.32677000       0.56286000 </v>
   <v>       0.00005000       0.67323000       0.56286000 </v>
   <v>       0.49995000       0.32677000       0.81286000 </v>
   <v>       0.24995000       0.67323000       0.81286000 </v>
   <v>       0.75005000       0.32677000       0.56286000 </v>
   <v>       0.50005000       0.67323000       0.56286000 </v>
   <v>       0.99995000       0.32677000       0.81286000 </v>
   <v>       0.74995000       0.67323000       0.81286000 </v>
   <v>       0.49987000       0.07798000       0.06246000 </v>
   <v>       0.24987000       0.92202000       0.06246000 </v>
   <v>       0.25013000       0.07798000       0.31246000 </v>
   <v>       0.00013000       0.92202000       0.31246000 </v>
   <v>       0.99987000       0.07798000       0.06246000 </v>
   <v>       0.74987000       0.92202000       0.06246000 </v>
   <v>       0.75013000       0.07798000       0.31246000 </v>
   <v>       0.50013000       0.92202000       0.31246000 </v>
   <v>       0.49987000       0.07798000       0.56246000 </v>
   <v>       0.24987000       0.92202000       0.56246000 </v>
   <v>       0.25013000       0.07798000       0.81246000 </v>
   <v>       0.00013000       0.92202000       0.81246000 </v>
   <v>       0.99987000       0.07798000       0.56246000 </v>
   <v>       0.74987000       0.92202000       0.56246000 </v>
   <v>       0.75013000       0.07798000       0.81246000 </v>
   <v>       0.50013000       0.92202000       0.81246000 </v>
  </varray>
 </structure>
 <calculation>
  <scstep>
   <time name="dav">   64.59   64.61</time>
   <time name="total">   64.68   64.70</time>
   <energy>
    <i name="alphaZ">   1079.87189334 </i>
    <i name="ewald"> -31116.43124925 </i>
    <i name="hartreedc"> -12708.78701160 </i>
    <i name="XCdc">   1468.89345740 </i>
    <i name="pawpsdc">  36917.91861236 </i>
    <i name="pawaedc"> -36503.41947684 </i>
    <i name="eentropy">      0.00000000 </i>
    <i name="bandstr">   1591.66012185 </i>
    <i name="atom">  45173.57650906 </i>
    <i name="e_fr_energy">   5903.28285634 </i>
    <i name="e_wo_entrp">   5903.28285634 </i>
    <i name="e_0_energy">   5903.28285634 </i>
   </energy>
  </scstep>
  <scstep>
   <time name="dav">   64.81   64.83</time>
   <time name="total">   64.82   64.84</time>
   <energy>
    <i name="e_fr_energy">    755.50814958 </i>
    <i name="e_wo_entrp">    755.50814958 </i>
    <i name="e_0_energy">    755.50814958 </i>
   </energy>
  </scstep>
  <scstep>
   <time name="dav">   71.38   71.41</time>
   <time name="total">   71.38   71.41</time>
   <energy>
    <i name="e_fr_energy">   -244.09282266 </i>
    <i name="e_wo_entrp">   -244.09282266 </i>
    <i name="e_0_energy">   -244.09282266 </i>
   </energy>
  </scstep>
  <scstep>
   <time name="dav">   80.29   80.33</time>
   <time name="total">   80.29   80.33</time>
   <energy>
    <i name="e_fr_energy">   -352.64213066 </i>
    <i name="e_wo_entrp">   -352.64213066 </i>
    <i name="e_0_energy">   -352.64213066 </i>
   </energy>
  </scstep>
  <scstep>
   <time name="dav">  103.93  104.06</time>
   <time name="total">  104.66  104.79</time>
   <energy>
    <i name="e_fr_energy">   -360.83918329 </i>
    <i name="e_wo_entrp">   -360.83918329 </i>
    <i name="e_0_energy">   -360.83918329 </i>
   </energy>
  </scstep>
  <scstep>
   <time name="dav">   91.13   91.34</time>
   <time name="total">   91.93   92.14</time>
   <energy>
    <i name="e_fr_energy">   -300.97768333 </i>
    <i name="e_wo_entrp">   -300.97768333 </i>
    <i name="e_0_energy">   -300.97768333 </i>
   </energy>
  </scstep>
  <scstep>
   <time name="dav">   72.58   72.62</time>
   <time name="total">   73.38   73.42</time>
   <energy>
    <i name="e_fr_energy">   -303.18549254 </i>
    <i name="e_wo_entrp">   -303.18549254 </i>
    <i name="e_0_energy">   -303.18549254 </i>
   </energy>
  </scstep>
  <scstep>
   <time name="dav">   80.76   80.92</time>
   <time name="total">   81.56   81.72</time>
   <energy>
    <i name="e_fr_energy">   -301.80968213 </i>
    <i name="e_wo_entrp">   -301.80968213 </i>
    <i name="e_0_energy">   -301.80968213 </i>
   </energy>
  </scstep>
  <scstep>
   <time name="dav">   88.87   89.00</time>
   <time name="total">   89.67   89.80</time>
   <energy>
    <i name="e_fr_energy">   -301.21212817 </i>
    <i name="e_wo_entrp">   -301.21212817 </i>
    <i name="e_0_energy">   -301.21212817 </i>
   </energy>
  </scstep>
  <scstep>
   <time name="dav">   79.35   79.55</time>
   <time name="total">   80.15   80.35</time>
   <energy>
    <i name="e_fr_energy">   -301.17392145 </i>
    <i name="e_wo_entrp">   -301.17392145 </i>
    <i name="e_0_energy">   -301.17392145 </i>
   </energy>
  </scstep>
  <scstep>
   <time name="dav">   78.84   78.95</time>
   <time name="total">   79.63   79.75</time>
   <energy>
    <i name="e_fr_energy">   -301.18689278 </i>
    <i name="e_wo_entrp">   -301.18689278 </i>
    <i name="e_0_energy">   -301.18689278 </i>
   </energy>
  </scstep>
  <scstep>
   <time name="dav">   82.79   82.91</time>
   <time name="total">   83.59   83.71</time>
   <energy>
    <i name="e_fr_energy">   -301.19215568 </i>
    <i name="e_wo_entrp">   -301.19215568 </i>
    <i name="e_0_energy">   -301.19215568 </i>
   </energy>
  </scstep>
  <scstep>
   <time name="dav">   80.86   80.94</time>
   <time name="total">   81.66   81.74</time>
   <energy>
    <i name="e_fr_energy">   -301.19286160 </i>
    <i name="e_wo_entrp">   -301.19286160 </i>
    <i name="e_0_energy">   -301.19286160 </i>
   </energy>
  </scstep>
  <scstep>
   <time name="dav">   71.81   71.85</time>
   <time name="total">   72.60   72.65</time>
   <energy>
    <i name="e_fr_energy">   -301.19317996 </i>
    <i name="e_wo_entrp">   -301.19317996 </i>
    <i name="e_0_energy">   -301.19317996 </i>
   </energy>
  </scstep>
  <scstep>
   <time name="dav">  104.48  104.66</time>
   <time name="total">  105.28  105.46</time>
   <energy>
    <i name="e_fr_energy">   -301.19320787 </i>
    <i name="e_wo_entrp">   -301.19320787 </i>
    <i name="e_0_energy">   -301.19320787 </i>
   </energy>
  </scstep>
  <scstep>
   <time name="dav">   68.90   69.03</time>
   <time name="total">   69.69   69.83</time>
   <energy>
    <i name="e_fr_energy">   -301.19322438 </i>
    <i name="e_wo_entrp">   -301.19322438 </i>
    <i name="e_0_energy">   -301.19322438 </i>
   </energy>
  </scstep>
  <scstep>
   <time name="dav">   75.18   75.36</time>
   <time name="total">   75.98   76.16</time>
   <energy>
    <i name="e_fr_energy">   -301.19322734 </i>
    <i name="e_wo_entrp">   -301.19322734 </i>
    <i name="e_0_energy">   -301.19322734 </i>
   </energy>
  </scstep>
  <scstep>
   <time name="dav">   61.93   62.06</time>
   <time name="total">   62.00   62.14</time>
   <energy>
    <i name="alphaZ">   1079.87189334 </i>
    <i name="ewald"> -31116.43124925 </i>
    <i name="hartreedc"> -12942.54224026 </i>
    <i name="XCdc">   1491.79910698 </i>
    <i name="pawpsdc">  43944.35928028 </i>
    <i name="pawaedc"> -43505.32888564 </i>
    <i name="eentropy">      0.00000000 </i>
    <i name="bandstr">  -4426.49764225 </i>
    <i name="atom">  45173.57650906 </i>
    <i name="e_fr_energy">   -301.19322772 </i>
    <i name="e_wo_entrp">   -301.19322772 </i>
    <i name="e_0_energy">   -301.19322772 </i>
   </energy>
  </scstep>
  <structure>
   <crystal>
    <varray name="basis" >
     <v>      11.17850000       0.00000000       0.00000000 </v>
     <v>       0.00000000       9.57460000       0.00000000 </v>
     <v>       0.00000000       0.00000000      11.18240000 </v>
    </varray>
    <i name="volume">   1196.84853820 </i>
    <varray name="rec_basis" >
     <v>       0.08945744       0.00000000       0.00000000 </v>
     <v>       0.00000000       0.10444301       0.00000000 </v>
     <v>       0.00000000       0.00000000       0.08942624 </v>
    </varray>
   </crystal>
   <varray name="positions" >
    <v>       0.37539000       0.00017000       0.43687000 </v>
    <v>       0.12461000       0.99984000       0.18687000 </v>
    <v>       0.62539000       0.99984000       0.43687000 </v>
    <v>       0.87539000       0.00017000       0.43687000 </v>
    <v>       0.87461000       0.00017000       0.18687000 </v>
    <v>       0.12539000       0.99984000       0.93687000 </v>
    <v>       0.37539000       0.00017000       0.93687000 </v>
    <v>       0.12461000       0.99984000       0.68687000 </v>
    <v>       0.37461000       0.00017000       0.68687000 </v>
    <v>       0.62539000       0.99984000       0.93687000 </v>
    <v>       0.87539000       0.00017000       0.93687000 </v>
    <v>       0.62461000       0.99984000       0.68687000 </v>
    <v>       0.37461000       0.00017000       0.18687000 </v>
    <v>       0.87461000       0.00017000       0.68687000 </v>
    <v>       0.00013000       0.29519000       0.06281000 </v>
    <v>       0.25013000       0.70481000       0.06281000 </v>
    <v>       0.24987000       0.29519000       0.31282000 </v>
    <v>       0.49987000       0.70481000       0.31282000 </v>
    <v>       0.50013000       0.29519000       0.06281000 </v>
    <v>       0.75013000       0.70481000       0.06281000 </v>
    <v>       0.74987000       0.29519000       0.31282000 </v>
    <v>       0.99987000       0.70481000       0.31282000 </v>
    <v>       0.00013000       0.29519000       0.56281000 </v>
    <v>       0.25013000       0.70481000       0.56281000 </v>
    <v>       0.24987000       0.29519000       0.81282000 </v>
    <v>       0.49987000       0.70481000       0.81282000 </v>
    <v>       0.50013000       0.29519000       0.56281000 </v>
    <v>       0.75013000       0.70481000       0.56281000 </v>
    <v>       0.74987000       0.29519000       0.81282000 </v>
    <v>       0.99987000       0.70481000       0.81282000 </v>
    <v>       0.25005000       0.32677000       0.06286000 </v>
    <v>       0.00005000       0.67323000       0.06286000 </v>
    <v>       0.49995000       0.32677000       0.31286000 </v>
    <v>       0.24995000       0.67323000       0.31286000 </v>
    <v>       0.75005000       0.32677000       0.06286000 </v>
    <v>       0.50005000       0.67323000       0.06286000 </v>
    <v>       0.99995000       0.32677000       0.31286000 </v>
    <v>       0.74995000       0.67323000       0.31286000 </v>
    <v>       0.25005000       0.32677000       0.56286000 </v>
    <v>       0.00005000       0.67323000       0.56286000 </v>
    <v>       0.49995000       0.32677000       0.81286000 </v>
    <v>       0.24995000       0.67323000       0.81286000 </v>
    <v>       0.75005000       0.32677000       0.56286000 </v>
    <v>       0.50005000       0.67323000       0.56286000 </v>
    <v>       0.99995000       0.32677000       0.81286000 </v>
    <v>       0.74995000       0.67323000       0.81286000 </v>
    <v>       0.49987000       0.07798000       0.06246000 </v>
    <v>       0.24987000       0.92202000       0.06246000 </v>
    <v>       0.25013000       0.07798000       0.31246000 </v>
    <v>       0.00013000       0.92202000       0.31246000 </v>
    <v>       0.99987000       0.07798000       0.06246000 </v>
    <v>       0.74987000       0.92202000       0.06246000 </v>
    <v>       0.75013000       0.07798000       0.31246000 </v>
    <v>       0.50013000       0.92202000       0.31246000 </v>
    <v>       0.49987000       0.07798000       0.56246000 </v>
    <v>       0.24987000       0.92202000       0.56246000 </v>
    <v>       0.25013000       0.07798000       0.81246000 </v>
    <v>       0.00013000       0.92202000       0.81246000 </v>
    <v>       0.99987000       0.07798000       0.56246000 </v>
    <v>       0.74987000       0.92202000       0.56246000 </v>
    <v>       0.75013000       0.07798000       0.81246000 </v>
    <v>       0.50013000       0.92202000       0.81246000 </v>
   </varray>
  </structure>
  <varray name="forces" >
   <v>      -0.34059447      -0.06819187       0.27255978 </v>
   <v>      -0.46699401      -0.00097201       0.54455235 </v>
   <v>      -0.01869456       0.12944464      -0.53853189 </v>
   <v>       0.33669644       0.05812585      -0.66982674 </v>
   <v>      -0.32553572      -0.06796136       0.19999215 </v>
   <v>      -0.00337743       0.13036168       0.03749920 </v>
   <v>       0.16791659       0.06113011      -0.26969911 </v>
   <v>       0.49282021      -0.00308000      -0.52985064 </v>
   <v>      -0.16156644      -0.06594512      -0.19132552 </v>
   <v>      -0.01742106      -0.13572765       0.54672074 </v>
   <v>      -0.17159415      -0.06486929       0.68647820 </v>
   <v>      -0.48227239      -0.00265228      -0.02165367 </v>
   <v>       0.80435831       0.10528992       0.32650419 </v>
   <v>       0.24616844       0.10180978      -0.25145689 </v>
   <v>      -0.11916716       0.02933817       0.24529611 </v>
   <v>      -0.10220710      -1.03239543       0.04896729 </v>
   <v>      -0.24245642      -0.00526441       0.28337233 </v>
   <v>       0.25132854       0.04406284      -0.04178177 </v>
   <v>       0.28411721      -0.03375026       0.17650610 </v>
   <v>      -0.08822137       1.00207058       0.34695296 </v>
   <v>      -0.04047484      -1.00610212      -0.22161973 </v>
   <v>       0.05704361       1.02513629       0.07865932 </v>
   <v>       0.28095563       0.04261929      -0.44483547 </v>
   <v>      -0.08986194       1.00913443      -0.23261989 </v>
   <v>       0.07706008       0.04052651      -0.10748549 </v>
   <v>      -0.06707852      -0.03740271      -0.02770884 </v>
   <v>      -0.11760943       0.02257779      -0.12462602 </v>
   <v>      -0.09854242      -1.05594017      -0.34019001 </v>
   <v>      -0.12624552       1.04933547       0.18741925 </v>
   <v>       0.13711242      -1.03714561       0.10339698 </v>
   <v>       0.03029486       0.15091554      -0.03750925 </v>
   <v>       0.18634780      -0.19484848      -0.26359150 </v>
   <v>      -0.15006181       0.16606447      -0.02179391 </v>
   <v>       0.14816715      -0.15393422      -0.24743629 </v>
   <v>       0.02181480       0.15727477      -0.27942090 </v>
   <v>      -0.23848441      -0.11828340      -0.05410384 </v>
   <v>       0.08973873       0.20728102      -0.01761282 </v>
   <v>      -0.08791928      -0.20164319       0.21110618 </v>
   <v>       0.01296135       0.16463649       0.09992695 </v>
   <v>      -0.24378496      -0.09753389       0.32063924 </v>
   <v>       0.08270207       0.14908244      -0.00993616 </v>
   <v>      -0.08137849      -0.15357144       0.17874451 </v>
   <v>       0.04346090       0.13698278       0.30375031 </v>
   <v>       0.18910537      -0.19223471       0.08478201 </v>
   <v>      -0.12188025       0.10027918      -0.04588117 </v>
   <v>       0.12242506      -0.09506278      -0.22676606 </v>
   <v>      -1.21518248       0.02059010      -0.21573601 </v>
   <v>       0.46393749       0.77519534       0.36894244 </v>
   <v>       1.09387626      -0.03342050      -1.21020157 </v>
   <v>      -0.53703718      -0.84929847      -0.60604599 </v>
   <v>       0.15248704      -0.02722133      -0.23986588 </v>
   <v>       0.60788490      -0.76435380      -0.82737693 </v>
   <v>       0.52147795       0.83318084       0.75161156 </v>
   <v>      -1.15368293      -0.08114300       0.11251346 </v>
   <v>       0.15723753      -0.02147496       0.09273576 </v>
   <v>       0.60056746      -0.78727064       0.69145751 </v>
   <v>      -0.08096547      -0.07987831       0.14695992 </v>
   <v>      -0.58105009       0.85574387      -0.48750438 </v>
   <v>      -1.19442158      -0.13285359       1.28177479 </v>
   <v>       0.47917570       0.81246619       0.71550954 </v>
   <v>       0.55524125      -0.86535309      -0.63452557 </v>
   <v>       0.07128271       0.08612371      -0.00681120 </v>
  </varray>
  <varray name="stress" >
   <v>      -8.34175111       0.07565700       0.54344109 </v>
   <v>       0.07565650     -14.51834188       0.23478837 </v>
   <v>       0.54344096       0.23478806      -7.75665982 </v>
  </varray>
  <energy>
   <i name="e_fr_energy">   -317.05007884 </i>
   <i name="e_wo_entrp">   -317.05007884 </i>
   <i name="e_0_energy">      0.00000000 </i>
  </energy>
  <time name="totalsc"> 1547.82 1549.94</time>
  <eigenvalues>
   <array>
    <dimension dim="1">band</dimension>
    <dimension dim="2">kpoint</dimension>
    <dimension dim="3">spin</dimension>
    <field>eigene</field>
    <field>occ</field>
    <set>
     <set comment="spin 1">
      <set comment="kpoint 1">
       <r>  -40.2072    1.0000 </r>
       <r>  -40.1562    1.0000 </r>
       <r>  -40.0428    1.0000 </r>
       <r>  -40.0284    1.0000 </r>
       <r>  -39.8446    1.0000 </r>
       <r>  -39.7917    1.0000 </r>
       <r>  -39.7474    1.0000 </r>
       <r>  -39.7054    1.0000 </r>
       <r>  -39.6622    1.0000 </r>
       <r>  -39.5985    1.0000 </r>
       <r>  -39.5819    1.0000 </r>
       <r>  -39.2273    1.0000 </r>
       <r>  -18.9089    1.0000 </r>
       <r>  -18.8945    1.0000 </r>
       <r>  -18.8380    1.0000 </r>
       <r>  -18.8310    1.0000 </r>
       <r>  -18.8282    1.0000 </r>
       <r>  -18.8243    1.0000 </r>
       <r>  -18.8189    1.0000 </r>
       <r>  -18.8110    1.0000 </r>
       <r>  -18.7584    1.0000 </r>
       <r>  -18.7506    1.0000 </r>
       <r>  -18.7503    1.0000 </r>
       <r>  -18.7426    1.0000 </r>
       <r>  -18.7345    1.0000 </r>
       <r>  -18.7220    1.0000 </r>
       <r>  -18.7201    1.0000 </r>
       <r>  -18.7073    1.0000 </r>
       <r>  -18.6925    1.0000 </r>
       <r>  -18.6828    1.0000 </r>
       <r>  -18.6763    1.0000 </r>
       <r>  -18.6736    1.0000 </r>
       <r>  -18.6642    1.0000 </r>
       <r>  -18.6587    1.0000 </r>
       <r>  -18.6497    1.0000 </r>
       <r>  -18.6440    1.0000 </r>
       <r>  -18.6413    1.0000 </r>
       <r>  -18.6400    1.0000 </r>
       <r>  -18.6350    1.0000 </r>
       <r>  -18.6342    1.0000 </r>
       <r>  -18.6306    1.0000 </r>
       <r>  -18.6238    1.0000 </r>
       <r>  -18.6209    1.0000 </r>
       <r>  -18.6173    1.0000 </r>
       <r>  -18.6130    1.0000 </r>
       <r>  -18.6124    1.0000 </r>
       <r>  -18.6098    1.0000 </r>
       <r>  -18.6040    1.0000 </r>
       <r>  -18.6021    1.0000 </r>
       <r>  -18.5993    1.0000 </r>
       <r>  -18.5563    1.0000 </r>
       <r>  -18.5418    1.0000 </r>
       <r>  -18.5375    1.0000 </r>
       <r>  -18.5361    1.0000 </r>
       <r>  -18.5305    1.0000 </r>
       <r>  -18.5248    1.0000 </r>
       <r>  -18.5208    1.0000 </r>
       <r>  -18.5187    1.0000 </r>
       <r>  -18.5130    1.0000 </r>
       <r>  -18.5090    1.0000 </r>
       <r>  -18.4837    1.0000 </r>
       <r>  -18.4827    1.0000 </r>
       <r>  -18.4645    1.0000 </r>
       <r>  -18.4576    1.0000 </r>
       <r>  -18.4571    1.0000 </r>
       <r>  -18.4543    1.0000 </r>
       <r>  -18.4537    1.0000 </r>
       <r>  -18.4502    1.0000 </r>
       <r>  -18.4343    1.0000 </r>
       <r>  -18.4327    1.0000 </r>
       <r>  -18.4218    1.0000 </r>
       <r>  -18.4203    1.0000 </r>
       <r>  -18.3984    1.0000 </r>
       <r>  -18.3869    1.0000 </r>
       <r>  -18.3770    1.0000 </r>
       <r>  -18.3767    1.0000 </r>
       <r>  -18.3637    1.0000 </r>
       <r>  -18.3592    1.0000 </r>
       <r>  -18.3586    1.0000 </r>
       <r>  -18.3528    1.0000 </r>
       <r>  -18.3468    1.0000 </r>
       <r>  -18.3399    1.0000 </r>
       <r>  -18.2851    1.0000 </r>
       <r>  -18.2675    1.0000 </r>
       <r>  -18.2277    1.0000 </r>
       <r>  -18.2266    1.0000 </r>
       <r>  -18.2190    1.0000 </r>
       <r>  -18.2179    1.0000 </r>
       <r>  -18.1697    1.0000 </r>
       <r>  -18.1564    1.0000 </r>
       <r>  -18.1530    1.0000 </r>
       <r>  -18.1391    1.0000 </r>
       <r>  -13.5566    1.0000 </r>
       <r>  -13.4319    1.0000 </r>
       <r>  -13.3779    1.0000 </r>
       <r>  -13.3756    1.0000 </r>
       <r>  -12.7935    1.0000 </r>
       <r>  -12.7706    1.0000 </r>
       <r>  -12.7201    1.0000 </r>
       <r>  -12.6920    1.0000 </r>
       <r>  -12.6533    1.0000 </r>
       <r>  -12.6420    1.0000 </r>
       <r>  -12.6131    1.0000 </r>
       <r>  -12.5430    1.0000 </r>
       <r>  -12.0154    1.0000 </r>
       <r>  -11.9982    1.0000 </r>
       <r>  -11.9318    1.0000 </r>
       <r>  -11.8760    1.0000 </r>
       <r>   -9.2959    1.0000 </r>
       <r>   -9.0021    1.0000 </r>
       <r>   -8.5360    1.0000 </r>
       <r>   -8.4845    1.0000 </r>
       <r>   -8.4309    1.0000 </r>
       <r>   -8.3885    1.0000 </r>
       <r>   -8.3124    1.0000 </r>
       <r>   -8.2618    1.0000 </r>
       <r>   -8.2068    1.0000 </r>
       <r>   -8.1668    1.0000 </r>
       <r>   -8.0049    1.0000 </r>
       <r>   -7.9897    1.0000 </r>
       <r>   -7.9687    1.0000 </r>
       <r>   -7.9537    1.0000 </r>
       <r>   -7.3275    1.0000 </r>
       <r>   -7.3177    1.0000 </r>
       <r>   -6.3468    1.0000 </r>
       <r>   -6.3430    1.0000 </r>
       <r>   -6.3226    1.0000 </r>
       <r>   -6.3199    1.0000 </r>
       <r>   -5.4951    1.0000 </r>
       <r>   -5.4436    1.0000 </r>
       <r>   -5.4338    1.0000 </r>
       <r>   -5.3199    1.0000 </r>
       <r>   -5.2832    1.0000 </r>
       <r>   -5.2290    1.0000 </r>
       <r>   -5.1976    1.0000 </r>
       <r>   -5.1137    1.0000 </r>
       <r>   -5.0351    1.0000 </r>
       <r>   -4.9795    1.0000 </r>
       <r>   -3.7745    1.0000 </r>
       <r>   -3.6195    1.0000 </r>
       <r>   -1.3803    1.0000 </r>
       <r>   -1.3102    1.0000 </r>
       <r>   -1.0434    1.0000 </r>
       <r>   -1.0045    1.0000 </r>
       <r>   -0.5840    1.0000 </r>
       <r>   -0.4625    1.0000 </r>
       <r>   -0.4416    1.0000 </r>
       <r>   -0.4177    1.0000 </r>
       <r>   -0.1804    1.0000 </r>
       <r>   -0.1408    1.0000 </r>
       <r>   -0.1222    1.0000 </r>
       <r>   -0.0989    1.0000 </r>
       <r>    0.0087    1.0000 </r>
       <r>    0.2672    1.0000 </r>
       <r>    0.2899    1.0000 </r>
       <r>    0.3339    1.0000 </r>
       <r>    0.3712    1.0000 </r>
       <r>    0.4828    1.0000 </r>
       <r>    0.5546    1.0000 </r>
       <r>    0.6381    1.0000 </r>
       <r>    0.6733    1.0000 </r>
       <r>    0.7071    1.0000 </r>
       <r>    0.7750    1.0000 </r>
       <r>    0.7987    1.0000 </r>
       <r>    0.8481    1.0000 </r>
       <r>    0.9332    1.0000 </r>
       <r>    0.9449    1.0000 </r>
       <r>    0.9725    1.0000 </r>
       <r>    0.9963    1.0000 </r>
       <r>    1.0551    1.0000 </r>
       <r>    1.0737    1.0000 </r>
       <r>    1.1056    1.0000 </r>
       <r>    1.1367    1.0000 </r>
       <r>    1.2182    1.0000 </r>
       <r>    1.2884    1.0000 </r>
       <r>    1.3011    1.0000 </r>
       <r>    1.3168    1.0000 </r>
       <r>    1.3737    1.0000 </r>
       <r>    1.4119    1.0000 </r>
       <r>    1.4748    1.0000 </r>
       <r>    1.4838    1.0000 </r>
       <r>    1.5339    1.0000 </r>
       <r>    1.6434    1.0000 </r>
       <r>    1.6561    1.0000 </r>
       <r>    1.7347    1.0000 </r>
       <r>    1.7443    1.0000 </r>
       <r>    1.7952    1.0000 </r>
       <r>    1.8527    1.0000 </r>
       <r>    1.8684    1.0000 </r>
       <r>    1.9577    1.0000 </r>
       <r>    2.0066    1.0000 </r>
       <r>    2.0977    1.0000 </r>
       <r>    2.1638    1.0000 </r>
       <r>    2.1795    1.0000 </r>
       <r>    2.2252    1.0000 </r>
       <r>    2.3214    1.0000 </r>
       <r>    2.3649    1.0000 </r>
       <r>    2.4070    1.0000 </r>
       <r>    2.5024    1.0000 </r>
       <r>    2.5671    1.0000 </r>
       <r>    2.5952    1.0000 </r>
       <r>    2.5974    1.0000 </r>
       <r>    2.6118    1.0000 </r>
       <r>    2.6153    1.0000 </r>
       <r>    2.6312    1.0000 </r>
       <r>    2.6355    1.0000 </r>
       <r>    2.6920    1.0000 </r>
       <r>    2.7426    1.0000 </r>
       <r>    2.7605    1.0000 </r>
       <r>    2.7897    1.0000 </r>
       <r>    2.8384    1.0000 </r>
       <r>    2.8762    1.0000 </r>
       <r>    2.9308    1.0000 </r>
       <r>    2.9712    1.0000 </r>
       <r>    3.0037    1.0000 </r>
       <r>    3.0265    1.0000 </r>
       <r>    3.0628    1.0000 </r>
       <r>    3.1127    1.0000 </r>
       <r>    3.1237    1.0000 </r>
       <r>    3.1575    1.0000 </r>
       <r>    3.1699    1.0000 </r>
       <r>    3.1936    1.0000 </r>
       <r>    3.2337    1.0000 </r>
       <r>    3.2419    1.0000 </r>
       <r>    3.2721    1.0000 </r>
       <r>    3.3089    1.0000 </r>
       <r>    3.3183    1.0000 </r>
       <r>    3.3749    1.0000 </r>
       <r>    3.4526    1.0000 </r>
       <r>    3.5273    1.0000 </r>
       <r>    3.5757    1.0000 </r>
       <r>    3.5899    1.0000 </r>
       <r>    4.2177    1.0000 </r>
       <r>    4.2424    1.0000 </r>
       <r>    4.2470    1.0000 </r>
       <r>    4.2615    1.0000 </r>
       <r>    5.1133    0.0000 </r>
       <r>    5.1368    0.0000 </r>
       <r>    5.1583    0.0000 </r>
       <r>    5.1796    0.0000 </r>
       <r>    5.7821    0.0000 </r>
       <r>    5.8032    0.0000 </r>
       <r>    5.8152    0.0000 </r>
       <r>    5.8368    0.0000 </r>
       <r>    6.1150    0.0000 </r>
       <r>    6.1369    0.0000 </r>
       <r>    6.1678    0.0000 </r>
       <r>    6.1853    0.0000 </r>
       <r>    6.2554    0.0000 </r>
       <r>    6.2720    0.0000 </r>
       <r>    6.2994    0.0000 </r>
       <r>    6.3166    0.0000 </r>
       <r>    7.1327    0.0000 </r>
       <r>    7.2365    0.0000 </r>
       <r>    7.2841    0.0000 </r>
       <r>    7.3151    0.0000 </r>
       <r>    7.7057    0.0000 </r>
       <r>    7.8334    0.0000 </r>
       <r>    7.8858    0.0000 </r>
       <r>    7.9888    0.0000 </r>
       <r>    8.0517    0.0000 </r>
       <r>    8.1743    0.0000 </r>
       <r>    8.2132    0.0000 </r>
       <r>    8.3507    0.0000 </r>
       <r>    8.4661    0.0000 </r>
       <r>    8.6591    0.0000 </r>
       <r>    8.7436    0.0000 </r>
       <r>    8.8008    0.0000 </r>
       <r>    8.8224    0.0000 </r>
       <r>    8.9281    0.0000 </r>
       <r>    8.9934    0.0000 </r>
       <r>    9.0056    0.0000 </r>
       <r>    9.0650    0.0000 </r>
       <r>    9.0673    0.0000 </r>
       <r>    9.1166    0.0000 </r>
       <r>    9.1300    0.0000 </r>
       <r>    9.1454    0.0000 </r>
       <r>    9.2029    0.0000 </r>
       <r>    9.2421    0.0000 </r>
       <r>    9.2927    0.0000 </r>
       <r>    9.4657    0.0000 </r>
       <r>    9.5358    0.0000 </r>
       <r>    9.5554    0.0000 </r>
       <r>    9.6209    0.0000 </r>
       <r>    9.6873    0.0000 </r>
       <r>    9.6993    0.0000 </r>
       <r>    9.7267    0.0000 </r>
       <r>    9.7330    0.0000 </r>
       <r>   10.2442    0.0000 </r>
       <r>   10.2607    0.0000 </r>
       <r>   10.2808    0.0000 </r>
       <r>   10.3165    0.0000 </r>
       <r>   10.4518    0.0000 </r>
       <r>   10.5470    0.0000 </r>
       <r>   10.6134    0.0000 </r>
       <r>   10.6311    0.0000 </r>
       <r>   10.6643    0.0000 </r>
       <r>   10.7946    0.0000 </r>
       <r>   11.0174    0.0000 </r>
       <r>   11.1135    0.0000 </r>
       <r>   11.2983    0.0000 </r>
       <r>   11.4624    0.0000 </r>
       <r>   11.5165    0.0000 </r>
       <r>   11.6440    0.0000 </r>
       <r>   11.7899    0.0000 </r>
       <r>   11.8283    0.0000 </r>
       <r>   11.9041    0.0000 </r>
       <r>   12.0036    0.0000 </r>
      </set>
      <set comment="kpoint 2">
       <r>  -40.2072    1.0000 </r>
       <r>  -40.1562    1.0000 </r>
       <r>  -40.0428    1.0000 </r>
       <r>  -40.0284    1.0000 </r>
       <r>  -39.8446    1.0000 </r>
       <r>  -39.7917    1.0000 </r>
       <r>  -39.7474    1.0000 </r>
       <r>  -39.7054    1.0000 </r>
       <r>  -39.6622    1.0000 </r>
       <r>  -39.5985    1.0000 </r>
       <r>  -39.5819    1.0000 </r>
       <r>  -39.2273    1.0000 </r>
       <r>  -18.9089    1.0000 </r>
       <r>  -18.8945    1.0000 </r>
       <r>  -18.8379    1.0000 </r>
       <r>  -18.8310    1.0000 </r>
       <r>  -18.8280    1.0000 </r>
       <r>  -18.8241    1.0000 </r>
       <r>  -18.8193    1.0000 </r>
       <r>  -18.8107    1.0000 </r>
       <r>  -18.7586    1.0000 </r>
       <r>  -18.7512    1.0000 </r>
       <r>  -18.7500    1.0000 </r>
       <r>  -18.7420    1.0000 </r>
       <r>  -18.7345    1.0000 </r>
       <r>  -18.7220    1.0000 </r>
       <r>  -18.7201    1.0000 </r>
       <r>  -18.7073    1.0000 </r>
       <r>  -18.6926    1.0000 </r>
       <r>  -18.6828    1.0000 </r>
       <r>  -18.6763    1.0000 </r>
       <r>  -18.6735    1.0000 </r>
       <r>  -18.6642    1.0000 </r>
       <r>  -18.6588    1.0000 </r>
       <r>  -18.6497    1.0000 </r>
       <r>  -18.6440    1.0000 </r>
       <r>  -18.6411    1.0000 </r>
       <r>  -18.6400    1.0000 </r>
       <r>  -18.6350    1.0000 </r>
       <r>  -18.6342    1.0000 </r>
       <r>  -18.6307    1.0000 </r>
       <r>  -18.6238    1.0000 </r>
       <r>  -18.6194    1.0000 </r>
       <r>  -18.6190    1.0000 </r>
       <r>  -18.6132    1.0000 </r>
       <r>  -18.6124    1.0000 </r>
       <r>  -18.6100    1.0000 </r>
       <r>  -18.6039    1.0000 </r>
       <r>  -18.6018    1.0000 </r>
       <r>  -18.5992    1.0000 </r>
       <r>  -18.5562    1.0000 </r>
       <r>  -18.5419    1.0000 </r>
       <r>  -18.5375    1.0000 </r>
       <r>  -18.5360    1.0000 </r>
       <r>  -18.5305    1.0000 </r>
       <r>  -18.5248    1.0000 </r>
       <r>  -18.5208    1.0000 </r>
       <r>  -18.5187    1.0000 </r>
       <r>  -18.5129    1.0000 </r>
       <r>  -18.5090    1.0000 </r>
       <r>  -18.4837    1.0000 </r>
       <r>  -18.4827    1.0000 </r>
       <r>  -18.4645    1.0000 </r>
       <r>  -18.4576    1.0000 </r>
       <r>  -18.4571    1.0000 </r>
       <r>  -18.4543    1.0000 </r>
       <r>  -18.4537    1.0000 </r>
       <r>  -18.4502    1.0000 </r>
       <r>  -18.4350    1.0000 </r>
       <r>  -18.4321    1.0000 </r>
       <r>  -18.4231    1.0000 </r>
       <r>  -18.4188    1.0000 </r>
       <r>  -18.3984    1.0000 </r>
       <r>  -18.3869    1.0000 </r>
       <r>  -18.3770    1.0000 </r>
       <r>  -18.3767    1.0000 </r>
       <r>  -18.3637    1.0000 </r>
       <r>  -18.3593    1.0000 </r>
       <r>  -18.3586    1.0000 </r>
       <r>  -18.3532    1.0000 </r>
       <r>  -18.3461    1.0000 </r>
       <r>  -18.3402    1.0000 </r>
       <r>  -18.2851    1.0000 </r>
       <r>  -18.2676    1.0000 </r>
       <r>  -18.2277    1.0000 </r>
       <r>  -18.2266    1.0000 </r>
       <r>  -18.2190    1.0000 </r>
       <r>  -18.2179    1.0000 </r>
       <r>  -18.1697    1.0000 </r>
       <r>  -18.1564    1.0000 </r>
       <r>  -18.1530    1.0000 </r>
       <r>  -18.1391    1.0000 </r>
       <r>  -13.5559    1.0000 </r>
       <r>  -13.4332    1.0000 </r>
       <r>  -13.3779    1.0000 </r>
       <r>  -13.3750    1.0000 </r>
       <r>  -12.7959    1.0000 </r>
       <r>  -12.7671    1.0000 </r>
       <r>  -12.7204    1.0000 </r>
       <r>  -12.6915    1.0000 </r>
       <r>  -12.6556    1.0000 </r>
       <r>  -12.6428    1.0000 </r>
       <r>  -12.6114    1.0000 </r>
       <r>  -12.5432    1.0000 </r>
       <r>  -12.0160    1.0000 </r>
       <r>  -11.9976    1.0000 </r>
       <r>  -11.9315    1.0000 </r>
       <r>  -11.8762    1.0000 </r>
       <r>   -9.0939    1.0000 </r>
       <r>   -9.0757    1.0000 </r>
       <r>   -8.8208    1.0000 </r>
       <r>   -8.8001    1.0000 </r>
       <r>   -8.2983    1.0000 </r>
       <r>   -8.2949    1.0000 </r>
       <r>   -8.2815    1.0000 </r>
       <r>   -8.2710    1.0000 </r>
       <r>   -8.1103    1.0000 </r>
       <r>   -8.1083    1.0000 </r>
       <r>   -8.0943    1.0000 </r>
       <r>   -8.0836    1.0000 </r>
       <r>   -7.6572    1.0000 </r>
       <r>   -7.6548    1.0000 </r>
       <r>   -7.5461    1.0000 </r>
       <r>   -7.5447    1.0000 </r>
       <r>   -5.9626    1.0000 </r>
       <r>   -5.9329    1.0000 </r>
       <r>   -5.9059    1.0000 </r>
       <r>   -5.8675    1.0000 </r>
       <r>   -5.8099    1.0000 </r>
       <r>   -5.7638    1.0000 </r>
       <r>   -5.7385    1.0000 </r>
       <r>   -5.7173    1.0000 </r>
       <r>   -5.6015    1.0000 </r>
       <r>   -5.5035    1.0000 </r>
       <r>   -5.4599    1.0000 </r>
       <r>   -5.4016    1.0000 </r>
       <r>   -4.3942    1.0000 </r>
       <r>   -4.3812    1.0000 </r>
       <r>   -4.2232    1.0000 </r>
       <r>   -4.2106    1.0000 </r>
       <r>   -1.1199    1.0000 </r>
       <r>   -1.0909    1.0000 </r>
       <r>   -0.7845    1.0000 </r>
       <r>   -0.7720    1.0000 </r>
       <r>   -0.4453    1.0000 </r>
       <r>   -0.3031    1.0000 </r>
       <r>    0.0093    1.0000 </r>
       <r>    0.0400    1.0000 </r>
       <r>    0.0724    1.0000 </r>
       <r>    0.0952    1.0000 </r>
       <r>    0.1614    1.0000 </r>
       <r>    0.1729    1.0000 </r>
       <r>    0.2174    1.0000 </r>
       <r>    0.2567    1.0000 </r>
       <r>    0.2904    1.0000 </r>
       <r>    0.3342    1.0000 </r>
       <r>    0.5027    1.0000 </r>
       <r>    0.5196    1.0000 </r>
       <r>    0.5694    1.0000 </r>
       <r>    0.5936    1.0000 </r>
       <r>    0.6215    1.0000 </r>
       <r>    0.6603    1.0000 </r>
       <r>    0.6820    1.0000 </r>
       <r>    0.7323    1.0000 </r>
       <r>    0.7672    1.0000 </r>
       <r>    0.8116    1.0000 </r>
       <r>    0.8925    1.0000 </r>
       <r>    0.9425    1.0000 </r>
       <r>    1.0267    1.0000 </r>
       <r>    1.0405    1.0000 </r>
       <r>    1.1076    1.0000 </r>
       <r>    1.1341    1.0000 </r>
       <r>    1.1606    1.0000 </r>
       <r>    1.2327    1.0000 </r>
       <r>    1.2695    1.0000 </r>
       <r>    1.2895    1.0000 </r>
       <r>    1.3140    1.0000 </r>
       <r>    1.3509    1.0000 </r>
       <r>    1.4310    1.0000 </r>
       <r>    1.4516    1.0000 </r>
       <r>    1.4792    1.0000 </r>
       <r>    1.5133    1.0000 </r>
       <r>    1.5481    1.0000 </r>
       <r>    1.5744    1.0000 </r>
       <r>    1.6166    1.0000 </r>
       <r>    1.6826    1.0000 </r>
       <r>    1.7264    1.0000 </r>
       <r>    1.7482    1.0000 </r>
       <r>    1.7635    1.0000 </r>
       <r>    1.8898    1.0000 </r>
       <r>    1.9631    1.0000 </r>
       <r>    1.9700    1.0000 </r>
       <r>    2.0317    1.0000 </r>
       <r>    2.1001    1.0000 </r>
       <r>    2.1077    1.0000 </r>
       <r>    2.1706    1.0000 </r>
       <r>    2.1904    1.0000 </r>
       <r>    2.2092    1.0000 </r>
       <r>    2.2585    1.0000 </r>
       <r>    2.2784    1.0000 </r>
       <r>    2.3695    1.0000 </r>
       <r>    2.3891    1.0000 </r>
       <r>    2.4054    1.0000 </r>
       <r>    2.4987    1.0000 </r>
       <r>    2.5334    1.0000 </r>
       <r>    2.5886    1.0000 </r>
       <r>    2.6201    1.0000 </r>
       <r>    2.6318    1.0000 </r>
       <r>    2.6502    1.0000 </r>
       <r>    2.6689    1.0000 </r>
       <r>    2.7394    1.0000 </r>
       <r>    2.7879    1.0000 </r>
       <r>    2.8175    1.0000 </r>
       <r>    2.8442    1.0000 </r>
       <r>    2.8659    1.0000 </r>
       <r>    2.8922    1.0000 </r>
       <r>    2.9496    1.0000 </r>
       <r>    2.9586    1.0000 </r>
       <r>    3.0052    1.0000 </r>
       <r>    3.0517    1.0000 </r>
       <r>    3.0915    1.0000 </r>
       <r>    3.1231    1.0000 </r>
       <r>    3.1613    1.0000 </r>
       <r>    3.2130    1.0000 </r>
       <r>    3.2602    1.0000 </r>
       <r>    3.3115    1.0000 </r>
       <r>    3.3160    1.0000 </r>
       <r>    3.3727    1.0000 </r>
       <r>    3.5645    1.0000 </r>
       <r>    3.5684    1.0000 </r>
       <r>    3.5852    1.0000 </r>
       <r>    3.6015    1.0000 </r>
       <r>    3.6359    1.0000 </r>
       <r>    3.6574    1.0000 </r>
       <r>    3.7004    1.0000 </r>
       <r>    3.7711    1.0000 </r>
       <r>    5.7069    0.0000 </r>
       <r>    5.7151    0.0000 </r>
       <r>    5.7164    0.0000 </r>
       <r>    5.7234    0.0000 </r>
       <r>    5.8026    0.0000 </r>
       <r>    5.8135    0.0000 </r>
       <r>    5.8140    0.0000 </r>
       <r>    5.8204    0.0000 </r>
       <r>    7.2585    0.0000 </r>
       <r>    7.2660    0.0000 </r>
       <r>    7.3297    0.0000 </r>
       <r>    7.3552    0.0000 </r>
       <r>    7.3775    0.0000 </r>
       <r>    7.4197    0.0000 </r>
       <r>    7.4448    0.0000 </r>
       <r>    7.4845    0.0000 </r>
       <r>    7.4965    0.0000 </r>
       <r>    7.5135    0.0000 </r>
       <r>    7.5310    0.0000 </r>
       <r>    7.5519    0.0000 </r>
       <r>    7.8421    0.0000 </r>
       <r>    7.8757    0.0000 </r>
       <r>    7.8919    0.0000 </r>
       <r>    7.9054    0.0000 </r>
       <r>    7.9097    0.0000 </r>
       <r>    7.9193    0.0000 </r>
       <r>    7.9461    0.0000 </r>
       <r>    7.9746    0.0000 </r>
       <r>    8.0413    0.0000 </r>
       <r>    8.0874    0.0000 </r>
       <r>    8.1709    0.0000 </r>
       <r>    8.2280    0.0000 </r>
       <r>    8.3648    0.0000 </r>
       <r>    8.4171    0.0000 </r>
       <r>    8.5710    0.0000 </r>
       <r>    8.6049    0.0000 </r>
       <r>    8.6897    0.0000 </r>
       <r>    8.7102    0.0000 </r>
       <r>    8.7895    0.0000 </r>
       <r>    8.7947    0.0000 </r>
       <r>    8.8576    0.0000 </r>
       <r>    8.8699    0.0000 </r>
       <r>    8.9644    0.0000 </r>
       <r>    8.9676    0.0000 </r>
       <r>    9.2082    0.0000 </r>
       <r>    9.2443    0.0000 </r>
       <r>    9.4566    0.0000 </r>
       <r>    9.4857    0.0000 </r>
       <r>    9.5015    0.0000 </r>
       <r>    9.6197    0.0000 </r>
       <r>   10.3004    0.0000 </r>
       <r>   10.3011    0.0000 </r>
       <r>   10.4513    0.0000 </r>
       <r>   10.5400    0.0000 </r>
       <r>   10.5440    0.0000 </r>
       <r>   10.6012    0.0000 </r>
       <r>   10.6503    0.0000 </r>
       <r>   10.7785    0.0000 </r>
       <r>   10.8048    0.0000 </r>
       <r>   10.8120    0.0000 </r>
       <r>   10.8286    0.0000 </r>
       <r>   10.8359    0.0000 </r>
       <r>   10.8933    0.0000 </r>
       <r>   10.9920    0.0000 </r>
       <r>   11.2608    0.0000 </r>
       <r>   11.3088    0.0000 </r>
       <r>   11.3355    0.0000 </r>
       <r>   11.3670    0.0000 </r>
       <r>   11.4043    0.0000 </r>
       <r>   11.5064    0.0000 </r>
       <r>   11.5244    0.0000 </r>
       <r>   11.6278    0.0000 </r>
      </set>
      <set comment="kpoint 3">
       <r>  -40.2072    1.0000 </r>
       <r>  -40.1562    1.0000 </r>
       <r>  -40.0428    1.0000 </r>
       <r>  -40.0284    1.0000 </r>
       <r>  -39.8446    1.0000 </r>
       <r>  -39.7917    1.0000 </r>
       <r>  -39.7474    1.0000 </r>
       <r>  -39.7054    1.0000 </r>
       <r>  -39.6622    1.0000 </r>
       <r>  -39.5985    1.0000 </r>
       <r>  -39.5819    1.0000 </r>
       <r>  -39.2273    1.0000 </r>
       <r>  -18.9090    1.0000 </r>
       <r>  -18.8945    1.0000 </r>
       <r>  -18.8380    1.0000 </r>
       <r>  -18.8310    1.0000 </r>
       <r>  -18.8282    1.0000 </r>
       <r>  -18.8243    1.0000 </r>
       <r>  -18.8189    1.0000 </r>
       <r>  -18.8110    1.0000 </r>
       <r>  -18.7584    1.0000 </r>
       <r>  -18.7506    1.0000 </r>
       <r>  -18.7503    1.0000 </r>
       <r>  -18.7426    1.0000 </r>
       <r>  -18.7345    1.0000 </r>
       <r>  -18.7220    1.0000 </r>
       <r>  -18.7201    1.0000 </r>
       <r>  -18.7073    1.0000 </r>
       <r>  -18.6925    1.0000 </r>
       <r>  -18.6828    1.0000 </r>
       <r>  -18.6763    1.0000 </r>
       <r>  -18.6735    1.0000 </r>
       <r>  -18.6642    1.0000 </r>
       <r>  -18.6588    1.0000 </r>
       <r>  -18.6497    1.0000 </r>
       <r>  -18.6440    1.0000 </r>
       <r>  -18.6412    1.0000 </r>
       <r>  -18.6400    1.0000 </r>
       <r>  -18.6350    1.0000 </r>
       <r>  -18.6342    1.0000 </r>
       <r>  -18.6306    1.0000 </r>
       <r>  -18.6238    1.0000 </r>
       <r>  -18.6209    1.0000 </r>
       <r>  -18.6173    1.0000 </r>
       <r>  -18.6130    1.0000 </r>
       <r>  -18.6124    1.0000 </r>
       <r>  -18.6098    1.0000 </r>
       <r>  -18.6040    1.0000 </r>
       <r>  -18.6021    1.0000 </r>
       <r>  -18.5993    1.0000 </r>
       <r>  -18.5563    1.0000 </r>
       <r>  -18.5418    1.0000 </r>
       <r>  -18.5374    1.0000 </r>
       <r>  -18.5362    1.0000 </r>
       <r>  -18.5305    1.0000 </r>
       <r>  -18.5248    1.0000 </r>
       <r>  -18.5208    1.0000 </r>
       <r>  -18.5187    1.0000 </r>
       <r>  -18.5130    1.0000 </r>
       <r>  -18.5090    1.0000 </r>
       <r>  -18.4837    1.0000 </r>
       <r>  -18.4827    1.0000 </r>
       <r>  -18.4645    1.0000 </r>
       <r>  -18.4576    1.0000 </r>
       <r>  -18.4571    1.0000 </r>
       <r>  -18.4543    1.0000 </r>
       <r>  -18.4537    1.0000 </r>
       <r>  -18.4502    1.0000 </r>
       <r>  -18.4343    1.0000 </r>
       <r>  -18.4327    1.0000 </r>
       <r>  -18.4218    1.0000 </r>
       <r>  -18.4203    1.0000 </r>
       <r>  -18.3984    1.0000 </r>
       <r>  -18.3869    1.0000 </r>
       <r>  -18.3770    1.0000 </r>
       <r>  -18.3767    1.0000 </r>
       <r>  -18.3637    1.0000 </r>
       <r>  -18.3592    1.0000 </r>
       <r>  -18.3586    1.0000 </r>
       <r>  -18.3528    1.0000 </r>
       <r>  -18.3468    1.0000 </r>
       <r>  -18.3399    1.0000 </r>
       <r>  -18.2851    1.0000 </r>
       <r>  -18.2675    1.0000 </r>
       <r>  -18.2277    1.0000 </r>
       <r>  -18.2266    1.0000 </r>
       <r>  -18.2190    1.0000 </r>
       <r>  -18.2179    1.0000 </r>
       <r>  -18.1697    1.0000 </r>
       <r>  -18.1564    1.0000 </r>
       <r>  -18.1530    1.0000 </r>
       <r>  -18.1391    1.0000 </r>
       <r>  -13.5563    1.0000 </r>
       <r>  -13.4320    1.0000 </r>
       <r>  -13.3778    1.0000 </r>
       <r>  -13.3756    1.0000 </r>
       <r>  -12.7927    1.0000 </r>
       <r>  -12.7706    1.0000 </r>
       <r>  -12.7198    1.0000 </r>
       <r>  -12.6927    1.0000 </r>
       <r>  -12.6532    1.0000 </r>
       <r>  -12.6419    1.0000 </r>
       <r>  -12.6134    1.0000 </r>
       <r>  -12.5439    1.0000 </r>
       <r>  -12.0148    1.0000 </r>
       <r>  -11.9986    1.0000 </r>
       <r>  -11.9318    1.0000 </r>
       <r>  -11.8773    1.0000 </r>
       <r>   -9.2868    1.0000 </r>
       <r>   -9.0081    1.0000 </r>
       <r>   -8.5544    1.0000 </r>
       <r>   -8.5035    1.0000 </r>
       <r>   -8.4492    1.0000 </r>
       <r>   -8.4053    1.0000 </r>
       <r>   -8.2915    1.0000 </r>
       <r>   -8.2408    1.0000 </r>
       <r>   -8.1864    1.0000 </r>
       <r>   -8.1482    1.0000 </r>
       <r>   -8.0089    1.0000 </r>
       <r>   -7.9937    1.0000 </r>
       <r>   -7.9715    1.0000 </r>
       <r>   -7.9564    1.0000 </r>
       <r>   -7.3302    1.0000 </r>
       <r>   -7.3205    1.0000 </r>
       <r>   -6.3373    1.0000 </r>
       <r>   -6.3333    1.0000 </r>
       <r>   -6.3143    1.0000 </r>
       <r>   -6.3080    1.0000 </r>
       <r>   -5.5139    1.0000 </r>
       <r>   -5.4710    1.0000 </r>
       <r>   -5.4323    1.0000 </r>
       <r>   -5.3558    1.0000 </r>
       <r>   -5.3004    1.0000 </r>
       <r>   -5.2287    1.0000 </r>
       <r>   -5.1598    1.0000 </r>
       <r>   -5.0826    1.0000 </r>
       <r>   -4.9949    1.0000 </r>
       <r>   -4.9358    1.0000 </r>
       <r>   -3.8461    1.0000 </r>
       <r>   -3.5364    1.0000 </r>
       <r>   -1.3025    1.0000 </r>
       <r>   -1.2690    1.0000 </r>
       <r>   -1.1533    1.0000 </r>
       <r>   -1.0591    1.0000 </r>
       <r>   -0.4451    1.0000 </r>
       <r>   -0.4075    1.0000 </r>
       <r>   -0.3812    1.0000 </r>
       <r>   -0.3647    1.0000 </r>
       <r>   -0.3451    1.0000 </r>
       <r>   -0.2624    1.0000 </r>
       <r>   -0.2353    1.0000 </r>
       <r>   -0.2015    1.0000 </r>
       <r>   -0.0934    1.0000 </r>
       <r>   -0.0661    1.0000 </r>
       <r>    0.0767    1.0000 </r>
       <r>    0.1057    1.0000 </r>
       <r>    0.2866    1.0000 </r>
       <r>    0.3364    1.0000 </r>
       <r>    0.3884    1.0000 </r>
       <r>    0.4591    1.0000 </r>
       <r>    0.5389    1.0000 </r>
       <r>    0.5921    1.0000 </r>
       <r>    0.6903    1.0000 </r>
       <r>    0.7672    1.0000 </r>
       <r>    0.8218    1.0000 </r>
       <r>    0.8302    1.0000 </r>
       <r>    0.8520    1.0000 </r>
       <r>    0.9880    1.0000 </r>
       <r>    1.0423    1.0000 </r>
       <r>    1.1448    1.0000 </r>
       <r>    1.1698    1.0000 </r>
       <r>    1.2219    1.0000 </r>
       <r>    1.2924    1.0000 </r>
       <r>    1.2986    1.0000 </r>
       <r>    1.3462    1.0000 </r>
       <r>    1.3969    1.0000 </r>
       <r>    1.4164    1.0000 </r>
       <r>    1.5000    1.0000 </r>
       <r>    1.5176    1.0000 </r>
       <r>    1.6228    1.0000 </r>
       <r>    1.6388    1.0000 </r>
       <r>    1.7170    1.0000 </r>
       <r>    1.7480    1.0000 </r>
       <r>    1.7959    1.0000 </r>
       <r>    1.8263    1.0000 </r>
       <r>    1.8284    1.0000 </r>
       <r>    1.8755    1.0000 </r>
       <r>    1.9839    1.0000 </r>
       <r>    2.0068    1.0000 </r>
       <r>    2.0649    1.0000 </r>
       <r>    2.0983    1.0000 </r>
       <r>    2.1135    1.0000 </r>
       <r>    2.2154    1.0000 </r>
       <r>    2.2236    1.0000 </r>
       <r>    2.2868    1.0000 </r>
       <r>    2.3712    1.0000 </r>
       <r>    2.4666    1.0000 </r>
       <r>    2.5232    1.0000 </r>
       <r>    2.5250    1.0000 </r>
       <r>    2.5574    1.0000 </r>
       <r>    2.5907    1.0000 </r>
       <r>    2.6075    1.0000 </r>
       <r>    2.6182    1.0000 </r>
       <r>    2.6208    1.0000 </r>
       <r>    2.6255    1.0000 </r>
       <r>    2.6333    1.0000 </r>
       <r>    2.6794    1.0000 </r>
       <r>    2.7171    1.0000 </r>
       <r>    2.7662    1.0000 </r>
       <r>    2.7836    1.0000 </r>
       <r>    2.8459    1.0000 </r>
       <r>    2.8601    1.0000 </r>
       <r>    2.9184    1.0000 </r>
       <r>    2.9529    1.0000 </r>
       <r>    2.9785    1.0000 </r>
       <r>    3.0007    1.0000 </r>
       <r>    3.0414    1.0000 </r>
       <r>    3.0466    1.0000 </r>
       <r>    3.0611    1.0000 </r>
       <r>    3.0934    1.0000 </r>
       <r>    3.1663    1.0000 </r>
       <r>    3.1925    1.0000 </r>
       <r>    3.2178    1.0000 </r>
       <r>    3.3491    1.0000 </r>
       <r>    3.3593    1.0000 </r>
       <r>    3.3905    1.0000 </r>
       <r>    3.4550    1.0000 </r>
       <r>    3.4718    1.0000 </r>
       <r>    3.4851    1.0000 </r>
       <r>    3.5489    1.0000 </r>
       <r>    3.6214    1.0000 </r>
       <r>    3.6442    1.0000 </r>
       <r>    4.2659    1.0000 </r>
       <r>    4.2926    1.0000 </r>
       <r>    4.3010    1.0000 </r>
       <r>    4.3121    1.0000 </r>
       <r>    5.1843    0.0000 </r>
       <r>    5.2070    0.0000 </r>
       <r>    5.2220    0.0000 </r>
       <r>    5.2432    0.0000 </r>
       <r>    5.7908    0.0000 </r>
       <r>    5.8124    0.0000 </r>
       <r>    5.8226    0.0000 </r>
       <r>    5.8445    0.0000 </r>
       <r>    6.1774    0.0000 </r>
       <r>    6.1993    0.0000 </r>
       <r>    6.2219    0.0000 </r>
       <r>    6.2276    0.0000 </r>
       <r>    6.2638    0.0000 </r>
       <r>    6.2781    0.0000 </r>
       <r>    6.3089    0.0000 </r>
       <r>    6.3339    0.0000 </r>
       <r>    6.7704    0.0000 </r>
       <r>    6.9849    0.0000 </r>
       <r>    6.9898    0.0000 </r>
       <r>    7.0713    0.0000 </r>
       <r>    7.1255    0.0000 </r>
       <r>    7.3717    0.0000 </r>
       <r>    7.5271    0.0000 </r>
       <r>    7.6457    0.0000 </r>
       <r>    7.8180    0.0000 </r>
       <r>    7.8653    0.0000 </r>
       <r>    7.9378    0.0000 </r>
       <r>    8.0190    0.0000 </r>
       <r>    8.1335    0.0000 </r>
       <r>    8.3227    0.0000 </r>
       <r>    8.3832    0.0000 </r>
       <r>    8.4943    0.0000 </r>
       <r>    8.7196    0.0000 </r>
       <r>    8.8892    0.0000 </r>
       <r>    8.9506    0.0000 </r>
       <r>    8.9608    0.0000 </r>
       <r>    9.0179    0.0000 </r>
       <r>    9.0351    0.0000 </r>
       <r>    9.0990    0.0000 </r>
       <r>    9.1462    0.0000 </r>
       <r>    9.1572    0.0000 </r>
       <r>    9.1649    0.0000 </r>
       <r>    9.1987    0.0000 </r>
       <r>    9.2507    0.0000 </r>
       <r>    9.4974    0.0000 </r>
       <r>    9.5260    0.0000 </r>
       <r>    9.7342    0.0000 </r>
       <r>    9.7578    0.0000 </r>
       <r>    9.7715    0.0000 </r>
       <r>    9.7965    0.0000 </r>
[...]
       <r>   11.3597    0.0000 </r>
       <r>   11.3879    0.0000 </r>
       <r>   11.4178    0.0000 </r>
       <r>   11.5232    0.0000 </r>
      </set>
     </set>
    </set>
   </array>
  </eigenvalues>
  <separator name="orbital magnetization" >
   <v name="MAGDIPOLOUT">      0.00000000      0.00000000      0.00000000</v>
  </separator>
  <dos>
   <i name="efermi">      4.41371846 </i>
   <total>
    <array>
     <dimension dim="1">gridpoints</dimension>
     <dimension dim="2">spin</dimension>
     <field>energy</field>
     <field>total</field>
     <field>integrated</field>
     <set>
      <set comment="spin 1">
       <r>   -42.8343     0.0000     0.0000 </r>
       <r>   -42.6416     0.0000     0.0000 </r>
       <r>   -42.4490     0.0000     0.0000 </r>
       <r>   -42.2563     0.0000     0.0000 </r>
       <r>   -42.0637     0.0000     0.0000 </r>
       <r>   -41.8710     0.0000     0.0000 </r>
       <r>   -41.6784     0.0000     0.0000 </r>
       <r>   -41.4857     0.0000     0.0000 </r>
       <r>   -41.2931     0.0000     0.0000 </r>
       <r>   -41.1004     0.0000     0.0000 </r>
       <r>   -40.9078     0.0000     0.0000 </r>
       <r>   -40.7151     0.0000     0.0000 </r>
       <r>   -40.5225     0.0000     0.0000 </r>
       <r>   -40.3298     0.0000     0.0000 </r>
       <r>   -40.1371     0.0000     4.0000 </r>
       <r>   -39.9445     0.0000     8.0000 </r>
       <r>   -39.7518     0.0000    12.0000 </r>
       <r>   -39.5592     0.0000    22.0000 </r>
       <r>   -39.3665     0.0000    22.0000 </r>
       <r>   -39.1739     0.0000    24.0000 </r>
       <r>   -38.9812     0.0000    24.0000 </r>
       <r>   -38.7886     0.0000    24.0000 </r>
       <r>   -38.5959     0.0000    24.0000 </r>
       <r>   -38.4033     0.0000    24.0000 </r>
       <r>   -38.2106     0.0000    24.0000 </r>
       <r>   -38.0180     0.0000    24.0000 </r>
       <r>   -37.8253     0.0000    24.0000 </r>
       <r>   -37.6327     0.0000    24.0000 </r>
       <r>   -37.4400     0.0000    24.0000 </r>
       <r>   -37.2474     0.0000    24.0000 </r>
       <r>   -37.0547     0.0000    24.0000 </r>
       <r>   -36.8621     0.0000    24.0000 </r>
       <r>   -36.6694     0.0000    24.0000 </r>
       <r>   -36.4768     0.0000    24.0000 </r>
       <r>   -36.2841     0.0000    24.0000 </r>
       <r>   -36.0914     0.0000    24.0000 </r>
       <r>   -35.8988     0.0000    24.0000 </r>
       <r>   -35.7061     0.0000    24.0000 </r>
       <r>   -35.5135     0.0000    24.0000 </r>
       <r>   -35.3208     0.0000    24.0000 </r>
       <r>   -35.1282     0.0000    24.0000 </r>
       <r>   -34.9355     0.0000    24.0000 </r>
       <r>   -34.7429     0.0000    24.0000 </r>
       <r>   -34.5502     0.0000    24.0000 </r>
       <r>   -34.3576     0.0000    24.0000 </r>
       <r>   -34.1649     0.0000    24.0000 </r>
       <r>   -33.9723     0.0000    24.0000 </r>
       <r>   -33.7796     0.0000    24.0000 </r>
       <r>   -33.5870     0.0000    24.0000 </r>
       <r>   -33.3943     0.0000    24.0000 </r>
       <r>   -33.2017     0.0000    24.0000 </r>
       <r>   -33.0090     0.0000    24.0000 </r>
       <r>   -32.8164     0.0000    24.0000 </r>
       <r>   -32.6237     0.0000    24.0000 </r>
       <r>   -32.4311     0.0000    24.0000 </r>
       <r>   -32.2384     0.0000    24.0000 </r>
       <r>   -32.0457     0.0000    24.0000 </r>
       <r>   -31.8531     0.0000    24.0000 </r>
       <r>   -31.6604     0.0000    24.0000 </r>
       <r>   -31.4678     0.0000    24.0000 </r>
       <r>   -31.2751     0.0000    24.0000 </r>
       <r>   -31.0825     0.0000    24.0000 </r>
       <r>   -30.8898     0.0000    24.0000 </r>
       <r>   -30.6972     0.0000    24.0000 </r>
       <r>   -30.5045     0.0000    24.0000 </r>
       <r>   -30.3119     0.0000    24.0000 </r>
       <r>   -30.1192     0.0000    24.0000 </r>
       <r>   -29.9266     0.0000    24.0000 </r>
       <r>   -29.7339     0.0000    24.0000 </r>
       <r>   -29.5413     0.0000    24.0000 </r>
       <r>   -29.3486     0.0000    24.0000 </r>
       <r>   -29.1560     0.0000    24.0000 </r>
       <r>   -28.9633     0.0000    24.0000 </r>
       <r>   -28.7707     0.0000    24.0000 </r>
       <r>   -28.5780     0.0000    24.0000 </r>
       <r>   -28.3854     0.0000    24.0000 </r>
       <r>   -28.1927     0.0000    24.0000 </r>
       <r>   -28.0000     0.0000    24.0000 </r>
       <r>   -27.8074     0.0000    24.0000 </r>
       <r>   -27.6147     0.0000    24.0000 </r>
       <r>   -27.4221     0.0000    24.0000 </r>
       <r>   -27.2294     0.0000    24.0000 </r>
       <r>   -27.0368     0.0000    24.0000 </r>
       <r>   -26.8441     0.0000    24.0000 </r>
       <r>   -26.6515     0.0000    24.0000 </r>
       <r>   -26.4588     0.0000    24.0000 </r>
       <r>   -26.2662     0.0000    24.0000 </r>
       <r>   -26.0735     0.0000    24.0000 </r>
       <r>   -25.8809     0.0000    24.0000 </r>
       <r>   -25.6882     0.0000    24.0000 </r>
       <r>   -25.4956     0.0000    24.0000 </r>
       <r>   -25.3029     0.0000    24.0000 </r>
       <r>   -25.1103     0.0000    24.0000 </r>
       <r>   -24.9176     0.0000    24.0000 </r>
       <r>   -24.7250     0.0000    24.0000 </r>
       <r>   -24.5323     0.0000    24.0000 </r>
       <r>   -24.3397     0.0000    24.0000 </r>
       <r>   -24.1470     0.0000    24.0000 </r>
       <r>   -23.9543     0.0000    24.0000 </r>
       <r>   -23.7617     0.0000    24.0000 </r>
       <r>   -23.5690     0.0000    24.0000 </r>
       <r>   -23.3764     0.0000    24.0000 </r>
       <r>   -23.1837     0.0000    24.0000 </r>
       <r>   -22.9911     0.0000    24.0000 </r>
       <r>   -22.7984     0.0000    24.0000 </r>
       <r>   -22.6058     0.0000    24.0000 </r>
       <r>   -22.4131     0.0000    24.0000 </r>
       <r>   -22.2205     0.0000    24.0000 </r>
       <r>   -22.0278     0.0000    24.0000 </r>
       <r>   -21.8352     0.0000    24.0000 </r>
       <r>   -21.6425     0.0000    24.0000 </r>
       <r>   -21.4499     0.0000    24.0000 </r>
       <r>   -21.2572     0.0000    24.0000 </r>
       <r>   -21.0646     0.0000    24.0000 </r>
       <r>   -20.8719     0.0000    24.0000 </r>
       <r>   -20.6793     0.0000    24.0000 </r>
       <r>   -20.4866     0.0000    24.0000 </r>
       <r>   -20.2940     0.0000    24.0000 </r>
       <r>   -20.1013     0.0000    24.0000 </r>
       <r>   -19.9086     0.0000    24.0000 </r>
       <r>   -19.7160     0.0000    24.0000 </r>
       <r>   -19.5233     0.0000    24.0000 </r>
       <r>   -19.3307     0.0000    24.0000 </r>
       <r>   -19.1380     0.0000    24.0000 </r>
       <r>   -18.9454     0.0000    24.0000 </r>
       <r>   -18.7527     0.0000    42.0000 </r>
       <r>   -18.5601     0.0000   100.0000 </r>
       <r>   -18.3674     0.0000   152.0000 </r>
       <r>   -18.1748     0.0000   176.0000 </r>
       <r>   -17.9821     0.0000   184.0000 </r>
       <r>   -17.7895     0.0000   184.0000 </r>
       <r>   -17.5968     0.0000   184.0000 </r>
       <r>   -17.4042     0.0000   184.0000 </r>
       <r>   -17.2115     0.0000   184.0000 </r>
       <r>   -17.0189     0.0000   184.0000 </r>
       <r>   -16.8262     0.0000   184.0000 </r>
       <r>   -16.6336     0.0000   184.0000 </r>
       <r>   -16.4409     0.0000   184.0000 </r>
       <r>   -16.2483     0.0000   184.0000 </r>
       <r>   -16.0556     0.0000   184.0000 </r>
       <r>   -15.8629     0.0000   184.0000 </r>
       <r>   -15.6703     0.0000   184.0000 </r>
       <r>   -15.4776     0.0000   184.0000 </r>
       <r>   -15.2850     0.0000   184.0000 </r>
       <r>   -15.0923     0.0000   184.0000 </r>
       <r>   -14.8997     0.0000   184.0000 </r>
       <r>   -14.7070     0.0000   184.0000 </r>
       <r>   -14.5144     0.0000   184.0000 </r>
       <r>   -14.3217     0.0000   184.0000 </r>
       <r>   -14.1291     0.0000   184.0000 </r>
       <r>   -13.9364     0.0000   184.0000 </r>
       <r>   -13.7438     0.0000   184.0000 </r>
       <r>   -13.5511     0.0000   186.0000 </r>
       <r>   -13.3585     0.0000   192.0000 </r>
       <r>   -13.1658     0.0000   192.0000 </r>
       <r>   -12.9732     0.0000   192.0000 </r>
       <r>   -12.7805     0.0000   194.0000 </r>
       <r>   -12.5879     0.0000   206.0000 </r>
       <r>   -12.3952     0.0000   208.0000 </r>
       <r>   -12.2026     0.0000   208.0000 </r>
       <r>   -12.0099     0.0000   210.0000 </r>
       <r>   -11.8172     0.0000   216.0000 </r>
       <r>   -11.6246     0.0000   216.0000 </r>
       <r>   -11.4319     0.0000   216.0000 </r>
       <r>   -11.2393     0.0000   216.0000 </r>
       <r>   -11.0466     0.0000   216.0000 </r>
       <r>   -10.8540     0.0000   216.0000 </r>
       <r>   -10.6613     0.0000   216.0000 </r>
       <r>   -10.4687     0.0000   216.0000 </r>
       <r>   -10.2760     0.0000   216.0000 </r>
       <r>   -10.0834     0.0000   216.0000 </r>
       <r>    -9.8907     0.0000   216.0000 </r>
       <r>    -9.6981     0.0000   216.0000 </r>
       <r>    -9.5054     0.0000   216.0000 </r>
       <r>    -9.3128     0.0000   216.0000 </r>
       <r>    -9.1201    10.9739   217.0914 </r>
       <r>    -8.9275     0.6105   219.9987 </r>
       <r>    -8.7348    19.0451   222.0930 </r>
       <r>    -8.5422    10.8105   224.5837 </r>
       <r>    -8.3495    33.7515   229.0010 </r>
       <r>    -8.1569    18.7634   232.2806 </r>
       <r>    -7.9642    24.6518   237.3588 </r>
       <r>    -7.7715    15.4836   241.1755 </r>
       <r>    -7.5789    21.3488   244.4978 </r>
       <r>    -7.3862     7.0977   247.7751 </r>
       <r>    -7.1936     0.0000   248.0000 </r>
       <r>    -7.0009     0.0000   248.0000 </r>
       <r>    -6.8083     0.0000   248.0000 </r>
       <r>    -6.6156     0.0000   248.0000 </r>
       <r>    -6.4230     0.0000   248.0000 </r>
       <r>    -6.2303    11.1972   248.5735 </r>
       <r>    -6.0377    29.3317   252.6271 </r>
       <r>    -5.8450    12.1692   256.3267 </r>
       <r>    -5.6524    25.3274   261.1514 </r>
       <r>    -5.4597    18.7863   264.9114 </r>
       <r>    -5.2671    20.6510   268.8759 </r>
       <r>    -5.0744     6.8369   271.6034 </r>
       <r>    -4.8818     6.0405   272.3366 </r>
       <r>    -4.6891     8.2909   273.8427 </r>
       <r>    -4.4965    10.6562   275.6967 </r>
       <r>    -4.3038     6.1673   277.1953 </r>
       <r>    -4.1112     6.8290   278.5580 </r>
       <r>    -3.9185     3.4351   279.5514 </r>
       <r>    -3.7258     0.9667   279.9267 </r>
       <r>    -3.5332     0.0000   280.0000 </r>
       <r>    -3.3405     0.0000   280.0000 </r>
       <r>    -3.1479     0.0000   280.0000 </r>
       <r>    -2.9552     0.0000   280.0000 </r>
       <r>    -2.7626     0.0000   280.0000 </r>
       <r>    -2.5699     0.0000   280.0000 </r>
       <r>    -2.3773     0.0000   280.0000 </r>
       <r>    -2.1846     0.0000   280.0000 </r>
       <r>    -1.9920     0.0000   280.0000 </r>
       <r>    -1.7993     0.0000   280.0000 </r>
       <r>    -1.6067     0.0000   280.0000 </r>
       <r>    -1.4140     0.0000   280.0000 </r>
       <r>    -1.2214     5.5009   280.2993 </r>
       <r>    -1.0287    10.3297   281.9713 </r>
       <r>    -0.8361    13.4381   284.4166 </r>
       <r>    -0.6434     7.9848   286.4775 </r>
       <r>    -0.4508    10.6601   287.8788 </r>
       <r>    -0.2581    22.6925   291.2112 </r>
       <r>    -0.0654    42.5944   296.9963 </r>
       <r>     0.1272    30.7211   305.0003 </r>
       <r>     0.3199    28.9486   311.6219 </r>
       <r>     0.5125    32.0867   318.8142 </r>
       <r>     0.7052    29.2250   325.7540 </r>
       <r>     0.8978    31.2577   332.0213 </r>
       <r>     1.0905    52.3482   339.5212 </r>
       <r>     1.2831    61.7182   348.5166 </r>
       <r>     1.4758    55.7921   359.1244 </r>
       <r>     1.6684    47.3482   368.3481 </r>
       <r>     1.8611    37.2263   377.4583 </r>
       <r>     2.0537    40.5829   384.3573 </r>
       <r>     2.2464    43.3546   392.9983 </r>
       <r>     2.4390    51.7605   402.1823 </r>
       <r>     2.6317    56.2930   414.1743 </r>
       <r>     2.8243    59.8082   425.3685 </r>
       <r>     3.0170    73.6510   437.0230 </r>
       <r>     3.2096    41.9146   448.2314 </r>
       <r>     3.4023    36.6178   456.4908 </r>
       <r>     3.5949    44.8168   463.7539 </r>
       <r>     3.7876    15.4692   468.2650 </r>
       <r>     3.9803     9.2862   470.6497 </r>
       <r>     4.1729     3.0993   471.8428 </r>
       <r>     4.3656     0.0000   472.0000 </r>
       <r>     4.5582     0.0000   472.0000 </r>
       <r>     4.7509     0.0000   472.0000 </r>
       <r>     4.9435     0.0000   472.0000 </r>
       <r>     5.1362     0.0215   472.0002 </r>
       <r>     5.3288     3.2996   472.2568 </r>
       <r>     5.5215     7.5547   473.3023 </r>
       <r>     5.7141     9.3262   475.0507 </r>
       <r>     5.9068    19.9741   478.9375 </r>
       <r>     6.0994    12.6534   481.7453 </r>
       <r>     6.2921    11.7368   484.0333 </r>
       <r>     6.4847    13.4958   486.4550 </r>
       <r>     6.6774    15.3459   489.2335 </r>
       <r>     6.8700    17.2449   492.3686 </r>
       <r>     7.0627    20.6917   495.9690 </r>
       <r>     7.2553    32.1806   500.8339 </r>
       <r>     7.4480    41.6080   508.2685 </r>
       <r>     7.6406    20.5339   514.0212 </r>
       <r>     7.8333    45.6382   521.1713 </r>
       <r>     8.0260    39.7252   529.3648 </r>
       <r>     8.2186    22.7309   535.3110 </r>
       <r>     8.4113    18.9236   539.1540 </r>
       <r>     8.6039    25.1385   543.2309 </r>
       <r>     8.7966    26.2369   548.5865 </r>
       <r>     8.9892    36.8481   557.0118 </r>
       <r>     9.1819    18.0401   562.2441 </r>
       <r>     9.3745    12.4004   565.0518 </r>
       <r>     9.5672    16.3450   567.7206 </r>
       <r>     9.7598     9.7677   570.9212 </r>
       <r>     9.9525     4.8644   572.2748 </r>
       <r>    10.1451     9.5810   573.6023 </r>
       <r>    10.3378    26.5235   576.7594 </r>
       <r>    10.5304    28.3547   582.3827 </r>
       <r>    10.7231    41.8104   588.9432 </r>
       <r>    10.9157    18.4494   596.7114 </r>
       <r>    11.1084    16.4638   600.8196 </r>
       <r>    11.3010    21.9852   604.5276 </r>
       <r>    11.4937    21.4836   608.7864 </r>
       <r>    11.6863    15.2349   612.4145 </r>
       <r>    11.8790     8.5121   614.6872 </r>
       <r>    12.0717     2.8676   615.7756 </r>
       <r>    12.2643     0.1321   615.9969 </r>
       <r>    12.4570     0.0000   616.0000 </r>
       <r>    12.6496     0.0000   616.0000 </r>
       <r>    12.8423     0.0000   616.0000 </r>
       <r>    13.0349     0.0000   616.0000 </r>
       <r>    13.2276     0.0000   616.0000 </r>
       <r>    13.4202     0.0000   616.0000 </r>
       <r>    13.6129     0.0000   616.0000 </r>
       <r>    13.8055     0.0000   616.0000 </r>
       <r>    13.9982     0.0000   616.0000 </r>
       <r>    14.1908     0.0000   616.0000 </r>
       <r>    14.3835     0.0000   616.0000 </r>
       <r>    14.5761     0.0000   616.0000 </r>
       <r>    14.7688     0.0000   616.0000 </r>
       <r>    14.9614     0.0000   616.0000 </r>
      </set>
     </set>
    </array>
   </total>
  </dos>
 </calculation>
 <structure name="finalpos" >
  <crystal>
   <varray name="basis" >
    <v>      11.17850000       0.00000000       0.00000000 </v>
    <v>       0.00000000       9.57460000       0.00000000 </v>
    <v>       0.00000000       0.00000000      11.18240000 </v>
   </varray>
   <i name="volume">   1196.84853820 </i>
   <varray name="rec_basis" >
    <v>       0.08945744       0.00000000       0.00000000 </v>
    <v>       0.00000000       0.10444301       0.00000000 </v>
    <v>       0.00000000       0.00000000       0.08942624 </v>
   </varray>
  </crystal>
  <varray name="positions" >
   <v>       0.37539000       0.00017000       0.43687000 </v>
   <v>       0.12461000       0.99984000       0.18687000 </v>
   <v>       0.62539000       0.99984000       0.43687000 </v>
   <v>       0.87539000       0.00017000       0.43687000 </v>
   <v>       0.87461000       0.00017000       0.18687000 </v>
   <v>       0.12539000       0.99984000       0.93687000 </v>
   <v>       0.37539000       0.00017000       0.93687000 </v>
   <v>       0.12461000       0.99984000       0.68687000 </v>
   <v>       0.37461000       0.00017000       0.68687000 </v>
   <v>       0.62539000       0.99984000       0.93687000 </v>
   <v>       0.87539000       0.00017000       0.93687000 </v>
   <v>       0.62461000       0.99984000       0.68687000 </v>
   <v>       0.37461000       0.00017000       0.18687000 </v>
   <v>       0.87461000       0.00017000       0.68687000 </v>
   <v>       0.00013000       0.29519000       0.06281000 </v>
   <v>       0.25013000       0.70481000       0.06281000 </v>
   <v>       0.24987000       0.29519000       0.31282000 </v>
   <v>       0.49987000       0.70481000       0.31282000 </v>
   <v>       0.50013000       0.29519000       0.06281000 </v>
   <v>       0.75013000       0.70481000       0.06281000 </v>
   <v>       0.74987000       0.29519000       0.31282000 </v>
   <v>       0.99987000       0.70481000       0.31282000 </v>
   <v>       0.00013000       0.29519000       0.56281000 </v>
   <v>       0.25013000       0.70481000       0.56281000 </v>
   <v>       0.24987000       0.29519000       0.81282000 </v>
   <v>       0.49987000       0.70481000       0.81282000 </v>
   <v>       0.50013000       0.29519000       0.56281000 </v>
   <v>       0.75013000       0.70481000       0.56281000 </v>
   <v>       0.74987000       0.29519000       0.81282000 </v>
   <v>       0.99987000       0.70481000       0.81282000 </v>
   <v>       0.25005000       0.32677000       0.06286000 </v>
   <v>       0.00005000       0.67323000       0.06286000 </v>
   <v>       0.49995000       0.32677000       0.31286000 </v>
   <v>       0.24995000       0.67323000       0.31286000 </v>
   <v>       0.75005000       0.32677000       0.06286000 </v>
   <v>       0.50005000       0.67323000       0.06286000 </v>
   <v>       0.99995000       0.32677000       0.31286000 </v>
   <v>       0.74995000       0.67323000       0.31286000 </v>
   <v>       0.25005000       0.32677000       0.56286000 </v>
   <v>       0.00005000       0.67323000       0.56286000 </v>
   <v>       0.49995000       0.32677000       0.81286000 </v>
   <v>       0.24995000       0.67323000       0.81286000 </v>
   <v>       0.75005000       0.32677000       0.56286000 </v>
   <v>       0.50005000       0.67323000       0.56286000 </v>
   <v>       0.99995000       0.32677000       0.81286000 </v>
   <v>       0.74995000       0.67323000       0.81286000 </v>
   <v>       0.49987000       0.07798000       0.06246000 </v>
   <v>       0.24987000       0.92202000       0.06246000 </v>
   <v>       0.25013000       0.07798000       0.31246000 </v>
   <v>       0.00013000       0.92202000       0.31246000 </v>
   <v>       0.99987000       0.07798000       0.06246000 </v>
   <v>       0.74987000       0.92202000       0.06246000 </v>
   <v>       0.75013000       0.07798000       0.31246000 </v>
   <v>       0.50013000       0.92202000       0.31246000 </v>
   <v>       0.49987000       0.07798000       0.56246000 </v>
   <v>       0.24987000       0.92202000       0.56246000 </v>
   <v>       0.25013000       0.07798000       0.81246000 </v>
   <v>       0.00013000       0.92202000       0.81246000 </v>
   <v>       0.99987000       0.07798000       0.56246000 </v>
   <v>       0.74987000       0.92202000       0.56246000 </v>
   <v>       0.75013000       0.07798000       0.81246000 </v>
   <v>       0.50013000       0.92202000       0.81246000 </v>
  </varray>
 </structure>
</modeling>
