<?xml version="1.0" encoding="ISO-8859-1"?>
<modeling>
 <generator>
  <i name="program" type="string">vasp </i>
  <i name="version" type="string">5.4.4.18Apr17-6-g9f103f2a35  </i>
  <i name="subversion" type="string">(build Jul 31 2017 11:33:29) complex            parallel </i>
  <i name="platform" type="string">LinuxIFC </i>
  <i name="date" type="string">2021 09 29 </i>
  <i name="time" type="string">14:47:49 </i>
 </generator>
 <incar>
  <i type="string" name="SYSTEM"> La2O2S</i>
  <i type="string" name="PREC">normal</i>
  <i type="int" name="NELMIN">     4</i>
  <i type="int" name="IBRION">     2</i>
  <i type="int" name="NFREE">    10</i>
  <i name="EDIFF">      0.00000100</i>
  <i name="EDIFFG">     -0.01000000</i>
  <i type="int" name="NSW">     1</i>
  <i type="int" name="ISIF">     2</i>
  <i name="ENCUT">    600.00000000</i>
  <i name="ENAUG">    900.00000000</i>
  <i type="int" name="ISMEAR">    -5</i>
  <i type="logical" name="LWAVE"> F  </i>
  <i type="logical" name="LCHARG"> F  </i>
  <v type="int" name="KPOINT_BSE">    -1     0     0     0</v>
 </incar>
 <structure name="primitive_cell" >
  <crystal>
   <varray name="basis" >
    <v>      11.17850000       0.00000000       0.00000000 </v>
    <v>       0.00000000       9.57460000       0.00000000 </v>
    <v>       0.00000000       0.00000000      11.18240000 </v>
   </varray>
   <i name="volume">   1196.84853820 </i>
   <varray name="rec_basis" >
    <v>       0.08945744       0.00000000       0.00000000 </v>
    <v>       0.00000000       0.10444301       0.00000000 </v>
    <v>       0.00000000       0.00000000       0.08942624 </v>
   </varray>
  </crystal>
  <varray name="positions" >
   <v>       0.37539000       0.00017000       0.43687000 </v>
   <v>      -0.49987000      -0.07798000       0.31246000 </v>
   <v>       0.25013000       0.07798000       0.31246000 </v>
   <v>       0.49987000       0.07798000      -0.43754000 </v>
   <v>       0.24987000      -0.07798000      -0.43754000 </v>
   <v>      -0.37461000      -0.00016000       0.43687000 </v>
   <v>       0.37461000       0.00017000       0.18687000 </v>
   <v>       0.37461000       0.00017000      -0.31313000 </v>
   <v>       0.49987000      -0.29519000       0.31282000 </v>
   <v>       0.24987000       0.29519000       0.31282000 </v>
   <v>      -0.49987000       0.29519000      -0.43719000 </v>
   <v>       0.25013000      -0.29519000      -0.43719000 </v>
   <v>       0.49995000       0.32677000       0.31286000 </v>
   <v>       0.24995000      -0.32677000       0.31286000 </v>
   <v>      -0.49995000      -0.32677000      -0.43714000 </v>
   <v>       0.25005000       0.32677000      -0.43714000 </v>
   <v>      -0.37539000      -0.00016000       0.18687000 </v>
   <v>      -0.37539000      -0.00016000      -0.31313000 </v>
   <v>       0.12461000      -0.00016000       0.18687000 </v>
   <v>       0.12461000      -0.00016000      -0.31313000 </v>
   <v>       0.49987000       0.07798000       0.06246000 </v>
   <v>      -0.24987000       0.07798000       0.31246000 </v>
   <v>      -0.25013000      -0.07798000      -0.43754000 </v>
   <v>       0.24987000      -0.07798000       0.06246000 </v>
   <v>       0.00013000      -0.07798000       0.31246000 </v>
   <v>      -0.49987000      -0.07798000      -0.18754000 </v>
   <v>      -0.00013000       0.07798000      -0.43754000 </v>
   <v>       0.25013000       0.07798000      -0.18754000 </v>
   <v>      -0.49987000       0.29519000       0.06281000 </v>
   <v>      -0.25013000       0.29519000       0.31282000 </v>
   <v>       0.25013000      -0.29519000       0.06281000 </v>
   <v>      -0.24987000      -0.29519000      -0.43719000 </v>
   <v>      -0.00013000      -0.29519000       0.31282000 </v>
   <v>       0.00013000       0.29519000      -0.43719000 </v>
   <v>       0.49987000      -0.29519000      -0.18718000 </v>
   <v>       0.24987000       0.29519000      -0.18718000 </v>
   <v>      -0.49995000      -0.32677000       0.06286000 </v>
   <v>       0.25005000       0.32677000       0.06286000 </v>
   <v>      -0.25005000      -0.32677000       0.31286000 </v>
   <v>      -0.24995000       0.32677000      -0.43714000 </v>
   <v>      -0.00005000       0.32677000       0.31286000 </v>
   <v>       0.00005000      -0.32677000      -0.43714000 </v>
   <v>       0.49995000       0.32677000      -0.18714000 </v>
   <v>       0.24995000      -0.32677000      -0.18714000 </v>
   <v>      -0.12461000       0.00017000       0.43687000 </v>
   <v>       0.37539000       0.00017000      -0.06313000 </v>
   <v>      -0.25013000      -0.07798000       0.06246000 </v>
   <v>      -0.00013000       0.07798000       0.06246000 </v>
   <v>      -0.24987000       0.07798000      -0.18754000 </v>
   <v>       0.00013000      -0.07798000      -0.18754000 </v>
   <v>      -0.24987000      -0.29519000       0.06281000 </v>
   <v>       0.00013000       0.29519000       0.06281000 </v>
   <v>      -0.25013000       0.29519000      -0.18718000 </v>
   <v>      -0.00013000      -0.29519000      -0.18718000 </v>
   <v>      -0.24995000       0.32677000       0.06286000 </v>
   <v>       0.00005000      -0.32677000       0.06286000 </v>
   <v>      -0.25005000      -0.32677000      -0.18714000 </v>
   <v>      -0.00005000       0.32677000      -0.18714000 </v>
   <v>      -0.12461000       0.00017000      -0.06313000 </v>
  </varray>
 </structure>
 <varray name="primitive_index" >
  <v type="int" >        1 </v>
  <v type="int" >       51 </v>
  <v type="int" >       46 </v>
  <v type="int" >       52 </v>
  <v type="int" >       53 </v>
  <v type="int" >        4 </v>
  <v type="int" >        3 </v>
  <v type="int" >        6 </v>
  <v type="int" >       15 </v>
  <v type="int" >       14 </v>
  <v type="int" >       24 </v>
  <v type="int" >       21 </v>
  <v type="int" >       30 </v>
  <v type="int" >       31 </v>
  <v type="int" >       41 </v>
  <v type="int" >       36 </v>
  <v type="int" >        5 </v>
  <v type="int" >       11 </v>
  <v type="int" >        2 </v>
  <v type="int" >        9 </v>
  <v type="int" >       44 </v>
  <v type="int" >       50 </v>
  <v type="int" >       57 </v>
  <v type="int" >       45 </v>
  <v type="int" >       47 </v>
  <v type="int" >       59 </v>
  <v type="int" >       56 </v>
  <v type="int" >       54 </v>
  <v type="int" >       16 </v>
  <v type="int" >       18 </v>
  <v type="int" >       13 </v>
  <v type="int" >       25 </v>
  <v type="int" >       19 </v>
  <v type="int" >       20 </v>
  <v type="int" >       23 </v>
  <v type="int" >       22 </v>
  <v type="int" >       33 </v>
  <v type="int" >       28 </v>
  <v type="int" >       35 </v>
  <v type="int" >       40 </v>
  <v type="int" >       34 </v>
  <v type="int" >       37 </v>
  <v type="int" >       38 </v>
  <v type="int" >       39 </v>
  <v type="int" >        7 </v>
  <v type="int" >        8 </v>
  <v type="int" >       49 </v>
  <v type="int" >       48 </v>
  <v type="int" >       58 </v>
  <v type="int" >       55 </v>
  <v type="int" >       17 </v>
  <v type="int" >       12 </v>
  <v type="int" >       26 </v>
  <v type="int" >       27 </v>
  <v type="int" >       32 </v>
  <v type="int" >       29 </v>
  <v type="int" >       43 </v>
  <v type="int" >       42 </v>
  <v type="int" >       10 </v>
 </varray>
 <kpoints>
  <generation param="Gamma">
   <v type="int" name="divisions">       2        2        2 </v>
   <v name="usershift">      0.00000000       0.00000000       0.00000000 </v>
   <v name="genvec1">      0.50000000       0.00000000       0.00000000 </v>
   <v name="genvec2">      0.00000000       0.50000000       0.00000000 </v>
   <v name="genvec3">      0.00000000       0.00000000       0.50000000 </v>
   <v name="shift">      0.00000000       0.00000000       0.00000000 </v>
  </generation>
  <varray name="kpointlist" >
   <v>       0.00000000       0.00000000       0.00000000 </v>
   <v>       0.50000000       0.00000000       0.00000000 </v>
   <v>       0.00000000       0.50000000       0.00000000 </v>
   <v>       0.50000000       0.50000000       0.00000000 </v>
   <v>       0.00000000       0.00000000       0.50000000 </v>
   <v>       0.50000000       0.00000000       0.50000000 </v>
   <v>       0.00000000       0.50000000       0.50000000 </v>
   <v>       0.50000000       0.50000000       0.50000000 </v>
  </varray>
  <varray name="weights" >
   <v>       0.12500000 </v>
   <v>       0.12500000 </v>
   <v>       0.12500000 </v>
   <v>       0.12500000 </v>
   <v>       0.12500000 </v>
   <v>       0.12500000 </v>
   <v>       0.12500000 </v>
   <v>       0.12500000 </v>
  </varray>
  <varray name="tetrahedronlist"  type="int" >
   <v type="int" >        2        1        2        4        5 </v>
   <v type="int" >        2        1        3        4        5 </v>
   <v type="int" >        2        3        4        5        7 </v>
   <v type="int" >        2        2        4        5        6 </v>
   <v type="int" >        2        4        5        6        8 </v>
   <v type="int" >        2        4        5        7        8 </v>
   <v type="int" >        2        1        2        3        6 </v>
   <v type="int" >        2        2        3        4        6 </v>
   <v type="int" >        2        3        4        6        8 </v>
   <v type="int" >        2        1        3        5        6 </v>
   <v type="int" >        2        3        5        6        7 </v>
   <v type="int" >        2        3        6        7        8 </v>
   <v type="int" >        2        2        3        4        7 </v>
   <v type="int" >        2        1        2        3        7 </v>
   <v type="int" >        2        1        2        5        7 </v>
   <v type="int" >        2        2        4        7        8 </v>
   <v type="int" >        2        2        6        7        8 </v>
   <v type="int" >        2        2        5        6        7 </v>
   <v type="int" >        2        1        3        4        8 </v>
   <v type="int" >        2        1        2        4        8 </v>
   <v type="int" >        2        1        2        6        8 </v>
   <v type="int" >        2        1        3        7        8 </v>
   <v type="int" >        2        1        5        7        8 </v>
   <v type="int" >        2        1        5        6        8 </v>
  </varray>
  <i name="volumeweight">      0.02083333 </i>
 </kpoints>
 <parameters>
  <separator name="general" >
   <i type="string" name="SYSTEM">La2O2S</i>
   <i type="logical" name="LCOMPAT"> F  </i>
  </separator>
  <separator name="electronic" >
   <i type="string" name="PREC">normal</i>
   <i name="ENMAX">    600.00000000</i>
   <i name="ENAUG">    900.00000000</i>
   <i name="EDIFF">      0.00000100</i>
   <i type="int" name="IALGO">    38</i>
   <i type="int" name="IWAVPR">    11</i>
   <i type="int" name="NBANDS">   280</i>
   <i name="NELECT">    460.00000000</i>
   <i type="int" name="TURBO">     0</i>
   <i type="int" name="IRESTART">     0</i>
   <i type="int" name="NREBOOT">     0</i>
   <i type="int" name="NMIN">     0</i>
   <i name="EREF">      0.00000000</i>
   <separator name="electronic smearing" >
    <i type="int" name="ISMEAR">    -5</i>
    <i name="SIGMA">      0.20000000</i>
    <i name="KSPACING">      0.50000000</i>
    <i type="logical" name="KGAMMA"> T  </i>
   </separator>
   <separator name="electronic projectors" >
    <i type="logical" name="LREAL"> F  </i>
    <v name="ROPT">      0.00000000      0.00000000      0.00000000      0.00000000      0.00000000</v>
    <i type="int" name="LMAXPAW">  -100</i>
    <i type="int" name="LMAXMIX">     2</i>
    <i type="logical" name="NLSPLINE"> F  </i>
   </separator>
   <separator name="electronic startup" >
    <i type="int" name="ISTART">     0</i>
    <i type="int" name="ICHARG">     2</i>
    <i type="int" name="INIWAV">     1</i>
   </separator>
   <separator name="electronic spin" >
    <i type="int" name="ISPIN">     1</i>
    <i type="logical" name="LNONCOLLINEAR"> F  </i>
    <v name="MAGMOM">      1.00000000      1.00000000      1.00000000      1.00000000      1.00000000      1.00000000      1.00000000      1.00000000      1.00000000      1.00000000      1.00000000      1.00000000      1.00000000      1.00000000      1.00000000      1.00000000      1.00000000      1.00000000      1.00000000      1.00000000
      1.00000000      1.00000000      1.00000000      1.00000000      1.00000000      1.00000000      1.00000000      1.00000000      1.00000000      1.00000000      1.00000000      1.00000000      1.00000000      1.00000000      1.00000000      1.00000000      1.00000000      1.00000000      1.00000000      1.00000000
      1.00000000      1.00000000      1.00000000      1.00000000      1.00000000      1.00000000      1.00000000      1.00000000      1.00000000      1.00000000      1.00000000      1.00000000      1.00000000      1.00000000      1.00000000      1.00000000      1.00000000      1.00000000      1.00000000</v>
    <i name="NUPDOWN">     -1.00000000</i>
    <i type="logical" name="LSORBIT"> F  </i>
    <v name="SAXIS">      0.00000000      0.00000000      1.00000000</v>
    <i type="logical" name="LSPIRAL"> F  </i>
    <v name="QSPIRAL">      0.00000000      0.00000000      0.00000000</v>
    <i type="logical" name="LZEROZ"> F  </i>
   </separator>
   <separator name="electronic exchange-correlation" >
    <i type="logical" name="LASPH"> F  </i>
    <i type="logical" name="LMETAGGA"> F  </i>
   </separator>
   <separator name="electronic convergence" >
    <i type="int" name="NELM">    60</i>
    <i type="int" name="NELMDL">    -5</i>
    <i type="int" name="NELMIN">     4</i>
    <i name="ENINI">    600.00000000</i>
    <separator name="electronic convergence detail" >
     <i type="logical" name="LDIAG"> T  </i>
     <i type="logical" name="LSUBROT"> F  </i>
     <i name="WEIMIN">      0.00100000</i>
     <i name="EBREAK">      0.00000000</i>
     <i name="DEPER">      0.30000000</i>
     <i type="int" name="NRMM">     4</i>
     <i name="TIME">      0.40000000</i>
    </separator>
   </separator>
   <separator name="electronic mixer" >
    <i name="AMIX">      0.40000000</i>
    <i name="BMIX">      1.00000000</i>
    <i name="AMIN">      0.10000000</i>
    <i name="AMIX_MAG">      1.60000000</i>
    <i name="BMIX_MAG">      1.00000000</i>
    <separator name="electronic mixer details" >
     <i type="int" name="IMIX">     4</i>
     <i type="logical" name="MIXFIRST"> F  </i>
     <i type="int" name="MAXMIX">   -45</i>
     <i name="WC">    100.00000000</i>
     <i type="int" name="INIMIX">     1</i>
     <i type="int" name="MIXPRE">     1</i>
     <i type="int" name="MREMOVE">     5</i>
    </separator>
   </separator>
   <separator name="electronic dipolcorrection" >
    <i type="logical" name="LDIPOL"> F  </i>
    <i type="logical" name="LMONO"> F  </i>
    <i type="int" name="IDIPOL">     0</i>
    <i name="EPSILON">      1.00000000</i>
    <v name="DIPOL">   -100.00000000   -100.00000000   -100.00000000</v>
    <i name="EFIELD">      0.00000000</i>
   </separator>
  </separator>
  <separator name="grids" >
   <i type="int" name="NGX">    70</i>
   <i type="int" name="NGY">    60</i>
   <i type="int" name="NGZ">    70</i>
   <i type="int" name="NGXF">   140</i>
   <i type="int" name="NGYF">   120</i>
   <i type="int" name="NGZF">   140</i>
   <i type="logical" name="ADDGRID"> F  </i>
  </separator>
  <separator name="ionic" >
   <i type="int" name="NSW">     1</i>
   <i type="int" name="IBRION">     2</i>
   <i type="int" name="MDALGO">     0</i>
   <i type="int" name="ISIF">     2</i>
   <i name="PSTRESS">      0.00000000</i>
   <i name="EDIFFG">     -0.01000000</i>
   <i type="int" name="NFREE">    10</i>
   <i name="POTIM">      0.50000000</i>
   <i name="SMASS">     -3.00000000</i>
   <i name="SCALEE">      1.00000000</i>
  </separator>
  <separator name="ionic md" >
   <i name="TEBEG">      0.00010000</i>
   <i name="TEEND">      0.00010000</i>
   <i type="int" name="NBLOCK">     1</i>
   <i type="int" name="KBLOCK">     1</i>
   <i type="int" name="NPACO">   256</i>
   <i name="APACO">     16.00000000</i>
  </separator>
  <separator name="symmetry" >
   <i type="int" name="ISYM">     2</i>
   <i name="SYMPREC">      0.00001000</i>
  </separator>
  <separator name="dos" >
   <i type="int" name="LORBIT">     0</i>
   <v name="RWIGS">     -1.00000000     -1.00000000     -1.00000000     -1.00000000     -1.00000000</v>
   <i type="int" name="NEDOS">   301</i>
   <i name="EMIN">     10.00000000</i>
   <i name="EMAX">    -10.00000000</i>
   <i name="EFERMI">      0.00000000</i>
  </separator>
  <separator name="writing" >
   <i type="int" name="NWRITE">     2</i>
   <i type="logical" name="LWAVE"> F  </i>
   <i type="logical" name="LDOWNSAMPLE"> F  </i>
   <i type="logical" name="LCHARG"> F  </i>
   <i type="logical" name="LPARD"> F  </i>
   <i type="logical" name="LVTOT"> F  </i>
   <i type="logical" name="LVHAR"> F  </i>
   <i type="logical" name="LELF"> F  </i>
   <i type="logical" name="LOPTICS"> F  </i>
   <v name="STM">      0.00000000      0.00000000      0.00000000      0.00000000      0.00000000      0.00000000      0.00000000</v>
  </separator>
  <separator name="performance" >
   <i type="int" name="NPAR">    28</i>
   <i type="int" name="NSIM">     4</i>
   <i type="int" name="NBLK">    -1</i>
   <i type="logical" name="LPLANE"> T  </i>
   <i type="logical" name="LSCALAPACK"> T  </i>
   <i type="logical" name="LSCAAWARE"> F  </i>
   <i type="logical" name="LSCALU"> F  </i>
   <i type="logical" name="LASYNC"> F  </i>
   <i type="logical" name="LORBITALREAL"> F  </i>
  </separator>
  <separator name="miscellaneous" >
   <i type="int" name="IDIOT">     3</i>
   <i type="int" name="ISPECIAL">     0</i>
   <i type="logical" name="LMUSIC"> F  </i>
   <v name="POMASS">      7.01000000     24.30500000    208.98000000     32.06600000     16.00000000</v>
   <v name="DARWINR">      0.00000000      0.00000000      0.00000000      0.00000000      0.00000000</v>
   <v name="DARWINV">      1.00000000      1.00000000      1.00000000      1.00000000      1.00000000</v>
   <i type="logical" name="LCORR"> T  </i>
  </separator>
  <i type="logical" name="GGA_COMPAT"> T  </i>
  <i type="logical" name="LBERRY"> F  </i>
  <i type="int" name="ICORELEVEL">     0</i>
  <i type="logical" name="LDAU"> F  </i>
  <i type="int" name="I_CONSTRAINED_M">     0</i>
  <separator name="electronic exchange-correlation" >
   <i type="string" name="GGA">--</i>
   <i type="int" name="VOSKOWN">     0</i>
   <i type="logical" name="LHFCALC"> F  </i>
   <i type="string" name="PRECFOCK"></i>
   <i type="logical" name="LSYMGRAD"> F  </i>
   <i type="logical" name="LHFONE"> F  </i>
   <i type="logical" name="LRHFCALC"> F  </i>
   <i type="logical" name="LTHOMAS"> F  </i>
   <i type="logical" name="LMODELHF"> F  </i>
   <i name="ENCUT4O">     -1.00000000</i>
   <i type="int" name="EXXOEP">     0</i>
   <i type="int" name="FOURORBIT">     0</i>
   <i name="AEXX">      0.00000000</i>
   <i name="HFALPHA">      0.00000000</i>
   <i name="MCALPHA">      0.00000000</i>
   <i name="ALDAX">      1.00000000</i>
   <i name="AGGAX">      1.00000000</i>
   <i name="ALDAC">      1.00000000</i>
   <i name="AGGAC">      1.00000000</i>
   <i type="int" name="NKREDX">     1</i>
   <i type="int" name="NKREDY">     1</i>
   <i type="int" name="NKREDZ">     1</i>
   <i type="logical" name="SHIFTRED"> F  </i>
   <i type="logical" name="ODDONLY"> F  </i>
   <i type="logical" name="EVENONLY"> F  </i>
   <i type="int" name="LMAXFOCK">     0</i>
   <i type="int" name="NMAXFOCKAE">     0</i>
   <i type="logical" name="LFOCKAEDFT"> F  </i>
   <i name="HFSCREEN">      0.00000000</i>
   <i name="HFSCREENC">      0.00000000</i>
   <i type="int" name="NBANDSGWLOW">     0</i>
  </separator>
  <separator name="vdW DFT" >
   <i type="logical" name="LUSE_VDW"> F  </i>
   <i name="Zab_VDW">     -0.84910000</i>
   <i name="PARAM1">      0.12340000</i>
   <i name="PARAM2">      1.00000000</i>
   <i name="PARAM3">      0.00000000</i>
  </separator>
  <separator name="model GW" >
   <i type="int" name="MODEL_GW">     0</i>
   <i name="MODEL_EPS0">     12.17134107</i>
   <i name="MODEL_ALPHA">      1.00000000</i>
  </separator>
  <separator name="linear response parameters" >
   <i type="logical" name="LEPSILON"> F  </i>
   <i type="logical" name="LRPA"> F  </i>
   <i type="logical" name="LNABLA"> F  </i>
   <i type="logical" name="LVEL"> F  </i>
   <i type="int" name="KINTER">     0</i>
   <i name="CSHIFT">      0.10000000</i>
   <i name="OMEGAMAX">     -1.00000000</i>
   <i name="DEG_THRESHOLD">      0.00200000</i>
   <i name="RTIME">     -0.10000000</i>
   <i name="WPLASMAI">      0.00000000</i>
   <v name="DFIELD">      0.00000000      0.00000000      0.00000000</v>
   <v name="WPLASMA">      0.00000000      0.00000000      0.00000000      0.00000000      0.00000000      0.00000000      0.00000000      0.00000000      0.00000000</v>
  </separator>
  <separator name="orbital magnetization" >
   <i type="logical" name="NUCIND"> F  </i>
   <v name="MAGPOS">      0.00000000      0.00000000      0.00000000</v>
   <i type="logical" name="LNICSALL"> T  </i>
   <i type="logical" name="ORBITALMAG"> F  </i>
   <i type="logical" name="LMAGBLOCH"> F  </i>
   <i type="logical" name="LCHIMAG"> F  </i>
   <i type="logical" name="LGAUGE"> T  </i>
   <i type="int" name="MAGATOM">     0</i>
   <v name="MAGDIPOL">      0.00000000      0.00000000      0.00000000</v>
   <v name="AVECCONST">      0.00000000      0.00000000      0.00000000</v>
  </separator>
  <separator name="response functions" >
   <i type="logical" name="LADDER"> F  </i>
   <i type="logical" name="LRPAFORCE"> F  </i>
   <i type="logical" name="LFXC"> F  </i>
   <i type="logical" name="LHARTREE"> T  </i>
   <i type="int" name="IBSE">     0</i>
   <v type="int" name="KPOINT">    -1     0     0     0</v>
   <i type="logical" name="LTCTE"> F  </i>
   <i type="logical" name="LTETE"> F  </i>
   <i type="logical" name="LTRIPLET"> F  </i>
   <i type="logical" name="LFXCEPS"> F  </i>
   <i type="logical" name="LFXHEG"> F  </i>
   <i type="int" name="NATURALO">     2</i>
   <i type="logical" name="L2ORDER"> F  </i>
   <i type="logical" name="LMP2LT"> F  </i>
   <i type="logical" name="LUSEW"> F  </i>
   <i name="ENCUTGW">     -2.00000000</i>
   <i name="ENCUTGWSOFT">     -2.00000000</i>
   <i name="ENCUTLF">     -1.00000000</i>
   <i type="int" name="LMAXMP2">    -1</i>
   <i name="SCISSOR">      0.00000000</i>
   <i type="int" name="NOMEGA">     0</i>
   <i type="int" name="NOMEGAR">     0</i>
   <i type="int" name="NBANDSGW">    -1</i>
   <i type="int" name="NBANDSO">    -1</i>
   <i type="int" name="NBANDSV">    -1</i>
   <i type="int" name="NELM">     1</i>
   <i type="int" name="NELMHF">     1</i>
   <i type="int" name="DIM">     3</i>
   <i type="int" name="ANTIRES">     0</i>
   <i name="OMEGAMAX">    -30.00000000</i>
   <i name="OMEGAMIN">    -30.00000000</i>
   <i name="OMEGATL">   -200.00000000</i>
   <i type="int" name="OMEGAGRID">   140</i>
   <i name="CSHIFT">     -0.10000000</i>
   <i type="logical" name="SELFENERGY"> F  </i>
   <i type="logical" name="LSPECTRAL"> F  </i>
   <i type="logical" name="LSPECTRALGW"> F  </i>
   <i type="logical" name="LSINGLES"> F  </i>
   <i type="logical" name="LFERMIGW"> F  </i>
   <i type="logical" name="ODDONLYGW"> F  </i>
   <i type="logical" name="EVENONLYGW"> F  </i>
   <i type="int" name="NKREDLFX">     1</i>
   <i type="int" name="NKREDLFY">     1</i>
   <i type="int" name="NKREDLFZ">     1</i>
   <i type="int" name="MAXMEM">  2800</i>
   <i type="int" name="TELESCOPE">     0</i>
   <i type="int" name="TAUPAR">     1</i>
   <i type="int" name="OMEGAPAR">    -1</i>
   <i name="LAMBDA">      1.00000000</i>
  </separator>
  <separator name="External order field" >
   <i name="OFIELD_KAPPA">      0.00000000</i>
   <v name="OFIELD_K">      0.00000000      0.00000000      0.00000000</v>
   <i name="OFIELD_Q6_NEAR">      0.00000000</i>
   <i name="OFIELD_Q6_FAR">      0.00000000</i>
   <i name="OFIELD_A">      0.00000000</i>
  </separator>
 </parameters>
 <atominfo>
  <atoms>      59 </atoms>
  <types>       5 </types>
  <array name="atoms" >
   <dimension dim="1">ion</dimension>
   <field type="string">element</field>
   <field type="int">atomtype</field>
   <set>
    <rc><c>Li</c><c>   1</c></rc>
    <rc><c>Li</c><c>   1</c></rc>
    <rc><c>Li</c><c>   1</c></rc>
    <rc><c>Li</c><c>   1</c></rc>
    <rc><c>Li</c><c>   1</c></rc>
    <rc><c>Li</c><c>   1</c></rc>
    <rc><c>Mg</c><c>   2</c></rc>
    <rc><c>Mg</c><c>   2</c></rc>
    <rc><c>Mg</c><c>   2</c></rc>
    <rc><c>Mg</c><c>   2</c></rc>
    <rc><c>Mg</c><c>   2</c></rc>
    <rc><c>Bi</c><c>   3</c></rc>
    <rc><c>Bi</c><c>   3</c></rc>
    <rc><c>Bi</c><c>   3</c></rc>
    <rc><c>Bi</c><c>   3</c></rc>
    <rc><c>Bi</c><c>   3</c></rc>
    <rc><c>Bi</c><c>   3</c></rc>
    <rc><c>Bi</c><c>   3</c></rc>
    <rc><c>Bi</c><c>   3</c></rc>
    <rc><c>Bi</c><c>   3</c></rc>
    <rc><c>Bi</c><c>   3</c></rc>
    <rc><c>Bi</c><c>   3</c></rc>
    <rc><c>Bi</c><c>   3</c></rc>
    <rc><c>Bi</c><c>   3</c></rc>
    <rc><c>Bi</c><c>   3</c></rc>
    <rc><c>Bi</c><c>   3</c></rc>
    <rc><c>Bi</c><c>   3</c></rc>
    <rc><c>S </c><c>   4</c></rc>
    <rc><c>S </c><c>   4</c></rc>
    <rc><c>S </c><c>   4</c></rc>
    <rc><c>S </c><c>   4</c></rc>
    <rc><c>S </c><c>   4</c></rc>
    <rc><c>S </c><c>   4</c></rc>
    <rc><c>S </c><c>   4</c></rc>
    <rc><c>S </c><c>   4</c></rc>
    <rc><c>S </c><c>   4</c></rc>
    <rc><c>S </c><c>   4</c></rc>
    <rc><c>S </c><c>   4</c></rc>
    <rc><c>S </c><c>   4</c></rc>
    <rc><c>S </c><c>   4</c></rc>
    <rc><c>S </c><c>   4</c></rc>
    <rc><c>S </c><c>   4</c></rc>
    <rc><c>S </c><c>   4</c></rc>
    <rc><c>O </c><c>   5</c></rc>
    <rc><c>O </c><c>   5</c></rc>
    <rc><c>O </c><c>   5</c></rc>
    <rc><c>O </c><c>   5</c></rc>
    <rc><c>O </c><c>   5</c></rc>
    <rc><c>O </c><c>   5</c></rc>
    <rc><c>O </c><c>   5</c></rc>
    <rc><c>O </c><c>   5</c></rc>
    <rc><c>O </c><c>   5</c></rc>
    <rc><c>O </c><c>   5</c></rc>
    <rc><c>O </c><c>   5</c></rc>
    <rc><c>O </c><c>   5</c></rc>
    <rc><c>O </c><c>   5</c></rc>
    <rc><c>O </c><c>   5</c></rc>
    <rc><c>O </c><c>   5</c></rc>
    <rc><c>O </c><c>   5</c></rc>
   </set>
  </array>
  <array name="atomtypes" >
   <dimension dim="1">type</dimension>
   <field type="int">atomspertype</field>
   <field type="string">element</field>
   <field>mass</field>
   <field>valence</field>
   <field type="string">pseudopotential</field>
   <set>
    <rc><c>   6</c><c>Li</c><c>      7.01000000</c><c>      3.00000000</c><c>  PAW_PBE Li_sv 10Sep2004               </c></rc>
    <rc><c>   5</c><c>Mg</c><c>     24.30500000</c><c>      2.00000000</c><c>  PAW_PBE Mg 13Apr2007                  </c></rc>
    <rc><c>  16</c><c>Bi</c><c>    208.98000000</c><c>     15.00000000</c><c>  PAW_PBE Bi_d 06Sep2000                </c></rc>
    <rc><c>  16</c><c>S </c><c>     32.06600000</c><c>      6.00000000</c><c>  PAW_PBE S 06Sep2000                   </c></rc>
    <rc><c>  16</c><c>O </c><c>     16.00000000</c><c>      6.00000000</c><c>  PAW_PBE O 08Apr2002                   </c></rc>
   </set>
  </array>
 </atominfo>
 <structure name="initialpos" >
  <crystal>
   <varray name="basis" >
    <v>      11.17850000       0.00000000       0.00000000 </v>
    <v>       0.00000000       9.57460000       0.00000000 </v>
    <v>       0.00000000       0.00000000      11.18240000 </v>
   </varray>
   <i name="volume">   1196.84853820 </i>
   <varray name="rec_basis" >
    <v>       0.08945744       0.00000000       0.00000000 </v>
    <v>       0.00000000       0.10444301       0.00000000 </v>
    <v>       0.00000000       0.00000000       0.08942624 </v>
   </varray>
  </crystal>
  <varray name="positions" >
   <v>       0.37539000       0.00017000       0.43687000 </v>
   <v>       0.12461000       0.99984000       0.18687000 </v>
   <v>       0.37461000       0.00017000       0.18687000 </v>
   <v>       0.62539000       0.99984000       0.43687000 </v>
   <v>       0.62461000       0.99984000       0.18687000 </v>
   <v>       0.37461000       0.00017000       0.68687000 </v>
   <v>       0.87539000       0.00017000       0.43687000 </v>
   <v>       0.37539000       0.00017000       0.93687000 </v>
   <v>       0.12461000       0.99984000       0.68687000 </v>
   <v>       0.87539000       0.00017000       0.93687000 </v>
   <v>       0.62461000       0.99984000       0.68687000 </v>
   <v>       0.00013000       0.29519000       0.06281000 </v>
   <v>       0.25013000       0.70481000       0.06281000 </v>
   <v>       0.24987000       0.29519000       0.31282000 </v>
   <v>       0.49987000       0.70481000       0.31282000 </v>
   <v>       0.50013000       0.29519000       0.06281000 </v>
   <v>       0.75013000       0.70481000       0.06281000 </v>
   <v>       0.74987000       0.29519000       0.31282000 </v>
   <v>       0.99987000       0.70481000       0.31282000 </v>
   <v>       0.00013000       0.29519000       0.56281000 </v>
   <v>       0.25013000       0.70481000       0.56281000 </v>
   <v>       0.24987000       0.29519000       0.81282000 </v>
   <v>       0.49987000       0.70481000       0.81282000 </v>
   <v>       0.50013000       0.29519000       0.56281000 </v>
   <v>       0.75013000       0.70481000       0.56281000 </v>
   <v>       0.74987000       0.29519000       0.81282000 </v>
   <v>       0.99987000       0.70481000       0.81282000 </v>
   <v>       0.25005000       0.32677000       0.06286000 </v>
   <v>       0.00005000       0.67323000       0.06286000 </v>
   <v>       0.49995000       0.32677000       0.31286000 </v>
   <v>       0.24995000       0.67323000       0.31286000 </v>
   <v>       0.75005000       0.32677000       0.06286000 </v>
   <v>       0.50005000       0.67323000       0.06286000 </v>
   <v>       0.99995000       0.32677000       0.31286000 </v>
   <v>       0.74995000       0.67323000       0.31286000 </v>
   <v>       0.25005000       0.32677000       0.56286000 </v>
   <v>       0.00005000       0.67323000       0.56286000 </v>
   <v>       0.49995000       0.32677000       0.81286000 </v>
   <v>       0.24995000       0.67323000       0.81286000 </v>
   <v>       0.75005000       0.32677000       0.56286000 </v>
   <v>       0.50005000       0.67323000       0.56286000 </v>
   <v>       0.99995000       0.32677000       0.81286000 </v>
   <v>       0.74995000       0.67323000       0.81286000 </v>
   <v>       0.49987000       0.07798000       0.06246000 </v>
   <v>       0.24987000       0.92202000       0.06246000 </v>
   <v>       0.25013000       0.07798000       0.31246000 </v>
   <v>       0.00013000       0.92202000       0.31246000 </v>
   <v>       0.99987000       0.07798000       0.06246000 </v>
   <v>       0.74987000       0.92202000       0.06246000 </v>
   <v>       0.75013000       0.07798000       0.31246000 </v>
   <v>       0.50013000       0.92202000       0.31246000 </v>
   <v>       0.49987000       0.07798000       0.56246000 </v>
   <v>       0.24987000       0.92202000       0.56246000 </v>
   <v>       0.25013000       0.07798000       0.81246000 </v>
   <v>       0.00013000       0.92202000       0.81246000 </v>
   <v>       0.99987000       0.07798000       0.56246000 </v>
   <v>       0.74987000       0.92202000       0.56246000 </v>
   <v>       0.75013000       0.07798000       0.81246000 </v>
   <v>       0.50013000       0.92202000       0.81246000 </v>
  </varray>
 </structure>
 <calculation>
  <scstep>
   <time name="dav">   61.32   61.42</time>
   <time name="total">   61.41   61.53</time>
   <energy>
    <i name="alphaZ">   1060.66890660 </i>
    <i name="ewald"> -30400.46266628 </i>
    <i name="hartreedc"> -12718.47850444 </i>
    <i name="XCdc">   1247.15125047 </i>
    <i name="pawpsdc">  36635.26894311 </i>
    <i name="pawaedc"> -35972.74895369 </i>
    <i name="eentropy">      0.00000000 </i>
    <i name="bandstr">   1868.10888803 </i>
    <i name="atom">  44026.03258983 </i>
    <i name="e_fr_energy">   5745.54045362 </i>
    <i name="e_wo_entrp">   5745.54045362 </i>
    <i name="e_0_energy">   5745.54045362 </i>
   </energy>
  </scstep>
  <scstep>
   <time name="dav">   62.82   62.81</time>
   <time name="total">   62.83   62.82</time>
   <energy>
    <i name="e_fr_energy">    747.45994519 </i>
    <i name="e_wo_entrp">    747.45994519 </i>
    <i name="e_0_energy">    747.45994519 </i>
   </energy>
  </scstep>
  <scstep>
   <time name="dav">   70.94   70.93</time>
   <time name="total">   70.94   70.93</time>
   <energy>
    <i name="e_fr_energy">   -246.30840581 </i>
    <i name="e_wo_entrp">   -246.30840581 </i>
    <i name="e_0_energy">   -246.30840581 </i>
   </energy>
  </scstep>
  <scstep>
   <time name="dav">   73.27   73.25</time>
   <time name="total">   73.27   73.25</time>
   <energy>
    <i name="e_fr_energy">   -336.79111469 </i>
    <i name="e_wo_entrp">   -336.79111469 </i>
    <i name="e_0_energy">   -336.79111469 </i>
   </energy>
  </scstep>
  <scstep>
   <time name="dav">   97.68   97.64</time>
   <time name="total">   98.40   98.37</time>
   <energy>
    <i name="e_fr_energy">   -344.16368702 </i>
    <i name="e_wo_entrp">   -344.16368702 </i>
    <i name="e_0_energy">   -344.16368702 </i>
   </energy>
  </scstep>
  <scstep>
   <time name="dav">   87.40   87.37</time>
   <time name="total">   88.21   88.18</time>
   <energy>
    <i name="e_fr_energy">   -288.46260218 </i>
    <i name="e_wo_entrp">   -288.46260218 </i>
    <i name="e_0_energy">   -288.46260218 </i>
   </energy>
  </scstep>
  <scstep>
   <time name="dav">   66.52   66.56</time>
   <time name="total">   67.32   67.36</time>
   <energy>
    <i name="e_fr_energy">   -290.84203976 </i>
    <i name="e_wo_entrp">   -290.84203976 </i>
    <i name="e_0_energy">   -290.84203976 </i>
   </energy>
  </scstep>
  <scstep>
   <time name="dav">   77.00   77.04</time>
   <time name="total">   77.80   77.84</time>
   <energy>
    <i name="e_fr_energy">   -289.83478199 </i>
    <i name="e_wo_entrp">   -289.83478199 </i>
    <i name="e_0_energy">   -289.83478199 </i>
   </energy>
  </scstep>
  <scstep>
   <time name="dav">   74.03   74.05</time>
   <time name="total">   74.82   74.85</time>
   <energy>
    <i name="e_fr_energy">   -289.31722731 </i>
    <i name="e_wo_entrp">   -289.31722731 </i>
    <i name="e_0_energy">   -289.31722731 </i>
   </energy>
  </scstep>
  <scstep>
   <time name="dav">   72.91   73.49</time>
   <time name="total">   73.70   74.28</time>
   <energy>
    <i name="e_fr_energy">   -289.34678160 </i>
    <i name="e_wo_entrp">   -289.34678160 </i>
    <i name="e_0_energy">   -289.34678160 </i>
   </energy>
  </scstep>
  <scstep>
   <time name="dav">   83.58   83.55</time>
   <time name="total">   84.38   84.35</time>
   <energy>
    <i name="e_fr_energy">   -289.35149851 </i>
    <i name="e_wo_entrp">   -289.35149851 </i>
    <i name="e_0_energy">   -289.35149851 </i>
   </energy>
  </scstep>
  <scstep>
   <time name="dav">   78.08   78.28</time>
   <time name="total">   78.86   79.07</time>
   <energy>
    <i name="e_fr_energy">   -289.35428354 </i>
    <i name="e_wo_entrp">   -289.35428354 </i>
    <i name="e_0_energy">   -289.35428354 </i>
   </energy>
  </scstep>
  <scstep>
   <time name="dav">   72.79   73.05</time>
   <time name="total">   73.59   73.84</time>
   <energy>
    <i name="e_fr_energy">   -289.35554506 </i>
    <i name="e_wo_entrp">   -289.35554506 </i>
    <i name="e_0_energy">   -289.35554506 </i>
   </energy>
  </scstep>
  <scstep>
   <time name="dav">   79.13   79.62</time>
   <time name="total">   79.97   80.47</time>
   <energy>
    <i name="e_fr_energy">   -289.35576151 </i>
    <i name="e_wo_entrp">   -289.35576151 </i>
    <i name="e_0_energy">   -289.35576151 </i>
   </energy>
  </scstep>
  <scstep>
   <time name="dav">   80.39   81.22</time>
   <time name="total">   81.18   82.01</time>
   <energy>
    <i name="e_fr_energy">   -289.35579010 </i>
    <i name="e_wo_entrp">   -289.35579010 </i>
    <i name="e_0_energy">   -289.35579010 </i>
   </energy>
  </scstep>
  <scstep>
   <time name="dav">   66.85   66.93</time>
   <time name="total">   67.64   67.72</time>
   <energy>
    <i name="e_fr_energy">   -289.35581254 </i>
    <i name="e_wo_entrp">   -289.35581254 </i>
    <i name="e_0_energy">   -289.35581254 </i>
   </energy>
  </scstep>
  <scstep>
   <time name="dav">   73.38   73.48</time>
   <time name="total">   74.17   74.27</time>
   <energy>
    <i name="e_fr_energy">   -289.35581477 </i>
    <i name="e_wo_entrp">   -289.35581477 </i>
    <i name="e_0_energy">   -289.35581477 </i>
   </energy>
  </scstep>
  <scstep>
   <time name="dav">   62.55   62.56</time>
   <time name="total">   62.62   62.63</time>
   <energy>
    <i name="alphaZ">   1060.66890660 </i>
    <i name="ewald"> -30400.46266628 </i>
    <i name="hartreedc"> -12959.59505951 </i>
    <i name="XCdc">   1271.99265542 </i>
    <i name="pawpsdc">  43670.15460387 </i>
    <i name="pawaedc"> -42981.10777094 </i>
    <i name="eentropy">      0.00000000 </i>
    <i name="bandstr">  -3977.03907428 </i>
    <i name="atom">  44026.03258983 </i>
    <i name="e_fr_energy">   -289.35581530 </i>
    <i name="e_wo_entrp">   -289.35581530 </i>
    <i name="e_0_energy">   -289.35581530 </i>
   </energy>
  </scstep>
  <structure>
   <crystal>
    <varray name="basis" >
     <v>      11.17850000       0.00000000       0.00000000 </v>
     <v>       0.00000000       9.57460000       0.00000000 </v>
     <v>       0.00000000       0.00000000      11.18240000 </v>
    </varray>
    <i name="volume">   1196.84853820 </i>
    <varray name="rec_basis" >
     <v>       0.08945744       0.00000000       0.00000000 </v>
     <v>       0.00000000       0.10444301       0.00000000 </v>
     <v>       0.00000000       0.00000000       0.08942624 </v>
    </varray>
   </crystal>
   <varray name="positions" >
    <v>       0.37539000       0.00017000       0.43687000 </v>
    <v>       0.12461000       0.99984000       0.18687000 </v>
    <v>       0.37461000       0.00017000       0.18687000 </v>
    <v>       0.62539000       0.99984000       0.43687000 </v>
    <v>       0.62461000       0.99984000       0.18687000 </v>
    <v>       0.37461000       0.00017000       0.68687000 </v>
    <v>       0.87539000       0.00017000       0.43687000 </v>
    <v>       0.37539000       0.00017000       0.93687000 </v>
    <v>       0.12461000       0.99984000       0.68687000 </v>
    <v>       0.87539000       0.00017000       0.93687000 </v>
    <v>       0.62461000       0.99984000       0.68687000 </v>
    <v>       0.00013000       0.29519000       0.06281000 </v>
    <v>       0.25013000       0.70481000       0.06281000 </v>
    <v>       0.24987000       0.29519000       0.31282000 </v>
    <v>       0.49987000       0.70481000       0.31282000 </v>
    <v>       0.50013000       0.29519000       0.06281000 </v>
    <v>       0.75013000       0.70481000       0.06281000 </v>
    <v>       0.74987000       0.29519000       0.31282000 </v>
    <v>       0.99987000       0.70481000       0.31282000 </v>
    <v>       0.00013000       0.29519000       0.56281000 </v>
    <v>       0.25013000       0.70481000       0.56281000 </v>
    <v>       0.24987000       0.29519000       0.81282000 </v>
    <v>       0.49987000       0.70481000       0.81282000 </v>
    <v>       0.50013000       0.29519000       0.56281000 </v>
    <v>       0.75013000       0.70481000       0.56281000 </v>
    <v>       0.74987000       0.29519000       0.81282000 </v>
    <v>       0.99987000       0.70481000       0.81282000 </v>
    <v>       0.25005000       0.32677000       0.06286000 </v>
    <v>       0.00005000       0.67323000       0.06286000 </v>
    <v>       0.49995000       0.32677000       0.31286000 </v>
    <v>       0.24995000       0.67323000       0.31286000 </v>
    <v>       0.75005000       0.32677000       0.06286000 </v>
    <v>       0.50005000       0.67323000       0.06286000 </v>
    <v>       0.99995000       0.32677000       0.31286000 </v>
    <v>       0.74995000       0.67323000       0.31286000 </v>
    <v>       0.25005000       0.32677000       0.56286000 </v>
    <v>       0.00005000       0.67323000       0.56286000 </v>
    <v>       0.49995000       0.32677000       0.81286000 </v>
    <v>       0.24995000       0.67323000       0.81286000 </v>
    <v>       0.75005000       0.32677000       0.56286000 </v>
    <v>       0.50005000       0.67323000       0.56286000 </v>
    <v>       0.99995000       0.32677000       0.81286000 </v>
    <v>       0.74995000       0.67323000       0.81286000 </v>
    <v>       0.49987000       0.07798000       0.06246000 </v>
    <v>       0.24987000       0.92202000       0.06246000 </v>
    <v>       0.25013000       0.07798000       0.31246000 </v>
    <v>       0.00013000       0.92202000       0.31246000 </v>
    <v>       0.99987000       0.07798000       0.06246000 </v>
    <v>       0.74987000       0.92202000       0.06246000 </v>
    <v>       0.75013000       0.07798000       0.31246000 </v>
    <v>       0.50013000       0.92202000       0.31246000 </v>
    <v>       0.49987000       0.07798000       0.56246000 </v>
    <v>       0.24987000       0.92202000       0.56246000 </v>
    <v>       0.25013000       0.07798000       0.81246000 </v>
    <v>       0.00013000       0.92202000       0.81246000 </v>
    <v>       0.99987000       0.07798000       0.56246000 </v>
    <v>       0.74987000       0.92202000       0.56246000 </v>
    <v>       0.75013000       0.07798000       0.81246000 </v>
    <v>       0.50013000       0.92202000       0.81246000 </v>
   </varray>
  </structure>
  <varray name="forces" >
   <v>      -0.54726876      -0.00531161      -0.23911719 </v>
   <v>      -0.43411127       0.06857216       0.08753765 </v>
   <v>      -0.19177540       0.06054028       0.31302616 </v>
   <v>      -0.11478063      -0.00678007      -0.55613436 </v>
   <v>       0.45419734      -0.06630742      -0.41577952 </v>
   <v>      -0.20496509      -0.06322947      -0.30549309 </v>
   <v>       1.03404619       0.00314391      -0.45609496 </v>
   <v>      -0.08671907      -0.00257346       0.55066295 </v>
   <v>      -0.87491117      -0.11473771      -0.15413109 </v>
   <v>       0.03824261      -0.01007193       0.50367421 </v>
   <v>       0.93068350       0.11986919       0.85926370 </v>
   <v>       0.01039219      -1.03876341       0.25682391 </v>
   <v>      -0.37289670      -0.01170342       0.20892841 </v>
   <v>      -0.25412187      -1.00228934      -0.02859633 </v>
   <v>      -0.06400878      -0.05451166      -0.19032434 </v>
   <v>       0.21819223       0.02776686       0.17032012 </v>
   <v>       0.11443133       1.04773777       0.21560800 </v>
   <v>       0.22721791       0.03113407      -0.44565437 </v>
   <v>       0.12286717       1.03405517      -0.26528864 </v>
   <v>       0.04932500      -0.05409345      -0.22216984 </v>
   <v>      -0.21938190      -0.06445748      -0.47923654 </v>
   <v>      -0.31496540       1.01603179       0.28982685 </v>
   <v>       0.18641195      -1.03619973       0.33088298 </v>
   <v>      -0.15082069       1.11914108      -0.32664818 </v>
   <v>       0.30072088      -1.00963348      -0.05019114 </v>
   <v>       0.18364262      -0.05610792       0.25049627 </v>
   <v>      -0.03483721       0.04872189       0.21119707 </v>
   <v>       0.24012077       0.17413417      -0.29430195 </v>
   <v>       0.06885646      -0.19333040      -0.21554976 </v>
   <v>       0.09783656       0.19729780       0.17935513 </v>
   <v>       0.20460624      -0.20353012       0.07144733 </v>
   <v>      -0.14230043       0.16440039      -0.10952919 </v>
   <v>      -0.16422283      -0.13686066      -0.18879922 </v>
   <v>      -0.15004600       0.17678888       0.22712639 </v>
   <v>      -0.15477229      -0.16330158       0.33337311 </v>
   <v>       0.14883996       0.08799870       0.28878696 </v>
   <v>      -0.06115937      -0.09351832       0.15166019 </v>
   <v>      -0.10108428       0.00994042      -0.17224972 </v>
   <v>       0.18802838      -0.06169050      -0.08025055 </v>
   <v>      -0.20629495       0.06179196       0.04356553 </v>
   <v>       0.11507014      -0.06129261       0.18440417 </v>
   <v>       0.10023907       0.09723869      -0.16513687 </v>
   <v>      -0.18423152      -0.05926333      -0.26203511 </v>
   <v>      -1.15832693       0.01609751      -0.03422144 </v>
   <v>       1.27310333      -0.05960140      -0.11681322 </v>
   <v>       0.74624700       0.83467808      -0.51568713 </v>
   <v>      -0.57218286      -1.01031130       0.62620526 </v>
   <v>      -0.43098887       1.03225121      -0.59660145 </v>
   <v>       0.36625558      -0.99730524      -0.53564552 </v>
   <v>      -0.26806107       0.03196878       1.31308601 </v>
   <v>       0.06644007       0.03775887       0.16847610 </v>
   <v>       0.55777115      -0.93730085       0.64016237 </v>
   <v>       0.28336732       0.07984471       1.29563545 </v>
   <v>       0.77278924      -0.72352455      -0.70060917 </v>
   <v>       0.11458804      -0.26874565      -0.17323489 </v>
   <v>      -0.02866762       0.26678945       0.12804370 </v>
   <v>      -0.81274250       0.71392545      -0.52505395 </v>
   <v>      -0.23004523       0.21676829      -0.27822871 </v>
   <v>      -0.68383954       0.78996055      -0.80076855 </v>
  </varray>
  <varray name="stress" >
   <v>      -8.80770199      -0.44273016      -0.06262119 </v>
   <v>      -0.44273031     -13.09714003      -0.14660651 </v>
   <v>      -0.06262101      -0.14660651     -10.07432626 </v>
  </varray>
  <energy>
   <i name="e_fr_energy">   -301.99276633 </i>
   <i name="e_wo_entrp">   -301.99276633 </i>
   <i name="e_0_energy">      0.00000000 </i>
  </energy>
  <time name="totalsc"> 1460.92 1463.82</time>
  <eigenvalues>
   <array>
    <dimension dim="1">band</dimension>
    <dimension dim="2">kpoint</dimension>
    <dimension dim="3">spin</dimension>
    <field>eigene</field>
    <field>occ</field>
    <set>
     <set comment="spin 1">
      <set comment="kpoint 1">
       <r>  -40.6107    1.0000 </r>
       <r>  -40.3056    1.0000 </r>
       <r>  -39.8625    1.0000 </r>
       <r>  -39.6838    1.0000 </r>
       <r>  -39.5677    1.0000 </r>
       <r>  -39.1352    1.0000 </r>
       <r>  -19.0467    1.0000 </r>
       <r>  -19.0352    1.0000 </r>
       <r>  -18.9689    1.0000 </r>
       <r>  -18.9632    1.0000 </r>
       <r>  -18.9588    1.0000 </r>
       <r>  -18.9555    1.0000 </r>
       <r>  -18.9528    1.0000 </r>
       <r>  -18.9462    1.0000 </r>
       <r>  -18.8831    1.0000 </r>
       <r>  -18.8799    1.0000 </r>
       <r>  -18.8752    1.0000 </r>
       <r>  -18.8722    1.0000 </r>
       <r>  -18.8669    1.0000 </r>
       <r>  -18.8621    1.0000 </r>
       <r>  -18.8602    1.0000 </r>
       <r>  -18.8421    1.0000 </r>
       <r>  -18.7851    1.0000 </r>
       <r>  -18.7820    1.0000 </r>
       <r>  -18.7629    1.0000 </r>
       <r>  -18.7592    1.0000 </r>
       <r>  -18.7563    1.0000 </r>
       <r>  -18.7468    1.0000 </r>
       <r>  -18.7390    1.0000 </r>
       <r>  -18.7289    1.0000 </r>
       <r>  -18.7189    1.0000 </r>
       <r>  -18.7096    1.0000 </r>
       <r>  -18.6778    1.0000 </r>
       <r>  -18.6740    1.0000 </r>
       <r>  -18.6639    1.0000 </r>
       <r>  -18.6608    1.0000 </r>
       <r>  -18.6595    1.0000 </r>
       <r>  -18.6579    1.0000 </r>
       <r>  -18.6494    1.0000 </r>
       <r>  -18.6477    1.0000 </r>
       <r>  -18.6452    1.0000 </r>
       <r>  -18.6431    1.0000 </r>
       <r>  -18.6315    1.0000 </r>
       <r>  -18.6294    1.0000 </r>
       <r>  -18.6074    1.0000 </r>
       <r>  -18.6042    1.0000 </r>
       <r>  -18.6036    1.0000 </r>
       <r>  -18.5948    1.0000 </r>
       <r>  -18.5928    1.0000 </r>
       <r>  -18.5886    1.0000 </r>
       <r>  -18.5852    1.0000 </r>
       <r>  -18.5801    1.0000 </r>
       <r>  -18.5784    1.0000 </r>
       <r>  -18.5486    1.0000 </r>
       <r>  -18.5223    1.0000 </r>
       <r>  -18.5147    1.0000 </r>
       <r>  -18.5110    1.0000 </r>
       <r>  -18.5062    1.0000 </r>
       <r>  -18.4948    1.0000 </r>
       <r>  -18.4931    1.0000 </r>
       <r>  -18.4745    1.0000 </r>
       <r>  -18.4711    1.0000 </r>
       <r>  -18.4526    1.0000 </r>
       <r>  -18.4483    1.0000 </r>
       <r>  -18.4345    1.0000 </r>
       <r>  -18.4325    1.0000 </r>
       <r>  -18.4284    1.0000 </r>
       <r>  -18.4203    1.0000 </r>
       <r>  -18.4173    1.0000 </r>
       <r>  -18.4051    1.0000 </r>
       <r>  -18.3588    1.0000 </r>
       <r>  -18.3541    1.0000 </r>
       <r>  -18.3481    1.0000 </r>
       <r>  -18.3461    1.0000 </r>
       <r>  -18.3363    1.0000 </r>
       <r>  -18.3249    1.0000 </r>
       <r>  -18.2686    1.0000 </r>
       <r>  -18.2622    1.0000 </r>
       <r>  -18.2254    1.0000 </r>
       <r>  -18.2169    1.0000 </r>
       <r>  -18.2111    1.0000 </r>
       <r>  -18.1894    1.0000 </r>
       <r>  -18.1594    1.0000 </r>
       <r>  -18.1528    1.0000 </r>
       <r>  -18.1327    1.0000 </r>
       <r>  -18.1272    1.0000 </r>
       <r>  -13.7390    1.0000 </r>
       <r>  -13.6237    1.0000 </r>
       <r>  -13.5337    1.0000 </r>
       <r>  -13.5205    1.0000 </r>
       <r>  -12.8935    1.0000 </r>
       <r>  -12.8299    1.0000 </r>
       <r>  -12.7901    1.0000 </r>
       <r>  -12.7330    1.0000 </r>
       <r>  -12.7062    1.0000 </r>
       <r>  -12.6825    1.0000 </r>
       <r>  -12.6458    1.0000 </r>
       <r>  -12.6364    1.0000 </r>
       <r>  -12.0171    1.0000 </r>
       <r>  -11.9817    1.0000 </r>
       <r>  -11.9124    1.0000 </r>
       <r>  -11.8869    1.0000 </r>
       <r>   -9.3839    1.0000 </r>
       <r>   -9.0918    1.0000 </r>
       <r>   -8.5879    1.0000 </r>
       <r>   -8.5384    1.0000 </r>
       <r>   -8.5049    1.0000 </r>
       <r>   -8.4990    1.0000 </r>
       <r>   -8.3688    1.0000 </r>
       <r>   -8.3218    1.0000 </r>
       <r>   -8.2833    1.0000 </r>
       <r>   -8.2784    1.0000 </r>
       <r>   -8.0333    1.0000 </r>
       <r>   -8.0197    1.0000 </r>
       <r>   -8.0019    1.0000 </r>
       <r>   -7.9888    1.0000 </r>
       <r>   -7.3785    1.0000 </r>
       <r>   -7.3771    1.0000 </r>
       <r>   -6.4226    1.0000 </r>
       <r>   -6.4144    1.0000 </r>
       <r>   -6.3935    1.0000 </r>
       <r>   -6.3878    1.0000 </r>
       <r>   -5.6056    1.0000 </r>
       <r>   -5.5915    1.0000 </r>
       <r>   -5.3969    1.0000 </r>
       <r>   -5.3871    1.0000 </r>
       <r>   -5.3212    1.0000 </r>
       <r>   -5.2544    1.0000 </r>
       <r>   -5.1919    1.0000 </r>
       <r>   -5.1790    1.0000 </r>
       <r>   -5.1022    1.0000 </r>
       <r>   -5.0451    1.0000 </r>
       <r>   -3.8205    1.0000 </r>
       <r>   -3.6696    1.0000 </r>
       <r>   -1.5713    1.0000 </r>
       <r>   -1.3375    1.0000 </r>
       <r>   -1.1843    1.0000 </r>
       <r>   -1.0218    1.0000 </r>
       <r>   -0.6539    1.0000 </r>
       <r>   -0.6199    1.0000 </r>
       <r>   -0.5291    1.0000 </r>
       <r>   -0.5138    1.0000 </r>
       <r>   -0.2519    1.0000 </r>
       <r>   -0.2343    1.0000 </r>
       <r>   -0.1916    1.0000 </r>
       <r>   -0.1682    1.0000 </r>
       <r>   -0.1186    1.0000 </r>
       <r>   -0.0387    1.0000 </r>
       <r>    0.1118    1.0000 </r>
       <r>    0.1569    1.0000 </r>
       <r>    0.2740    1.0000 </r>
       <r>    0.3139    1.0000 </r>
       <r>    0.3919    1.0000 </r>
       <r>    0.4913    1.0000 </r>
       <r>    0.5692    1.0000 </r>
       <r>    0.6252    1.0000 </r>
       <r>    0.6606    1.0000 </r>
       <r>    0.6801    1.0000 </r>
       <r>    0.7610    1.0000 </r>
       <r>    0.8030    1.0000 </r>
       <r>    0.8102    1.0000 </r>
       <r>    0.8702    1.0000 </r>
       <r>    0.8972    1.0000 </r>
       <r>    0.9702    1.0000 </r>
       <r>    0.9878    1.0000 </r>
       <r>    1.0038    1.0000 </r>
       <r>    1.0422    1.0000 </r>
       <r>    1.1037    1.0000 </r>
       <r>    1.1156    1.0000 </r>
       <r>    1.1945    1.0000 </r>
       <r>    1.2932    1.0000 </r>
       <r>    1.3183    1.0000 </r>
       <r>    1.3538    1.0000 </r>
       <r>    1.4070    1.0000 </r>
       <r>    1.4317    1.0000 </r>
       <r>    1.4946    1.0000 </r>
       <r>    1.5660    1.0000 </r>
       <r>    1.5962    1.0000 </r>
       <r>    1.6223    1.0000 </r>
       <r>    1.6745    1.0000 </r>
       <r>    1.7245    1.0000 </r>
       <r>    1.7352    1.0000 </r>
       <r>    1.8326    1.0000 </r>
       <r>    1.8534    1.0000 </r>
       <r>    1.9813    1.0000 </r>
       <r>    2.0793    1.0000 </r>
       <r>    2.1076    1.0000 </r>
       <r>    2.1725    1.0000 </r>
       <r>    2.2030    1.0000 </r>
       <r>    2.2363    1.0000 </r>
       <r>    2.3126    1.0000 </r>
       <r>    2.3576    1.0000 </r>
       <r>    2.3779    1.0000 </r>
       <r>    2.4663    1.0000 </r>
       <r>    2.5226    1.0000 </r>
       <r>    2.5305    1.0000 </r>
       <r>    2.5377    1.0000 </r>
       <r>    2.5602    1.0000 </r>
       <r>    2.5727    1.0000 </r>
       <r>    2.6261    1.0000 </r>
       <r>    2.6504    1.0000 </r>
       <r>    2.6846    1.0000 </r>
       <r>    2.7490    1.0000 </r>
       <r>    2.8098    1.0000 </r>
       <r>    2.8191    1.0000 </r>
       <r>    2.8333    1.0000 </r>
       <r>    2.8887    1.0000 </r>
       <r>    2.9375    1.0000 </r>
       <r>    2.9710    1.0000 </r>
       <r>    3.0059    1.0000 </r>
       <r>    3.0402    1.0000 </r>
       <r>    3.0952    1.0000 </r>
       <r>    3.1047    1.0000 </r>
       <r>    3.1310    1.0000 </r>
       <r>    3.1597    1.0000 </r>
       <r>    3.1760    1.0000 </r>
       <r>    3.1847    1.0000 </r>
       <r>    3.2042    1.0000 </r>
       <r>    3.2305    1.0000 </r>
       <r>    3.2953    1.0000 </r>
       <r>    3.3673    1.0000 </r>
       <r>    3.3772    1.0000 </r>
       <r>    3.4411    1.0000 </r>
       <r>    3.5342    1.0000 </r>
       <r>    3.7204    1.0000 </r>
       <r>    3.8195    1.0000 </r>
       <r>    4.1623    1.0000 </r>
       <r>    4.1752    1.0000 </r>
       <r>    4.2260    1.0000 </r>
       <r>    4.2270    1.0000 </r>
       <r>    4.9687    0.0000 </r>
       <r>    4.9768    0.0000 </r>
       <r>    5.1588    0.0000 </r>
       <r>    5.1663    0.0000 </r>
       <r>    5.6756    0.0000 </r>
       <r>    5.6795    0.0000 </r>
       <r>    5.7820    0.0000 </r>
       <r>    5.7890    0.0000 </r>
       <r>    6.1041    0.0000 </r>
       <r>    6.1107    0.0000 </r>
       <r>    6.1382    0.0000 </r>
       <r>    6.1474    0.0000 </r>
       <r>    6.2275    0.0000 </r>
       <r>    6.2327    0.0000 </r>
       <r>    6.2540    0.0000 </r>
       <r>    6.2670    0.0000 </r>
       <r>    6.9599    0.0000 </r>
       <r>    6.9730    0.0000 </r>
       <r>    7.2281    0.0000 </r>
       <r>    7.2449    0.0000 </r>
       <r>    7.7200    0.0000 </r>
       <r>    7.8000    0.0000 </r>
       <r>    7.8279    0.0000 </r>
       <r>    7.9031    0.0000 </r>
       <r>    7.9315    0.0000 </r>
       <r>    8.0088    0.0000 </r>
       <r>    8.0424    0.0000 </r>
       <r>    8.1330    0.0000 </r>
       <r>    8.3072    0.0000 </r>
       <r>    8.6208    0.0000 </r>
       <r>    8.6805    0.0000 </r>
       <r>    8.7416    0.0000 </r>
       <r>    8.7966    0.0000 </r>
       <r>    8.8044    0.0000 </r>
       <r>    8.8490    0.0000 </r>
       <r>    8.9114    0.0000 </r>
       <r>    8.9679    0.0000 </r>
       <r>    8.9958    0.0000 </r>
       <r>    9.0253    0.0000 </r>
       <r>    9.0998    0.0000 </r>
       <r>    9.1145    0.0000 </r>
       <r>    9.1277    0.0000 </r>
       <r>    9.1772    0.0000 </r>
       <r>    9.2601    0.0000 </r>
       <r>    9.3517    0.0000 </r>
       <r>    9.4547    0.0000 </r>
       <r>    9.4964    0.0000 </r>
       <r>    9.5158    0.0000 </r>
       <r>    9.6609    0.0000 </r>
       <r>    9.8153    0.0000 </r>
      </set>
      <set comment="kpoint 2">
       <r>  -40.6107    1.0000 </r>
       <r>  -40.3056    1.0000 </r>
       <r>  -39.8625    1.0000 </r>
       <r>  -39.6838    1.0000 </r>
       <r>  -39.5677    1.0000 </r>
       <r>  -39.1352    1.0000 </r>
       <r>  -19.0467    1.0000 </r>
       <r>  -19.0352    1.0000 </r>
       <r>  -18.9689    1.0000 </r>
       <r>  -18.9632    1.0000 </r>
       <r>  -18.9587    1.0000 </r>
       <r>  -18.9556    1.0000 </r>
       <r>  -18.9528    1.0000 </r>
       <r>  -18.9462    1.0000 </r>
       <r>  -18.8831    1.0000 </r>
       <r>  -18.8799    1.0000 </r>
       <r>  -18.8752    1.0000 </r>
       <r>  -18.8722    1.0000 </r>
       <r>  -18.8669    1.0000 </r>
       <r>  -18.8621    1.0000 </r>
       <r>  -18.8602    1.0000 </r>
       <r>  -18.8421    1.0000 </r>
       <r>  -18.7851    1.0000 </r>
       <r>  -18.7820    1.0000 </r>
       <r>  -18.7629    1.0000 </r>
       <r>  -18.7592    1.0000 </r>
       <r>  -18.7563    1.0000 </r>
       <r>  -18.7468    1.0000 </r>
       <r>  -18.7390    1.0000 </r>
       <r>  -18.7290    1.0000 </r>
       <r>  -18.7189    1.0000 </r>
       <r>  -18.7096    1.0000 </r>
       <r>  -18.6778    1.0000 </r>
       <r>  -18.6740    1.0000 </r>
       <r>  -18.6643    1.0000 </r>
       <r>  -18.6606    1.0000 </r>
       <r>  -18.6598    1.0000 </r>
       <r>  -18.6576    1.0000 </r>
       <r>  -18.6500    1.0000 </r>
       <r>  -18.6472    1.0000 </r>
       <r>  -18.6459    1.0000 </r>
       <r>  -18.6424    1.0000 </r>
       <r>  -18.6314    1.0000 </r>
       <r>  -18.6293    1.0000 </r>
       <r>  -18.6075    1.0000 </r>
       <r>  -18.6042    1.0000 </r>
       <r>  -18.6036    1.0000 </r>
       <r>  -18.5948    1.0000 </r>
       <r>  -18.5928    1.0000 </r>
       <r>  -18.5886    1.0000 </r>
       <r>  -18.5852    1.0000 </r>
       <r>  -18.5801    1.0000 </r>
       <r>  -18.5784    1.0000 </r>
       <r>  -18.5486    1.0000 </r>
       <r>  -18.5223    1.0000 </r>
       <r>  -18.5147    1.0000 </r>
       <r>  -18.5110    1.0000 </r>
       <r>  -18.5062    1.0000 </r>
       <r>  -18.4948    1.0000 </r>
       <r>  -18.4931    1.0000 </r>
       <r>  -18.4745    1.0000 </r>
       <r>  -18.4711    1.0000 </r>
       <r>  -18.4526    1.0000 </r>
       <r>  -18.4483    1.0000 </r>
       <r>  -18.4346    1.0000 </r>
       <r>  -18.4325    1.0000 </r>
       <r>  -18.4284    1.0000 </r>
       <r>  -18.4202    1.0000 </r>
       <r>  -18.4174    1.0000 </r>
       <r>  -18.4051    1.0000 </r>
       <r>  -18.3587    1.0000 </r>
       <r>  -18.3541    1.0000 </r>
       <r>  -18.3481    1.0000 </r>
       <r>  -18.3461    1.0000 </r>
       <r>  -18.3363    1.0000 </r>
       <r>  -18.3250    1.0000 </r>
       <r>  -18.2686    1.0000 </r>
       <r>  -18.2622    1.0000 </r>
       <r>  -18.2254    1.0000 </r>
       <r>  -18.2169    1.0000 </r>
       <r>  -18.2111    1.0000 </r>
       <r>  -18.1894    1.0000 </r>
       <r>  -18.1594    1.0000 </r>
       <r>  -18.1528    1.0000 </r>
       <r>  -18.1327    1.0000 </r>
       <r>  -18.1272    1.0000 </r>
       <r>  -13.7378    1.0000 </r>
       <r>  -13.6242    1.0000 </r>
       <r>  -13.5384    1.0000 </r>
       <r>  -13.5165    1.0000 </r>
       <r>  -12.8948    1.0000 </r>
       <r>  -12.8274    1.0000 </r>
       <r>  -12.7912    1.0000 </r>
       <r>  -12.7369    1.0000 </r>
       <r>  -12.6976    1.0000 </r>
       <r>  -12.6824    1.0000 </r>
       <r>  -12.6537    1.0000 </r>
       <r>  -12.6331    1.0000 </r>
       <r>  -12.0199    1.0000 </r>
       <r>  -11.9786    1.0000 </r>
       <r>  -11.9129    1.0000 </r>
       <r>  -11.8868    1.0000 </r>
       <r>   -9.2383    1.0000 </r>
       <r>   -9.0820    1.0000 </r>
       <r>   -8.9668    1.0000 </r>
       <r>   -8.8066    1.0000 </r>
       <r>   -8.4376    1.0000 </r>
       <r>   -8.4047    1.0000 </r>
       <r>   -8.3027    1.0000 </r>
       <r>   -8.2660    1.0000 </r>
       <r>   -8.2423    1.0000 </r>
       <r>   -8.2015    1.0000 </r>
       <r>   -8.1078    1.0000 </r>
       <r>   -8.0614    1.0000 </r>
       <r>   -7.7689    1.0000 </r>
       <r>   -7.6659    1.0000 </r>
       <r>   -7.6475    1.0000 </r>
       <r>   -7.5442    1.0000 </r>
       <r>   -6.0988    1.0000 </r>
       <r>   -6.0704    1.0000 </r>
       <r>   -5.9912    1.0000 </r>
       <r>   -5.9224    1.0000 </r>
       <r>   -5.8724    1.0000 </r>
       <r>   -5.8450    1.0000 </r>
       <r>   -5.7450    1.0000 </r>
       <r>   -5.6953    1.0000 </r>
       <r>   -5.6391    1.0000 </r>
       <r>   -5.6312    1.0000 </r>
       <r>   -5.4522    1.0000 </r>
       <r>   -5.4218    1.0000 </r>
       <r>   -4.5163    1.0000 </r>
       <r>   -4.3667    1.0000 </r>
       <r>   -4.3455    1.0000 </r>
       <r>   -4.1891    1.0000 </r>
       <r>   -1.3118    1.0000 </r>
       <r>   -1.1369    1.0000 </r>
       <r>   -0.9400    1.0000 </r>
       <r>   -0.7694    1.0000 </r>
       <r>   -0.6245    1.0000 </r>
       <r>   -0.4738    1.0000 </r>
       <r>   -0.1837    1.0000 </r>
       <r>   -0.1232    1.0000 </r>
       <r>   -0.1003    1.0000 </r>
       <r>   -0.0350    1.0000 </r>
       <r>   -0.0141    1.0000 </r>
       <r>    0.0345    1.0000 </r>
       <r>    0.1165    1.0000 </r>
       <r>    0.1950    1.0000 </r>
       <r>    0.2575    1.0000 </r>
       <r>    0.3193    1.0000 </r>
       <r>    0.3970    1.0000 </r>
       <r>    0.4395    1.0000 </r>
       <r>    0.4547    1.0000 </r>
       <r>    0.5265    1.0000 </r>
       <r>    0.5717    1.0000 </r>
       <r>    0.5792    1.0000 </r>
       <r>    0.6363    1.0000 </r>
       <r>    0.6628    1.0000 </r>
       <r>    0.6741    1.0000 </r>
       <r>    0.7139    1.0000 </r>
       <r>    0.7493    1.0000 </r>
       <r>    0.7899    1.0000 </r>
       <r>    0.8332    1.0000 </r>
       <r>    0.8928    1.0000 </r>
       <r>    0.9058    1.0000 </r>
       <r>    0.9585    1.0000 </r>
       <r>    1.1008    1.0000 </r>
       <r>    1.1175    1.0000 </r>
       <r>    1.1718    1.0000 </r>
       <r>    1.2263    1.0000 </r>
       <r>    1.2721    1.0000 </r>
       <r>    1.2995    1.0000 </r>
       <r>    1.3063    1.0000 </r>
       <r>    1.3593    1.0000 </r>
       <r>    1.3736    1.0000 </r>
       <r>    1.4622    1.0000 </r>
       <r>    1.4997    1.0000 </r>
       <r>    1.5146    1.0000 </r>
       <r>    1.5581    1.0000 </r>
       <r>    1.5782    1.0000 </r>
       <r>    1.6504    1.0000 </r>
       <r>    1.7117    1.0000 </r>
       <r>    1.7527    1.0000 </r>
       <r>    1.7735    1.0000 </r>
       <r>    1.8651    1.0000 </r>
       <r>    1.9139    1.0000 </r>
       <r>    1.9162    1.0000 </r>
       <r>    1.9965    1.0000 </r>
       <r>    2.0399    1.0000 </r>
       <r>    2.0927    1.0000 </r>
       <r>    2.1627    1.0000 </r>
       <r>    2.2047    1.0000 </r>
       <r>    2.2162    1.0000 </r>
       <r>    2.2562    1.0000 </r>
       <r>    2.2983    1.0000 </r>
       <r>    2.3714    1.0000 </r>
       <r>    2.3905    1.0000 </r>
       <r>    2.4401    1.0000 </r>
       <r>    2.5008    1.0000 </r>
       <r>    2.5202    1.0000 </r>
       <r>    2.5423    1.0000 </r>
       <r>    2.5892    1.0000 </r>
       <r>    2.6323    1.0000 </r>
       <r>    2.6407    1.0000 </r>
       <r>    2.6632    1.0000 </r>
       <r>    2.7277    1.0000 </r>
       <r>    2.7390    1.0000 </r>
       <r>    2.7950    1.0000 </r>
       <r>    2.8325    1.0000 </r>
       <r>    2.8439    1.0000 </r>
       <r>    2.8994    1.0000 </r>
       <r>    2.9800    1.0000 </r>
       <r>    3.0094    1.0000 </r>
       <r>    3.0236    1.0000 </r>
       <r>    3.0544    1.0000 </r>
       <r>    3.1066    1.0000 </r>
       <r>    3.1644    1.0000 </r>
       <r>    3.1848    1.0000 </r>
       <r>    3.2526    1.0000 </r>
       <r>    3.2847    1.0000 </r>
       <r>    3.4017    1.0000 </r>
       <r>    3.4181    1.0000 </r>
       <r>    3.4603    1.0000 </r>
       <r>    3.5295    1.0000 </r>
       <r>    3.5470    1.0000 </r>
       <r>    3.5786    1.0000 </r>
       <r>    3.6512    1.0000 </r>
       <r>    3.7066    1.0000 </r>
       <r>    3.8726    1.0000 </r>
       <r>    3.9387    1.0000 </r>
       <r>    5.5236    0.0000 </r>
       <r>    5.5273    0.0000 </r>
       <r>    5.6886    0.0000 </r>
       <r>    5.6959    0.0000 </r>
       <r>    5.7163    0.0000 </r>
       <r>    5.7215    0.0000 </r>
       <r>    5.8752    0.0000 </r>
       <r>    5.8831    0.0000 </r>
       <r>    7.0731    0.0000 </r>
       <r>    7.1075    0.0000 </r>
       <r>    7.1604    0.0000 </r>
       <r>    7.2308    0.0000 </r>
       <r>    7.2818    0.0000 </r>
       <r>    7.2998    0.0000 </r>
       <r>    7.3564    0.0000 </r>
       <r>    7.3735    0.0000 </r>
       <r>    7.4288    0.0000 </r>
       <r>    7.4709    0.0000 </r>
       <r>    7.5543    0.0000 </r>
       <r>    7.6018    0.0000 </r>
       <r>    7.7560    0.0000 </r>
       <r>    7.7919    0.0000 </r>
       <r>    7.8219    0.0000 </r>
       <r>    7.8311    0.0000 </r>
       <r>    7.8634    0.0000 </r>
       <r>    7.8857    0.0000 </r>
       <r>    7.9062    0.0000 </r>
       <r>    7.9352    0.0000 </r>
       <r>    7.9634    0.0000 </r>
       <r>    8.0065    0.0000 </r>
       <r>    8.0482    0.0000 </r>
       <r>    8.1534    0.0000 </r>
       <r>    8.2538    0.0000 </r>
       <r>    8.3094    0.0000 </r>
       <r>    8.3982    0.0000 </r>
       <r>    8.4630    0.0000 </r>
       <r>    8.6393    0.0000 </r>
       <r>    8.7204    0.0000 </r>
       <r>    8.7233    0.0000 </r>
       <r>    8.7398    0.0000 </r>
       <r>    8.7511    0.0000 </r>
       <r>    8.8322    0.0000 </r>
       <r>    8.9136    0.0000 </r>
       <r>    8.9316    0.0000 </r>
       <r>    9.0636    0.0000 </r>
       <r>    9.2138    0.0000 </r>
       <r>    9.2876    0.0000 </r>
       <r>    9.3309    0.0000 </r>
       <r>    9.4142    0.0000 </r>
       <r>    9.5511    0.0000 </r>
      </set>
      <set comment="kpoint 3">
       <r>  -40.6106    1.0000 </r>
       <r>  -40.3056    1.0000 </r>
       <r>  -39.8625    1.0000 </r>
       <r>  -39.6838    1.0000 </r>
       <r>  -39.5677    1.0000 </r>
       <r>  -39.1352    1.0000 </r>
       <r>  -19.0468    1.0000 </r>
       <r>  -19.0352    1.0000 </r>
       <r>  -18.9689    1.0000 </r>
       <r>  -18.9632    1.0000 </r>
       <r>  -18.9588    1.0000 </r>
       <r>  -18.9556    1.0000 </r>
       <r>  -18.9528    1.0000 </r>
       <r>  -18.9462    1.0000 </r>
       <r>  -18.8831    1.0000 </r>
       <r>  -18.8799    1.0000 </r>
       <r>  -18.8752    1.0000 </r>
       <r>  -18.8722    1.0000 </r>
       <r>  -18.8669    1.0000 </r>
       <r>  -18.8621    1.0000 </r>
       <r>  -18.8602    1.0000 </r>
       <r>  -18.8421    1.0000 </r>
       <r>  -18.7851    1.0000 </r>
       <r>  -18.7820    1.0000 </r>
       <r>  -18.7629    1.0000 </r>
       <r>  -18.7592    1.0000 </r>
       <r>  -18.7562    1.0000 </r>
       <r>  -18.7468    1.0000 </r>
       <r>  -18.7390    1.0000 </r>
       <r>  -18.7289    1.0000 </r>
       <r>  -18.7189    1.0000 </r>
       <r>  -18.7096    1.0000 </r>
       <r>  -18.6778    1.0000 </r>
       <r>  -18.6740    1.0000 </r>
       <r>  -18.6639    1.0000 </r>
       <r>  -18.6608    1.0000 </r>
       <r>  -18.6595    1.0000 </r>
       <r>  -18.6579    1.0000 </r>
       <r>  -18.6494    1.0000 </r>
       <r>  -18.6477    1.0000 </r>
       <r>  -18.6453    1.0000 </r>
       <r>  -18.6432    1.0000 </r>
       <r>  -18.6317    1.0000 </r>
       <r>  -18.6293    1.0000 </r>
       <r>  -18.6075    1.0000 </r>
       <r>  -18.6042    1.0000 </r>
       <r>  -18.6036    1.0000 </r>
       <r>  -18.5948    1.0000 </r>
       <r>  -18.5928    1.0000 </r>
       <r>  -18.5886    1.0000 </r>
       <r>  -18.5852    1.0000 </r>
       <r>  -18.5801    1.0000 </r>
       <r>  -18.5784    1.0000 </r>
       <r>  -18.5486    1.0000 </r>
       <r>  -18.5223    1.0000 </r>
       <r>  -18.5147    1.0000 </r>
       <r>  -18.5110    1.0000 </r>
       <r>  -18.5062    1.0000 </r>
       <r>  -18.4948    1.0000 </r>
       <r>  -18.4931    1.0000 </r>
       <r>  -18.4745    1.0000 </r>
       <r>  -18.4711    1.0000 </r>
       <r>  -18.4526    1.0000 </r>
       <r>  -18.4483    1.0000 </r>
       <r>  -18.4345    1.0000 </r>
       <r>  -18.4325    1.0000 </r>
       <r>  -18.4284    1.0000 </r>
       <r>  -18.4203    1.0000 </r>
       <r>  -18.4173    1.0000 </r>
       <r>  -18.4051    1.0000 </r>
       <r>  -18.3587    1.0000 </r>
       <r>  -18.3541    1.0000 </r>
       <r>  -18.3481    1.0000 </r>
       <r>  -18.3461    1.0000 </r>
       <r>  -18.3363    1.0000 </r>
       <r>  -18.3249    1.0000 </r>
       <r>  -18.2686    1.0000 </r>
       <r>  -18.2622    1.0000 </r>
       <r>  -18.2254    1.0000 </r>
       <r>  -18.2169    1.0000 </r>
       <r>  -18.2111    1.0000 </r>
       <r>  -18.1894    1.0000 </r>
       <r>  -18.1594    1.0000 </r>
       <r>  -18.1528    1.0000 </r>
       <r>  -18.1327    1.0000 </r>
       <r>  -18.1272    1.0000 </r>
       <r>  -13.7387    1.0000 </r>
       <r>  -13.6237    1.0000 </r>
       <r>  -13.5339    1.0000 </r>
       <r>  -13.5205    1.0000 </r>
       <r>  -12.8931    1.0000 </r>
       <r>  -12.8296    1.0000 </r>
       <r>  -12.7895    1.0000 </r>
       <r>  -12.7330    1.0000 </r>
       <r>  -12.7062    1.0000 </r>
       <r>  -12.6836    1.0000 </r>
       <r>  -12.6461    1.0000 </r>
       <r>  -12.6367    1.0000 </r>
       <r>  -12.0159    1.0000 </r>
       <r>  -11.9820    1.0000 </r>
       <r>  -11.9130    1.0000 </r>
       <r>  -11.8886    1.0000 </r>
       <r>   -9.3743    1.0000 </r>
       <r>   -9.0982    1.0000 </r>
       <r>   -8.6064    1.0000 </r>
       <r>   -8.5551    1.0000 </r>
       <r>   -8.5217    1.0000 </r>
       <r>   -8.5161    1.0000 </r>
       <r>   -8.3488    1.0000 </r>
       <r>   -8.3047    1.0000 </r>
       <r>   -8.2649    1.0000 </r>
       <r>   -8.2593    1.0000 </r>
       <r>   -8.0368    1.0000 </r>
       <r>   -8.0224    1.0000 </r>
       <r>   -8.0047    1.0000 </r>
       <r>   -7.9911    1.0000 </r>
       <r>   -7.3812    1.0000 </r>
       <r>   -7.3799    1.0000 </r>
       <r>   -6.4127    1.0000 </r>
       <r>   -6.4045    1.0000 </r>
       <r>   -6.3851    1.0000 </r>
       <r>   -6.3775    1.0000 </r>
       <r>   -5.6140    1.0000 </r>
       <r>   -5.5887    1.0000 </r>
       <r>   -5.4329    1.0000 </r>
       <r>   -5.4261    1.0000 </r>
       <r>   -5.3460    1.0000 </r>
       <r>   -5.2680    1.0000 </r>
       <r>   -5.1462    1.0000 </r>
       <r>   -5.1295    1.0000 </r>
       <r>   -5.0670    1.0000 </r>
       <r>   -4.9994    1.0000 </r>
       <r>   -3.8951    1.0000 </r>
       <r>   -3.5833    1.0000 </r>
       <r>   -1.4340    1.0000 </r>
       <r>   -1.3711    1.0000 </r>
       <r>   -1.2913    1.0000 </r>
       <r>   -1.0839    1.0000 </r>
       <r>   -0.5524    1.0000 </r>
       <r>   -0.5114    1.0000 </r>
       <r>   -0.4787    1.0000 </r>
       <r>   -0.4458    1.0000 </r>
       <r>   -0.4337    1.0000 </r>
       <r>   -0.4111    1.0000 </r>
       <r>   -0.3260    1.0000 </r>
       <r>   -0.3195    1.0000 </r>
       <r>   -0.2654    1.0000 </r>
       <r>   -0.1335    1.0000 </r>
       <r>   -0.1018    1.0000 </r>
       <r>   -0.0359    1.0000 </r>
       <r>    0.1667    1.0000 </r>
       <r>    0.2349    1.0000 </r>
       <r>    0.3044    1.0000 </r>
       <r>    0.3576    1.0000 </r>
       <r>    0.4771    1.0000 </r>
       <r>    0.5674    1.0000 </r>
       <r>    0.6386    1.0000 </r>
       <r>    0.6830    1.0000 </r>
       <r>    0.7255    1.0000 </r>
       <r>    0.7641    1.0000 </r>
       <r>    0.7839    1.0000 </r>
       <r>    0.7985    1.0000 </r>
       <r>    0.8206    1.0000 </r>
       <r>    0.9335    1.0000 </r>
       <r>    1.0227    1.0000 </r>
       <r>    1.0415    1.0000 </r>
       <r>    1.0834    1.0000 </r>
       <r>    1.1792    1.0000 </r>
       <r>    1.1878    1.0000 </r>
       <r>    1.3006    1.0000 </r>
       <r>    1.3226    1.0000 </r>
       <r>    1.3781    1.0000 </r>
       <r>    1.4878    1.0000 </r>
       <r>    1.4923    1.0000 </r>
       <r>    1.5543    1.0000 </r>
       <r>    1.5773    1.0000 </r>
       <r>    1.6062    1.0000 </r>
       <r>    1.7034    1.0000 </r>
       <r>    1.7380    1.0000 </r>
       <r>    1.8047    1.0000 </r>
       <r>    1.8701    1.0000 </r>
       <r>    1.9514    1.0000 </r>
       <r>    1.9724    1.0000 </r>
       <r>    2.0202    1.0000 </r>
       <r>    2.0808    1.0000 </r>
       <r>    2.1592    1.0000 </r>
       <r>    2.2013    1.0000 </r>
       <r>    2.2086    1.0000 </r>
       <r>    2.2900    1.0000 </r>
       <r>    2.3639    1.0000 </r>
       <r>    2.3812    1.0000 </r>
       <r>    2.4282    1.0000 </r>
       <r>    2.4579    1.0000 </r>
       <r>    2.4743    1.0000 </r>
       <r>    2.5011    1.0000 </r>
       <r>    2.5256    1.0000 </r>
       <r>    2.5323    1.0000 </r>
       <r>    2.5545    1.0000 </r>
       <r>    2.5720    1.0000 </r>
       <r>    2.5994    1.0000 </r>
       <r>    2.6332    1.0000 </r>
       <r>    2.6509    1.0000 </r>
       <r>    2.7664    1.0000 </r>
       <r>    2.7842    1.0000 </r>
       <r>    2.7939    1.0000 </r>
       <r>    2.8563    1.0000 </r>
       <r>    2.8711    1.0000 </r>
       <r>    2.9061    1.0000 </r>
       <r>    2.9361    1.0000 </r>
       <r>    2.9582    1.0000 </r>
       <r>    3.0034    1.0000 </r>
       <r>    3.0191    1.0000 </r>
       <r>    3.0468    1.0000 </r>
       <r>    3.0709    1.0000 </r>
       <r>    3.1485    1.0000 </r>
       <r>    3.2159    1.0000 </r>
       <r>    3.3207    1.0000 </r>
       <r>    3.3397    1.0000 </r>
       <r>    3.3602    1.0000 </r>
       <r>    3.3920    1.0000 </r>
       <r>    3.4558    1.0000 </r>
       <r>    3.4815    1.0000 </r>
       <r>    3.5002    1.0000 </r>
       <r>    3.5359    1.0000 </r>
       <r>    3.6925    1.0000 </r>
       <r>    3.7598    1.0000 </r>
       <r>    4.2200    1.0000 </r>
       <r>    4.2212    1.0000 </r>
       <r>    4.2717    1.0000 </r>
       <r>    4.2829    1.0000 </r>
       <r>    5.0515    0.0000 </r>
       <r>    5.0536    0.0000 </r>
       <r>    5.2227    0.0000 </r>
       <r>    5.2250    0.0000 </r>
       <r>    5.6831    0.0000 </r>
       <r>    5.6896    0.0000 </r>
       <r>    5.7932    0.0000 </r>
       <r>    5.7980    0.0000 </r>
       <r>    6.1539    0.0000 </r>
       <r>    6.1556    0.0000 </r>
       <r>    6.1837    0.0000 </r>
       <r>    6.1911    0.0000 </r>
       <r>    6.2429    0.0000 </r>
       <r>    6.2544    0.0000 </r>
       <r>    6.2725    0.0000 </r>
       <r>    6.2813    0.0000 </r>
       <r>    6.5898    0.0000 </r>
       <r>    6.6942    0.0000 </r>
       <r>    6.8718    0.0000 </r>
       <r>    6.9526    0.0000 </r>
       <r>    7.1420    0.0000 </r>
       <r>    7.2308    0.0000 </r>
       <r>    7.4054    0.0000 </r>
       <r>    7.5261    0.0000 </r>
       <r>    7.7485    0.0000 </r>
       <r>    7.8326    0.0000 </r>
       <r>    7.8634    0.0000 </r>
       <r>    7.9223    0.0000 </r>
       <r>    8.0074    0.0000 </r>
       <r>    8.3680    0.0000 </r>
       <r>    8.3929    0.0000 </r>
       <r>    8.4092    0.0000 </r>
       <r>    8.5735    0.0000 </r>
       <r>    8.7465    0.0000 </r>
       <r>    8.8493    0.0000 </r>
       <r>    8.8824    0.0000 </r>
       <r>    8.9483    0.0000 </r>
       <r>    9.0319    0.0000 </r>
       <r>    9.0387    0.0000 </r>
       <r>    9.0470    0.0000 </r>
       <r>    9.0781    0.0000 </r>
       <r>    9.1122    0.0000 </r>
       <r>    9.1263    0.0000 </r>
       <r>    9.2108    0.0000 </r>
       <r>    9.4578    0.0000 </r>
       <r>    9.4844    0.0000 </r>
       <r>    9.5984    0.0000 </r>
       <r>    9.6699    0.0000 </r>
       <r>    9.7130    0.0000 </r>
       <r>    9.7925    0.0000 </r>
      </set>
      <set comment="kpoint 4">
       <r>  -40.6106    1.0000 </r>
       <r>  -40.3056    1.0000 </r>
       <r>  -39.8625    1.0000 </r>
       <r>  -39.6838    1.0000 </r>
       <r>  -39.5677    1.0000 </r>
       <r>  -39.1352    1.0000 </r>
       <r>  -19.0468    1.0000 </r>
       <r>  -19.0352    1.0000 </r>
       <r>  -18.9689    1.0000 </r>
       <r>  -18.9632    1.0000 </r>
       <r>  -18.9587    1.0000 </r>
       <r>  -18.9556    1.0000 </r>
       <r>  -18.9528    1.0000 </r>
       <r>  -18.9462    1.0000 </r>
       <r>  -18.8831    1.0000 </r>
       <r>  -18.8799    1.0000 </r>
       <r>  -18.8752    1.0000 </r>
       <r>  -18.8722    1.0000 </r>
       <r>  -18.8669    1.0000 </r>
       <r>  -18.8621    1.0000 </r>
       <r>  -18.8602    1.0000 </r>
       <r>  -18.8421    1.0000 </r>
       <r>  -18.7851    1.0000 </r>
       <r>  -18.7820    1.0000 </r>
       <r>  -18.7629    1.0000 </r>
       <r>  -18.7592    1.0000 </r>
       <r>  -18.7563    1.0000 </r>
       <r>  -18.7468    1.0000 </r>
       <r>  -18.7390    1.0000 </r>
       <r>  -18.7290    1.0000 </r>
       <r>  -18.7189    1.0000 </r>
       <r>  -18.7096    1.0000 </r>
       <r>  -18.6778    1.0000 </r>
       <r>  -18.6740    1.0000 </r>
       <r>  -18.6642    1.0000 </r>
       <r>  -18.6605    1.0000 </r>
       <r>  -18.6598    1.0000 </r>
       <r>  -18.6576    1.0000 </r>
       <r>  -18.6499    1.0000 </r>
       <r>  -18.6471    1.0000 </r>
       <r>  -18.6460    1.0000 </r>
       <r>  -18.6424    1.0000 </r>
       <r>  -18.6316    1.0000 </r>
       <r>  -18.6291    1.0000 </r>
       <r>  -18.6075    1.0000 </r>
       <r>  -18.6042    1.0000 </r>
       <r>  -18.6036    1.0000 </r>
       <r>  -18.5948    1.0000 </r>
       <r>  -18.5928    1.0000 </r>
       <r>  -18.5886    1.0000 </r>
       <r>  -18.5852    1.0000 </r>
       <r>  -18.5801    1.0000 </r>
       <r>  -18.5784    1.0000 </r>
       <r>  -18.5486    1.0000 </r>
       <r>  -18.5223    1.0000 </r>
       <r>  -18.5147    1.0000 </r>
       <r>  -18.5110    1.0000 </r>
       <r>  -18.5062    1.0000 </r>
       <r>  -18.4948    1.0000 </r>
       <r>  -18.4931    1.0000 </r>
       <r>  -18.4745    1.0000 </r>
       <r>  -18.4711    1.0000 </r>
       <r>  -18.4526    1.0000 </r>
       <r>  -18.4483    1.0000 </r>
       <r>  -18.4346    1.0000 </r>
       <r>  -18.4325    1.0000 </r>
       <r>  -18.4284    1.0000 </r>
       <r>  -18.4202    1.0000 </r>
       <r>  -18.4174    1.0000 </r>
       <r>  -18.4051    1.0000 </r>
       <r>  -18.3587    1.0000 </r>
       <r>  -18.3541    1.0000 </r>
       <r>  -18.3481    1.0000 </r>
       <r>  -18.3461    1.0000 </r>
       <r>  -18.3363    1.0000 </r>
       <r>  -18.3250    1.0000 </r>
       <r>  -18.2686    1.0000 </r>
       <r>  -18.2622    1.0000 </r>
       <r>  -18.2254    1.0000 </r>
       <r>  -18.2169    1.0000 </r>
       <r>  -18.2111    1.0000 </r>
       <r>  -18.1894    1.0000 </r>
       <r>  -18.1594    1.0000 </r>
       <r>  -18.1528    1.0000 </r>
       <r>  -18.1327    1.0000 </r>
       <r>  -18.1272    1.0000 </r>
       <r>  -13.7376    1.0000 </r>
       <r>  -13.6242    1.0000 </r>
       <r>  -13.5385    1.0000 </r>
[...]
       <r>    8.8131    0.0000 </r>
       <r>    8.8242    0.0000 </r>
       <r>    8.8671    0.0000 </r>
       <r>    8.8974    0.0000 </r>
       <r>    8.9175    0.0000 </r>
       <r>    8.9424    0.0000 </r>
       <r>    8.9701    0.0000 </r>
       <r>    9.4413    0.0000 </r>
       <r>    9.7245    0.0000 </r>
      </set>
     </set>
    </set>
   </array>
  </eigenvalues>
  <separator name="orbital magnetization" >
   <v name="MAGDIPOLOUT">      0.00000000      0.00000000      0.00000000</v>
  </separator>
  <dos>
   <i name="efermi">      4.29876229 </i>
   <total>
    <array>
     <dimension dim="1">gridpoints</dimension>
     <dimension dim="2">spin</dimension>
     <field>energy</field>
     <field>total</field>
     <field>integrated</field>
     <set>
      <set comment="spin 1">
       <r>   -43.1427     0.0000     0.0000 </r>
       <r>   -42.9570     0.0000     0.0000 </r>
       <r>   -42.7713     0.0000     0.0000 </r>
       <r>   -42.5856     0.0000     0.0000 </r>
       <r>   -42.3999     0.0000     0.0000 </r>
       <r>   -42.2143     0.0000     0.0000 </r>
       <r>   -42.0286     0.0000     0.0000 </r>
       <r>   -41.8429     0.0000     0.0000 </r>
       <r>   -41.6572     0.0000     0.0000 </r>
       <r>   -41.4715     0.0000     0.0000 </r>
       <r>   -41.2859     0.0000     0.0000 </r>
       <r>   -41.1002     0.0000     0.0000 </r>
       <r>   -40.9145     0.0000     0.0000 </r>
       <r>   -40.7288     0.0000     0.0000 </r>
       <r>   -40.5431     0.0000     2.0000 </r>
       <r>   -40.3575     0.0000     2.0000 </r>
       <r>   -40.1718     0.0000     4.0000 </r>
       <r>   -39.9861     0.0000     4.0000 </r>
       <r>   -39.8004     0.0000     6.0000 </r>
       <r>   -39.6147     0.0000     8.0000 </r>
       <r>   -39.4290     0.0000    10.0000 </r>
       <r>   -39.2434     0.0000    10.0000 </r>
       <r>   -39.0577     0.0000    12.0000 </r>
       <r>   -38.8720     0.0000    12.0000 </r>
       <r>   -38.6863     0.0000    12.0000 </r>
       <r>   -38.5006     0.0000    12.0000 </r>
       <r>   -38.3150     0.0000    12.0000 </r>
       <r>   -38.1293     0.0000    12.0000 </r>
       <r>   -37.9436     0.0000    12.0000 </r>
       <r>   -37.7579     0.0000    12.0000 </r>
       <r>   -37.5722     0.0000    12.0000 </r>
       <r>   -37.3866     0.0000    12.0000 </r>
       <r>   -37.2009     0.0000    12.0000 </r>
       <r>   -37.0152     0.0000    12.0000 </r>
       <r>   -36.8295     0.0000    12.0000 </r>
       <r>   -36.6438     0.0000    12.0000 </r>
       <r>   -36.4582     0.0000    12.0000 </r>
       <r>   -36.2725     0.0000    12.0000 </r>
       <r>   -36.0868     0.0000    12.0000 </r>
       <r>   -35.9011     0.0000    12.0000 </r>
       <r>   -35.7154     0.0000    12.0000 </r>
       <r>   -35.5298     0.0000    12.0000 </r>
       <r>   -35.3441     0.0000    12.0000 </r>
       <r>   -35.1584     0.0000    12.0000 </r>
       <r>   -34.9727     0.0000    12.0000 </r>
       <r>   -34.7870     0.0000    12.0000 </r>
       <r>   -34.6014     0.0000    12.0000 </r>
       <r>   -34.4157     0.0000    12.0000 </r>
       <r>   -34.2300     0.0000    12.0000 </r>
       <r>   -34.0443     0.0000    12.0000 </r>
       <r>   -33.8586     0.0000    12.0000 </r>
       <r>   -33.6729     0.0000    12.0000 </r>
       <r>   -33.4873     0.0000    12.0000 </r>
       <r>   -33.3016     0.0000    12.0000 </r>
       <r>   -33.1159     0.0000    12.0000 </r>
       <r>   -32.9302     0.0000    12.0000 </r>
       <r>   -32.7445     0.0000    12.0000 </r>
       <r>   -32.5589     0.0000    12.0000 </r>
       <r>   -32.3732     0.0000    12.0000 </r>
       <r>   -32.1875     0.0000    12.0000 </r>
       <r>   -32.0018     0.0000    12.0000 </r>
       <r>   -31.8161     0.0000    12.0000 </r>
       <r>   -31.6305     0.0000    12.0000 </r>
       <r>   -31.4448     0.0000    12.0000 </r>
       <r>   -31.2591     0.0000    12.0000 </r>
       <r>   -31.0734     0.0000    12.0000 </r>
       <r>   -30.8877     0.0000    12.0000 </r>
       <r>   -30.7021     0.0000    12.0000 </r>
       <r>   -30.5164     0.0000    12.0000 </r>
       <r>   -30.3307     0.0000    12.0000 </r>
       <r>   -30.1450     0.0000    12.0000 </r>
       <r>   -29.9593     0.0000    12.0000 </r>
       <r>   -29.7737     0.0000    12.0000 </r>
       <r>   -29.5880     0.0000    12.0000 </r>
       <r>   -29.4023     0.0000    12.0000 </r>
       <r>   -29.2166     0.0000    12.0000 </r>
       <r>   -29.0309     0.0000    12.0000 </r>
       <r>   -28.8452     0.0000    12.0000 </r>
       <r>   -28.6596     0.0000    12.0000 </r>
       <r>   -28.4739     0.0000    12.0000 </r>
       <r>   -28.2882     0.0000    12.0000 </r>
       <r>   -28.1025     0.0000    12.0000 </r>
       <r>   -27.9168     0.0000    12.0000 </r>
       <r>   -27.7312     0.0000    12.0000 </r>
       <r>   -27.5455     0.0000    12.0000 </r>
       <r>   -27.3598     0.0000    12.0000 </r>
       <r>   -27.1741     0.0000    12.0000 </r>
       <r>   -26.9884     0.0000    12.0000 </r>
       <r>   -26.8028     0.0000    12.0000 </r>
       <r>   -26.6171     0.0000    12.0000 </r>
       <r>   -26.4314     0.0000    12.0000 </r>
       <r>   -26.2457     0.0000    12.0000 </r>
       <r>   -26.0600     0.0000    12.0000 </r>
       <r>   -25.8744     0.0000    12.0000 </r>
       <r>   -25.6887     0.0000    12.0000 </r>
       <r>   -25.5030     0.0000    12.0000 </r>
       <r>   -25.3173     0.0000    12.0000 </r>
       <r>   -25.1316     0.0000    12.0000 </r>
       <r>   -24.9460     0.0000    12.0000 </r>
       <r>   -24.7603     0.0000    12.0000 </r>
       <r>   -24.5746     0.0000    12.0000 </r>
       <r>   -24.3889     0.0000    12.0000 </r>
       <r>   -24.2032     0.0000    12.0000 </r>
       <r>   -24.0175     0.0000    12.0000 </r>
       <r>   -23.8319     0.0000    12.0000 </r>
       <r>   -23.6462     0.0000    12.0000 </r>
       <r>   -23.4605     0.0000    12.0000 </r>
       <r>   -23.2748     0.0000    12.0000 </r>
       <r>   -23.0891     0.0000    12.0000 </r>
       <r>   -22.9035     0.0000    12.0000 </r>
       <r>   -22.7178     0.0000    12.0000 </r>
       <r>   -22.5321     0.0000    12.0000 </r>
       <r>   -22.3464     0.0000    12.0000 </r>
       <r>   -22.1607     0.0000    12.0000 </r>
       <r>   -21.9751     0.0000    12.0000 </r>
       <r>   -21.7894     0.0000    12.0000 </r>
       <r>   -21.6037     0.0000    12.0000 </r>
       <r>   -21.4180     0.0000    12.0000 </r>
       <r>   -21.2323     0.0000    12.0000 </r>
       <r>   -21.0467     0.0000    12.0000 </r>
       <r>   -20.8610     0.0000    12.0000 </r>
       <r>   -20.6753     0.0000    12.0000 </r>
       <r>   -20.4896     0.0000    12.0000 </r>
       <r>   -20.3039     0.0000    12.0000 </r>
       <r>   -20.1183     0.0000    12.0000 </r>
       <r>   -19.9326     0.0000    12.0000 </r>
       <r>   -19.7469     0.0000    12.0000 </r>
       <r>   -19.5612     0.0000    12.0000 </r>
       <r>   -19.3755     0.0000    12.0000 </r>
       <r>   -19.1898     0.0000    12.0000 </r>
       <r>   -19.0042     0.0000    16.0000 </r>
       <r>   -18.8185     0.0000    44.0000 </r>
       <r>   -18.6328     0.0000    84.0000 </r>
       <r>   -18.4471     0.0000   128.0000 </r>
       <r>   -18.2614     0.0000   156.0000 </r>
       <r>   -18.0758     0.0000   172.0000 </r>
       <r>   -17.8901     0.0000   172.0000 </r>
       <r>   -17.7044     0.0000   172.0000 </r>
       <r>   -17.5187     0.0000   172.0000 </r>
       <r>   -17.3330     0.0000   172.0000 </r>
       <r>   -17.1474     0.0000   172.0000 </r>
       <r>   -16.9617     0.0000   172.0000 </r>
       <r>   -16.7760     0.0000   172.0000 </r>
       <r>   -16.5903     0.0000   172.0000 </r>
       <r>   -16.4046     0.0000   172.0000 </r>
       <r>   -16.2190     0.0000   172.0000 </r>
       <r>   -16.0333     0.0000   172.0000 </r>
       <r>   -15.8476     0.0000   172.0000 </r>
       <r>   -15.6619     0.0000   172.0000 </r>
       <r>   -15.4762     0.0000   172.0000 </r>
       <r>   -15.2906     0.0000   172.0000 </r>
       <r>   -15.1049     0.0000   172.0000 </r>
       <r>   -14.9192     0.0000   172.0000 </r>
       <r>   -14.7335     0.0000   172.0000 </r>
       <r>   -14.5478     0.0000   172.0000 </r>
       <r>   -14.3622     0.0000   172.0000 </r>
       <r>   -14.1765     0.0000   172.0000 </r>
       <r>   -13.9908     0.0000   172.0000 </r>
       <r>   -13.8051     0.0000   172.0000 </r>
       <r>   -13.6194     0.0000   176.0000 </r>
       <r>   -13.4337     0.0000   180.0000 </r>
       <r>   -13.2481     0.0000   180.0000 </r>
       <r>   -13.0624     0.0000   180.0000 </r>
       <r>   -12.8767     0.0000   182.0000 </r>
       <r>   -12.6910     0.0000   190.0000 </r>
       <r>   -12.5053     0.0000   196.0000 </r>
       <r>   -12.3197     0.0000   196.0000 </r>
       <r>   -12.1340     0.0000   196.0000 </r>
       <r>   -11.9483     0.0000   200.0000 </r>
       <r>   -11.7626     0.0000   204.0000 </r>
       <r>   -11.5769     0.0000   204.0000 </r>
       <r>   -11.3913     0.0000   204.0000 </r>
       <r>   -11.2056     0.0000   204.0000 </r>
       <r>   -11.0199     0.0000   204.0000 </r>
       <r>   -10.8342     0.0000   204.0000 </r>
       <r>   -10.6485     0.0000   204.0000 </r>
       <r>   -10.4629     0.0000   204.0000 </r>
       <r>   -10.2772     0.0000   204.0000 </r>
       <r>   -10.0915     0.0000   204.0000 </r>
       <r>    -9.9058     0.0000   204.0000 </r>
       <r>    -9.7201     0.0000   204.0000 </r>
       <r>    -9.5345     0.0000   204.0000 </r>
       <r>    -9.3488     3.7235   204.0569 </r>
       <r>    -9.1631     4.8400   205.9060 </r>
       <r>    -8.9774     6.0037   208.0229 </r>
       <r>    -8.7917    18.5244   210.1414 </r>
       <r>    -8.6060    14.6746   212.6337 </r>
       <r>    -8.4204    14.8094   216.9041 </r>
       <r>    -8.2347    25.1859   220.5021 </r>
       <r>    -8.0490    43.0165   223.9792 </r>
       <r>    -7.8633    19.1844   228.4925 </r>
       <r>    -7.6776    17.7648   231.8943 </r>
       <r>    -7.4920    17.2302   235.0264 </r>
       <r>    -7.3063     0.0000   236.0000 </r>
       <r>    -7.1206     0.0000   236.0000 </r>
       <r>    -6.9349     0.0000   236.0000 </r>
       <r>    -6.7492     0.0000   236.0000 </r>
       <r>    -6.5636     0.0000   236.0000 </r>
       <r>    -6.3779     3.9104   236.0668 </r>
       <r>    -6.1922    26.0627   239.1135 </r>
       <r>    -6.0065    18.4044   243.3214 </r>
       <r>    -5.8208    18.2874   245.8659 </r>
       <r>    -5.6352    20.9737   250.4602 </r>
       <r>    -5.4495    17.6328   253.9168 </r>
       <r>    -5.2638    17.0337   257.7141 </r>
       <r>    -5.0781     4.2437   259.8714 </r>
       <r>    -4.8924     7.1806   260.6883 </r>
       <r>    -4.7068     8.9583   262.2129 </r>
       <r>    -4.5211     7.1199   263.8933 </r>
       <r>    -4.3354     6.4925   265.2883 </r>
       <r>    -4.1497     6.5271   266.5388 </r>
       <r>    -3.9640     3.6136   267.5021 </r>
       <r>    -3.7783     1.1725   267.9086 </r>
       <r>    -3.5927     0.0039   268.0000 </r>
       <r>    -3.4070     0.0000   268.0000 </r>
       <r>    -3.2213     0.0000   268.0000 </r>
       <r>    -3.0356     0.0000   268.0000 </r>
       <r>    -2.8499     0.0000   268.0000 </r>
       <r>    -2.6643     0.0000   268.0000 </r>
       <r>    -2.4786     0.0000   268.0000 </r>
       <r>    -2.2929     0.0000   268.0000 </r>
       <r>    -2.1072     0.0000   268.0000 </r>
       <r>    -1.9215     0.0000   268.0000 </r>
       <r>    -1.7359     0.0000   268.0000 </r>
       <r>    -1.5502     0.0526   268.0004 </r>
       <r>    -1.3645     4.4960   268.3355 </r>
       <r>    -1.1788    10.9614   269.8032 </r>
       <r>    -0.9931    13.0485   271.9916 </r>
       <r>    -0.8075     9.7607   274.1485 </r>
       <r>    -0.6218    11.5518   275.5317 </r>
       <r>    -0.4361    21.5640   278.6674 </r>
       <r>    -0.2504    27.8474   283.0914 </r>
       <r>    -0.0647    35.6142   289.7142 </r>
       <r>     0.1209    24.3613   295.8585 </r>
       <r>     0.3066    34.9475   301.8513 </r>
       <r>     0.4923    41.4756   308.4749 </r>
       <r>     0.6780    35.8774   316.0007 </r>
       <r>     0.8637    45.2885   324.5416 </r>
       <r>     1.0493    22.5584   331.9181 </r>
       <r>     1.2350    21.5804   339.5721 </r>
       <r>     1.4207    41.9159   348.3727 </r>
       <r>     1.6064    59.2842   356.9376 </r>
       <r>     1.7921    43.2244   364.7232 </r>
       <r>     1.9778    40.1847   371.6261 </r>
       <r>     2.1634    41.2199   379.5732 </r>
       <r>     2.3491    51.4141   388.7890 </r>
       <r>     2.5348    61.0776   399.0228 </r>
       <r>     2.7205    55.3514   409.3636 </r>
       <r>     2.9062    58.7074   420.6811 </r>
       <r>     3.0918    49.8556   430.8918 </r>
       <r>     3.2775    36.4265   439.5563 </r>
       <r>     3.4632    37.5022   446.7312 </r>
       <r>     3.6489    24.7760   451.7479 </r>
       <r>     3.8346    19.2244   455.1557 </r>
       <r>     4.0202    13.2389   458.5620 </r>
       <r>     4.2059     1.9512   459.9506 </r>
       <r>     4.3916     0.0000   460.0000 </r>
       <r>     4.5773     0.0000   460.0000 </r>
       <r>     4.7630     0.0000   460.0000 </r>
       <r>     4.9486     0.0000   460.0000 </r>
       <r>     5.1343     1.3908   460.0878 </r>
       <r>     5.3200     5.3528   460.6621 </r>
       <r>     5.5057    10.0468   462.1030 </r>
       <r>     5.6914    10.0196   463.8339 </r>
       <r>     5.8770    25.9248   467.2322 </r>
       <r>     6.0627    12.6793   470.1988 </r>
       <r>     6.2484    11.8625   472.4033 </r>
       <r>     6.4341    14.3251   474.8266 </r>
       <r>     6.6198    16.7033   477.7158 </r>
       <r>     6.8055    19.0340   481.0262 </r>
       <r>     6.9911    22.9476   484.8761 </r>
       <r>     7.1768    28.7633   489.6304 </r>
       <r>     7.3625    35.2808   495.3740 </r>
       <r>     7.5482    24.9100   501.2520 </r>
       <r>     7.7339    43.6450   507.0512 </r>
       <r>     7.9195    46.0871   516.2855 </r>
       <r>     8.1052    24.5195   522.3892 </r>
       <r>     8.2909    18.9735   526.3394 </r>
       <r>     8.4766    21.7798   530.0357 </r>
       <r>     8.6623    27.8037   534.6302 </r>
       <r>     8.8479    44.7277   541.3460 </r>
       <r>     9.0336    25.4565   548.2531 </r>
       <r>     9.2193    16.8996   551.8189 </r>
       <r>     9.4050    16.1892   554.8285 </r>
       <r>     9.5907    12.7168   557.4541 </r>
       <r>     9.7763     7.0383   559.2365 </r>
       <r>     9.9620     0.6303   559.9858 </r>
       <r>    10.1477     0.0000   560.0000 </r>
       <r>    10.3334     0.0000   560.0000 </r>
       <r>    10.5191     0.0000   560.0000 </r>
       <r>    10.7047     0.0000   560.0000 </r>
       <r>    10.8904     0.0000   560.0000 </r>
       <r>    11.0761     0.0000   560.0000 </r>
       <r>    11.2618     0.0000   560.0000 </r>
       <r>    11.4475     0.0000   560.0000 </r>
       <r>    11.6332     0.0000   560.0000 </r>
       <r>    11.8188     0.0000   560.0000 </r>
       <r>    12.0045     0.0000   560.0000 </r>
       <r>    12.1902     0.0000   560.0000 </r>
       <r>    12.3759     0.0000   560.0000 </r>
       <r>    12.5616     0.0000   560.0000 </r>
      </set>
     </set>
    </array>
   </total>
  </dos>
 </calculation>
 <structure name="finalpos" >
  <crystal>
   <varray name="basis" >
    <v>      11.17850000       0.00000000       0.00000000 </v>
    <v>       0.00000000       9.57460000       0.00000000 </v>
    <v>       0.00000000       0.00000000      11.18240000 </v>
   </varray>
   <i name="volume">   1196.84853820 </i>
   <varray name="rec_basis" >
    <v>       0.08945744       0.00000000       0.00000000 </v>
    <v>       0.00000000       0.10444301       0.00000000 </v>
    <v>       0.00000000       0.00000000       0.08942624 </v>
   </varray>
  </crystal>
  <varray name="positions" >
   <v>       0.37539000       0.00017000       0.43687000 </v>
   <v>       0.12461000       0.99984000       0.18687000 </v>
   <v>       0.37461000       0.00017000       0.18687000 </v>
   <v>       0.62539000       0.99984000       0.43687000 </v>
   <v>       0.62461000       0.99984000       0.18687000 </v>
   <v>       0.37461000       0.00017000       0.68687000 </v>
   <v>       0.87539000       0.00017000       0.43687000 </v>
   <v>       0.37539000       0.00017000       0.93687000 </v>
   <v>       0.12461000       0.99984000       0.68687000 </v>
   <v>       0.87539000       0.00017000       0.93687000 </v>
   <v>       0.62461000       0.99984000       0.68687000 </v>
   <v>       0.00013000       0.29519000       0.06281000 </v>
   <v>       0.25013000       0.70481000       0.06281000 </v>
   <v>       0.24987000       0.29519000       0.31282000 </v>
   <v>       0.49987000       0.70481000       0.31282000 </v>
   <v>       0.50013000       0.29519000       0.06281000 </v>
   <v>       0.75013000       0.70481000       0.06281000 </v>
   <v>       0.74987000       0.29519000       0.31282000 </v>
   <v>       0.99987000       0.70481000       0.31282000 </v>
   <v>       0.00013000       0.29519000       0.56281000 </v>
   <v>       0.25013000       0.70481000       0.56281000 </v>
   <v>       0.24987000       0.29519000       0.81282000 </v>
   <v>       0.49987000       0.70481000       0.81282000 </v>
   <v>       0.50013000       0.29519000       0.56281000 </v>
   <v>       0.75013000       0.70481000       0.56281000 </v>
   <v>       0.74987000       0.29519000       0.81282000 </v>
   <v>       0.99987000       0.70481000       0.81282000 </v>
   <v>       0.25005000       0.32677000       0.06286000 </v>
   <v>       0.00005000       0.67323000       0.06286000 </v>
   <v>       0.49995000       0.32677000       0.31286000 </v>
   <v>       0.24995000       0.67323000       0.31286000 </v>
   <v>       0.75005000       0.32677000       0.06286000 </v>
   <v>       0.50005000       0.67323000       0.06286000 </v>
   <v>       0.99995000       0.32677000       0.31286000 </v>
   <v>       0.74995000       0.67323000       0.31286000 </v>
   <v>       0.25005000       0.32677000       0.56286000 </v>
   <v>       0.00005000       0.67323000       0.56286000 </v>
   <v>       0.49995000       0.32677000       0.81286000 </v>
   <v>       0.24995000       0.67323000       0.81286000 </v>
   <v>       0.75005000       0.32677000       0.56286000 </v>
   <v>       0.50005000       0.67323000       0.56286000 </v>
   <v>       0.99995000       0.32677000       0.81286000 </v>
   <v>       0.74995000       0.67323000       0.81286000 </v>
   <v>       0.49987000       0.07798000       0.06246000 </v>
   <v>       0.24987000       0.92202000       0.06246000 </v>
   <v>       0.25013000       0.07798000       0.31246000 </v>
   <v>       0.00013000       0.92202000       0.31246000 </v>
   <v>       0.99987000       0.07798000       0.06246000 </v>
   <v>       0.74987000       0.92202000       0.06246000 </v>
   <v>       0.75013000       0.07798000       0.31246000 </v>
   <v>       0.50013000       0.92202000       0.31246000 </v>
   <v>       0.49987000       0.07798000       0.56246000 </v>
   <v>       0.24987000       0.92202000       0.56246000 </v>
   <v>       0.25013000       0.07798000       0.81246000 </v>
   <v>       0.00013000       0.92202000       0.81246000 </v>
   <v>       0.99987000       0.07798000       0.56246000 </v>
   <v>       0.74987000       0.92202000       0.56246000 </v>
   <v>       0.75013000       0.07798000       0.81246000 </v>
   <v>       0.50013000       0.92202000       0.81246000 </v>
  </varray>
 </structure>
</modeling>
