<?xml version="1.0" encoding="ISO-8859-1"?>
<modeling>
 <generator>
  <i name="program" type="string">vasp </i>
  <i name="version" type="string">5.4.4.18Apr17-6-g9f103f2a35  </i>
  <i name="subversion" type="string">(build Jul 31 2017 11:33:29) complex            parallel </i>
  <i name="platform" type="string">LinuxIFC </i>
  <i name="date" type="string">2021 09 29 </i>
  <i name="time" type="string">07:09:43 </i>
 </generator>
 <incar>
  <i type="string" name="SYSTEM"> La2O2S</i>
  <i type="string" name="PREC">normal</i>
  <i type="int" name="NELMIN">     4</i>
  <i type="int" name="IBRION">     2</i>
  <i type="int" name="NFREE">    10</i>
  <i name="EDIFF">      0.00000100</i>
  <i name="EDIFFG">     -0.01000000</i>
  <i type="int" name="NSW">     1</i>
  <i type="int" name="ISIF">     2</i>
  <i name="ENCUT">    600.00000000</i>
  <i name="ENAUG">    900.00000000</i>
  <i type="int" name="ISMEAR">    -5</i>
  <i type="logical" name="LWAVE"> F  </i>
  <i type="logical" name="LCHARG"> F  </i>
  <v type="int" name="KPOINT_BSE">    -1     0     0     0</v>
 </incar>
 <structure name="primitive_cell" >
  <crystal>
   <varray name="basis" >
    <v>      -5.58925000       0.00000000       5.59120000 </v>
    <v>      -5.58925000       0.00000000      -5.59120000 </v>
    <v>       0.00000000      -9.57460000       0.00000000 </v>
   </varray>
   <i name="volume">    598.42426910 </i>
   <varray name="rec_basis" >
    <v>      -0.08945744       0.00000000       0.08942624 </v>
    <v>      -0.08945744       0.00000000      -0.08942624 </v>
    <v>       0.00000000      -0.10444301       0.00000000 </v>
   </varray>
  </crystal>
  <varray name="positions" >
   <v>       0.06226000      -0.31148000       0.00016000 </v>
   <v>       0.06259000      -0.06233000      -0.07798000 </v>
   <v>      -0.18741000      -0.31233000       0.07798000 </v>
   <v>       0.31233000      -0.31259000       0.07798000 </v>
   <v>       0.06233000       0.43741000      -0.07798000 </v>
   <v>      -0.18774000       0.43852000      -0.00017000 </v>
   <v>       0.31226000      -0.06148000      -0.00017000 </v>
   <v>      -0.18852000      -0.06226000       0.00016000 </v>
   <v>       0.06268000      -0.06294000      -0.29519000 </v>
   <v>      -0.18732000      -0.31294000       0.29519000 </v>
   <v>       0.31295000      -0.31269000       0.29519000 </v>
   <v>       0.06295000       0.43731000      -0.29519000 </v>
   <v>       0.06281000      -0.06291000       0.32677000 </v>
   <v>      -0.18719000      -0.31291000      -0.32677000 </v>
   <v>       0.31291000      -0.31281000      -0.32677000 </v>
   <v>       0.06291000       0.43719000       0.32677000 </v>
   <v>      -0.43852000      -0.31226000      -0.00017000 </v>
   <v>       0.06148000       0.18774000      -0.00017000 </v>
   <v>      -0.18767000       0.18741000       0.07798000 </v>
   <v>       0.31259000       0.18767000       0.07798000 </v>
   <v>      -0.43767000      -0.06259000      -0.07798000 </v>
   <v>      -0.43741000       0.43767000      -0.07798000 </v>
   <v>      -0.18705000       0.18731000       0.29519000 </v>
   <v>       0.31268000       0.18706000       0.29519000 </v>
   <v>      -0.43705000      -0.06269000      -0.29519000 </v>
   <v>      -0.43732000       0.43706000      -0.29519000 </v>
   <v>      -0.18709000       0.18719000      -0.32677000 </v>
   <v>      -0.43709000      -0.06281000       0.32677000 </v>
   <v>       0.31281000       0.18709000      -0.32677000 </v>
   <v>      -0.43719000       0.43709000       0.32677000 </v>
   <v>      -0.43774000       0.18852000       0.00016000 </v>
  </varray>
 </structure>
 <varray name="primitive_index" >
  <v type="int" >        1 </v>
  <v type="int" >       51 </v>
  <v type="int" >       48 </v>
  <v type="int" >       50 </v>
  <v type="int" >       49 </v>
  <v type="int" >        2 </v>
  <v type="int" >        6 </v>
  <v type="int" >        7 </v>
  <v type="int" >       15 </v>
  <v type="int" >       16 </v>
  <v type="int" >       22 </v>
  <v type="int" >       17 </v>
  <v type="int" >       32 </v>
  <v type="int" >       31 </v>
  <v type="int" >       37 </v>
  <v type="int" >       34 </v>
  <v type="int" >        4 </v>
  <v type="int" >       14 </v>
  <v type="int" >       58 </v>
  <v type="int" >       52 </v>
  <v type="int" >       53 </v>
  <v type="int" >       47 </v>
  <v type="int" >       30 </v>
  <v type="int" >       20 </v>
  <v type="int" >       25 </v>
  <v type="int" >       19 </v>
  <v type="int" >       45 </v>
  <v type="int" >       42 </v>
  <v type="int" >       35 </v>
  <v type="int" >       36 </v>
  <v type="int" >        5 </v>
 </varray>
 <kpoints>
  <generation param="Gamma">
   <v type="int" name="divisions">       2        2        2 </v>
   <v name="usershift">      0.00000000       0.00000000       0.00000000 </v>
   <v name="genvec1">      0.50000000       0.00000000       0.00000000 </v>
   <v name="genvec2">      0.00000000       0.50000000       0.00000000 </v>
   <v name="genvec3">      0.00000000       0.00000000       0.50000000 </v>
   <v name="shift">      0.00000000       0.00000000       0.00000000 </v>
  </generation>
  <varray name="kpointlist" >
   <v>       0.00000000       0.00000000       0.00000000 </v>
   <v>       0.50000000       0.00000000       0.00000000 </v>
   <v>       0.00000000       0.50000000       0.00000000 </v>
   <v>       0.50000000       0.50000000       0.00000000 </v>
   <v>       0.00000000       0.00000000       0.50000000 </v>
   <v>       0.50000000       0.00000000       0.50000000 </v>
   <v>       0.00000000       0.50000000       0.50000000 </v>
   <v>       0.50000000       0.50000000       0.50000000 </v>
  </varray>
  <varray name="weights" >
   <v>       0.12500000 </v>
   <v>       0.12500000 </v>
   <v>       0.12500000 </v>
   <v>       0.12500000 </v>
   <v>       0.12500000 </v>
   <v>       0.12500000 </v>
   <v>       0.12500000 </v>
   <v>       0.12500000 </v>
  </varray>
  <varray name="tetrahedronlist"  type="int" >
   <v type="int" >        2        1        2        4        5 </v>
   <v type="int" >        2        1        3        4        5 </v>
   <v type="int" >        2        3        4        5        7 </v>
   <v type="int" >        2        2        4        5        6 </v>
   <v type="int" >        2        4        5        6        8 </v>
   <v type="int" >        2        4        5        7        8 </v>
   <v type="int" >        2        1        2        3        6 </v>
   <v type="int" >        2        2        3        4        6 </v>
   <v type="int" >        2        3        4        6        8 </v>
   <v type="int" >        2        1        3        5        6 </v>
   <v type="int" >        2        3        5        6        7 </v>
   <v type="int" >        2        3        6        7        8 </v>
   <v type="int" >        2        2        3        4        7 </v>
   <v type="int" >        2        1        2        3        7 </v>
   <v type="int" >        2        1        2        5        7 </v>
   <v type="int" >        2        2        4        7        8 </v>
   <v type="int" >        2        2        6        7        8 </v>
   <v type="int" >        2        2        5        6        7 </v>
   <v type="int" >        2        1        3        4        8 </v>
   <v type="int" >        2        1        2        4        8 </v>
   <v type="int" >        2        1        2        6        8 </v>
   <v type="int" >        2        1        3        7        8 </v>
   <v type="int" >        2        1        5        7        8 </v>
   <v type="int" >        2        1        5        6        8 </v>
  </varray>
  <i name="volumeweight">      0.02083333 </i>
 </kpoints>
 <parameters>
  <separator name="general" >
   <i type="string" name="SYSTEM">La2O2S</i>
   <i type="logical" name="LCOMPAT"> F  </i>
  </separator>
  <separator name="electronic" >
   <i type="string" name="PREC">normal</i>
   <i name="ENMAX">    600.00000000</i>
   <i name="ENAUG">    900.00000000</i>
   <i name="EDIFF">      0.00000100</i>
   <i type="int" name="IALGO">    38</i>
   <i type="int" name="IWAVPR">    11</i>
   <i type="int" name="NBANDS">   308</i>
   <i name="NELECT">    472.00000000</i>
   <i type="int" name="TURBO">     0</i>
   <i type="int" name="IRESTART">     0</i>
   <i type="int" name="NREBOOT">     0</i>
   <i type="int" name="NMIN">     0</i>
   <i name="EREF">      0.00000000</i>
   <separator name="electronic smearing" >
    <i type="int" name="ISMEAR">    -5</i>
    <i name="SIGMA">      0.20000000</i>
    <i name="KSPACING">      0.50000000</i>
    <i type="logical" name="KGAMMA"> T  </i>
   </separator>
   <separator name="electronic projectors" >
    <i type="logical" name="LREAL"> F  </i>
    <v name="ROPT">      0.00000000      0.00000000      0.00000000      0.00000000      0.00000000</v>
    <i type="int" name="LMAXPAW">  -100</i>
    <i type="int" name="LMAXMIX">     2</i>
    <i type="logical" name="NLSPLINE"> F  </i>
   </separator>
   <separator name="electronic startup" >
    <i type="int" name="ISTART">     0</i>
    <i type="int" name="ICHARG">     2</i>
    <i type="int" name="INIWAV">     1</i>
   </separator>
   <separator name="electronic spin" >
    <i type="int" name="ISPIN">     1</i>
    <i type="logical" name="LNONCOLLINEAR"> F  </i>
    <v name="MAGMOM">      1.00000000      1.00000000      1.00000000      1.00000000      1.00000000      1.00000000      1.00000000      1.00000000      1.00000000      1.00000000      1.00000000      1.00000000      1.00000000      1.00000000      1.00000000      1.00000000      1.00000000      1.00000000      1.00000000      1.00000000
      1.00000000      1.00000000      1.00000000      1.00000000      1.00000000      1.00000000      1.00000000      1.00000000      1.00000000      1.00000000      1.00000000      1.00000000      1.00000000      1.00000000      1.00000000      1.00000000      1.00000000      1.00000000      1.00000000      1.00000000
      1.00000000      1.00000000      1.00000000      1.00000000      1.00000000      1.00000000      1.00000000      1.00000000      1.00000000      1.00000000      1.00000000      1.00000000      1.00000000      1.00000000      1.00000000      1.00000000      1.00000000      1.00000000      1.00000000      1.00000000
      1.00000000      1.00000000</v>
    <i name="NUPDOWN">     -1.00000000</i>
    <i type="logical" name="LSORBIT"> F  </i>
    <v name="SAXIS">      0.00000000      0.00000000      1.00000000</v>
    <i type="logical" name="LSPIRAL"> F  </i>
    <v name="QSPIRAL">      0.00000000      0.00000000      0.00000000</v>
    <i type="logical" name="LZEROZ"> F  </i>
   </separator>
   <separator name="electronic exchange-correlation" >
    <i type="logical" name="LASPH"> F  </i>
    <i type="logical" name="LMETAGGA"> F  </i>
   </separator>
   <separator name="electronic convergence" >
    <i type="int" name="NELM">    60</i>
    <i type="int" name="NELMDL">    -5</i>
    <i type="int" name="NELMIN">     4</i>
    <i name="ENINI">    600.00000000</i>
    <separator name="electronic convergence detail" >
     <i type="logical" name="LDIAG"> T  </i>
     <i type="logical" name="LSUBROT"> F  </i>
     <i name="WEIMIN">      0.00100000</i>
     <i name="EBREAK">      0.00000000</i>
     <i name="DEPER">      0.30000000</i>
     <i type="int" name="NRMM">     4</i>
     <i name="TIME">      0.40000000</i>
    </separator>
   </separator>
   <separator name="electronic mixer" >
    <i name="AMIX">      0.40000000</i>
    <i name="BMIX">      1.00000000</i>
    <i name="AMIN">      0.10000000</i>
    <i name="AMIX_MAG">      1.60000000</i>
    <i name="BMIX_MAG">      1.00000000</i>
    <separator name="electronic mixer details" >
     <i type="int" name="IMIX">     4</i>
     <i type="logical" name="MIXFIRST"> F  </i>
     <i type="int" name="MAXMIX">   -45</i>
     <i name="WC">    100.00000000</i>
     <i type="int" name="INIMIX">     1</i>
     <i type="int" name="MIXPRE">     1</i>
     <i type="int" name="MREMOVE">     5</i>
    </separator>
   </separator>
   <separator name="electronic dipolcorrection" >
    <i type="logical" name="LDIPOL"> F  </i>
    <i type="logical" name="LMONO"> F  </i>
    <i type="int" name="IDIPOL">     0</i>
    <i name="EPSILON">      1.00000000</i>
    <v name="DIPOL">   -100.00000000   -100.00000000   -100.00000000</v>
    <i name="EFIELD">      0.00000000</i>
   </separator>
  </separator>
  <separator name="grids" >
   <i type="int" name="NGX">    70</i>
   <i type="int" name="NGY">    60</i>
   <i type="int" name="NGZ">    70</i>
   <i type="int" name="NGXF">   140</i>
   <i type="int" name="NGYF">   120</i>
   <i type="int" name="NGZF">   140</i>
   <i type="logical" name="ADDGRID"> F  </i>
  </separator>
  <separator name="ionic" >
   <i type="int" name="NSW">     1</i>
   <i type="int" name="IBRION">     2</i>
   <i type="int" name="MDALGO">     0</i>
   <i type="int" name="ISIF">     2</i>
   <i name="PSTRESS">      0.00000000</i>
   <i name="EDIFFG">     -0.01000000</i>
   <i type="int" name="NFREE">    10</i>
   <i name="POTIM">      0.50000000</i>
   <i name="SMASS">     -3.00000000</i>
   <i name="SCALEE">      1.00000000</i>
  </separator>
  <separator name="ionic md" >
   <i name="TEBEG">      0.00010000</i>
   <i name="TEEND">      0.00010000</i>
   <i type="int" name="NBLOCK">     1</i>
   <i type="int" name="KBLOCK">     1</i>
   <i type="int" name="NPACO">   256</i>
   <i name="APACO">     16.00000000</i>
  </separator>
  <separator name="symmetry" >
   <i type="int" name="ISYM">     2</i>
   <i name="SYMPREC">      0.00001000</i>
  </separator>
  <separator name="dos" >
   <i type="int" name="LORBIT">     0</i>
   <v name="RWIGS">     -1.00000000     -1.00000000     -1.00000000     -1.00000000     -1.00000000</v>
   <i type="int" name="NEDOS">   301</i>
   <i name="EMIN">     10.00000000</i>
   <i name="EMAX">    -10.00000000</i>
   <i name="EFERMI">      0.00000000</i>
  </separator>
  <separator name="writing" >
   <i type="int" name="NWRITE">     2</i>
   <i type="logical" name="LWAVE"> F  </i>
   <i type="logical" name="LDOWNSAMPLE"> F  </i>
   <i type="logical" name="LCHARG"> F  </i>
   <i type="logical" name="LPARD"> F  </i>
   <i type="logical" name="LVTOT"> F  </i>
   <i type="logical" name="LVHAR"> F  </i>
   <i type="logical" name="LELF"> F  </i>
   <i type="logical" name="LOPTICS"> F  </i>
   <v name="STM">      0.00000000      0.00000000      0.00000000      0.00000000      0.00000000      0.00000000      0.00000000</v>
  </separator>
  <separator name="performance" >
   <i type="int" name="NPAR">    28</i>
   <i type="int" name="NSIM">     4</i>
   <i type="int" name="NBLK">    -1</i>
   <i type="logical" name="LPLANE"> T  </i>
   <i type="logical" name="LSCALAPACK"> T  </i>
   <i type="logical" name="LSCAAWARE"> F  </i>
   <i type="logical" name="LSCALU"> F  </i>
   <i type="logical" name="LASYNC"> F  </i>
   <i type="logical" name="LORBITALREAL"> F  </i>
  </separator>
  <separator name="miscellaneous" >
   <i type="int" name="IDIOT">     3</i>
   <i type="int" name="ISPECIAL">     0</i>
   <i type="logical" name="LMUSIC"> F  </i>
   <v name="POMASS">      7.01000000     24.30500000    208.98000000     32.06600000     16.00000000</v>
   <v name="DARWINR">      0.00000000      0.00000000      0.00000000      0.00000000      0.00000000</v>
   <v name="DARWINV">      1.00000000      1.00000000      1.00000000      1.00000000      1.00000000</v>
   <i type="logical" name="LCORR"> T  </i>
  </separator>
  <i type="logical" name="GGA_COMPAT"> T  </i>
  <i type="logical" name="LBERRY"> F  </i>
  <i type="int" name="ICORELEVEL">     0</i>
  <i type="logical" name="LDAU"> F  </i>
  <i type="int" name="I_CONSTRAINED_M">     0</i>
  <separator name="electronic exchange-correlation" >
   <i type="string" name="GGA">--</i>
   <i type="int" name="VOSKOWN">     0</i>
   <i type="logical" name="LHFCALC"> F  </i>
   <i type="string" name="PRECFOCK"></i>
   <i type="logical" name="LSYMGRAD"> F  </i>
   <i type="logical" name="LHFONE"> F  </i>
   <i type="logical" name="LRHFCALC"> F  </i>
   <i type="logical" name="LTHOMAS"> F  </i>
   <i type="logical" name="LMODELHF"> F  </i>
   <i name="ENCUT4O">     -1.00000000</i>
   <i type="int" name="EXXOEP">     0</i>
   <i type="int" name="FOURORBIT">     0</i>
   <i name="AEXX">      0.00000000</i>
   <i name="HFALPHA">      0.00000000</i>
   <i name="MCALPHA">      0.00000000</i>
   <i name="ALDAX">      1.00000000</i>
   <i name="AGGAX">      1.00000000</i>
   <i name="ALDAC">      1.00000000</i>
   <i name="AGGAC">      1.00000000</i>
   <i type="int" name="NKREDX">     1</i>
   <i type="int" name="NKREDY">     1</i>
   <i type="int" name="NKREDZ">     1</i>
   <i type="logical" name="SHIFTRED"> F  </i>
   <i type="logical" name="ODDONLY"> F  </i>
   <i type="logical" name="EVENONLY"> F  </i>
   <i type="int" name="LMAXFOCK">     0</i>
   <i type="int" name="NMAXFOCKAE">     0</i>
   <i type="logical" name="LFOCKAEDFT"> F  </i>
   <i name="HFSCREEN">      0.00000000</i>
   <i name="HFSCREENC">      0.00000000</i>
   <i type="int" name="NBANDSGWLOW">     0</i>
  </separator>
  <separator name="vdW DFT" >
   <i type="logical" name="LUSE_VDW"> F  </i>
   <i name="Zab_VDW">     -0.84910000</i>
   <i name="PARAM1">      0.12340000</i>
   <i name="PARAM2">      1.00000000</i>
   <i name="PARAM3">      0.00000000</i>
  </separator>
  <separator name="model GW" >
   <i type="int" name="MODEL_GW">     0</i>
   <i name="MODEL_EPS0">     11.58240521</i>
   <i name="MODEL_ALPHA">      1.00000000</i>
  </separator>
  <separator name="linear response parameters" >
   <i type="logical" name="LEPSILON"> F  </i>
   <i type="logical" name="LRPA"> F  </i>
   <i type="logical" name="LNABLA"> F  </i>
   <i type="logical" name="LVEL"> F  </i>
   <i type="int" name="KINTER">     0</i>
   <i name="CSHIFT">      0.10000000</i>
   <i name="OMEGAMAX">     -1.00000000</i>
   <i name="DEG_THRESHOLD">      0.00200000</i>
   <i name="RTIME">     -0.10000000</i>
   <i name="WPLASMAI">      0.00000000</i>
   <v name="DFIELD">      0.00000000      0.00000000      0.00000000</v>
   <v name="WPLASMA">      0.00000000      0.00000000      0.00000000      0.00000000      0.00000000      0.00000000      0.00000000      0.00000000      0.00000000</v>
  </separator>
  <separator name="orbital magnetization" >
   <i type="logical" name="NUCIND"> F  </i>
   <v name="MAGPOS">      0.00000000      0.00000000      0.00000000</v>
   <i type="logical" name="LNICSALL"> T  </i>
   <i type="logical" name="ORBITALMAG"> F  </i>
   <i type="logical" name="LMAGBLOCH"> F  </i>
   <i type="logical" name="LCHIMAG"> F  </i>
   <i type="logical" name="LGAUGE"> T  </i>
   <i type="int" name="MAGATOM">     0</i>
   <v name="MAGDIPOL">      0.00000000      0.00000000      0.00000000</v>
   <v name="AVECCONST">      0.00000000      0.00000000      0.00000000</v>
  </separator>
  <separator name="response functions" >
   <i type="logical" name="LADDER"> F  </i>
   <i type="logical" name="LRPAFORCE"> F  </i>
   <i type="logical" name="LFXC"> F  </i>
   <i type="logical" name="LHARTREE"> T  </i>
   <i type="int" name="IBSE">     0</i>
   <v type="int" name="KPOINT">    -1     0     0     0</v>
   <i type="logical" name="LTCTE"> F  </i>
   <i type="logical" name="LTETE"> F  </i>
   <i type="logical" name="LTRIPLET"> F  </i>
   <i type="logical" name="LFXCEPS"> F  </i>
   <i type="logical" name="LFXHEG"> F  </i>
   <i type="int" name="NATURALO">     2</i>
   <i type="logical" name="L2ORDER"> F  </i>
   <i type="logical" name="LMP2LT"> F  </i>
   <i type="logical" name="LUSEW"> F  </i>
   <i name="ENCUTGW">     -2.00000000</i>
   <i name="ENCUTGWSOFT">     -2.00000000</i>
   <i name="ENCUTLF">     -1.00000000</i>
   <i type="int" name="LMAXMP2">    -1</i>
   <i name="SCISSOR">      0.00000000</i>
   <i type="int" name="NOMEGA">     0</i>
   <i type="int" name="NOMEGAR">     0</i>
   <i type="int" name="NBANDSGW">    -1</i>
   <i type="int" name="NBANDSO">    -1</i>
   <i type="int" name="NBANDSV">    -1</i>
   <i type="int" name="NELM">     1</i>
   <i type="int" name="NELMHF">     1</i>
   <i type="int" name="DIM">     3</i>
   <i type="int" name="ANTIRES">     0</i>
   <i name="OMEGAMAX">    -30.00000000</i>
   <i name="OMEGAMIN">    -30.00000000</i>
   <i name="OMEGATL">   -200.00000000</i>
   <i type="int" name="OMEGAGRID">   140</i>
   <i name="CSHIFT">     -0.10000000</i>
   <i type="logical" name="SELFENERGY"> F  </i>
   <i type="logical" name="LSPECTRAL"> F  </i>
   <i type="logical" name="LSPECTRALGW"> F  </i>
   <i type="logical" name="LSINGLES"> F  </i>
   <i type="logical" name="LFERMIGW"> F  </i>
   <i type="logical" name="ODDONLYGW"> F  </i>
   <i type="logical" name="EVENONLYGW"> F  </i>
   <i type="int" name="NKREDLFX">     1</i>
   <i type="int" name="NKREDLFY">     1</i>
   <i type="int" name="NKREDLFZ">     1</i>
   <i type="int" name="MAXMEM">  2800</i>
   <i type="int" name="TELESCOPE">     0</i>
   <i type="int" name="TAUPAR">     1</i>
   <i type="int" name="OMEGAPAR">    -1</i>
   <i name="LAMBDA">      1.00000000</i>
  </separator>
  <separator name="External order field" >
   <i name="OFIELD_KAPPA">      0.00000000</i>
   <v name="OFIELD_K">      0.00000000      0.00000000      0.00000000</v>
   <i name="OFIELD_Q6_NEAR">      0.00000000</i>
   <i name="OFIELD_Q6_FAR">      0.00000000</i>
   <i name="OFIELD_A">      0.00000000</i>
  </separator>
 </parameters>
 <atominfo>
  <atoms>      62 </atoms>
  <types>       5 </types>
  <array name="atoms" >
   <dimension dim="1">ion</dimension>
   <field type="string">element</field>
   <field type="int">atomtype</field>
   <set>
    <rc><c>Li</c><c>   1</c></rc>
    <rc><c>Li</c><c>   1</c></rc>
    <rc><c>Li</c><c>   1</c></rc>
    <rc><c>Li</c><c>   1</c></rc>
    <rc><c>Li</c><c>   1</c></rc>
    <rc><c>Li</c><c>   1</c></rc>
    <rc><c>Li</c><c>   1</c></rc>
    <rc><c>Li</c><c>   1</c></rc>
    <rc><c>Li</c><c>   1</c></rc>
    <rc><c>Li</c><c>   1</c></rc>
    <rc><c>Li</c><c>   1</c></rc>
    <rc><c>Li</c><c>   1</c></rc>
    <rc><c>Mg</c><c>   2</c></rc>
    <rc><c>Mg</c><c>   2</c></rc>
    <rc><c>Bi</c><c>   3</c></rc>
    <rc><c>Bi</c><c>   3</c></rc>
    <rc><c>Bi</c><c>   3</c></rc>
    <rc><c>Bi</c><c>   3</c></rc>
    <rc><c>Bi</c><c>   3</c></rc>
    <rc><c>Bi</c><c>   3</c></rc>
    <rc><c>Bi</c><c>   3</c></rc>
    <rc><c>Bi</c><c>   3</c></rc>
    <rc><c>Bi</c><c>   3</c></rc>
    <rc><c>Bi</c><c>   3</c></rc>
    <rc><c>Bi</c><c>   3</c></rc>
    <rc><c>Bi</c><c>   3</c></rc>
    <rc><c>Bi</c><c>   3</c></rc>
    <rc><c>Bi</c><c>   3</c></rc>
    <rc><c>Bi</c><c>   3</c></rc>
    <rc><c>Bi</c><c>   3</c></rc>
    <rc><c>S </c><c>   4</c></rc>
    <rc><c>S </c><c>   4</c></rc>
    <rc><c>S </c><c>   4</c></rc>
    <rc><c>S </c><c>   4</c></rc>
    <rc><c>S </c><c>   4</c></rc>
    <rc><c>S </c><c>   4</c></rc>
    <rc><c>S </c><c>   4</c></rc>
    <rc><c>S </c><c>   4</c></rc>
    <rc><c>S </c><c>   4</c></rc>
    <rc><c>S </c><c>   4</c></rc>
    <rc><c>S </c><c>   4</c></rc>
    <rc><c>S </c><c>   4</c></rc>
    <rc><c>S </c><c>   4</c></rc>
    <rc><c>S </c><c>   4</c></rc>
    <rc><c>S </c><c>   4</c></rc>
    <rc><c>S </c><c>   4</c></rc>
    <rc><c>O </c><c>   5</c></rc>
    <rc><c>O </c><c>   5</c></rc>
    <rc><c>O </c><c>   5</c></rc>
    <rc><c>O </c><c>   5</c></rc>
    <rc><c>O </c><c>   5</c></rc>
    <rc><c>O </c><c>   5</c></rc>
    <rc><c>O </c><c>   5</c></rc>
    <rc><c>O </c><c>   5</c></rc>
    <rc><c>O </c><c>   5</c></rc>
    <rc><c>O </c><c>   5</c></rc>
    <rc><c>O </c><c>   5</c></rc>
    <rc><c>O </c><c>   5</c></rc>
    <rc><c>O </c><c>   5</c></rc>
    <rc><c>O </c><c>   5</c></rc>
    <rc><c>O </c><c>   5</c></rc>
    <rc><c>O </c><c>   5</c></rc>
   </set>
  </array>
  <array name="atomtypes" >
   <dimension dim="1">type</dimension>
   <field type="int">atomspertype</field>
   <field type="string">element</field>
   <field>mass</field>
   <field>valence</field>
   <field type="string">pseudopotential</field>
   <set>
    <rc><c>  12</c><c>Li</c><c>      7.01000000</c><c>      3.00000000</c><c>  PAW_PBE Li_sv 10Sep2004               </c></rc>
    <rc><c>   2</c><c>Mg</c><c>     24.30500000</c><c>      2.00000000</c><c>  PAW_PBE Mg 13Apr2007                  </c></rc>
    <rc><c>  16</c><c>Bi</c><c>    208.98000000</c><c>     15.00000000</c><c>  PAW_PBE Bi_d 06Sep2000                </c></rc>
    <rc><c>  16</c><c>S </c><c>     32.06600000</c><c>      6.00000000</c><c>  PAW_PBE S 06Sep2000                   </c></rc>
    <rc><c>  16</c><c>O </c><c>     16.00000000</c><c>      6.00000000</c><c>  PAW_PBE O 08Apr2002                   </c></rc>
   </set>
  </array>
 </atominfo>
 <structure name="initialpos" >
  <crystal>
   <varray name="basis" >
    <v>      11.17850000       0.00000000       0.00000000 </v>
    <v>       0.00000000       9.57460000       0.00000000 </v>
    <v>       0.00000000       0.00000000      11.18240000 </v>
   </varray>
   <i name="volume">   1196.84853820 </i>
   <varray name="rec_basis" >
    <v>       0.08945744       0.00000000       0.00000000 </v>
    <v>       0.00000000       0.10444301       0.00000000 </v>
    <v>       0.00000000       0.00000000       0.08942624 </v>
   </varray>
  </crystal>
  <varray name="positions" >
   <v>       0.12461000       0.99984000       0.18687000 </v>
   <v>       0.37461000       0.00017000       0.18687000 </v>
   <v>       0.62539000       0.99984000       0.43687000 </v>
   <v>       0.87539000       0.00017000       0.43687000 </v>
   <v>       0.62461000       0.99984000       0.18687000 </v>
   <v>       0.87461000       0.00017000       0.18687000 </v>
   <v>       0.12539000       0.99984000       0.93687000 </v>
   <v>       0.37539000       0.00017000       0.93687000 </v>
   <v>       0.12461000       0.99984000       0.68687000 </v>
   <v>       0.37461000       0.00017000       0.68687000 </v>
   <v>       0.62461000       0.99984000       0.68687000 </v>
   <v>       0.87461000       0.00017000       0.68687000 </v>
   <v>       0.37539000       0.00017000       0.43687000 </v>
   <v>       0.87539000       0.00017000       0.93687000 </v>
   <v>       0.00013000       0.29519000       0.06281000 </v>
   <v>       0.25013000       0.70481000       0.06281000 </v>
   <v>       0.24987000       0.29519000       0.31282000 </v>
   <v>       0.49987000       0.70481000       0.31282000 </v>
   <v>       0.50013000       0.29519000       0.06281000 </v>
   <v>       0.75013000       0.70481000       0.06281000 </v>
   <v>       0.74987000       0.29519000       0.31282000 </v>
   <v>       0.99987000       0.70481000       0.31282000 </v>
   <v>       0.00013000       0.29519000       0.56281000 </v>
   <v>       0.25013000       0.70481000       0.56281000 </v>
   <v>       0.24987000       0.29519000       0.81282000 </v>
   <v>       0.49987000       0.70481000       0.81282000 </v>
   <v>       0.50013000       0.29519000       0.56281000 </v>
   <v>       0.75013000       0.70481000       0.56281000 </v>
   <v>       0.74987000       0.29519000       0.81282000 </v>
   <v>       0.99987000       0.70481000       0.81282000 </v>
   <v>       0.25005000       0.32677000       0.06286000 </v>
   <v>       0.00005000       0.67323000       0.06286000 </v>
   <v>       0.49995000       0.32677000       0.31286000 </v>
   <v>       0.24995000       0.67323000       0.31286000 </v>
   <v>       0.75005000       0.32677000       0.06286000 </v>
   <v>       0.50005000       0.67323000       0.06286000 </v>
   <v>       0.99995000       0.32677000       0.31286000 </v>
   <v>       0.74995000       0.67323000       0.31286000 </v>
   <v>       0.25005000       0.32677000       0.56286000 </v>
   <v>       0.00005000       0.67323000       0.56286000 </v>
   <v>       0.49995000       0.32677000       0.81286000 </v>
   <v>       0.24995000       0.67323000       0.81286000 </v>
   <v>       0.75005000       0.32677000       0.56286000 </v>
   <v>       0.50005000       0.67323000       0.56286000 </v>
   <v>       0.99995000       0.32677000       0.81286000 </v>
   <v>       0.74995000       0.67323000       0.81286000 </v>
   <v>       0.49987000       0.07798000       0.06246000 </v>
   <v>       0.24987000       0.92202000       0.06246000 </v>
   <v>       0.25013000       0.07798000       0.31246000 </v>
   <v>       0.00013000       0.92202000       0.31246000 </v>
   <v>       0.99987000       0.07798000       0.06246000 </v>
   <v>       0.74987000       0.92202000       0.06246000 </v>
   <v>       0.75013000       0.07798000       0.31246000 </v>
   <v>       0.50013000       0.92202000       0.31246000 </v>
   <v>       0.49987000       0.07798000       0.56246000 </v>
   <v>       0.24987000       0.92202000       0.56246000 </v>
   <v>       0.25013000       0.07798000       0.81246000 </v>
   <v>       0.00013000       0.92202000       0.81246000 </v>
   <v>       0.99987000       0.07798000       0.56246000 </v>
   <v>       0.74987000       0.92202000       0.56246000 </v>
   <v>       0.75013000       0.07798000       0.81246000 </v>
   <v>       0.50013000       0.92202000       0.81246000 </v>
  </varray>
 </structure>
 <calculation>
  <scstep>
   <time name="dav">   65.53   65.70</time>
   <time name="total">   65.61   65.79</time>
   <energy>
    <i name="alphaZ">   1079.87189334 </i>
    <i name="ewald"> -31117.36548078 </i>
    <i name="hartreedc"> -12707.72396802 </i>
    <i name="XCdc">   1468.88711723 </i>
    <i name="pawpsdc">  36917.91861236 </i>
    <i name="pawaedc"> -36503.41947684 </i>
    <i name="eentropy">      0.00000000 </i>
    <i name="bandstr">   1588.19348790 </i>
    <i name="atom">  45173.57650906 </i>
    <i name="e_fr_energy">   5899.93869426 </i>
    <i name="e_wo_entrp">   5899.93869426 </i>
    <i name="e_0_energy">   5899.93869426 </i>
   </energy>
  </scstep>
  <scstep>
   <time name="dav">   66.25   66.33</time>
   <time name="total">   66.26   66.34</time>
   <energy>
    <i name="e_fr_energy">    749.24424992 </i>
    <i name="e_wo_entrp">    749.24424992 </i>
    <i name="e_0_energy">    749.24424992 </i>
   </energy>
  </scstep>
  <scstep>
   <time name="dav">   73.23   73.29</time>
   <time name="total">   73.23   73.29</time>
   <energy>
    <i name="e_fr_energy">   -246.66889076 </i>
    <i name="e_wo_entrp">   -246.66889076 </i>
    <i name="e_0_energy">   -246.66889076 </i>
   </energy>
  </scstep>
  <scstep>
   <time name="dav">   80.73   80.83</time>
   <time name="total">   80.73   80.83</time>
   <energy>
    <i name="e_fr_energy">   -351.44106370 </i>
    <i name="e_wo_entrp">   -351.44106370 </i>
    <i name="e_0_energy">   -351.44106370 </i>
   </energy>
  </scstep>
  <scstep>
   <time name="dav">  105.99  106.11</time>
   <time name="total">  106.71  106.84</time>
   <energy>
    <i name="e_fr_energy">   -360.87695632 </i>
    <i name="e_wo_entrp">   -360.87695632 </i>
    <i name="e_0_energy">   -360.87695632 </i>
   </energy>
  </scstep>
  <scstep>
   <time name="dav">   91.99   92.22</time>
   <time name="total">   92.78   93.01</time>
   <energy>
    <i name="e_fr_energy">   -301.12635324 </i>
    <i name="e_wo_entrp">   -301.12635324 </i>
    <i name="e_0_energy">   -301.12635324 </i>
   </energy>
  </scstep>
  <scstep>
   <time name="dav">   72.29   72.83</time>
   <time name="total">   73.11   73.66</time>
   <energy>
    <i name="e_fr_energy">   -303.34578460 </i>
    <i name="e_wo_entrp">   -303.34578460 </i>
    <i name="e_0_energy">   -303.34578460 </i>
   </energy>
  </scstep>
  <scstep>
   <time name="dav">   84.17   84.42</time>
   <time name="total">   84.96   85.22</time>
   <energy>
    <i name="e_fr_energy">   -301.96626576 </i>
    <i name="e_wo_entrp">   -301.96626576 </i>
    <i name="e_0_energy">   -301.96626576 </i>
   </energy>
  </scstep>
  <scstep>
   <time name="dav">   92.81   92.93</time>
   <time name="total">   93.61   93.73</time>
   <energy>
    <i name="e_fr_energy">   -301.36519855 </i>
    <i name="e_wo_entrp">   -301.36519855 </i>
    <i name="e_0_energy">   -301.36519855 </i>
   </energy>
  </scstep>
  <scstep>
   <time name="dav">   81.39   81.46</time>
   <time name="total">   82.21   82.29</time>
   <energy>
    <i name="e_fr_energy">   -301.32525593 </i>
    <i name="e_wo_entrp">   -301.32525593 </i>
    <i name="e_0_energy">   -301.32525593 </i>
   </energy>
  </scstep>
  <scstep>
   <time name="dav">   83.47   83.67</time>
   <time name="total">   84.27   84.47</time>
   <energy>
    <i name="e_fr_energy">   -301.33857993 </i>
    <i name="e_wo_entrp">   -301.33857993 </i>
    <i name="e_0_energy">   -301.33857993 </i>
   </energy>
  </scstep>
  <scstep>
   <time name="dav">   81.10   81.35</time>
   <time name="total">   81.89   82.15</time>
   <energy>
    <i name="e_fr_energy">   -301.34354891 </i>
    <i name="e_wo_entrp">   -301.34354891 </i>
    <i name="e_0_energy">   -301.34354891 </i>
   </energy>
  </scstep>
  <scstep>
   <time name="dav">   86.29   86.85</time>
   <time name="total">   87.09   87.65</time>
   <energy>
    <i name="e_fr_energy">   -301.34428395 </i>
    <i name="e_wo_entrp">   -301.34428395 </i>
    <i name="e_0_energy">   -301.34428395 </i>
   </energy>
  </scstep>
  <scstep>
   <time name="dav">   70.94   71.30</time>
   <time name="total">   71.74   72.10</time>
   <energy>
    <i name="e_fr_energy">   -301.34457771 </i>
    <i name="e_wo_entrp">   -301.34457771 </i>
    <i name="e_0_energy">   -301.34457771 </i>
   </energy>
  </scstep>
  <scstep>
   <time name="dav">  104.29  105.21</time>
   <time name="total">  105.09  106.01</time>
   <energy>
    <i name="e_fr_energy">   -301.34460750 </i>
    <i name="e_wo_entrp">   -301.34460750 </i>
    <i name="e_0_energy">   -301.34460750 </i>
   </energy>
  </scstep>
  <scstep>
   <time name="dav">   69.15   69.86</time>
   <time name="total">   69.95   70.66</time>
   <energy>
    <i name="e_fr_energy">   -301.34462479 </i>
    <i name="e_wo_entrp">   -301.34462479 </i>
    <i name="e_0_energy">   -301.34462479 </i>
   </energy>
  </scstep>
  <scstep>
   <time name="dav">   76.80   77.11</time>
   <time name="total">   77.59   77.91</time>
   <energy>
    <i name="e_fr_energy">   -301.34462671 </i>
    <i name="e_wo_entrp">   -301.34462671 </i>
    <i name="e_0_energy">   -301.34462671 </i>
   </energy>
  </scstep>
  <scstep>
   <time name="dav">   58.58   58.65</time>
   <time name="total">   58.65   58.73</time>
   <energy>
    <i name="alphaZ">   1079.87189334 </i>
    <i name="ewald"> -31117.36548078 </i>
    <i name="hartreedc"> -12942.97953013 </i>
    <i name="XCdc">   1491.83204447 </i>
    <i name="pawpsdc">  43947.90081222 </i>
    <i name="pawaedc"> -43508.89196531 </i>
    <i name="eentropy">      0.00000000 </i>
    <i name="bandstr">  -4425.28890970 </i>
    <i name="atom">  45173.57650906 </i>
    <i name="e_fr_energy">   -301.34462682 </i>
    <i name="e_wo_entrp">   -301.34462682 </i>
    <i name="e_0_energy">   -301.34462682 </i>
   </energy>
  </scstep>
  <structure>
   <crystal>
    <varray name="basis" >
     <v>      11.17850000       0.00000000       0.00000000 </v>
     <v>       0.00000000       9.57460000       0.00000000 </v>
     <v>       0.00000000       0.00000000      11.18240000 </v>
    </varray>
    <i name="volume">   1196.84853820 </i>
    <varray name="rec_basis" >
     <v>       0.08945744       0.00000000       0.00000000 </v>
     <v>       0.00000000       0.10444301       0.00000000 </v>
     <v>       0.00000000       0.00000000       0.08942624 </v>
    </varray>
   </crystal>
   <varray name="positions" >
    <v>       0.12461000       0.99984000       0.18687000 </v>
    <v>       0.37461000       0.00017000       0.18687000 </v>
    <v>       0.62539000       0.99984000       0.43687000 </v>
    <v>       0.87539000       0.00017000       0.43687000 </v>
    <v>       0.62461000       0.99984000       0.18687000 </v>
    <v>       0.87461000       0.00017000       0.18687000 </v>
    <v>       0.12539000       0.99984000       0.93687000 </v>
    <v>       0.37539000       0.00017000       0.93687000 </v>
    <v>       0.12461000       0.99984000       0.68687000 </v>
    <v>       0.37461000       0.00017000       0.68687000 </v>
    <v>       0.62461000       0.99984000       0.68687000 </v>
    <v>       0.87461000       0.00017000       0.68687000 </v>
    <v>       0.37539000       0.00017000       0.43687000 </v>
    <v>       0.87539000       0.00017000       0.93687000 </v>
    <v>       0.00013000       0.29519000       0.06281000 </v>
    <v>       0.25013000       0.70481000       0.06281000 </v>
    <v>       0.24987000       0.29519000       0.31282000 </v>
    <v>       0.49987000       0.70481000       0.31282000 </v>
    <v>       0.50013000       0.29519000       0.06281000 </v>
    <v>       0.75013000       0.70481000       0.06281000 </v>
    <v>       0.74987000       0.29519000       0.31282000 </v>
    <v>       0.99987000       0.70481000       0.31282000 </v>
    <v>       0.00013000       0.29519000       0.56281000 </v>
    <v>       0.25013000       0.70481000       0.56281000 </v>
    <v>       0.24987000       0.29519000       0.81282000 </v>
    <v>       0.49987000       0.70481000       0.81282000 </v>
    <v>       0.50013000       0.29519000       0.56281000 </v>
    <v>       0.75013000       0.70481000       0.56281000 </v>
    <v>       0.74987000       0.29519000       0.81282000 </v>
    <v>       0.99987000       0.70481000       0.81282000 </v>
    <v>       0.25005000       0.32677000       0.06286000 </v>
    <v>       0.00005000       0.67323000       0.06286000 </v>
    <v>       0.49995000       0.32677000       0.31286000 </v>
    <v>       0.24995000       0.67323000       0.31286000 </v>
    <v>       0.75005000       0.32677000       0.06286000 </v>
    <v>       0.50005000       0.67323000       0.06286000 </v>
    <v>       0.99995000       0.32677000       0.31286000 </v>
    <v>       0.74995000       0.67323000       0.31286000 </v>
    <v>       0.25005000       0.32677000       0.56286000 </v>
    <v>       0.00005000       0.67323000       0.56286000 </v>
    <v>       0.49995000       0.32677000       0.81286000 </v>
    <v>       0.24995000       0.67323000       0.81286000 </v>
    <v>       0.75005000       0.32677000       0.56286000 </v>
    <v>       0.50005000       0.67323000       0.56286000 </v>
    <v>       0.99995000       0.32677000       0.81286000 </v>
    <v>       0.74995000       0.67323000       0.81286000 </v>
    <v>       0.49987000       0.07798000       0.06246000 </v>
    <v>       0.24987000       0.92202000       0.06246000 </v>
    <v>       0.25013000       0.07798000       0.31246000 </v>
    <v>       0.00013000       0.92202000       0.31246000 </v>
    <v>       0.99987000       0.07798000       0.06246000 </v>
    <v>       0.74987000       0.92202000       0.06246000 </v>
    <v>       0.75013000       0.07798000       0.31246000 </v>
    <v>       0.50013000       0.92202000       0.31246000 </v>
    <v>       0.49987000       0.07798000       0.56246000 </v>
    <v>       0.24987000       0.92202000       0.56246000 </v>
    <v>       0.25013000       0.07798000       0.81246000 </v>
    <v>       0.00013000       0.92202000       0.81246000 </v>
    <v>       0.99987000       0.07798000       0.56246000 </v>
    <v>       0.74987000       0.92202000       0.56246000 </v>
    <v>       0.75013000       0.07798000       0.81246000 </v>
    <v>       0.50013000       0.92202000       0.81246000 </v>
   </varray>
  </structure>
  <varray name="forces" >
   <v>       0.01395498      -0.13395059       0.51514274 </v>
   <v>      -0.00368381       0.12546753      -0.46399761 </v>
   <v>       0.47972617      -0.00004523       0.00615693 </v>
   <v>       0.49377049      -0.00189528       0.00532616 </v>
   <v>       0.01451256       0.13320133      -0.50529786 </v>
   <v>      -0.00338194      -0.12813109       0.47671435 </v>
   <v>       0.47972617      -0.00004523       0.00615693 </v>
   <v>       0.49377049      -0.00189528       0.00532616 </v>
   <v>       0.01451256       0.13320133      -0.50529786 </v>
   <v>      -0.00338194      -0.12813109       0.47671435 </v>
   <v>       0.01395498      -0.13395059       0.51514274 </v>
   <v>      -0.00368381       0.12546753      -0.46399761 </v>
   <v>      -1.03585027      -0.00523371       0.03207064 </v>
   <v>      -1.03585027      -0.00523371       0.03207064 </v>
   <v>       0.08374251       1.04068261       0.18785587 </v>
   <v>       0.10484067      -0.02558739      -0.02257604 </v>
   <v>      -0.28358519      -0.02436230       0.02440766 </v>
   <v>       0.09619182      -1.04958078      -0.19301880 </v>
   <v>       0.07753597      -0.99476959      -0.21378861 </v>
   <v>      -0.28810935       0.02819533      -0.03280517 </v>
   <v>       0.11975847       0.02531119       0.01345665 </v>
   <v>       0.09344464       1.00685918       0.20148560 </v>
   <v>       0.07753597      -0.99476959      -0.21378861 </v>
   <v>      -0.28810935       0.02819533      -0.03280517 </v>
   <v>       0.11975847       0.02531119       0.01345665 </v>
   <v>       0.09344464       1.00685918       0.20148560 </v>
   <v>       0.08374251       1.04068261       0.18785587 </v>
   <v>       0.10484067      -0.02558739      -0.02257604 </v>
   <v>      -0.28358519      -0.02436230       0.02440766 </v>
   <v>       0.09619182      -1.04958078      -0.19301880 </v>
   <v>      -0.18779962       0.19020546      -0.00967945 </v>
   <v>      -0.03348436      -0.14314456      -0.23177282 </v>
   <v>      -0.03363803       0.13971820       0.22985650 </v>
   <v>       0.24293981      -0.11580076       0.02900617 </v>
   <v>       0.23871339       0.11586664      -0.03036799 </v>
   <v>      -0.02116550      -0.15899155       0.19884973 </v>
   <v>      -0.01974323       0.15957486      -0.19769772 </v>
   <v>      -0.18853207      -0.19106310       0.00981600 </v>
   <v>       0.23871339       0.11586664      -0.03036799 </v>
   <v>      -0.02116550      -0.15899155       0.19884973 </v>
   <v>      -0.01974323       0.15957486      -0.19769772 </v>
   <v>      -0.18853207      -0.19106310       0.00981600 </v>
   <v>      -0.18779962       0.19020546      -0.00967945 </v>
   <v>      -0.03348436      -0.14314456      -0.23177282 </v>
   <v>      -0.03363803       0.13971820       0.22985650 </v>
   <v>       0.24293981      -0.11580076       0.02900617 </v>
   <v>      -0.59709376       0.77287528       0.74394217 </v>
   <v>      -0.14322935       0.02824280      -0.00500512 </v>
   <v>       1.23241820       0.01184852      -0.11579822 </v>
   <v>      -0.60981599      -0.77660046      -0.74039885 </v>
   <v>      -0.46626959      -0.80005402      -0.63992305 </v>
   <v>       1.25129581      -0.00461804       0.10100149 </v>
   <v>      -0.15642454      -0.02635156       0.00226114 </v>
   <v>      -0.47103887       0.80213105       0.62477751 </v>
   <v>      -0.46626959      -0.80005402      -0.63992305 </v>
   <v>       1.25129581      -0.00461804       0.10100149 </v>
   <v>      -0.15642454      -0.02635156       0.00226114 </v>
   <v>      -0.47103887       0.80213105       0.62477751 </v>
   <v>      -0.59709376       0.77287528       0.74394217 </v>
   <v>      -0.14322935       0.02824280      -0.00500512 </v>
   <v>       1.23241820       0.01184852      -0.11579822 </v>
   <v>      -0.60981599      -0.77660046      -0.74039885 </v>
  </varray>
  <varray name="stress" >
   <v>      -9.68069374      -0.12142328       0.02489333 </v>
   <v>      -0.12142348     -14.53968297       0.45221802 </v>
   <v>       0.02489332       0.45221795      -7.58538642 </v>
  </varray>
  <energy>
   <i name="e_fr_energy">   -317.12196848 </i>
   <i name="e_wo_entrp">   -317.12196848 </i>
   <i name="e_0_energy">      0.00000000 </i>
  </energy>
  <time name="totalsc"> 1569.71 1575.79</time>
  <eigenvalues>
   <array>
    <dimension dim="1">band</dimension>
    <dimension dim="2">kpoint</dimension>
    <dimension dim="3">spin</dimension>
    <field>eigene</field>
    <field>occ</field>
    <set>
     <set comment="spin 1">
      <set comment="kpoint 1">
       <r>  -40.1596    1.0000 </r>
       <r>  -40.1595    1.0000 </r>
       <r>  -39.8301    1.0000 </r>
       <r>  -39.8300    1.0000 </r>
       <r>  -39.8291    1.0000 </r>
       <r>  -39.8288    1.0000 </r>
       <r>  -39.7493    1.0000 </r>
       <r>  -39.7492    1.0000 </r>
       <r>  -39.7483    1.0000 </r>
       <r>  -39.7481    1.0000 </r>
       <r>  -39.4247    1.0000 </r>
       <r>  -39.4246    1.0000 </r>
       <r>  -18.8274    1.0000 </r>
       <r>  -18.8264    1.0000 </r>
       <r>  -18.8260    1.0000 </r>
       <r>  -18.8251    1.0000 </r>
       <r>  -18.7630    1.0000 </r>
       <r>  -18.7623    1.0000 </r>
       <r>  -18.7602    1.0000 </r>
       <r>  -18.7595    1.0000 </r>
       <r>  -18.7569    1.0000 </r>
       <r>  -18.7562    1.0000 </r>
       <r>  -18.7522    1.0000 </r>
       <r>  -18.7515    1.0000 </r>
       <r>  -18.6512    1.0000 </r>
       <r>  -18.6510    1.0000 </r>
       <r>  -18.6503    1.0000 </r>
       <r>  -18.6502    1.0000 </r>
       <r>  -18.6450    1.0000 </r>
       <r>  -18.6448    1.0000 </r>
       <r>  -18.6442    1.0000 </r>
       <r>  -18.6441    1.0000 </r>
       <r>  -18.6201    1.0000 </r>
       <r>  -18.6182    1.0000 </r>
       <r>  -18.6181    1.0000 </r>
       <r>  -18.6160    1.0000 </r>
       <r>  -18.6153    1.0000 </r>
       <r>  -18.6138    1.0000 </r>
       <r>  -18.6118    1.0000 </r>
       <r>  -18.6101    1.0000 </r>
       <r>  -18.6092    1.0000 </r>
       <r>  -18.6078    1.0000 </r>
       <r>  -18.6070    1.0000 </r>
       <r>  -18.6057    1.0000 </r>
       <r>  -18.6055    1.0000 </r>
       <r>  -18.6048    1.0000 </r>
       <r>  -18.6039    1.0000 </r>
       <r>  -18.6037    1.0000 </r>
       <r>  -18.6034    1.0000 </r>
       <r>  -18.6021    1.0000 </r>
       <r>  -18.6012    1.0000 </r>
       <r>  -18.5995    1.0000 </r>
       <r>  -18.5953    1.0000 </r>
       <r>  -18.5944    1.0000 </r>
       <r>  -18.5939    1.0000 </r>
       <r>  -18.5930    1.0000 </r>
       <r>  -18.4631    1.0000 </r>
       <r>  -18.4628    1.0000 </r>
       <r>  -18.4605    1.0000 </r>
       <r>  -18.4602    1.0000 </r>
       <r>  -18.4503    1.0000 </r>
       <r>  -18.4502    1.0000 </r>
       <r>  -18.4497    1.0000 </r>
       <r>  -18.4496    1.0000 </r>
       <r>  -18.4488    1.0000 </r>
       <r>  -18.4487    1.0000 </r>
       <r>  -18.4483    1.0000 </r>
       <r>  -18.4483    1.0000 </r>
       <r>  -18.4478    1.0000 </r>
       <r>  -18.4477    1.0000 </r>
       <r>  -18.4455    1.0000 </r>
       <r>  -18.4454    1.0000 </r>
       <r>  -18.4414    1.0000 </r>
       <r>  -18.4392    1.0000 </r>
       <r>  -18.4375    1.0000 </r>
       <r>  -18.4353    1.0000 </r>
       <r>  -18.4293    1.0000 </r>
       <r>  -18.4254    1.0000 </r>
       <r>  -18.4253    1.0000 </r>
       <r>  -18.4214    1.0000 </r>
       <r>  -18.3547    1.0000 </r>
       <r>  -18.3535    1.0000 </r>
       <r>  -18.3500    1.0000 </r>
       <r>  -18.3488    1.0000 </r>
       <r>  -18.2355    1.0000 </r>
       <r>  -18.2353    1.0000 </r>
       <r>  -18.2310    1.0000 </r>
       <r>  -18.2309    1.0000 </r>
       <r>  -18.2260    1.0000 </r>
       <r>  -18.2259    1.0000 </r>
       <r>  -18.2215    1.0000 </r>
       <r>  -18.2213    1.0000 </r>
       <r>  -13.4509    1.0000 </r>
       <r>  -13.4422    1.0000 </r>
       <r>  -13.3390    1.0000 </r>
       <r>  -13.3367    1.0000 </r>
       <r>  -12.7512    1.0000 </r>
       <r>  -12.7487    1.0000 </r>
       <r>  -12.6651    1.0000 </r>
       <r>  -12.6576    1.0000 </r>
       <r>  -12.6570    1.0000 </r>
       <r>  -12.6502    1.0000 </r>
       <r>  -12.5988    1.0000 </r>
       <r>  -12.5865    1.0000 </r>
       <r>  -12.0333    1.0000 </r>
       <r>  -12.0255    1.0000 </r>
       <r>  -11.9791    1.0000 </r>
       <r>  -11.9728    1.0000 </r>
       <r>   -9.2821    1.0000 </r>
       <r>   -8.9873    1.0000 </r>
       <r>   -8.5431    1.0000 </r>
       <r>   -8.4532    1.0000 </r>
       <r>   -8.4515    1.0000 </r>
       <r>   -8.3627    1.0000 </r>
       <r>   -8.3178    1.0000 </r>
       <r>   -8.2266    1.0000 </r>
       <r>   -8.2254    1.0000 </r>
       <r>   -8.1365    1.0000 </r>
       <r>   -7.9983    1.0000 </r>
       <r>   -7.9963    1.0000 </r>
       <r>   -7.9936    1.0000 </r>
       <r>   -7.9917    1.0000 </r>
       <r>   -7.3257    1.0000 </r>
       <r>   -7.3240    1.0000 </r>
       <r>   -6.3438    1.0000 </r>
       <r>   -6.3395    1.0000 </r>
       <r>   -6.3099    1.0000 </r>
       <r>   -6.3077    1.0000 </r>
       <r>   -5.4671    1.0000 </r>
       <r>   -5.3902    1.0000 </r>
       <r>   -5.3881    1.0000 </r>
       <r>   -5.3875    1.0000 </r>
       <r>   -5.3085    1.0000 </r>
       <r>   -5.2234    1.0000 </r>
       <r>   -5.2212    1.0000 </r>
       <r>   -5.1375    1.0000 </r>
       <r>   -5.0460    1.0000 </r>
       <r>   -4.9635    1.0000 </r>
       <r>   -3.7797    1.0000 </r>
       <r>   -3.6266    1.0000 </r>
       <r>   -1.3793    1.0000 </r>
       <r>   -1.2879    1.0000 </r>
       <r>   -1.0462    1.0000 </r>
       <r>   -0.9820    1.0000 </r>
       <r>   -0.5823    1.0000 </r>
       <r>   -0.4621    1.0000 </r>
       <r>   -0.4489    1.0000 </r>
       <r>   -0.4032    1.0000 </r>
       <r>   -0.1787    1.0000 </r>
       <r>   -0.1386    1.0000 </r>
       <r>   -0.1312    1.0000 </r>
       <r>   -0.0872    1.0000 </r>
       <r>    0.0710    1.0000 </r>
       <r>    0.2085    1.0000 </r>
       <r>    0.3747    1.0000 </r>
       <r>    0.3971    1.0000 </r>
       <r>    0.4322    1.0000 </r>
       <r>    0.4959    1.0000 </r>
       <r>    0.5809    1.0000 </r>
       <r>    0.6610    1.0000 </r>
       <r>    0.7113    1.0000 </r>
       <r>    0.7614    1.0000 </r>
       <r>    0.7675    1.0000 </r>
       <r>    0.8006    1.0000 </r>
       <r>    0.8018    1.0000 </r>
       <r>    0.8040    1.0000 </r>
       <r>    0.9393    1.0000 </r>
       <r>    0.9742    1.0000 </r>
       <r>    1.0504    1.0000 </r>
       <r>    1.0550    1.0000 </r>
       <r>    1.1576    1.0000 </r>
       <r>    1.1726    1.0000 </r>
       <r>    1.2029    1.0000 </r>
       <r>    1.2344    1.0000 </r>
       <r>    1.2418    1.0000 </r>
       <r>    1.2803    1.0000 </r>
       <r>    1.3196    1.0000 </r>
       <r>    1.3366    1.0000 </r>
       <r>    1.4290    1.0000 </r>
       <r>    1.5016    1.0000 </r>
       <r>    1.5664    1.0000 </r>
       <r>    1.5784    1.0000 </r>
       <r>    1.5889    1.0000 </r>
       <r>    1.6493    1.0000 </r>
       <r>    1.6912    1.0000 </r>
       <r>    1.7064    1.0000 </r>
       <r>    1.7264    1.0000 </r>
       <r>    1.8052    1.0000 </r>
       <r>    1.8488    1.0000 </r>
       <r>    1.9735    1.0000 </r>
       <r>    1.9872    1.0000 </r>
       <r>    2.0753    1.0000 </r>
       <r>    2.0781    1.0000 </r>
       <r>    2.1540    1.0000 </r>
       <r>    2.3135    1.0000 </r>
       <r>    2.3236    1.0000 </r>
       <r>    2.4765    1.0000 </r>
       <r>    2.4818    1.0000 </r>
       <r>    2.5124    1.0000 </r>
       <r>    2.5231    1.0000 </r>
       <r>    2.6098    1.0000 </r>
       <r>    2.6165    1.0000 </r>
       <r>    2.6247    1.0000 </r>
       <r>    2.6350    1.0000 </r>
       <r>    2.6746    1.0000 </r>
       <r>    2.6969    1.0000 </r>
       <r>    2.7216    1.0000 </r>
       <r>    2.7463    1.0000 </r>
       <r>    2.7722    1.0000 </r>
       <r>    2.8515    1.0000 </r>
       <r>    2.8641    1.0000 </r>
       <r>    2.8738    1.0000 </r>
       <r>    2.8977    1.0000 </r>
       <r>    2.9102    1.0000 </r>
       <r>    3.0169    1.0000 </r>
       <r>    3.0324    1.0000 </r>
       <r>    3.0623    1.0000 </r>
       <r>    3.0784    1.0000 </r>
       <r>    3.1107    1.0000 </r>
       <r>    3.1228    1.0000 </r>
       <r>    3.1355    1.0000 </r>
       <r>    3.1636    1.0000 </r>
       <r>    3.1915    1.0000 </r>
       <r>    3.2334    1.0000 </r>
       <r>    3.2504    1.0000 </r>
       <r>    3.2667    1.0000 </r>
       <r>    3.3414    1.0000 </r>
       <r>    3.3926    1.0000 </r>
       <r>    3.4103    1.0000 </r>
       <r>    3.4749    1.0000 </r>
       <r>    3.5056    1.0000 </r>
       <r>    3.6295    1.0000 </r>
       <r>    4.2195    1.0000 </r>
       <r>    4.2258    1.0000 </r>
       <r>    4.2449    1.0000 </r>
       <r>    4.2518    1.0000 </r>
       <r>    5.1130    0.0000 </r>
       <r>    5.1162    0.0000 </r>
       <r>    5.1854    0.0000 </r>
       <r>    5.1987    0.0000 </r>
       <r>    5.7996    0.0000 </r>
       <r>    5.8049    0.0000 </r>
       <r>    5.8474    0.0000 </r>
       <r>    5.8546    0.0000 </r>
       <r>    6.0955    0.0000 </r>
       <r>    6.1449    0.0000 </r>
       <r>    6.1486    0.0000 </r>
       <r>    6.1753    0.0000 </r>
       <r>    6.2449    0.0000 </r>
       <r>    6.2762    0.0000 </r>
       <r>    6.2793    0.0000 </r>
       <r>    6.2965    0.0000 </r>
       <r>    7.1464    0.0000 </r>
       <r>    7.2587    0.0000 </r>
       <r>    7.3367    0.0000 </r>
       <r>    7.3456    0.0000 </r>
       <r>    7.6922    0.0000 </r>
       <r>    7.7262    0.0000 </r>
       <r>    7.9519    0.0000 </r>
       <r>    7.9797    0.0000 </r>
       <r>    8.0608    0.0000 </r>
       <r>    8.1287    0.0000 </r>
       <r>    8.3063    0.0000 </r>
       <r>    8.3744    0.0000 </r>
       <r>    8.4522    0.0000 </r>
       <r>    8.6763    0.0000 </r>
       <r>    8.7119    0.0000 </r>
       <r>    8.7841    0.0000 </r>
       <r>    8.7917    0.0000 </r>
       <r>    8.9688    0.0000 </r>
       <r>    9.0287    0.0000 </r>
       <r>    9.0336    0.0000 </r>
       <r>    9.0423    0.0000 </r>
       <r>    9.0834    0.0000 </r>
       <r>    9.0932    0.0000 </r>
       <r>    9.1604    0.0000 </r>
       <r>    9.1727    0.0000 </r>
       <r>    9.2063    0.0000 </r>
       <r>    9.2172    0.0000 </r>
       <r>    9.2812    0.0000 </r>
       <r>    9.5059    0.0000 </r>
       <r>    9.5339    0.0000 </r>
       <r>    9.5433    0.0000 </r>
       <r>    9.5679    0.0000 </r>
       <r>    9.6698    0.0000 </r>
       <r>    9.6945    0.0000 </r>
       <r>    9.7035    0.0000 </r>
       <r>    9.7462    0.0000 </r>
       <r>   10.2333    0.0000 </r>
       <r>   10.2577    0.0000 </r>
       <r>   10.2793    0.0000 </r>
       <r>   10.3257    0.0000 </r>
       <r>   10.5583    0.0000 </r>
       <r>   10.5904    0.0000 </r>
       <r>   10.6065    0.0000 </r>
       <r>   10.6295    0.0000 </r>
       <r>   10.6331    0.0000 </r>
       <r>   10.9447    0.0000 </r>
       <r>   10.9990    0.0000 </r>
       <r>   11.0472    0.0000 </r>
       <r>   11.3368    0.0000 </r>
       <r>   11.4757    0.0000 </r>
       <r>   11.5743    0.0000 </r>
       <r>   11.5989    0.0000 </r>
       <r>   11.7031    0.0000 </r>
       <r>   11.8563    0.0000 </r>
       <r>   12.0151    0.0000 </r>
       <r>   12.0241    0.0000 </r>
      </set>
      <set comment="kpoint 2">
       <r>  -40.1596    1.0000 </r>
       <r>  -40.1595    1.0000 </r>
       <r>  -39.8297    1.0000 </r>
       <r>  -39.8296    1.0000 </r>
       <r>  -39.8295    1.0000 </r>
       <r>  -39.8292    1.0000 </r>
       <r>  -39.7489    1.0000 </r>
       <r>  -39.7488    1.0000 </r>
       <r>  -39.7486    1.0000 </r>
       <r>  -39.7485    1.0000 </r>
       <r>  -39.4247    1.0000 </r>
       <r>  -39.4246    1.0000 </r>
       <r>  -18.8267    1.0000 </r>
       <r>  -18.8267    1.0000 </r>
       <r>  -18.8258    1.0000 </r>
       <r>  -18.8258    1.0000 </r>
       <r>  -18.7616    1.0000 </r>
       <r>  -18.7616    1.0000 </r>
       <r>  -18.7609    1.0000 </r>
       <r>  -18.7609    1.0000 </r>
       <r>  -18.7546    1.0000 </r>
       <r>  -18.7546    1.0000 </r>
       <r>  -18.7539    1.0000 </r>
       <r>  -18.7539    1.0000 </r>
       <r>  -18.6511    1.0000 </r>
       <r>  -18.6511    1.0000 </r>
       <r>  -18.6502    1.0000 </r>
       <r>  -18.6502    1.0000 </r>
       <r>  -18.6449    1.0000 </r>
       <r>  -18.6449    1.0000 </r>
       <r>  -18.6441    1.0000 </r>
       <r>  -18.6441    1.0000 </r>
       <r>  -18.6188    1.0000 </r>
       <r>  -18.6188    1.0000 </r>
       <r>  -18.6167    1.0000 </r>
       <r>  -18.6167    1.0000 </r>
       <r>  -18.6138    1.0000 </r>
       <r>  -18.6138    1.0000 </r>
       <r>  -18.6121    1.0000 </r>
       <r>  -18.6121    1.0000 </r>
       <r>  -18.6084    1.0000 </r>
       <r>  -18.6084    1.0000 </r>
       <r>  -18.6061    1.0000 </r>
       <r>  -18.6061    1.0000 </r>
       <r>  -18.6049    1.0000 </r>
       <r>  -18.6049    1.0000 </r>
       <r>  -18.6034    1.0000 </r>
       <r>  -18.6034    1.0000 </r>
       <r>  -18.6031    1.0000 </r>
       <r>  -18.6031    1.0000 </r>
       <r>  -18.6006    1.0000 </r>
       <r>  -18.6005    1.0000 </r>
       <r>  -18.5952    1.0000 </r>
       <r>  -18.5951    1.0000 </r>
       <r>  -18.5939    1.0000 </r>
       <r>  -18.5938    1.0000 </r>
       <r>  -18.4629    1.0000 </r>
       <r>  -18.4629    1.0000 </r>
       <r>  -18.4604    1.0000 </r>
       <r>  -18.4603    1.0000 </r>
       <r>  -18.4503    1.0000 </r>
       <r>  -18.4502    1.0000 </r>
       <r>  -18.4496    1.0000 </r>
       <r>  -18.4496    1.0000 </r>
       <r>  -18.4487    1.0000 </r>
       <r>  -18.4487    1.0000 </r>
       <r>  -18.4483    1.0000 </r>
       <r>  -18.4483    1.0000 </r>
       <r>  -18.4478    1.0000 </r>
       <r>  -18.4478    1.0000 </r>
       <r>  -18.4455    1.0000 </r>
       <r>  -18.4455    1.0000 </r>
       <r>  -18.4403    1.0000 </r>
       <r>  -18.4403    1.0000 </r>
       <r>  -18.4364    1.0000 </r>
       <r>  -18.4364    1.0000 </r>
       <r>  -18.4273    1.0000 </r>
       <r>  -18.4273    1.0000 </r>
       <r>  -18.4234    1.0000 </r>
       <r>  -18.4234    1.0000 </r>
       <r>  -18.3541    1.0000 </r>
       <r>  -18.3541    1.0000 </r>
       <r>  -18.3494    1.0000 </r>
       <r>  -18.3494    1.0000 </r>
       <r>  -18.2354    1.0000 </r>
       <r>  -18.2354    1.0000 </r>
       <r>  -18.2309    1.0000 </r>
       <r>  -18.2309    1.0000 </r>
       <r>  -18.2259    1.0000 </r>
       <r>  -18.2259    1.0000 </r>
       <r>  -18.2214    1.0000 </r>
       <r>  -18.2214    1.0000 </r>
       <r>  -13.4464    1.0000 </r>
       <r>  -13.4464    1.0000 </r>
       <r>  -13.3378    1.0000 </r>
       <r>  -13.3378    1.0000 </r>
       <r>  -12.7506    1.0000 </r>
       <r>  -12.7506    1.0000 </r>
       <r>  -12.6612    1.0000 </r>
       <r>  -12.6612    1.0000 </r>
       <r>  -12.6532    1.0000 </r>
       <r>  -12.6532    1.0000 </r>
       <r>  -12.5929    1.0000 </r>
       <r>  -12.5929    1.0000 </r>
       <r>  -12.0293    1.0000 </r>
       <r>  -12.0293    1.0000 </r>
       <r>  -11.9760    1.0000 </r>
       <r>  -11.9760    1.0000 </r>
       <r>   -9.0721    1.0000 </r>
       <r>   -9.0721    1.0000 </r>
       <r>   -8.7967    1.0000 </r>
       <r>   -8.7967    1.0000 </r>
       <r>   -8.2884    1.0000 </r>
       <r>   -8.2884    1.0000 </r>
       <r>   -8.2866    1.0000 </r>
       <r>   -8.2866    1.0000 </r>
       <r>   -8.1013    1.0000 </r>
       <r>   -8.1013    1.0000 </r>
       <r>   -8.0989    1.0000 </r>
       <r>   -8.0989    1.0000 </r>
       <r>   -7.6599    1.0000 </r>
       <r>   -7.6599    1.0000 </r>
       <r>   -7.5474    1.0000 </r>
       <r>   -7.5474    1.0000 </r>
       <r>   -5.9158    1.0000 </r>
       <r>   -5.9158    1.0000 </r>
       <r>   -5.8926    1.0000 </r>
       <r>   -5.8926    1.0000 </r>
       <r>   -5.7525    1.0000 </r>
       <r>   -5.7525    1.0000 </r>
       <r>   -5.7475    1.0000 </r>
       <r>   -5.7475    1.0000 </r>
       <r>   -5.5403    1.0000 </r>
       <r>   -5.5403    1.0000 </r>
       <r>   -5.4663    1.0000 </r>
       <r>   -5.4663    1.0000 </r>
       <r>   -4.3913    1.0000 </r>
       <r>   -4.3913    1.0000 </r>
       <r>   -4.2236    1.0000 </r>
       <r>   -4.2236    1.0000 </r>
       <r>   -1.1021    1.0000 </r>
       <r>   -1.1021    1.0000 </r>
       <r>   -0.7751    1.0000 </r>
       <r>   -0.7751    1.0000 </r>
       <r>   -0.3295    1.0000 </r>
       <r>   -0.3295    1.0000 </r>
       <r>    0.0344    1.0000 </r>
       <r>    0.0344    1.0000 </r>
       <r>    0.1127    1.0000 </r>
       <r>    0.1127    1.0000 </r>
       <r>    0.2111    1.0000 </r>
       <r>    0.2111    1.0000 </r>
       <r>    0.2586    1.0000 </r>
       <r>    0.2586    1.0000 </r>
       <r>    0.3427    1.0000 </r>
       <r>    0.3427    1.0000 </r>
       <r>    0.4260    1.0000 </r>
       <r>    0.4260    1.0000 </r>
       <r>    0.6057    1.0000 </r>
       <r>    0.6057    1.0000 </r>
       <r>    0.6063    1.0000 </r>
       <r>    0.6063    1.0000 </r>
       <r>    0.6590    1.0000 </r>
       <r>    0.6590    1.0000 </r>
       <r>    0.7824    1.0000 </r>
       <r>    0.7824    1.0000 </r>
       <r>    1.0512    1.0000 </r>
       <r>    1.0512    1.0000 </r>
       <r>    1.0865    1.0000 </r>
       <r>    1.0865    1.0000 </r>
       <r>    1.1372    1.0000 </r>
       <r>    1.1372    1.0000 </r>
       <r>    1.1618    1.0000 </r>
       <r>    1.1618    1.0000 </r>
       <r>    1.3045    1.0000 </r>
       <r>    1.3045    1.0000 </r>
       <r>    1.4121    1.0000 </r>
       <r>    1.4121    1.0000 </r>
       <r>    1.4575    1.0000 </r>
       <r>    1.4575    1.0000 </r>
       <r>    1.5040    1.0000 </r>
       <r>    1.5040    1.0000 </r>
       <r>    1.5759    1.0000 </r>
       <r>    1.5759    1.0000 </r>
       <r>    1.5929    1.0000 </r>
       <r>    1.5929    1.0000 </r>
       <r>    1.6782    1.0000 </r>
       <r>    1.6782    1.0000 </r>
       <r>    1.7625    1.0000 </r>
       <r>    1.7625    1.0000 </r>
       <r>    1.9870    1.0000 </r>
       <r>    1.9870    1.0000 </r>
       <r>    2.0601    1.0000 </r>
       <r>    2.0602    1.0000 </r>
       <r>    2.1278    1.0000 </r>
       <r>    2.1278    1.0000 </r>
       <r>    2.1633    1.0000 </r>
       <r>    2.1633    1.0000 </r>
       <r>    2.3553    1.0000 </r>
       <r>    2.3553    1.0000 </r>
       <r>    2.3691    1.0000 </r>
       <r>    2.3691    1.0000 </r>
       <r>    2.4634    1.0000 </r>
       <r>    2.4634    1.0000 </r>
       <r>    2.5534    1.0000 </r>
       <r>    2.5534    1.0000 </r>
       <r>    2.6323    1.0000 </r>
       <r>    2.6323    1.0000 </r>
       <r>    2.7127    1.0000 </r>
       <r>    2.7127    1.0000 </r>
       <r>    2.7171    1.0000 </r>
       <r>    2.7171    1.0000 </r>
       <r>    2.8711    1.0000 </r>
       <r>    2.8711    1.0000 </r>
       <r>    2.9077    1.0000 </r>
       <r>    2.9077    1.0000 </r>
       <r>    2.9459    1.0000 </r>
       <r>    2.9459    1.0000 </r>
       <r>    3.0372    1.0000 </r>
       <r>    3.0372    1.0000 </r>
       <r>    3.0410    1.0000 </r>
       <r>    3.0410    1.0000 </r>
       <r>    3.1730    1.0000 </r>
       <r>    3.1730    1.0000 </r>
       <r>    3.3056    1.0000 </r>
       <r>    3.3057    1.0000 </r>
       <r>    3.3562    1.0000 </r>
       <r>    3.3562    1.0000 </r>
       <r>    3.5636    1.0000 </r>
       <r>    3.5636    1.0000 </r>
       <r>    3.5672    1.0000 </r>
       <r>    3.5672    1.0000 </r>
       <r>    3.6336    1.0000 </r>
       <r>    3.6336    1.0000 </r>
       <r>    3.6673    1.0000 </r>
       <r>    3.6673    1.0000 </r>
       <r>    5.7066    0.0000 </r>
       <r>    5.7066    0.0000 </r>
       <r>    5.7256    0.0000 </r>
       <r>    5.7256    0.0000 </r>
       <r>    5.8100    0.0000 </r>
       <r>    5.8100    0.0000 </r>
       <r>    5.8188    0.0000 </r>
       <r>    5.8188    0.0000 </r>
       <r>    7.3257    0.0000 </r>
       <r>    7.3257    0.0000 </r>
       <r>    7.3682    0.0000 </r>
       <r>    7.3682    0.0000 </r>
       <r>    7.3717    0.0000 </r>
       <r>    7.3717    0.0000 </r>
       <r>    7.4748    0.0000 </r>
       <r>    7.4748    0.0000 </r>
       <r>    7.5091    0.0000 </r>
       <r>    7.5091    0.0000 </r>
       <r>    7.5757    0.0000 </r>
       <r>    7.5757    0.0000 </r>
       <r>    7.8662    0.0000 </r>
       <r>    7.8662    0.0000 </r>
       <r>    7.8912    0.0000 </r>
       <r>    7.8912    0.0000 </r>
       <r>    7.9138    0.0000 </r>
       <r>    7.9138    0.0000 </r>
       <r>    7.9318    0.0000 </r>
       <r>    7.9318    0.0000 </r>
       <r>    8.0792    0.0000 </r>
       <r>    8.0792    0.0000 </r>
       <r>    8.1621    0.0000 </r>
       <r>    8.1621    0.0000 </r>
       <r>    8.3975    0.0000 </r>
       <r>    8.3975    0.0000 </r>
       <r>    8.5627    0.0000 </r>
       <r>    8.5627    0.0000 </r>
       <r>    8.7121    0.0000 </r>
       <r>    8.7121    0.0000 </r>
       <r>    8.7925    0.0000 </r>
       <r>    8.7925    0.0000 </r>
       <r>    8.8536    0.0000 </r>
       <r>    8.8536    0.0000 </r>
       <r>    8.9546    0.0000 </r>
       <r>    8.9546    0.0000 </r>
       <r>    9.2353    0.0000 </r>
       <r>    9.2353    0.0000 </r>
       <r>    9.4975    0.0000 </r>
       <r>    9.4975    0.0000 </r>
       <r>    9.5375    0.0000 </r>
       <r>    9.5375    0.0000 </r>
       <r>   10.3014    0.0000 </r>
       <r>   10.3014    0.0000 </r>
       <r>   10.5424    0.0000 </r>
       <r>   10.5424    0.0000 </r>
       <r>   10.5984    0.0000 </r>
       <r>   10.5984    0.0000 </r>
       <r>   10.7120    0.0000 </r>
       <r>   10.7121    0.0000 </r>
       <r>   10.8272    0.0000 </r>
       <r>   10.8272    0.0000 </r>
       <r>   10.8627    0.0000 </r>
       <r>   10.8627    0.0000 </r>
       <r>   10.8998    0.0000 </r>
       <r>   10.8998    0.0000 </r>
       <r>   11.3322    0.0000 </r>
       <r>   11.3322    0.0000 </r>
       <r>   11.3346    0.0000 </r>
       <r>   11.3346    0.0000 </r>
       <r>   11.4899    0.0000 </r>
       <r>   11.4917    0.0000 </r>
       <r>   11.5211    0.0000 </r>
       <r>   11.5267    0.0000 </r>
      </set>
      <set comment="kpoint 3">
       <r>  -40.1596    1.0000 </r>
       <r>  -40.1595    1.0000 </r>
       <r>  -39.8301    1.0000 </r>
       <r>  -39.8300    1.0000 </r>
       <r>  -39.8291    1.0000 </r>
       <r>  -39.8289    1.0000 </r>
       <r>  -39.7493    1.0000 </r>
       <r>  -39.7492    1.0000 </r>
       <r>  -39.7482    1.0000 </r>
       <r>  -39.7481    1.0000 </r>
       <r>  -39.4247    1.0000 </r>
       <r>  -39.4246    1.0000 </r>
       <r>  -18.8277    1.0000 </r>
       <r>  -18.8264    1.0000 </r>
       <r>  -18.8260    1.0000 </r>
       <r>  -18.8248    1.0000 </r>
       <r>  -18.7630    1.0000 </r>
       <r>  -18.7623    1.0000 </r>
       <r>  -18.7602    1.0000 </r>
       <r>  -18.7595    1.0000 </r>
       <r>  -18.7569    1.0000 </r>
       <r>  -18.7562    1.0000 </r>
       <r>  -18.7522    1.0000 </r>
       <r>  -18.7515    1.0000 </r>
       <r>  -18.6511    1.0000 </r>
       <r>  -18.6509    1.0000 </r>
       <r>  -18.6503    1.0000 </r>
       <r>  -18.6502    1.0000 </r>
       <r>  -18.6450    1.0000 </r>
       <r>  -18.6448    1.0000 </r>
       <r>  -18.6442    1.0000 </r>
       <r>  -18.6441    1.0000 </r>
       <r>  -18.6201    1.0000 </r>
       <r>  -18.6182    1.0000 </r>
       <r>  -18.6181    1.0000 </r>
       <r>  -18.6160    1.0000 </r>
       <r>  -18.6153    1.0000 </r>
       <r>  -18.6138    1.0000 </r>
       <r>  -18.6118    1.0000 </r>
       <r>  -18.6101    1.0000 </r>
       <r>  -18.6092    1.0000 </r>
       <r>  -18.6078    1.0000 </r>
       <r>  -18.6070    1.0000 </r>
       <r>  -18.6057    1.0000 </r>
       <r>  -18.6055    1.0000 </r>
       <r>  -18.6048    1.0000 </r>
       <r>  -18.6039    1.0000 </r>
       <r>  -18.6039    1.0000 </r>
       <r>  -18.6034    1.0000 </r>
       <r>  -18.6021    1.0000 </r>
       <r>  -18.6011    1.0000 </r>
       <r>  -18.5995    1.0000 </r>
       <r>  -18.5953    1.0000 </r>
       <r>  -18.5944    1.0000 </r>
       <r>  -18.5939    1.0000 </r>
       <r>  -18.5930    1.0000 </r>
       <r>  -18.4631    1.0000 </r>
       <r>  -18.4628    1.0000 </r>
       <r>  -18.4605    1.0000 </r>
       <r>  -18.4603    1.0000 </r>
       <r>  -18.4503    1.0000 </r>
       <r>  -18.4502    1.0000 </r>
       <r>  -18.4497    1.0000 </r>
       <r>  -18.4496    1.0000 </r>
       <r>  -18.4488    1.0000 </r>
       <r>  -18.4487    1.0000 </r>
       <r>  -18.4483    1.0000 </r>
       <r>  -18.4483    1.0000 </r>
       <r>  -18.4478    1.0000 </r>
       <r>  -18.4477    1.0000 </r>
       <r>  -18.4455    1.0000 </r>
       <r>  -18.4454    1.0000 </r>
       <r>  -18.4414    1.0000 </r>
       <r>  -18.4392    1.0000 </r>
       <r>  -18.4375    1.0000 </r>
       <r>  -18.4353    1.0000 </r>
       <r>  -18.4293    1.0000 </r>
       <r>  -18.4254    1.0000 </r>
       <r>  -18.4253    1.0000 </r>
       <r>  -18.4214    1.0000 </r>
       <r>  -18.3547    1.0000 </r>
       <r>  -18.3535    1.0000 </r>
       <r>  -18.3500    1.0000 </r>
       <r>  -18.3488    1.0000 </r>
       <r>  -18.2355    1.0000 </r>
       <r>  -18.2353    1.0000 </r>
       <r>  -18.2310    1.0000 </r>
       <r>  -18.2308    1.0000 </r>
       <r>  -18.2260    1.0000 </r>
       <r>  -18.2258    1.0000 </r>
       <r>  -18.2215    1.0000 </r>
       <r>  -18.2213    1.0000 </r>
       <r>  -13.4504    1.0000 </r>
       <r>  -13.4421    1.0000 </r>
       <r>  -13.3391    1.0000 </r>
       <r>  -13.3371    1.0000 </r>
       <r>  -12.7498    1.0000 </r>
       <r>  -12.7482    1.0000 </r>
       <r>  -12.6651    1.0000 </r>
       <r>  -12.6579    1.0000 </r>
       <r>  -12.6569    1.0000 </r>
       <r>  -12.6500    1.0000 </r>
       <r>  -12.6005    1.0000 </r>
       <r>  -12.5871    1.0000 </r>
       <r>  -12.0327    1.0000 </r>
       <r>  -12.0243    1.0000 </r>
       <r>  -11.9811    1.0000 </r>
       <r>  -11.9737    1.0000 </r>
       <r>   -9.2725    1.0000 </r>
       <r>   -8.9940    1.0000 </r>
       <r>   -8.5623    1.0000 </r>
       <r>   -8.4713    1.0000 </r>
       <r>   -8.4700    1.0000 </r>
       <r>   -8.3802    1.0000 </r>
       <r>   -8.2955    1.0000 </r>
       <r>   -8.2058    1.0000 </r>
       <r>   -8.2043    1.0000 </r>
       <r>   -8.1167    1.0000 </r>
       <r>   -8.0023    1.0000 </r>
       <r>   -8.0006    1.0000 </r>
       <r>   -7.9978    1.0000 </r>
       <r>   -7.9953    1.0000 </r>
       <r>   -7.3285    1.0000 </r>
       <r>   -7.3268    1.0000 </r>
       <r>   -6.3331    1.0000 </r>
       <r>   -6.3303    1.0000 </r>
       <r>   -6.2998    1.0000 </r>
       <r>   -6.2978    1.0000 </r>
       <r>   -5.5170    1.0000 </r>
       <r>   -5.4011    1.0000 </r>
       <r>   -5.3819    1.0000 </r>
       <r>   -5.3789    1.0000 </r>
       <r>   -5.3546    1.0000 </r>
       <r>   -5.2431    1.0000 </r>
       <r>   -5.1821    1.0000 </r>
       <r>   -5.0823    1.0000 </r>
       <r>   -5.0185    1.0000 </r>
       <r>   -4.9193    1.0000 </r>
       <r>   -3.8519    1.0000 </r>
       <r>   -3.5429    1.0000 </r>
       <r>   -1.3049    1.0000 </r>
       <r>   -1.2484    1.0000 </r>
       <r>   -1.1496    1.0000 </r>
       <r>   -1.0347    1.0000 </r>
       <r>   -0.4354    1.0000 </r>
       <r>   -0.4178    1.0000 </r>
       <r>   -0.3792    1.0000 </r>
       <r>   -0.3706    1.0000 </r>
       <r>   -0.3419    1.0000 </r>
       <r>   -0.2566    1.0000 </r>
       <r>   -0.2346    1.0000 </r>
       <r>   -0.1738    1.0000 </r>
       <r>   -0.0154    1.0000 </r>
       <r>    0.0083    1.0000 </r>
       <r>    0.0089    1.0000 </r>
       <r>    0.1655    1.0000 </r>
       <r>    0.3303    1.0000 </r>
       <r>    0.3810    1.0000 </r>
       <r>    0.3933    1.0000 </r>
       <r>    0.4480    1.0000 </r>
       <r>    0.5051    1.0000 </r>
       <r>    0.5204    1.0000 </r>
       <r>    0.7194    1.0000 </r>
       <r>    0.7593    1.0000 </r>
       <r>    0.8205    1.0000 </r>
       <r>    0.8278    1.0000 </r>
       <r>    0.8527    1.0000 </r>
       <r>    1.0125    1.0000 </r>
       <r>    1.0784    1.0000 </r>
       <r>    1.1089    1.0000 </r>
       <r>    1.2063    1.0000 </r>
       <r>    1.2931    1.0000 </r>
       <r>    1.3004    1.0000 </r>
       <r>    1.3285    1.0000 </r>
       <r>    1.3557    1.0000 </r>
       <r>    1.4298    1.0000 </r>
       <r>    1.4665    1.0000 </r>
       <r>    1.5248    1.0000 </r>
       <r>    1.5426    1.0000 </r>
       <r>    1.6233    1.0000 </r>
       <r>    1.6353    1.0000 </r>
       <r>    1.6765    1.0000 </r>
       <r>    1.7083    1.0000 </r>
       <r>    1.7580    1.0000 </r>
       <r>    1.8190    1.0000 </r>
       <r>    1.8578    1.0000 </r>
       <r>    1.9034    1.0000 </r>
       <r>    1.9494    1.0000 </r>
       <r>    1.9557    1.0000 </r>
       <r>    1.9906    1.0000 </r>
       <r>    2.1085    1.0000 </r>
       <r>    2.1159    1.0000 </r>
       <r>    2.1290    1.0000 </r>
       <r>    2.2821    1.0000 </r>
       <r>    2.3326    1.0000 </r>
       <r>    2.4405    1.0000 </r>
       <r>    2.4844    1.0000 </r>
       <r>    2.5113    1.0000 </r>
       <r>    2.5548    1.0000 </r>
       <r>    2.5746    1.0000 </r>
       <r>    2.6060    1.0000 </r>
       <r>    2.6077    1.0000 </r>
       <r>    2.6210    1.0000 </r>
       <r>    2.6228    1.0000 </r>
       <r>    2.6575    1.0000 </r>
       <r>    2.6656    1.0000 </r>
       <r>    2.7122    1.0000 </r>
       <r>    2.7847    1.0000 </r>
       <r>    2.8009    1.0000 </r>
       <r>    2.8269    1.0000 </r>
       <r>    2.8391    1.0000 </r>
       <r>    2.8684    1.0000 </r>
       <r>    2.8986    1.0000 </r>
       <r>    2.9160    1.0000 </r>
       <r>    2.9741    1.0000 </r>
       <r>    2.9872    1.0000 </r>
       <r>    2.9972    1.0000 </r>
       <r>    3.0214    1.0000 </r>
       <r>    3.0593    1.0000 </r>
       <r>    3.1011    1.0000 </r>
       <r>    3.1060    1.0000 </r>
       <r>    3.1673    1.0000 </r>
       <r>    3.2153    1.0000 </r>
       <r>    3.2860    1.0000 </r>
       <r>    3.3294    1.0000 </r>
       <r>    3.3303    1.0000 </r>
       <r>    3.4512    1.0000 </r>
       <r>    3.4873    1.0000 </r>
       <r>    3.4947    1.0000 </r>
       <r>    3.5405    1.0000 </r>
       <r>    3.5428    1.0000 </r>
       <r>    3.6814    1.0000 </r>
       <r>    4.2679    1.0000 </r>
       <r>    4.2752    1.0000 </r>
       <r>    4.2989    1.0000 </r>
       <r>    4.3011    1.0000 </r>
       <r>    5.1823    0.0000 </r>
       <r>    5.1881    0.0000 </r>
       <r>    5.2529    0.0000 </r>
       <r>    5.2592    0.0000 </r>
       <r>    5.8060    0.0000 </r>
       <r>    5.8131    0.0000 </r>
       <r>    5.8539    0.0000 </r>
       <r>    5.8621    0.0000 </r>
       <r>    6.1655    0.0000 </r>
       <r>    6.2007    0.0000 </r>
       <r>    6.2043    0.0000 </r>
       <r>    6.2253    0.0000 </r>
       <r>    6.2487    0.0000 </r>
       <r>    6.2832    0.0000 </r>
       <r>    6.2903    0.0000 </r>
       <r>    6.3097    0.0000 </r>
       <r>    6.8209    0.0000 </r>
       <r>    7.0023    0.0000 </r>
       <r>    7.0364    0.0000 </r>
       <r>    7.0845    0.0000 </r>
       <r>    7.0911    0.0000 </r>
       <r>    7.4174    0.0000 </r>
       <r>    7.4545    0.0000 </r>
       <r>    7.6768    0.0000 </r>
       <r>    7.7864    0.0000 </r>
       <r>    7.8480    0.0000 </r>
       <r>    7.9610    0.0000 </r>
       <r>    8.0551    0.0000 </r>
       <r>    8.1571    0.0000 </r>
       <r>    8.3036    0.0000 </r>
       <r>    8.3107    0.0000 </r>
       <r>    8.5038    0.0000 </r>
       <r>    8.7367    0.0000 </r>
       <r>    8.8956    0.0000 </r>
       <r>    8.9883    0.0000 </r>
       <r>    9.0045    0.0000 </r>
       <r>    9.0224    0.0000 </r>
       <r>    9.0416    0.0000 </r>
       <r>    9.1172    0.0000 </r>
       <r>    9.1248    0.0000 </r>
       <r>    9.1540    0.0000 </r>
       <r>    9.1664    0.0000 </r>
       <r>    9.1910    0.0000 </r>
       <r>    9.2482    0.0000 </r>
       <r>    9.4962    0.0000 </r>
       <r>    9.5054    0.0000 </r>
       <r>    9.7296    0.0000 </r>
       <r>    9.7350    0.0000 </r>
       <r>    9.7452    0.0000 </r>
       <r>    9.8620    0.0000 </r>
       <r>    9.8789    0.0000 </r>
       <r>    9.9559    0.0000 </r>
       <r>   10.1389    0.0000 </r>
       <r>   10.1627    0.0000 </r>
       <r>   10.1966    0.0000 </r>
       <r>   10.3230    0.0000 </r>
       <r>   10.6227    0.0000 </r>
       <r>   10.6491    0.0000 </r>
       <r>   10.6552    0.0000 </r>
       <r>   10.7086    0.0000 </r>
       <r>   10.8519    0.0000 </r>
       <r>   10.8797    0.0000 </r>
       <r>   11.1292    0.0000 </r>
       <r>   11.2612    0.0000 </r>
       <r>   11.4421    0.0000 </r>
       <r>   11.4547    0.0000 </r>
       <r>   11.8213    0.0000 </r>
       <r>   12.0169    0.0000 </r>
       <r>   12.0505    0.0000 </r>
       <r>   12.1951    0.0000 </r>
       <r>   12.3085    0.0000 </r>
       <r>   12.3559    0.0000 </r>
      </set>
      <set comment="kpoint 4">
       <r>  -40.1596    1.0000 </r>
       <r>  -40.1595    1.0000 </r>
       <r>  -39.8297    1.0000 </r>
       <r>  -39.8296    1.0000 </r>
       <r>  -39.8295    1.0000 </r>
       <r>  -39.8292    1.0000 </r>
       <r>  -39.7489    1.0000 </r>
       <r>  -39.7488    1.0000 </r>
       <r>  -39.7486    1.0000 </r>
       <r>  -39.7485    1.0000 </r>
       <r>  -39.4247    1.0000 </r>
       <r>  -39.4246    1.0000 </r>
       <r>  -18.8271    1.0000 </r>
       <r>  -18.8271    1.0000 </r>
       <r>  -18.8254    1.0000 </r>
       <r>  -18.8254    1.0000 </r>
       <r>  -18.7616    1.0000 </r>
       <r>  -18.7616    1.0000 </r>
       <r>  -18.7609    1.0000 </r>
       <r>  -18.7609    1.0000 </r>
       <r>  -18.7546    1.0000 </r>
       <r>  -18.7546    1.0000 </r>
       <r>  -18.7539    1.0000 </r>
       <r>  -18.7539    1.0000 </r>
       <r>  -18.6510    1.0000 </r>
       <r>  -18.6510    1.0000 </r>
       <r>  -18.6503    1.0000 </r>
       <r>  -18.6503    1.0000 </r>
       <r>  -18.6449    1.0000 </r>
       <r>  -18.6449    1.0000 </r>
       <r>  -18.6441    1.0000 </r>
       <r>  -18.6441    1.0000 </r>
       <r>  -18.6188    1.0000 </r>
       <r>  -18.6188    1.0000 </r>
       <r>  -18.6167    1.0000 </r>
       <r>  -18.6167    1.0000 </r>
       <r>  -18.6138    1.0000 </r>
       <r>  -18.6137    1.0000 </r>
       <r>  -18.6121    1.0000 </r>
       <r>  -18.6121    1.0000 </r>
       <r>  -18.6084    1.0000 </r>
       <r>  -18.6084    1.0000 </r>
       <r>  -18.6062    1.0000 </r>
       <r>  -18.6061    1.0000 </r>
       <r>  -18.6049    1.0000 </r>
       <r>  -18.6049    1.0000 </r>
       <r>  -18.6034    1.0000 </r>
       <r>  -18.6034    1.0000 </r>
       <r>  -18.6032    1.0000 </r>
       <r>  -18.6032    1.0000 </r>
       <r>  -18.6005    1.0000 </r>
       <r>  -18.6005    1.0000 </r>
       <r>  -18.5952    1.0000 </r>
       <r>  -18.5952    1.0000 </r>
       <r>  -18.5938    1.0000 </r>
       <r>  -18.5938    1.0000 </r>
       <r>  -18.4629    1.0000 </r>
       <r>  -18.4629    1.0000 </r>
       <r>  -18.4604    1.0000 </r>
[...]
       <r>   11.3764    0.0000 </r>
       <r>   11.3764    0.0000 </r>
       <r>   11.4781    0.0000 </r>
       <r>   11.4798    0.0000 </r>
      </set>
     </set>
    </set>
   </array>
  </eigenvalues>
  <separator name="orbital magnetization" >
   <v name="MAGDIPOLOUT">      0.00000000      0.00000000      0.00000000</v>
  </separator>
  <dos>
   <i name="efermi">      4.43916759 </i>
   <total>
    <array>
     <dimension dim="1">gridpoints</dimension>
     <dimension dim="2">spin</dimension>
     <field>energy</field>
     <field>total</field>
     <field>integrated</field>
     <set>
      <set comment="spin 1">
       <r>   -42.7853     0.0000     0.0000 </r>
       <r>   -42.5928     0.0000     0.0000 </r>
       <r>   -42.4002     0.0000     0.0000 </r>
       <r>   -42.2077     0.0000     0.0000 </r>
       <r>   -42.0151     0.0000     0.0000 </r>
       <r>   -41.8226     0.0000     0.0000 </r>
       <r>   -41.6300     0.0000     0.0000 </r>
       <r>   -41.4374     0.0000     0.0000 </r>
       <r>   -41.2449     0.0000     0.0000 </r>
       <r>   -41.0523     0.0000     0.0000 </r>
       <r>   -40.8598     0.0000     0.0000 </r>
       <r>   -40.6672     0.0000     0.0000 </r>
       <r>   -40.4747     0.0000     0.0000 </r>
       <r>   -40.2821     0.0000     0.0000 </r>
       <r>   -40.0895     0.0000     4.0000 </r>
       <r>   -39.8970     0.0000     4.0000 </r>
       <r>   -39.7044     0.0000    20.0000 </r>
       <r>   -39.5119     0.0000    20.0000 </r>
       <r>   -39.3193     0.0000    24.0000 </r>
       <r>   -39.1268     0.0000    24.0000 </r>
       <r>   -38.9342     0.0000    24.0000 </r>
       <r>   -38.7416     0.0000    24.0000 </r>
       <r>   -38.5491     0.0000    24.0000 </r>
       <r>   -38.3565     0.0000    24.0000 </r>
       <r>   -38.1640     0.0000    24.0000 </r>
       <r>   -37.9714     0.0000    24.0000 </r>
       <r>   -37.7789     0.0000    24.0000 </r>
       <r>   -37.5863     0.0000    24.0000 </r>
       <r>   -37.3938     0.0000    24.0000 </r>
       <r>   -37.2012     0.0000    24.0000 </r>
       <r>   -37.0086     0.0000    24.0000 </r>
       <r>   -36.8161     0.0000    24.0000 </r>
       <r>   -36.6235     0.0000    24.0000 </r>
       <r>   -36.4310     0.0000    24.0000 </r>
       <r>   -36.2384     0.0000    24.0000 </r>
       <r>   -36.0459     0.0000    24.0000 </r>
       <r>   -35.8533     0.0000    24.0000 </r>
       <r>   -35.6607     0.0000    24.0000 </r>
       <r>   -35.4682     0.0000    24.0000 </r>
       <r>   -35.2756     0.0000    24.0000 </r>
       <r>   -35.0831     0.0000    24.0000 </r>
       <r>   -34.8905     0.0000    24.0000 </r>
       <r>   -34.6980     0.0000    24.0000 </r>
       <r>   -34.5054     0.0000    24.0000 </r>
       <r>   -34.3128     0.0000    24.0000 </r>
       <r>   -34.1203     0.0000    24.0000 </r>
       <r>   -33.9277     0.0000    24.0000 </r>
       <r>   -33.7352     0.0000    24.0000 </r>
       <r>   -33.5426     0.0000    24.0000 </r>
       <r>   -33.3501     0.0000    24.0000 </r>
       <r>   -33.1575     0.0000    24.0000 </r>
       <r>   -32.9649     0.0000    24.0000 </r>
       <r>   -32.7724     0.0000    24.0000 </r>
       <r>   -32.5798     0.0000    24.0000 </r>
       <r>   -32.3873     0.0000    24.0000 </r>
       <r>   -32.1947     0.0000    24.0000 </r>
       <r>   -32.0022     0.0000    24.0000 </r>
       <r>   -31.8096     0.0000    24.0000 </r>
       <r>   -31.6171     0.0000    24.0000 </r>
       <r>   -31.4245     0.0000    24.0000 </r>
       <r>   -31.2319     0.0000    24.0000 </r>
       <r>   -31.0394     0.0000    24.0000 </r>
       <r>   -30.8468     0.0000    24.0000 </r>
       <r>   -30.6543     0.0000    24.0000 </r>
       <r>   -30.4617     0.0000    24.0000 </r>
       <r>   -30.2692     0.0000    24.0000 </r>
       <r>   -30.0766     0.0000    24.0000 </r>
       <r>   -29.8840     0.0000    24.0000 </r>
       <r>   -29.6915     0.0000    24.0000 </r>
       <r>   -29.4989     0.0000    24.0000 </r>
       <r>   -29.3064     0.0000    24.0000 </r>
       <r>   -29.1138     0.0000    24.0000 </r>
       <r>   -28.9213     0.0000    24.0000 </r>
       <r>   -28.7287     0.0000    24.0000 </r>
       <r>   -28.5361     0.0000    24.0000 </r>
       <r>   -28.3436     0.0000    24.0000 </r>
       <r>   -28.1510     0.0000    24.0000 </r>
       <r>   -27.9585     0.0000    24.0000 </r>
       <r>   -27.7659     0.0000    24.0000 </r>
       <r>   -27.5734     0.0000    24.0000 </r>
       <r>   -27.3808     0.0000    24.0000 </r>
       <r>   -27.1883     0.0000    24.0000 </r>
       <r>   -26.9957     0.0000    24.0000 </r>
       <r>   -26.8031     0.0000    24.0000 </r>
       <r>   -26.6106     0.0000    24.0000 </r>
       <r>   -26.4180     0.0000    24.0000 </r>
       <r>   -26.2255     0.0000    24.0000 </r>
       <r>   -26.0329     0.0000    24.0000 </r>
       <r>   -25.8404     0.0000    24.0000 </r>
       <r>   -25.6478     0.0000    24.0000 </r>
       <r>   -25.4552     0.0000    24.0000 </r>
       <r>   -25.2627     0.0000    24.0000 </r>
       <r>   -25.0701     0.0000    24.0000 </r>
       <r>   -24.8776     0.0000    24.0000 </r>
       <r>   -24.6850     0.0000    24.0000 </r>
       <r>   -24.4925     0.0000    24.0000 </r>
       <r>   -24.2999     0.0000    24.0000 </r>
       <r>   -24.1073     0.0000    24.0000 </r>
       <r>   -23.9148     0.0000    24.0000 </r>
       <r>   -23.7222     0.0000    24.0000 </r>
       <r>   -23.5297     0.0000    24.0000 </r>
       <r>   -23.3371     0.0000    24.0000 </r>
       <r>   -23.1446     0.0000    24.0000 </r>
       <r>   -22.9520     0.0000    24.0000 </r>
       <r>   -22.7595     0.0000    24.0000 </r>
       <r>   -22.5669     0.0000    24.0000 </r>
       <r>   -22.3743     0.0000    24.0000 </r>
       <r>   -22.1818     0.0000    24.0000 </r>
       <r>   -21.9892     0.0000    24.0000 </r>
       <r>   -21.7967     0.0000    24.0000 </r>
       <r>   -21.6041     0.0000    24.0000 </r>
       <r>   -21.4116     0.0000    24.0000 </r>
       <r>   -21.2190     0.0000    24.0000 </r>
       <r>   -21.0264     0.0000    24.0000 </r>
       <r>   -20.8339     0.0000    24.0000 </r>
       <r>   -20.6413     0.0000    24.0000 </r>
       <r>   -20.4488     0.0000    24.0000 </r>
       <r>   -20.2562     0.0000    24.0000 </r>
       <r>   -20.0637     0.0000    24.0000 </r>
       <r>   -19.8711     0.0000    24.0000 </r>
       <r>   -19.6785     0.0000    24.0000 </r>
       <r>   -19.4860     0.0000    24.0000 </r>
       <r>   -19.2934     0.0000    24.0000 </r>
       <r>   -19.1009     0.0000    24.0000 </r>
       <r>   -18.9083     0.0000    24.0000 </r>
       <r>   -18.7158     0.0000    48.0000 </r>
       <r>   -18.5232     0.0000   112.0000 </r>
       <r>   -18.3306     0.0000   168.0000 </r>
       <r>   -18.1381     0.0000   184.0000 </r>
       <r>   -17.9455     0.0000   184.0000 </r>
       <r>   -17.7530     0.0000   184.0000 </r>
       <r>   -17.5604     0.0000   184.0000 </r>
       <r>   -17.3679     0.0000   184.0000 </r>
       <r>   -17.1753     0.0000   184.0000 </r>
       <r>   -16.9828     0.0000   184.0000 </r>
       <r>   -16.7902     0.0000   184.0000 </r>
       <r>   -16.5976     0.0000   184.0000 </r>
       <r>   -16.4051     0.0000   184.0000 </r>
       <r>   -16.2125     0.0000   184.0000 </r>
       <r>   -16.0200     0.0000   184.0000 </r>
       <r>   -15.8274     0.0000   184.0000 </r>
       <r>   -15.6349     0.0000   184.0000 </r>
       <r>   -15.4423     0.0000   184.0000 </r>
       <r>   -15.2497     0.0000   184.0000 </r>
       <r>   -15.0572     0.0000   184.0000 </r>
       <r>   -14.8646     0.0000   184.0000 </r>
       <r>   -14.6721     0.0000   184.0000 </r>
       <r>   -14.4795     0.0000   184.0000 </r>
       <r>   -14.2870     0.0000   184.0000 </r>
       <r>   -14.0944     0.0000   184.0000 </r>
       <r>   -13.9018     0.0000   184.0000 </r>
       <r>   -13.7093     0.0000   184.0000 </r>
       <r>   -13.5167     0.0000   184.0000 </r>
       <r>   -13.3242     0.0000   192.0000 </r>
       <r>   -13.1316     0.0000   192.0000 </r>
       <r>   -12.9391     0.0000   192.0000 </r>
       <r>   -12.7465   392.9207   193.2933 </r>
       <r>   -12.5540     0.0000   208.0000 </r>
       <r>   -12.3614     0.0000   208.0000 </r>
       <r>   -12.1688     0.0000   208.0000 </r>
       <r>   -11.9763  1538.9029   214.2285 </r>
       <r>   -11.7837     0.0000   216.0000 </r>
       <r>   -11.5912     0.0000   216.0000 </r>
       <r>   -11.3986     0.0000   216.0000 </r>
       <r>   -11.2061     0.0000   216.0000 </r>
       <r>   -11.0135     0.0000   216.0000 </r>
       <r>   -10.8209     0.0000   216.0000 </r>
       <r>   -10.6284     0.0000   216.0000 </r>
       <r>   -10.4358     0.0000   216.0000 </r>
       <r>   -10.2433     0.0000   216.0000 </r>
       <r>   -10.0507     0.0000   216.0000 </r>
       <r>    -9.8582     0.0000   216.0000 </r>
       <r>    -9.6656     0.0000   216.0000 </r>
       <r>    -9.4730     0.0000   216.0000 </r>
       <r>    -9.2805     0.0072   216.0000 </r>
       <r>    -9.0879     9.7137   216.9195 </r>
       <r>    -8.8954     0.0000   220.0000 </r>
       <r>    -8.7028    13.5142   222.7030 </r>
       <r>    -8.5103    13.9383   224.6880 </r>
       <r>    -8.3177    43.8585   229.9037 </r>
       <r>    -8.1251    11.8947   232.4095 </r>
       <r>    -7.9326    23.2438   238.0743 </r>
       <r>    -7.7400    15.2435   241.7801 </r>
       <r>    -7.5475    28.9882   245.5023 </r>
       <r>    -7.3549     2.8780   247.9587 </r>
       <r>    -7.1624     0.0000   248.0000 </r>
       <r>    -6.9698     0.0000   248.0000 </r>
       <r>    -6.7773     0.0000   248.0000 </r>
       <r>    -6.5847     0.0000   248.0000 </r>
       <r>    -6.3921     0.0000   248.0000 </r>
       <r>    -6.1996    12.1387   248.7446 </r>
       <r>    -6.0070    31.1258   252.9434 </r>
       <r>    -5.8145    16.8189   256.1405 </r>
       <r>    -5.6219    20.4729   261.8314 </r>
       <r>    -5.4294    25.7229   265.5513 </r>
       <r>    -5.2368    18.9385   269.7253 </r>
       <r>    -5.0442     3.6011   271.9006 </r>
       <r>    -4.8517     6.7548   272.4585 </r>
       <r>    -4.6591     9.1334   274.0429 </r>
       <r>    -4.4666    12.2140   276.0953 </r>
       <r>    -4.2740     6.4533   277.4369 </r>
       <r>    -4.0815     6.4059   278.8226 </r>
       <r>    -3.8889     2.6949   279.6968 </r>
       <r>    -3.6963     0.6359   279.9629 </r>
       <r>    -3.5038     0.0000   280.0000 </r>
       <r>    -3.3112     0.0000   280.0000 </r>
       <r>    -3.1187     0.0000   280.0000 </r>
       <r>    -2.9261     0.0000   280.0000 </r>
       <r>    -2.7336     0.0000   280.0000 </r>
       <r>    -2.5410     0.0000   280.0000 </r>
       <r>    -2.3485     0.0000   280.0000 </r>
       <r>    -2.1559     0.0000   280.0000 </r>
       <r>    -1.9633     0.0000   280.0000 </r>
       <r>    -1.7708     0.0000   280.0000 </r>
       <r>    -1.5782     0.0000   280.0000 </r>
       <r>    -1.3857     0.0000   280.0000 </r>
       <r>    -1.1931     5.9352   280.3460 </r>
       <r>    -1.0006     9.3050   282.1169 </r>
       <r>    -0.8080    13.4333   284.6994 </r>
       <r>    -0.6154     7.5641   286.6083 </r>
       <r>    -0.4229     8.1109   287.8363 </r>
       <r>    -0.2303    23.9201   291.5533 </r>
       <r>    -0.0378    40.3887   297.4792 </r>
       <r>     0.1548    39.7545   305.3737 </r>
       <r>     0.3473    53.9271   312.4563 </r>
       <r>     0.5399    36.9484   319.4448 </r>
       <r>     0.7325    22.0186   326.8723 </r>
       <r>     0.9250     6.8674   332.1619 </r>
       <r>     1.1176    52.9075   340.2133 </r>
       <r>     1.3101    62.3938   349.6858 </r>
       <r>     1.5027    66.1920   359.8690 </r>
       <r>     1.6952    47.3216   370.8605 </r>
       <r>     1.8878    37.1475   379.2389 </r>
       <r>     2.0803    48.4375   386.0302 </r>
       <r>     2.2729    35.8325   393.9603 </r>
       <r>     2.4655    58.4095   402.7564 </r>
       <r>     2.6580    47.5846   413.9402 </r>
       <r>     2.8506    76.3905   426.2193 </r>
       <r>     3.0431    98.8895   439.5303 </r>
       <r>     3.2357    37.2369   450.4396 </r>
       <r>     3.4282    29.1508   457.8559 </r>
       <r>     3.6208    32.2716   465.4453 </r>
       <r>     3.8134    12.6982   469.1478 </r>
       <r>     4.0059     7.2451   471.0680 </r>
       <r>     4.1985     1.7891   471.9378 </r>
       <r>     4.3910     0.0000   472.0000 </r>
       <r>     4.5836     0.0000   472.0000 </r>
       <r>     4.7761     0.0000   472.0000 </r>
       <r>     4.9687     0.0000   472.0000 </r>
       <r>     5.1613     0.1474   472.0023 </r>
       <r>     5.3538     3.4027   472.2968 </r>
       <r>     5.5464     7.4088   473.3376 </r>
       <r>     5.7389     9.8469   475.1328 </r>
       <r>     5.9315    14.6501   479.3845 </r>
       <r>     6.1240    12.2337   481.9711 </r>
       <r>     6.3166    11.9023   484.2324 </r>
       <r>     6.5092    13.6250   486.6904 </r>
       <r>     6.7017    15.3295   489.4784 </r>
       <r>     6.8943    17.2534   492.6003 </r>
       <r>     7.0868    20.5915   496.1825 </r>
       <r>     7.2794    34.6845   501.1664 </r>
       <r>     7.4719    41.9537   509.0373 </r>
       <r>     7.6645    27.1326   514.8784 </r>
       <r>     7.8570    37.9324   522.5060 </r>
       <r>     8.0496    38.7641   530.3281 </r>
       <r>     8.2422    21.2927   535.8878 </r>
       <r>     8.4347    18.6190   539.5606 </r>
       <r>     8.6273    26.3425   543.8852 </r>
       <r>     8.8198    33.3345   549.0892 </r>
       <r>     9.0124    32.5096   557.8916 </r>
       <r>     9.2049    16.6476   562.6408 </r>
       <r>     9.3975    11.3356   565.2553 </r>
       <r>     9.5901    23.0093   567.9246 </r>
       <r>     9.7826    11.5532   571.5572 </r>
       <r>     9.9752     3.9232   572.3466 </r>
       <r>    10.1677     9.7084   573.6322 </r>
       <r>    10.3603    14.3999   577.0237 </r>
       <r>    10.5528    31.4680   582.4592 </r>
       <r>    10.7454    33.0071   589.1945 </r>
       <r>    10.9380    27.5099   597.6502 </r>
       <r>    11.1305    13.5963   600.9250 </r>
       <r>    11.3231    23.6726   605.2944 </r>
       <r>    11.5156    22.4373   609.2228 </r>
       <r>    11.7082    12.9012   612.4593 </r>
       <r>    11.9007     8.0836   614.4465 </r>
       <r>    12.0933     4.2174   615.6421 </r>
       <r>    12.2858     0.1945   615.9958 </r>
       <r>    12.4784     0.0000   616.0000 </r>
       <r>    12.6710     0.0000   616.0000 </r>
       <r>    12.8635     0.0000   616.0000 </r>
       <r>    13.0561     0.0000   616.0000 </r>
       <r>    13.2486     0.0000   616.0000 </r>
       <r>    13.4412     0.0000   616.0000 </r>
       <r>    13.6337     0.0000   616.0000 </r>
       <r>    13.8263     0.0000   616.0000 </r>
       <r>    14.0189     0.0000   616.0000 </r>
       <r>    14.2114     0.0000   616.0000 </r>
       <r>    14.4040     0.0000   616.0000 </r>
       <r>    14.5965     0.0000   616.0000 </r>
       <r>    14.7891     0.0000   616.0000 </r>
       <r>    14.9816     0.0000   616.0000 </r>
      </set>
     </set>
    </array>
   </total>
  </dos>
 </calculation>
 <structure name="finalpos" >
  <crystal>
   <varray name="basis" >
    <v>      11.17850000       0.00000000       0.00000000 </v>
    <v>       0.00000000       9.57460000       0.00000000 </v>
    <v>       0.00000000       0.00000000      11.18240000 </v>
   </varray>
   <i name="volume">   1196.84853820 </i>
   <varray name="rec_basis" >
    <v>       0.08945744       0.00000000       0.00000000 </v>
    <v>       0.00000000       0.10444301       0.00000000 </v>
    <v>       0.00000000       0.00000000       0.08942624 </v>
   </varray>
  </crystal>
  <varray name="positions" >
   <v>       0.12461000       0.99984000       0.18687000 </v>
   <v>       0.37461000       0.00017000       0.18687000 </v>
   <v>       0.62539000       0.99984000       0.43687000 </v>
   <v>       0.87539000       0.00017000       0.43687000 </v>
   <v>       0.62461000       0.99984000       0.18687000 </v>
   <v>       0.87461000       0.00017000       0.18687000 </v>
   <v>       0.12539000       0.99984000       0.93687000 </v>
   <v>       0.37539000       0.00017000       0.93687000 </v>
   <v>       0.12461000       0.99984000       0.68687000 </v>
   <v>       0.37461000       0.00017000       0.68687000 </v>
   <v>       0.62461000       0.99984000       0.68687000 </v>
   <v>       0.87461000       0.00017000       0.68687000 </v>
   <v>       0.37539000       0.00017000       0.43687000 </v>
   <v>       0.87539000       0.00017000       0.93687000 </v>
   <v>       0.00013000       0.29519000       0.06281000 </v>
   <v>       0.25013000       0.70481000       0.06281000 </v>
   <v>       0.24987000       0.29519000       0.31282000 </v>
   <v>       0.49987000       0.70481000       0.31282000 </v>
   <v>       0.50013000       0.29519000       0.06281000 </v>
   <v>       0.75013000       0.70481000       0.06281000 </v>
   <v>       0.74987000       0.29519000       0.31282000 </v>
   <v>       0.99987000       0.70481000       0.31282000 </v>
   <v>       0.00013000       0.29519000       0.56281000 </v>
   <v>       0.25013000       0.70481000       0.56281000 </v>
   <v>       0.24987000       0.29519000       0.81282000 </v>
   <v>       0.49987000       0.70481000       0.81282000 </v>
   <v>       0.50013000       0.29519000       0.56281000 </v>
   <v>       0.75013000       0.70481000       0.56281000 </v>
   <v>       0.74987000       0.29519000       0.81282000 </v>
   <v>       0.99987000       0.70481000       0.81282000 </v>
   <v>       0.25005000       0.32677000       0.06286000 </v>
   <v>       0.00005000       0.67323000       0.06286000 </v>
   <v>       0.49995000       0.32677000       0.31286000 </v>
   <v>       0.24995000       0.67323000       0.31286000 </v>
   <v>       0.75005000       0.32677000       0.06286000 </v>
   <v>       0.50005000       0.67323000       0.06286000 </v>
   <v>       0.99995000       0.32677000       0.31286000 </v>
   <v>       0.74995000       0.67323000       0.31286000 </v>
   <v>       0.25005000       0.32677000       0.56286000 </v>
   <v>       0.00005000       0.67323000       0.56286000 </v>
   <v>       0.49995000       0.32677000       0.81286000 </v>
   <v>       0.24995000       0.67323000       0.81286000 </v>
   <v>       0.75005000       0.32677000       0.56286000 </v>
   <v>       0.50005000       0.67323000       0.56286000 </v>
   <v>       0.99995000       0.32677000       0.81286000 </v>
   <v>       0.74995000       0.67323000       0.81286000 </v>
   <v>       0.49987000       0.07798000       0.06246000 </v>
   <v>       0.24987000       0.92202000       0.06246000 </v>
   <v>       0.25013000       0.07798000       0.31246000 </v>
   <v>       0.00013000       0.92202000       0.31246000 </v>
   <v>       0.99987000       0.07798000       0.06246000 </v>
   <v>       0.74987000       0.92202000       0.06246000 </v>
   <v>       0.75013000       0.07798000       0.31246000 </v>
   <v>       0.50013000       0.92202000       0.31246000 </v>
   <v>       0.49987000       0.07798000       0.56246000 </v>
   <v>       0.24987000       0.92202000       0.56246000 </v>
   <v>       0.25013000       0.07798000       0.81246000 </v>
   <v>       0.00013000       0.92202000       0.81246000 </v>
   <v>       0.99987000       0.07798000       0.56246000 </v>
   <v>       0.74987000       0.92202000       0.56246000 </v>
   <v>       0.75013000       0.07798000       0.81246000 </v>
   <v>       0.50013000       0.92202000       0.81246000 </v>
  </varray>
 </structure>
</modeling>
