<?xml version="1.0" encoding="ISO-8859-1"?>
<modeling>
 <generator>
  <i name="program" type="string">vasp </i>
  <i name="version" type="string">5.3.3  </i>
  <i name="subversion" type="string">18Dez12 (build Nov 19 2020 19:34:37) complex                          parallel </i>
  <i name="platform" type="string">LinuxIFC </i>
  <i name="date" type="string">2021 09 24 </i>
  <i name="time" type="string">15:54:35 </i>
 </generator>
 <incar>
  <i type="string" name="SYSTEM"> La2O2S</i>
  <i type="string" name="PREC">normal</i>
  <i type="int" name="NELMIN">     4</i>
  <i type="int" name="IBRION">     2</i>
  <i type="int" name="NFREE">    10</i>
  <i name="EDIFF">      0.00000100</i>
  <i name="EDIFFG">     -0.01000000</i>
  <i type="int" name="NSW">   200</i>
  <i type="int" name="ISIF">     3</i>
  <i name="ENCUT">    600.00000000</i>
  <i name="ENAUG">    900.00000000</i>
  <i type="int" name="ISMEAR">    -5</i>
  <i type="logical" name="LWAVE"> F  </i>
  <i type="logical" name="LCHARG"> F  </i>
 </incar>
 <kpoints>
  <generation param="Gamma">
   <v type="int" name="divisions">       2        2        2 </v>
   <v name="usershift">      0.00000000       0.00000000       0.00000000 </v>
   <v name="genvec1">      0.50000000       0.00000000       0.00000000 </v>
   <v name="genvec2">      0.00000000       0.50000000       0.00000000 </v>
   <v name="genvec3">      0.00000000       0.00000000       0.50000000 </v>
   <v name="shift">      0.00000000       0.00000000       0.00000000 </v>
  </generation>
  <varray name="kpointlist" >
   <v>       0.00000000       0.00000000       0.00000000 </v>
   <v>       0.50000000       0.00000000       0.00000000 </v>
   <v>       0.00000000       0.50000000       0.00000000 </v>
   <v>       0.50000000       0.50000000       0.00000000 </v>
   <v>       0.00000000       0.00000000       0.50000000 </v>
   <v>       0.50000000       0.00000000       0.50000000 </v>
   <v>       0.00000000       0.50000000       0.50000000 </v>
   <v>       0.50000000       0.50000000       0.50000000 </v>
  </varray>
  <varray name="weights" >
   <v>       0.12500000 </v>
   <v>       0.12500000 </v>
   <v>       0.12500000 </v>
   <v>       0.12500000 </v>
   <v>       0.12500000 </v>
   <v>       0.12500000 </v>
   <v>       0.12500000 </v>
   <v>       0.12500000 </v>
  </varray>
  <varray name="tetrahedronlist"  type="int" >
   <v type="int" >        2        1        2        4        5 </v>
   <v type="int" >        2        1        3        4        5 </v>
   <v type="int" >        2        3        4        5        7 </v>
   <v type="int" >        2        2        4        5        6 </v>
   <v type="int" >        2        4        5        6        8 </v>
   <v type="int" >        2        4        5        7        8 </v>
   <v type="int" >        2        1        2        3        6 </v>
   <v type="int" >        2        2        3        4        6 </v>
   <v type="int" >        2        3        4        6        8 </v>
   <v type="int" >        2        1        3        5        6 </v>
   <v type="int" >        2        3        5        6        7 </v>
   <v type="int" >        2        3        6        7        8 </v>
   <v type="int" >        2        2        3        4        7 </v>
   <v type="int" >        2        1        2        3        7 </v>
   <v type="int" >        2        1        2        5        7 </v>
   <v type="int" >        2        2        4        7        8 </v>
   <v type="int" >        2        2        6        7        8 </v>
   <v type="int" >        2        2        5        6        7 </v>
   <v type="int" >        2        1        3        4        8 </v>
   <v type="int" >        2        1        2        4        8 </v>
   <v type="int" >        2        1        2        6        8 </v>
   <v type="int" >        2        1        3        7        8 </v>
   <v type="int" >        2        1        5        7        8 </v>
   <v type="int" >        2        1        5        6        8 </v>
  </varray>
  <i name="volumeweight">      0.02083333 </i>
 </kpoints>
 <parameters>
  <separator name="general" >
   <i type="string" name="SYSTEM">La2O2S</i>
   <i type="logical" name="LCOMPAT"> F  </i>
  </separator>
  <separator name="electronic" >
   <i type="string" name="PREC">normal</i>
   <i name="ENMAX">    600.00000000</i>
   <i name="ENAUG">    900.00000000</i>
   <i name="EDIFF">      0.00000100</i>
   <i type="int" name="IALGO">    38</i>
   <i type="int" name="IWAVPR">    11</i>
   <i type="int" name="NBANDS">   320</i>
   <i name="NELECT">    476.00000000</i>
   <i type="int" name="TURBO">     0</i>
   <i type="int" name="IRESTART">     0</i>
   <i type="int" name="NREBOOT">     0</i>
   <i type="int" name="NMIN">     0</i>
   <i name="EREF">      0.00000000</i>
   <separator name="electronic smearing" >
    <i type="int" name="ISMEAR">    -5</i>
    <i name="SIGMA">      0.20000000</i>
    <i name="KSPACING">      0.50000000</i>
    <i type="logical" name="KGAMMA"> T  </i>
   </separator>
   <separator name="electronic projectors" >
    <i type="logical" name="LREAL"> F  </i>
    <v name="ROPT">      0.00000000      0.00000000      0.00000000      0.00000000      0.00000000</v>
    <i type="int" name="LMAXPAW">  -100</i>
    <i type="int" name="LMAXMIX">     2</i>
    <i type="logical" name="NLSPLINE"> F  </i>
   </separator>
   <separator name="electronic startup" >
    <i type="int" name="ISTART">     0</i>
    <i type="int" name="ICHARG">     2</i>
    <i type="int" name="INIWAV">     1</i>
   </separator>
   <separator name="electronic spin" >
    <i type="int" name="ISPIN">     1</i>
    <i type="logical" name="LNONCOLLINEAR"> F  </i>
    <v name="MAGMOM">      1.00000000      1.00000000      1.00000000      1.00000000      1.00000000      1.00000000      1.00000000      1.00000000      1.00000000      1.00000000      1.00000000      1.00000000      1.00000000      1.00000000      1.00000000      1.00000000      1.00000000      1.00000000      1.00000000      1.00000000
      1.00000000      1.00000000      1.00000000      1.00000000      1.00000000      1.00000000      1.00000000      1.00000000      1.00000000      1.00000000      1.00000000      1.00000000      1.00000000      1.00000000      1.00000000      1.00000000      1.00000000      1.00000000      1.00000000      1.00000000
      1.00000000      1.00000000      1.00000000      1.00000000      1.00000000      1.00000000      1.00000000      1.00000000      1.00000000      1.00000000      1.00000000      1.00000000      1.00000000      1.00000000      1.00000000      1.00000000      1.00000000      1.00000000      1.00000000      1.00000000
      1.00000000      1.00000000      1.00000000</v>
    <i name="NUPDOWN">     -1.00000000</i>
    <i type="logical" name="LSORBIT"> F  </i>
    <v name="SAXIS">      0.00000000      0.00000000      1.00000000</v>
    <i type="logical" name="LSPIRAL"> F  </i>
    <v name="QSPIRAL">      0.00000000      0.00000000      0.00000000</v>
    <i type="logical" name="LZEROZ"> F  </i>
   </separator>
   <separator name="electronic exchange-correlation" >
    <i type="logical" name="LASPH"> F  </i>
    <i type="logical" name="LMETAGGA"> F  </i>
   </separator>
   <separator name="electronic convergence" >
    <i type="int" name="NELM">    60</i>
    <i type="int" name="NELMDL">    -5</i>
    <i type="int" name="NELMIN">     4</i>
    <i name="ENINI">    600.00000000</i>
    <separator name="electronic convergence detail" >
     <i type="logical" name="LDIAG"> T  </i>
     <i type="logical" name="LSUBROT"> T  </i>
     <i name="WEIMIN">      0.00100000</i>
     <i name="EBREAK">      0.00000000</i>
     <i name="DEPER">      0.30000000</i>
     <i type="int" name="NRMM">     4</i>
     <i name="TIME">      0.40000000</i>
    </separator>
   </separator>
   <separator name="electronic mixer" >
    <i name="AMIX">      0.40000000</i>
    <i name="BMIX">      1.00000000</i>
    <i name="AMIN">      0.10000000</i>
    <i name="AMIX_MAG">      1.60000000</i>
    <i name="BMIX_MAG">      1.00000000</i>
    <separator name="electronic mixer details" >
     <i type="int" name="IMIX">     4</i>
     <i type="int" name="MAXMIX">   -45</i>
     <i name="WC">    100.00000000</i>
     <i type="int" name="INIMIX">     1</i>
     <i type="int" name="MIXPRE">     1</i>
     <i type="int" name="MREMOVE">     5</i>
    </separator>
   </separator>
   <separator name="electronic dipolcorrection" >
    <i type="logical" name="LDIPOL"> F  </i>
    <i type="logical" name="LMONO"> F  </i>
    <i type="int" name="IDIPOL">     0</i>
    <i name="EPSILON">      1.00000000</i>
    <v name="DIPOL">   -100.00000000   -100.00000000   -100.00000000</v>
    <i name="EFIELD">      0.00000000</i>
   </separator>
  </separator>
  <separator name="grids" >
   <i type="int" name="NGX">    70</i>
   <i type="int" name="NGY">    60</i>
   <i type="int" name="NGZ">    70</i>
   <i type="int" name="NGXF">   140</i>
   <i type="int" name="NGYF">   120</i>
   <i type="int" name="NGZF">   140</i>
   <i type="logical" name="ADDGRID"> F  </i>
  </separator>
  <separator name="ionic" >
   <i type="int" name="NSW">   200</i>
   <i type="int" name="IBRION">     2</i>
   <i type="int" name="ISIF">     3</i>
   <i name="PSTRESS">      0.00000000</i>
   <i name="EDIFFG">     -0.01000000</i>
   <i type="int" name="NFREE">    10</i>
   <i name="POTIM">      0.50000000</i>
   <i name="SMASS">     -3.00000000</i>
   <i name="SCALEE">      1.00000000</i>
  </separator>
  <separator name="ionic md" >
   <i name="TEBEG">      0.00010000</i>
   <i name="TEEND">      0.00010000</i>
   <i type="int" name="NBLOCK">     1</i>
   <i type="int" name="KBLOCK">   200</i>
   <i type="int" name="NPACO">   256</i>
   <i name="APACO">     16.00000000</i>
  </separator>
  <separator name="symmetry" >
   <i type="int" name="ISYM">     2</i>
   <i name="SYMPREC">      0.00001000</i>
  </separator>
  <separator name="dos" >
   <i type="logical" name="LORBIT"> F  </i>
   <v name="RWIGS">     -1.00000000     -1.00000000     -1.00000000     -1.00000000     -1.00000000</v>
   <i type="int" name="NEDOS">   301</i>
   <i name="EMIN">     10.00000000</i>
   <i name="EMAX">    -10.00000000</i>
   <i name="EFERMI">      0.00000000</i>
  </separator>
  <separator name="writing" >
   <i type="int" name="NWRITE">     2</i>
   <i type="logical" name="LWAVE"> F  </i>
   <i type="logical" name="LCHARG"> F  </i>
   <i type="logical" name="LPARD"> F  </i>
   <i type="logical" name="LVTOT"> F  </i>
   <i type="logical" name="LVHAR"> F  </i>
   <i type="logical" name="LELF"> F  </i>
   <i type="logical" name="LOPTICS"> F  </i>
   <v name="STM">      0.00000000      0.00000000      0.00000000      0.00000000      0.00000000      0.00000000      0.00000000</v>
  </separator>
  <separator name="performance" >
   <i type="int" name="NPAR">    40</i>
   <i type="int" name="NSIM">     4</i>
   <i type="int" name="NBLK">    -1</i>
   <i type="logical" name="LPLANE"> T  </i>
   <i type="logical" name="LSCALAPACK"> F  </i>
   <i type="logical" name="LSCAAWARE"> F  </i>
   <i type="logical" name="LSCALU"> F  </i>
   <i type="logical" name="LASYNC"> F  </i>
   <i type="logical" name="LORBITALREAL"> F  </i>
  </separator>
  <separator name="miscellaneous" >
   <i type="int" name="IDIOT">     3</i>
   <i type="logical" name="LMUSIC"> F  </i>
   <v name="POMASS">      7.01000000     24.30500000    208.98000000     32.06600000     16.00000000</v>
   <v name="DARWINR">      0.00000000      0.00000000      0.00000000      0.00000000      0.00000000</v>
   <v name="DARWINV">      1.00000000      1.00000000      1.00000000      1.00000000      1.00000000</v>
   <i type="logical" name="LCORR"> T  </i>
  </separator>
  <i type="logical" name="GGA_COMPAT"> T  </i>
  <i type="logical" name="LBERRY"> F  </i>
  <i type="int" name="ICORELEVEL">     0</i>
  <i type="logical" name="LDAU"> F  </i>
  <i type="int" name="I_CONSTRAINED_M">     0</i>
  <separator name="electronic exchange-correlation" >
   <i type="string" name="GGA">--</i>
   <i type="int" name="VOSKOWN">     0</i>
   <i type="logical" name="LHFCALC"> F  </i>
   <i type="string" name="PRECFOCK"></i>
   <i type="logical" name="LSYMGRAD"> F  </i>
   <i type="logical" name="LHFONE"> F  </i>
   <i type="logical" name="LRHFCALC"> F  </i>
   <i type="logical" name="LTHOMAS"> F  </i>
   <i type="logical" name="LMODELHF"> F  </i>
   <i name="ENCUT4O">     -1.00000000</i>
   <i type="int" name="EXXOEP">     0</i>
   <i type="int" name="FOURORBIT">     0</i>
   <i name="AEXX">      0.00000000</i>
   <i name="HFALPHA">      0.00000000</i>
   <i name="MCALPHA">      0.00000000</i>
   <i name="ALDAX">      1.00000000</i>
   <i name="AGGAX">      1.00000000</i>
   <i name="ALDAC">      1.00000000</i>
   <i name="AGGAC">      1.00000000</i>
   <i type="int" name="NKREDX">     1</i>
   <i type="int" name="NKREDY">     1</i>
   <i type="int" name="NKREDZ">     1</i>
   <i type="logical" name="SHIFTRED"> F  </i>
   <i type="logical" name="ODDONLY"> F  </i>
   <i type="logical" name="EVENONLY"> F  </i>
   <i type="int" name="LMAXFOCK">     0</i>
   <i type="int" name="NMAXFOCKAE">     0</i>
   <i type="logical" name="LFOCKAEDFT"> F  </i>
   <i name="HFSCREEN">      0.00000000</i>
   <i name="HFSCREENC">      0.00000000</i>
   <i type="int" name="NBANDSGWLOW">     0</i>
  </separator>
  <separator name="vdW DFT" >
   <i type="logical" name="LUSE_VDW"> F  </i>
   <i name="Zab_VDW">     -0.84910000</i>
   <i name="PARAM1">      0.12340000</i>
   <i name="PARAM2">      1.00000000</i>
   <i name="PARAM3">      0.00000000</i>
  </separator>
  <separator name="model GW" >
   <i type="int" name="MODEL_GW">     0</i>
   <i name="MODEL_EPS0">     11.39855751</i>
   <i name="MODEL_ALPHA">      1.00000000</i>
  </separator>
  <separator name="linear response parameters" >
   <i type="logical" name="LEPSILON"> F  </i>
   <i type="logical" name="LRPA"> F  </i>
   <i type="logical" name="LNABLA"> F  </i>
   <i type="logical" name="LVEL"> F  </i>
   <i type="int" name="KINTER">     0</i>
   <i name="CSHIFT">      0.10000000</i>
   <i name="OMEGAMAX">     -1.00000000</i>
   <i name="DEG_THRESHOLD">      0.00200000</i>
  </separator>
  <separator name="orbital magnetization" >
   <i type="logical" name="NUCIND"> F  </i>
   <v name="MAGPOS">      0.00000000      0.00000000      0.00000000</v>
   <i type="logical" name="LNICSALL"> T  </i>
   <i type="logical" name="ORBITALMAG"> F  </i>
   <i type="logical" name="LMAGBLOCH"> F  </i>
   <i type="logical" name="LCHIMAG"> F  </i>
   <i type="logical" name="LGAUGE"> T  </i>
   <i type="int" name="MAGATOM">     0</i>
   <v name="MAGDIPOL">      0.00000000      0.00000000      0.00000000</v>
   <v name="AVECCONST">      0.00000000      0.00000000      0.00000000</v>
  </separator>
  <separator name="response functions" >
   <i type="logical" name="LADDER"> F  </i>
   <i type="logical" name="LFXC"> F  </i>
   <i type="logical" name="LHARTREE"> T  </i>
   <i type="int" name="IBSE">     0</i>
   <i type="logical" name="LTCTE"> F  </i>
   <i type="logical" name="LTETE"> F  </i>
   <i type="logical" name="LTRIPLET"> F  </i>
   <i type="logical" name="LFXCEPS"> F  </i>
   <i type="logical" name="L2ORDER"> F  </i>
   <i type="logical" name="LUSEW"> F  </i>
   <i name="ENCUTGW">     -2.00000000</i>
   <i name="ENCUTGWSOFT">     -2.00000000</i>
   <i name="ENCUTLF">     -1.00000000</i>
   <i type="int" name="LMAXMP2">    -1</i>
   <i name="SCISSOR">      0.00000000</i>
   <i type="int" name="NOMEGA">     0</i>
   <i type="int" name="NOMEGAR">     0</i>
   <i type="int" name="NBANDSGW">    -1</i>
   <i type="int" name="NBANDSO">    -1</i>
   <i type="int" name="NBANDSV">    -1</i>
   <i type="int" name="NELM">     1</i>
   <i type="int" name="DIM">     3</i>
   <i type="int" name="ANTIRES">     0</i>
   <i name="OMEGAMAX">    -30.00000000</i>
   <i name="OMEGATL">   -200.00000000</i>
   <i type="int" name="OMEGAGRID">     0</i>
   <i name="CSHIFT">     -0.10000000</i>
   <i type="logical" name="SELFENERGY"> F  </i>
   <i type="logical" name="LSPECTRAL"> F  </i>
   <i type="logical" name="ODDONLYGW"> F  </i>
   <i type="logical" name="EVENONLYGW"> F  </i>
   <i type="int" name="NKREDLFX">     1</i>
   <i type="int" name="NKREDLFY">     1</i>
   <i type="int" name="NKREDLFZ">     1</i>
   <i type="int" name="MAXMEM">  1800</i>
   <i type="int" name="TELESCOPE">     0</i>
  </separator>
 </parameters>
 <atominfo>
  <atoms>      63 </atoms>
  <types>       5 </types>
  <array name="atoms" >
   <dimension dim="1">ion</dimension>
   <field type="string">element</field>
   <field type="int">atomtype</field>
   <set>
    <rc><c>Li</c><c>   1</c></rc>
    <rc><c>Li</c><c>   1</c></rc>
    <rc><c>Li</c><c>   1</c></rc>
    <rc><c>Li</c><c>   1</c></rc>
    <rc><c>Li</c><c>   1</c></rc>
    <rc><c>Li</c><c>   1</c></rc>
    <rc><c>Li</c><c>   1</c></rc>
    <rc><c>Li</c><c>   1</c></rc>
    <rc><c>Li</c><c>   1</c></rc>
    <rc><c>Li</c><c>   1</c></rc>
    <rc><c>Li</c><c>   1</c></rc>
    <rc><c>Li</c><c>   1</c></rc>
    <rc><c>Li</c><c>   1</c></rc>
    <rc><c>Li</c><c>   1</c></rc>
    <rc><c>Mg</c><c>   2</c></rc>
    <rc><c>Bi</c><c>   3</c></rc>
    <rc><c>Bi</c><c>   3</c></rc>
    <rc><c>Bi</c><c>   3</c></rc>
    <rc><c>Bi</c><c>   3</c></rc>
    <rc><c>Bi</c><c>   3</c></rc>
    <rc><c>Bi</c><c>   3</c></rc>
    <rc><c>Bi</c><c>   3</c></rc>
    <rc><c>Bi</c><c>   3</c></rc>
    <rc><c>Bi</c><c>   3</c></rc>
    <rc><c>Bi</c><c>   3</c></rc>
    <rc><c>Bi</c><c>   3</c></rc>
    <rc><c>Bi</c><c>   3</c></rc>
    <rc><c>Bi</c><c>   3</c></rc>
    <rc><c>Bi</c><c>   3</c></rc>
    <rc><c>Bi</c><c>   3</c></rc>
    <rc><c>Bi</c><c>   3</c></rc>
    <rc><c>S </c><c>   4</c></rc>
    <rc><c>S </c><c>   4</c></rc>
    <rc><c>S </c><c>   4</c></rc>
    <rc><c>S </c><c>   4</c></rc>
    <rc><c>S </c><c>   4</c></rc>
    <rc><c>S </c><c>   4</c></rc>
    <rc><c>S </c><c>   4</c></rc>
    <rc><c>S </c><c>   4</c></rc>
    <rc><c>S </c><c>   4</c></rc>
    <rc><c>S </c><c>   4</c></rc>
    <rc><c>S </c><c>   4</c></rc>
    <rc><c>S </c><c>   4</c></rc>
    <rc><c>S </c><c>   4</c></rc>
    <rc><c>S </c><c>   4</c></rc>
    <rc><c>S </c><c>   4</c></rc>
    <rc><c>S </c><c>   4</c></rc>
    <rc><c>O </c><c>   5</c></rc>
    <rc><c>O </c><c>   5</c></rc>
    <rc><c>O </c><c>   5</c></rc>
    <rc><c>O </c><c>   5</c></rc>
    <rc><c>O </c><c>   5</c></rc>
    <rc><c>O </c><c>   5</c></rc>
    <rc><c>O </c><c>   5</c></rc>
    <rc><c>O </c><c>   5</c></rc>
    <rc><c>O </c><c>   5</c></rc>
    <rc><c>O </c><c>   5</c></rc>
    <rc><c>O </c><c>   5</c></rc>
    <rc><c>O </c><c>   5</c></rc>
    <rc><c>O </c><c>   5</c></rc>
    <rc><c>O </c><c>   5</c></rc>
    <rc><c>O </c><c>   5</c></rc>
    <rc><c>O </c><c>   5</c></rc>
   </set>
  </array>
  <array name="atomtypes" >
   <dimension dim="1">type</dimension>
   <field type="int">atomspertype</field>
   <field type="string">element</field>
   <field>mass</field>
   <field>valence</field>
   <field type="string">pseudopotential</field>
   <set>
    <rc><c>  14</c><c>Li</c><c>      7.01000000</c><c>      3.00000000</c><c>  PAW_PBE Li_sv 10Sep2004               </c></rc>
    <rc><c>   1</c><c>Mg</c><c>     24.30500000</c><c>      2.00000000</c><c>  PAW_PBE Mg 13Apr2007                  </c></rc>
    <rc><c>  16</c><c>Bi</c><c>    208.98000000</c><c>     15.00000000</c><c>  PAW_PBE Bi_d 06Sep2000                </c></rc>
    <rc><c>  16</c><c>S </c><c>     32.06600000</c><c>      6.00000000</c><c>  PAW_PBE S 06Sep2000                   </c></rc>
    <rc><c>  16</c><c>O </c><c>     16.00000000</c><c>      6.00000000</c><c>  PAW_PBE O 08Apr2002                   </c></rc>
   </set>
  </array>
 </atominfo>
 <structure name="initialpos" >
  <crystal>
   <varray name="basis" >
    <v>      11.17850000       0.00000000       0.00000000 </v>
    <v>       0.00000000       9.57460000       0.00000000 </v>
    <v>       0.00000000       0.00000000      11.18240000 </v>
   </varray>
   <i name="volume">   1196.84853820 </i>
   <varray name="rec_basis" >
    <v>       0.08945744       0.00000000       0.00000000 </v>
    <v>       0.00000000       0.10444301       0.00000000 </v>
    <v>       0.00000000       0.00000000       0.08942624 </v>
   </varray>
  </crystal>
  <varray name="positions" >
   <v>       0.37539000       0.00017000       0.43687000 </v>
   <v>       0.12461000       0.99983000       0.18687000 </v>
   <v>       0.37461000       0.00017000       0.18687000 </v>
   <v>       0.62539000       0.99983000       0.43687000 </v>
   <v>       0.87539000       0.00017000       0.43687000 </v>
   <v>       0.62461000       0.99983000       0.18687000 </v>
   <v>       0.87461000       0.00017000       0.18687000 </v>
   <v>       0.12539000       0.99983000       0.93687000 </v>
   <v>       0.37539000       0.00017000       0.93687000 </v>
   <v>       0.37461000       0.00017000       0.68687000 </v>
   <v>       0.62539000       0.99983000       0.93687000 </v>
   <v>       0.87539000       0.00017000       0.93687000 </v>
   <v>       0.62461000       0.99983000       0.68687000 </v>
   <v>       0.87461000       0.00017000       0.68687000 </v>
   <v>       0.12461000       0.99983000       0.68687000 </v>
   <v>       0.00013000       0.29519000       0.06282000 </v>
   <v>       0.25013000       0.70481000       0.06282000 </v>
   <v>       0.24987000       0.29519000       0.31282000 </v>
   <v>       0.49987000       0.70481000       0.31282000 </v>
   <v>       0.50013000       0.29519000       0.06282000 </v>
   <v>       0.75013000       0.70481000       0.06282000 </v>
   <v>       0.74987000       0.29519000       0.31282000 </v>
   <v>       0.99987000       0.70481000       0.31282000 </v>
   <v>       0.00013000       0.29519000       0.56282000 </v>
   <v>       0.25013000       0.70481000       0.56282000 </v>
   <v>       0.24987000       0.29519000       0.81282000 </v>
   <v>       0.49987000       0.70481000       0.81282000 </v>
   <v>       0.50013000       0.29519000       0.56282000 </v>
   <v>       0.75013000       0.70481000       0.56282000 </v>
   <v>       0.74987000       0.29519000       0.81282000 </v>
   <v>       0.99987000       0.70481000       0.81282000 </v>
   <v>       0.25005000       0.32677000       0.06286000 </v>
   <v>       0.00005000       0.67323000       0.06286000 </v>
   <v>       0.49995000       0.32677000       0.31286000 </v>
   <v>       0.24995000       0.67323000       0.31286000 </v>
   <v>       0.75005000       0.32677000       0.06286000 </v>
   <v>       0.50005000       0.67323000       0.06286000 </v>
   <v>       0.99995000       0.32677000       0.31286000 </v>
   <v>       0.74995000       0.67323000       0.31286000 </v>
   <v>       0.25005000       0.32677000       0.56286000 </v>
   <v>       0.00005000       0.67323000       0.56286000 </v>
   <v>       0.49995000       0.32677000       0.81286000 </v>
   <v>       0.24995000       0.67323000       0.81286000 </v>
   <v>       0.75005000       0.32677000       0.56286000 </v>
   <v>       0.50005000       0.67323000       0.56286000 </v>
   <v>       0.99995000       0.32677000       0.81286000 </v>
   <v>       0.74995000       0.67323000       0.81286000 </v>
   <v>       0.49987000       0.07798000       0.06246000 </v>
   <v>       0.00013000       0.92202000       0.31246000 </v>
   <v>       0.24987000       0.92202000       0.06246000 </v>
   <v>       0.25013000       0.07798000       0.31246000 </v>
   <v>       0.99987000       0.07798000       0.06246000 </v>
   <v>       0.50013000       0.92202000       0.31246000 </v>
   <v>       0.74987000       0.92202000       0.06246000 </v>
   <v>       0.75013000       0.07798000       0.31246000 </v>
   <v>       0.49987000       0.07798000       0.56246000 </v>
   <v>       0.00013000       0.92202000       0.81246000 </v>
   <v>       0.24987000       0.92202000       0.56246000 </v>
   <v>       0.25013000       0.07798000       0.81246000 </v>
   <v>       0.99987000       0.07798000       0.56246000 </v>
   <v>       0.50013000       0.92202000       0.81246000 </v>
   <v>       0.74987000       0.92202000       0.56246000 </v>
   <v>       0.75013000       0.07798000       0.81246000 </v>
  </varray>
 </structure>
 <calculation>
  <scstep>
   <time name="dav">   45.48   45.61</time>
   <time name="total">   45.68   45.92</time>
   <energy>
    <i name="alphaZ">   1086.17722071 </i>
    <i name="ewald"> -31336.04460951 </i>
    <i name="hartreedc"> -12725.06452777 </i>
    <i name="XCdc">   1542.79850579 </i>
    <i name="pawpsdc">  37012.13516878 </i>
    <i name="pawaedc"> -36680.30965123 </i>
    <i name="eentropy">      0.00000000 </i>
    <i name="bandstr">   1330.43260524 </i>
    <i name="atom">  45556.09114881 </i>
    <i name="e_fr_energy">   5786.21586083 </i>
    <i name="e_wo_entrp">   5786.21586083 </i>
    <i name="e_0_energy">   5786.21586083 </i>
   </energy>
  </scstep>
  <scstep>
   <time name="dav">   45.94   46.26</time>
   <time name="total">   45.95   48.30</time>
   <energy>
    <i name="e_fr_energy">    658.17511081 </i>
    <i name="e_wo_entrp">    658.17511081 </i>
    <i name="e_0_energy">    658.17511081 </i>
   </energy>
  </scstep>
  <scstep>
   <time name="dav">   50.88   51.06</time>
   <time name="total">   50.89   51.19</time>
   <energy>
    <i name="e_fr_energy">   -266.68287413 </i>
    <i name="e_wo_entrp">   -266.68287413 </i>
    <i name="e_0_energy">   -266.68287413 </i>
   </energy>
  </scstep>
  <scstep>
   <time name="dav">   61.46   61.68</time>
   <time name="total">   61.47   61.75</time>
   <energy>
    <i name="e_fr_energy">   -360.89631941 </i>
    <i name="e_wo_entrp">   -360.89631941 </i>
    <i name="e_0_energy">   -360.89631941 </i>
   </energy>
  </scstep>
  <scstep>
   <time name="dav">   71.28   71.77</time>
   <time name="total">   71.73   72.32</time>
   <energy>
    <i name="e_fr_energy">   -367.31900543 </i>
    <i name="e_wo_entrp">   -367.31900543 </i>
    <i name="e_0_energy">   -367.31900543 </i>
   </energy>
  </scstep>
  <scstep>
   <time name="dav">   67.68   68.01</time>
   <time name="total">   68.20   68.63</time>
   <energy>
    <i name="e_fr_energy">   -306.28819803 </i>
    <i name="e_wo_entrp">   -306.28819803 </i>
    <i name="e_0_energy">   -306.28819803 </i>
   </energy>
  </scstep>
  <scstep>
   <time name="dav">   49.74   50.02</time>
   <time name="total">   50.26   50.68</time>
   <energy>
    <i name="e_fr_energy">   -308.05150322 </i>
    <i name="e_wo_entrp">   -308.05150322 </i>
    <i name="e_0_energy">   -308.05150322 </i>
   </energy>
  </scstep>
  <scstep>
   <time name="dav">   54.94   55.25</time>
   <time name="total">   55.47   55.92</time>
   <energy>
    <i name="e_fr_energy">   -306.48278138 </i>
    <i name="e_wo_entrp">   -306.48278138 </i>
    <i name="e_0_energy">   -306.48278138 </i>
   </energy>
  </scstep>
  <scstep>
   <time name="dav">   64.05   64.58</time>
   <time name="total">   64.58   65.28</time>
   <energy>
    <i name="e_fr_energy">   -305.85589447 </i>
    <i name="e_wo_entrp">   -305.85589447 </i>
    <i name="e_0_energy">   -305.85589447 </i>
   </energy>
  </scstep>
  <scstep>
   <time name="dav">   56.89   57.24</time>
   <time name="total">   57.41   57.99</time>
   <energy>
    <i name="e_fr_energy">   -305.84506762 </i>
    <i name="e_wo_entrp">   -305.84506762 </i>
    <i name="e_0_energy">   -305.84506762 </i>
   </energy>
  </scstep>
  <scstep>
   <time name="dav">   58.33   59.18</time>
   <time name="total">   58.92   59.88</time>
   <energy>
    <i name="e_fr_energy">   -305.85766257 </i>
    <i name="e_wo_entrp">   -305.85766257 </i>
    <i name="e_0_energy">   -305.85766257 </i>
   </energy>
  </scstep>
  <scstep>
   <time name="dav">   59.98   60.50</time>
   <time name="total">   60.50   61.13</time>
   <energy>
    <i name="e_fr_energy">   -305.86189504 </i>
    <i name="e_wo_entrp">   -305.86189504 </i>
    <i name="e_0_energy">   -305.86189504 </i>
   </energy>
  </scstep>
  <scstep>
   <time name="dav">   52.76   53.14</time>
   <time name="total">   53.29   53.90</time>
   <energy>
    <i name="e_fr_energy">   -305.86272664 </i>
    <i name="e_wo_entrp">   -305.86272664 </i>
    <i name="e_0_energy">   -305.86272664 </i>
   </energy>
  </scstep>
  <scstep>
   <time name="dav">   64.04   64.59</time>
   <time name="total">   64.56   65.35</time>
   <energy>
    <i name="e_fr_energy">   -305.86286047 </i>
    <i name="e_wo_entrp">   -305.86286047 </i>
    <i name="e_0_energy">   -305.86286047 </i>
   </energy>
  </scstep>
  <scstep>
   <time name="dav">   58.06   58.54</time>
   <time name="total">   58.57   59.15</time>
   <energy>
    <i name="e_fr_energy">   -305.86287339 </i>
    <i name="e_wo_entrp">   -305.86287339 </i>
    <i name="e_0_energy">   -305.86287339 </i>
   </energy>
  </scstep>
  <scstep>
   <time name="dav">   49.42   49.80</time>
   <time name="total">   49.94   50.50</time>
   <energy>
    <i name="e_fr_energy">   -305.86288239 </i>
    <i name="e_wo_entrp">   -305.86288239 </i>
    <i name="e_0_energy">   -305.86288239 </i>
   </energy>
  </scstep>
  <scstep>
   <time name="dav">   54.74   55.01</time>
   <time name="total">   55.26   55.71</time>
   <energy>
    <i name="e_fr_energy">   -305.86288501 </i>
    <i name="e_wo_entrp">   -305.86288501 </i>
    <i name="e_0_energy">   -305.86288501 </i>
   </energy>
  </scstep>
  <scstep>
   <time name="dav">   42.16   42.78</time>
   <time name="total">   42.23   43.02</time>
   <energy>
    <i name="alphaZ">   1086.17722071 </i>
    <i name="ewald"> -31336.04460951 </i>
    <i name="hartreedc"> -12961.24981893 </i>
    <i name="XCdc">   1565.18199683 </i>
    <i name="pawpsdc">  44045.71691325 </i>
    <i name="pawaedc"> -43690.13596019 </i>
    <i name="eentropy">      0.00000000 </i>
    <i name="bandstr">  -4571.59977634 </i>
    <i name="atom">  45556.09114881 </i>
    <i name="e_fr_energy">   -305.86288536 </i>
    <i name="e_wo_entrp">   -305.86288536 </i>
    <i name="e_0_energy">   -305.86288536 </i>
   </energy>
  </scstep>
  <structure>
   <crystal>
    <varray name="basis" >
     <v>      11.17850000       0.00000000       0.00000000 </v>
     <v>       0.00000000       9.57460000       0.00000000 </v>
     <v>       0.00000000       0.00000000      11.18240000 </v>
    </varray>
    <i name="volume">   1196.84853820 </i>
    <varray name="rec_basis" >
     <v>       0.08945744       0.00000000       0.00000000 </v>
     <v>       0.00000000       0.10444301       0.00000000 </v>
     <v>       0.00000000       0.00000000       0.08942624 </v>
    </varray>
   </crystal>
   <varray name="positions" >
    <v>       0.37539000       0.00017000       0.43687000 </v>
    <v>       0.12461000       0.99983000       0.18687000 </v>
    <v>       0.37461000       0.00017000       0.18687000 </v>
    <v>       0.62539000       0.99983000       0.43687000 </v>
    <v>       0.87539000       0.00017000       0.43687000 </v>
    <v>       0.62461000       0.99983000       0.18687000 </v>
    <v>       0.87461000       0.00017000       0.18687000 </v>
    <v>       0.12539000       0.99983000       0.93687000 </v>
    <v>       0.37539000       0.00017000       0.93687000 </v>
    <v>       0.37461000       0.00017000       0.68687000 </v>
    <v>       0.62539000       0.99983000       0.93687000 </v>
    <v>       0.87539000       0.00017000       0.93687000 </v>
    <v>       0.62461000       0.99983000       0.68687000 </v>
    <v>       0.87461000       0.00017000       0.68687000 </v>
    <v>       0.12461000       0.99983000       0.68687000 </v>
    <v>       0.00013000       0.29519000       0.06282000 </v>
    <v>       0.25013000       0.70481000       0.06282000 </v>
    <v>       0.24987000       0.29519000       0.31282000 </v>
    <v>       0.49987000       0.70481000       0.31282000 </v>
    <v>       0.50013000       0.29519000       0.06282000 </v>
    <v>       0.75013000       0.70481000       0.06282000 </v>
    <v>       0.74987000       0.29519000       0.31282000 </v>
    <v>       0.99987000       0.70481000       0.31282000 </v>
    <v>       0.00013000       0.29519000       0.56282000 </v>
    <v>       0.25013000       0.70481000       0.56282000 </v>
    <v>       0.24987000       0.29519000       0.81282000 </v>
    <v>       0.49987000       0.70481000       0.81282000 </v>
    <v>       0.50013000       0.29519000       0.56282000 </v>
    <v>       0.75013000       0.70481000       0.56282000 </v>
    <v>       0.74987000       0.29519000       0.81282000 </v>
    <v>       0.99987000       0.70481000       0.81282000 </v>
    <v>       0.25005000       0.32677000       0.06286000 </v>
    <v>       0.00005000       0.67323000       0.06286000 </v>
    <v>       0.49995000       0.32677000       0.31286000 </v>
    <v>       0.24995000       0.67323000       0.31286000 </v>
    <v>       0.75005000       0.32677000       0.06286000 </v>
    <v>       0.50005000       0.67323000       0.06286000 </v>
    <v>       0.99995000       0.32677000       0.31286000 </v>
    <v>       0.74995000       0.67323000       0.31286000 </v>
    <v>       0.25005000       0.32677000       0.56286000 </v>
    <v>       0.00005000       0.67323000       0.56286000 </v>
    <v>       0.49995000       0.32677000       0.81286000 </v>
    <v>       0.24995000       0.67323000       0.81286000 </v>
    <v>       0.75005000       0.32677000       0.56286000 </v>
    <v>       0.50005000       0.67323000       0.56286000 </v>
    <v>       0.99995000       0.32677000       0.81286000 </v>
    <v>       0.74995000       0.67323000       0.81286000 </v>
    <v>       0.49987000       0.07798000       0.06246000 </v>
    <v>       0.00013000       0.92202000       0.31246000 </v>
    <v>       0.24987000       0.92202000       0.06246000 </v>
    <v>       0.25013000       0.07798000       0.31246000 </v>
    <v>       0.99987000       0.07798000       0.06246000 </v>
    <v>       0.50013000       0.92202000       0.31246000 </v>
    <v>       0.74987000       0.92202000       0.06246000 </v>
    <v>       0.75013000       0.07798000       0.31246000 </v>
    <v>       0.49987000       0.07798000       0.56246000 </v>
    <v>       0.00013000       0.92202000       0.81246000 </v>
    <v>       0.24987000       0.92202000       0.56246000 </v>
    <v>       0.25013000       0.07798000       0.81246000 </v>
    <v>       0.99987000       0.07798000       0.56246000 </v>
    <v>       0.50013000       0.92202000       0.81246000 </v>
    <v>       0.74987000       0.92202000       0.56246000 </v>
    <v>       0.75013000       0.07798000       0.81246000 </v>
   </varray>
  </structure>
  <varray name="forces" >
   <v>      -0.42057385       0.06527462      -0.11622173 </v>
   <v>       0.00985438       0.00042768       0.53532282 </v>
   <v>      -0.14679188       0.06134098       0.20426292 </v>
   <v>      -0.00836197       0.00038534      -0.03801320 </v>
   <v>       0.40532010      -0.06738172      -0.11547821 </v>
   <v>       0.00803663       0.00043016       0.03532754 </v>
   <v>       0.15981464      -0.06251268       0.20015018 </v>
   <v>      -0.00618904       0.00047865       0.53385397 </v>
   <v>       0.08823173      -0.06763151       0.13000552 </v>
   <v>       0.33015729      -0.06393262      -0.19591476 </v>
   <v>      -0.00844216       0.00043481       0.04729516 </v>
   <v>      -0.10345690       0.06729274       0.12931138 </v>
   <v>       0.00793035       0.00039526      -0.02188324 </v>
   <v>      -0.31817365       0.06344895      -0.19154476 </v>
   <v>       0.02494323       0.00413644      -1.03959116 </v>
   <v>      -0.00784807       0.01130503       0.25119654 </v>
   <v>      -0.00316147      -0.01140942       0.25132649 </v>
   <v>      -0.14043009      -1.03887394       0.07497091 </v>
   <v>      -0.03276529       0.01220110      -0.01657623 </v>
   <v>      -0.00942961      -0.01060099       0.14916462 </v>
   <v>      -0.00346887       0.01039895       0.14954333 </v>
   <v>       0.04370235      -0.01172845      -0.01689899 </v>
   <v>       0.15610254       1.03570224       0.07381618 </v>
   <v>       0.02048554       0.00327815      -0.44558393 </v>
   <v>      -0.03086912       0.00677001      -0.44493990 </v>
   <v>       0.15161297       1.03768479       0.10143067 </v>
   <v>       0.06986371      -0.02242309      -0.00070847 </v>
   <v>       0.01675451       0.00470448      -0.14851228 </v>
   <v>      -0.03069496      -0.00579909      -0.14887623 </v>
   <v>      -0.05909895       0.02325071      -0.00024263 </v>
   <v>      -0.14109591      -1.04468170       0.10300001 </v>
   <v>      -0.00380353       0.18574304      -0.26637880 </v>
   <v>       0.00191594      -0.18542829      -0.26668226 </v>
   <v>       0.10892906       0.22081590       0.00516667 </v>
   <v>       0.11827894      -0.19405823      -0.01965685 </v>
   <v>      -0.00079464       0.17860402      -0.07990416 </v>
   <v>      -0.00005956      -0.17863874      -0.07992176 </v>
   <v>      -0.11744937       0.19357089      -0.01799028 </v>
   <v>      -0.10698901      -0.22086605       0.00517039 </v>
   <v>      -0.03379889       0.11109142       0.31880386 </v>
   <v>       0.03136210      -0.10990823       0.31965637 </v>
   <v>      -0.07683254       0.14465331      -0.00137135 </v>
   <v>      -0.12521974      -0.10092572      -0.03745788 </v>
   <v>      -0.00388974       0.18276208       0.07701477 </v>
   <v>       0.00405070      -0.18308432       0.07705493 </v>
   <v>       0.12512244       0.10017183      -0.03883148 </v>
   <v>       0.07932149      -0.14449937      -0.00148442 </v>
   <v>       0.00747392      -0.01616502      -0.08823181 </v>
   <v>      -0.67099955      -0.84165157      -0.60590201 </v>
   <v>       0.00554747       0.02481681      -0.23987436 </v>
   <v>       0.65564854       0.84455633      -0.60681956 </v>
   <v>       0.00497006      -0.02508319      -0.23987662 </v>
   <v>       0.07031251      -0.03530800      -0.00240739 </v>
   <v>       0.00388048       0.01631657      -0.08814004 </v>
   <v>      -0.08057843       0.03508906      -0.00199975 </v>
   <v>       0.00671417      -0.01921994       0.08828082 </v>
   <v>       0.55413760       0.84939217      -0.47281821 </v>
   <v>       0.11146344       0.00378688       1.31835189 </v>
   <v>      -0.57646774      -0.85085589      -0.48067070 </v>
   <v>      -0.11069423      -0.00741582       1.31579837 </v>
   <v>      -0.08130644       0.07711107      -0.00282239 </v>
   <v>       0.00589046       0.02020436       0.08821144 </v>
   <v>       0.07190587      -0.07794324      -0.00325996 </v>
  </varray>
  <varray name="stress" >
   <v>      -8.19086220       0.11502189      -0.01742509 </v>
   <v>       0.11502211     -14.82931217      -0.01680868 </v>
   <v>      -0.01742490      -0.01680886     -10.49387050 </v>
  </varray>
  <energy>
   <i name="e_fr_energy">   -322.93631122 </i>
   <i name="e_wo_entrp">   -322.93631122 </i>
   <i name="e_0_energy">      0.00000000 </i>
  </energy>
  <time name="totalsc"> 1107.31 1120.31</time>
 </calculation>
 <calculation>
  <scstep>
   <time name="dav">   49.50   49.79</time>
   <time name="total">   50.03   50.40</time>
   <energy>
    <i name="alphaZ">   1107.27356113 </i>
    <i name="ewald"> -31541.85427820 </i>
    <i name="hartreedc"> -13038.14266601 </i>
    <i name="XCdc">   1576.59707899 </i>
    <i name="pawpsdc">  44045.80724680 </i>
    <i name="pawaedc"> -43690.22801328 </i>
    <i name="eentropy">      0.00000000 </i>
    <i name="bandstr">  -4322.29298634 </i>
    <i name="atom">  45556.09114881 </i>
    <i name="e_fr_energy">   -306.74890809 </i>
    <i name="e_wo_entrp">   -306.74890809 </i>
    <i name="e_0_energy">   -306.74890809 </i>
   </energy>
  </scstep>
  <scstep>
   <time name="dav">   52.16   52.36</time>
   <time name="total">   52.69   53.03</time>
   <energy>
    <i name="e_fr_energy">   -306.38061000 </i>
    <i name="e_wo_entrp">   -306.38061000 </i>
    <i name="e_0_energy">   -306.38061000 </i>
   </energy>
  </scstep>
  <scstep>
   <time name="dav">   67.53   67.92</time>
   <time name="total">   68.10   68.63</time>
   <energy>
    <i name="e_fr_energy">   -306.14840870 </i>
    <i name="e_wo_entrp">   -306.14840870 </i>
    <i name="e_0_energy">   -306.14840870 </i>
   </energy>
  </scstep>
  <scstep>
   <time name="dav">   62.11   62.52</time>
   <time name="total">   62.64   63.16</time>
   <energy>
    <i name="e_fr_energy">   -306.11517606 </i>
    <i name="e_wo_entrp">   -306.11517606 </i>
    <i name="e_0_energy">   -306.11517606 </i>
   </energy>
  </scstep>
  <scstep>
   <time name="dav">   53.12   53.37</time>
   <time name="total">   53.64   54.03</time>
   <energy>
    <i name="e_fr_energy">   -306.11685682 </i>
    <i name="e_wo_entrp">   -306.11685682 </i>
    <i name="e_0_energy">   -306.11685682 </i>
   </energy>
  </scstep>
  <scstep>
   <time name="dav">   59.60   59.80</time>
   <time name="total">   60.11   60.51</time>
   <energy>
    <i name="e_fr_energy">   -306.11628726 </i>
    <i name="e_wo_entrp">   -306.11628726 </i>
    <i name="e_0_energy">   -306.11628726 </i>
   </energy>
  </scstep>
  <scstep>
   <time name="dav">   63.24   63.46</time>
   <time name="total">   63.77   64.12</time>
   <energy>
    <i name="e_fr_energy">   -306.11618497 </i>
    <i name="e_wo_entrp">   -306.11618497 </i>
    <i name="e_0_energy">   -306.11618497 </i>
   </energy>
  </scstep>
  <scstep>
   <time name="dav">   59.55   59.80</time>
   <time name="total">   60.08   60.52</time>
   <energy>
    <i name="e_fr_energy">   -306.11625479 </i>
    <i name="e_wo_entrp">   -306.11625479 </i>
    <i name="e_0_energy">   -306.11625479 </i>
   </energy>
  </scstep>
  <scstep>
   <time name="dav">   65.62   65.80</time>
   <time name="total">   66.18   66.51</time>
   <energy>
    <i name="e_fr_energy">   -306.11625506 </i>
    <i name="e_wo_entrp">   -306.11625506 </i>
    <i name="e_0_energy">   -306.11625506 </i>
   </energy>
  </scstep>
  <scstep>
   <time name="dav">   51.63   51.70</time>
   <time name="total">   52.15   52.37</time>
   <energy>
    <i name="e_fr_energy">   -306.11625721 </i>
    <i name="e_wo_entrp">   -306.11625721 </i>
    <i name="e_0_energy">   -306.11625721 </i>
   </energy>
  </scstep>
  <scstep>
   <time name="dav">   62.22   62.70</time>
   <time name="total">   62.74   63.35</time>
   <energy>
    <i name="e_fr_energy">   -306.11625522 </i>
    <i name="e_wo_entrp">   -306.11625522 </i>
    <i name="e_0_energy">   -306.11625522 </i>
   </energy>
  </scstep>
  <scstep>
   <time name="dav">   44.49   44.84</time>
   <time name="total">   44.56   45.05</time>
   <energy>
    <i name="alphaZ">   1107.27356113 </i>
    <i name="ewald"> -31541.85427820 </i>
    <i name="hartreedc"> -12855.15343828 </i>
    <i name="XCdc">   1567.91106426 </i>
    <i name="pawpsdc">  44416.56148618 </i>
    <i name="pawaedc"> -44063.69783283 </i>
    <i name="eentropy">      0.00000000 </i>
    <i name="bandstr">  -4493.24796644 </i>
    <i name="atom">  45556.09114881 </i>
    <i name="e_fr_energy">   -306.11625535 </i>
    <i name="e_wo_entrp">   -306.11625535 </i>
    <i name="e_0_energy">   -306.11625535 </i>
   </energy>
  </scstep>
  <structure>
   <crystal>
    <varray name="basis" >
     <v>      11.12612399       0.00073550      -0.00011142 </v>
     <v>       0.00062997       9.49338039      -0.00009206 </v>
     <v>      -0.00011146      -0.00010752      11.11527412 </v>
    </varray>
    <i name="volume">   1174.04556965 </i>
    <varray name="rec_basis" >
     <v>       0.08987856      -0.00000596       0.00000090 </v>
     <v>      -0.00000696       0.10533656       0.00000102 </v>
     <v>       0.00000090       0.00000087       0.08996629 </v>
    </varray>
   </crystal>
   <varray name="positions" >
    <v>       0.37357494       0.00049889       0.43636860 </v>
    <v>       0.12465253       0.99983215       0.18917947 </v>
    <v>       0.37397650       0.00047907       0.18775122 </v>
    <v>       0.62535391       0.99983194       0.43670600 </v>
    <v>       0.87713923      -0.00016951       0.43637181 </v>
    <v>       0.62464468       0.99983217       0.18702241 </v>
    <v>       0.87529971      -0.00014498       0.18773348 </v>
    <v>       0.12536329       0.99983241       0.93917313 </v>
    <v>       0.37577078      -0.00017077       0.93743086 </v>
    <v>       0.37603485      -0.00015213       0.68602479 </v>
    <v>       0.62535357       0.99983219       0.93707404 </v>
    <v>       0.87494351       0.00050906       0.93742787 </v>
    <v>       0.62464422       0.99983199       0.68677559 </v>
    <v>       0.87323687       0.00048969       0.68604365 </v>
    <v>       0.12471765       0.99985084       0.68238504 </v>
    <v>       0.00009613       0.29524696       0.06390370 </v>
    <v>       0.25011636       0.70475251       0.06390426 </v>
    <v>       0.24926395       0.28995552       0.31314344 </v>
    <v>       0.49972860       0.70487148       0.31274849 </v>
    <v>       0.50008930       0.29513659       0.06346352 </v>
    <v>       0.75011503       0.70486240       0.06346515 </v>
    <v>       0.75005860       0.29513090       0.31274710 </v>
    <v>       0.00054369       0.71002850       0.31313845 </v>
    <v>       0.00021841       0.29520652       0.56089768 </v>
    <v>       0.24999678       0.70484411       0.56090046 </v>
    <v>       0.25052431       0.30041849       0.81325759 </v>
    <v>       0.50017151       0.70469702       0.81281694 </v>
    <v>       0.50020231       0.29521370       0.56217929 </v>
    <v>       0.74999753       0.70478078       0.56217772 </v>
    <v>       0.74961495       0.29530715       0.81281895 </v>
    <v>       0.99926108       0.69954626       0.81326436 </v>
    <v>       0.25003359       0.32770589       0.06171080 </v>
    <v>       0.00005827       0.67229570       0.06170949 </v>
    <v>       0.50042010       0.32788260       0.31288229 </v>
    <v>       0.25046045       0.67225222       0.31277520 </v>
    <v>       0.75004657       0.32766992       0.06251528 </v>
    <v>       0.50004974       0.67232991       0.06251520 </v>
    <v>       0.99944313       0.32774533       0.31278239 </v>
    <v>       0.74948827       0.67211714       0.31288231 </v>
    <v>       0.24990414       0.32732975       0.56423537 </v>
    <v>       0.00018535       0.67267622       0.56423905 </v>
    <v>       0.49961842       0.32749885       0.81285408 </v>
    <v>       0.24940959       0.67272147       0.81269840 </v>
    <v>       0.75003321       0.32769087       0.56319225 </v>
    <v>       0.50006748       0.67230751       0.56319243 </v>
    <v>       0.00048999       0.32727473       0.81269247 </v>
    <v>       0.75029232       0.67250192       0.81285360 </v>
    <v>       0.49990225       0.07789855       0.06207935 </v>
    <v>      -0.00276581       0.91777925       0.30984604 </v>
    <v>       0.24989394       0.92214504       0.06142514 </v>
    <v>       0.25295956       0.08223539       0.30984208 </v>
    <v>       0.99989145       0.07785362       0.06142513 </v>
    <v>       0.50043345       0.92184210       0.31244961 </v>
    <v>       0.74988675       0.92210221       0.06207975 </v>
    <v>       0.74978225       0.07815680       0.31245137 </v>
    <v>       0.49989898       0.07788316       0.56284086 </v>
    <v>       0.00252147       0.92629975       0.81042019 </v>
    <v>       0.25035104       0.92203908       0.56814758 </v>
    <v>       0.24764216       0.07369287       0.81038631 </v>
    <v>       0.99939228       0.07794263       0.56813656 </v>
    <v>       0.49977911       0.92240853       0.81244782 </v>
    <v>       0.74989542       0.92212180       0.56284056 </v>
    <v>       0.75044032       0.07758727       0.81244594 </v>
   </varray>
  </structure>
  <varray name="forces" >
   <v>      -0.30675394       0.02960247      -0.01436267 </v>
   <v>       0.00751961       0.00147957       0.33737538 </v>
   <v>      -0.05996187       0.02777115       0.09384011 </v>
   <v>      -0.00667575       0.00093592      -0.02080432 </v>
   <v>       0.29550808      -0.03138576      -0.01215895 </v>
   <v>       0.00743397       0.00109792       0.01919214 </v>
   <v>       0.07342475      -0.03144942       0.09354338 </v>
   <v>      -0.00849497       0.00165971       0.20194437 </v>
   <v>      -0.01559854      -0.03769278       0.01091837 </v>
   <v>       0.18295721      -0.03389539      -0.04824509 </v>
   <v>      -0.00749319       0.00117845       0.02803422 </v>
   <v>       0.00149030       0.03461241       0.00890119 </v>
   <v>       0.00762147       0.00090021      -0.00245644 </v>
   <v>      -0.16785702       0.03279438      -0.04622014 </v>
   <v>       0.01610515       0.00244699      -0.27592305 </v>
   <v>      -0.00925401       0.28615803       0.02697018 </v>
   <v>       0.00022651      -0.28682194       0.02669320 </v>
   <v>      -0.07436951       1.13256753       0.06714809 </v>
   <v>       0.03055476      -0.36092552      -0.01943812 </v>
   <v>      -0.00523168       0.29368933       0.06542823 </v>
   <v>      -0.00386352      -0.29336922       0.06569874 </v>
   <v>      -0.02085519       0.36041200      -0.01910588 </v>
   <v>       0.08160518      -1.13016225       0.06671945 </v>
   <v>       0.00846787       0.31132267      -0.14821276 </v>
   <v>      -0.01801090      -0.31447078      -0.14849331 </v>
   <v>       0.01672125      -0.05467185       0.04332247 </v>
   <v>      -0.00624228      -0.22791735       0.00053681 </v>
   <v>       0.01796324       0.29906639      -0.06115033 </v>
   <v>      -0.02685556      -0.29758014      -0.06149282 </v>
   <v>       0.01442255       0.22650929       0.00053767 </v>
   <v>      -0.00742018       0.05533267       0.04393578 </v>
   <v>      -0.00231755       0.18818950      -0.10269077 </v>
   <v>       0.00185108      -0.18835993      -0.10243555 </v>
   <v>       0.04663853       0.20810014       0.00789232 </v>
   <v>       0.06316023      -0.11502606      -0.01627125 </v>
   <v>      -0.00124574       0.17808738      -0.03448413 </v>
   <v>       0.00093334      -0.17805326      -0.03439362 </v>
   <v>      -0.06322558       0.11453979      -0.01540532 </v>
   <v>      -0.04622080      -0.20804310       0.00772860 </v>
   <v>      -0.03342739       0.11793693       0.14440941 </v>
   <v>       0.03304979      -0.11752317       0.14451506 </v>
   <v>      -0.02201912       0.15900498      -0.00127372 </v>
   <v>      -0.05429961      -0.22310042      -0.02757528 </v>
   <v>       0.00320556       0.17913934       0.02805372 </v>
   <v>      -0.00344161      -0.17899948       0.02803046 </v>
   <v>       0.05498655       0.22312104      -0.02793300 </v>
   <v>       0.02209513      -0.15948596      -0.00125389 </v>
   <v>       0.00671689      -0.28897126      -0.01572605 </v>
   <v>      -0.51440505       1.27933149      -0.49526765 </v>
   <v>       0.00899597       0.26881001      -0.00746651 </v>
   <v>       0.50517390      -1.28134159      -0.49394946 </v>
   <v>       0.00169426      -0.26834902      -0.00783516 </v>
   <v>      -0.00482646       0.33144379       0.00688947 </v>
   <v>       0.00230873       0.28888369      -0.01560561 </v>
   <v>      -0.00412494      -0.33089549       0.00640444 </v>
   <v>       0.00432232      -0.28220065      -0.00299590 </v>
   <v>       0.25719203      -0.30701714      -0.29013089 </v>
   <v>       0.28526925       0.15024173       0.64684913 </v>
   <v>      -0.27398094       0.30140450      -0.29733101 </v>
   <v>      -0.28440191      -0.14205036       0.64350409 </v>
   <v>       0.00229332       0.23174111       0.00255605 </v>
   <v>       0.00257741       0.28016787      -0.00265029 </v>
   <v>      -0.01161141      -0.22992109       0.00316642 </v>
  </varray>
  <varray name="stress" >
   <v>       3.10307378      -0.51577034      -0.01546127 </v>
   <v>      -0.51577000       5.03230300      -0.00615964 </v>
   <v>      -0.01546132      -0.00615997       3.90464039 </v>
  </varray>
  <energy>
   <i name="e_fr_energy">   -323.43735772 </i>
   <i name="e_wo_entrp">   -323.43735772 </i>
   <i name="e_0_energy">      0.00000000 </i>
  </energy>
  <time name="totalsc">  781.98  787.97</time>
 </calculation>
 <calculation>
  <scstep>
   <time name="dav">   57.00   57.19</time>
   <time name="total">   57.53   57.74</time>
   <energy>
    <i name="alphaZ">   1106.55637089 </i>
    <i name="ewald"> -31535.08424494 </i>
    <i name="hartreedc"> -12852.45896401 </i>
    <i name="XCdc">   1567.52586485 </i>
    <i name="pawpsdc">  44416.50367490 </i>
    <i name="pawaedc"> -44063.64568661 </i>
    <i name="eentropy">      0.00000000 </i>
    <i name="bandstr">  -4501.61496031 </i>
    <i name="atom">  45556.09114881 </i>
    <i name="e_fr_energy">   -306.12679641 </i>
    <i name="e_wo_entrp">   -306.12679641 </i>
    <i name="e_0_energy">   -306.12679641 </i>
   </energy>
  </scstep>
  <scstep>
   <time name="dav">   52.38   53.04</time>
   <time name="total">   52.90   53.70</time>
   <energy>
    <i name="e_fr_energy">   -306.12606972 </i>
    <i name="e_wo_entrp">   -306.12606972 </i>
    <i name="e_0_energy">   -306.12606972 </i>
   </energy>
  </scstep>
  <scstep>
   <time name="dav">   62.78   63.01</time>
   <time name="total">   63.30   63.68</time>
   <energy>
    <i name="e_fr_energy">   -306.12580445 </i>
    <i name="e_wo_entrp">   -306.12580445 </i>
    <i name="e_0_energy">   -306.12580445 </i>
   </energy>
  </scstep>
  <scstep>
   <time name="dav">   63.56   64.05</time>
   <time name="total">   64.13   64.75</time>
   <energy>
    <i name="e_fr_energy">   -306.12576541 </i>
    <i name="e_wo_entrp">   -306.12576541 </i>
    <i name="e_0_energy">   -306.12576541 </i>
   </energy>
  </scstep>
  <scstep>
   <time name="dav">   56.41   56.79</time>
   <time name="total">   56.94   57.45</time>
   <energy>
    <i name="e_fr_energy">   -306.12575906 </i>
    <i name="e_wo_entrp">   -306.12575906 </i>
    <i name="e_0_energy">   -306.12575906 </i>
   </energy>
  </scstep>
  <scstep>
   <time name="dav">   54.76   55.15</time>
   <time name="total">   55.28   55.77</time>
   <energy>
    <i name="e_fr_energy">   -306.12575093 </i>
    <i name="e_wo_entrp">   -306.12575093 </i>
    <i name="e_0_energy">   -306.12575093 </i>
   </energy>
  </scstep>
  <scstep>
   <time name="dav">   39.42   39.75</time>
   <time name="total">   39.98   40.42</time>
   <energy>
    <i name="e_fr_energy">   -306.12574722 </i>
    <i name="e_wo_entrp">   -306.12574722 </i>
    <i name="e_0_energy">   -306.12574722 </i>
   </energy>
  </scstep>
  <scstep>
   <time name="dav">   35.46   35.54</time>
   <time name="total">   35.52   35.80</time>
   <energy>
    <i name="alphaZ">   1106.55637089 </i>
    <i name="ewald"> -31535.08424494 </i>
    <i name="hartreedc"> -12858.59166747 </i>
    <i name="XCdc">   1567.81726316 </i>
    <i name="pawpsdc">  44403.23861805 </i>
    <i name="pawaedc"> -44050.27611973 </i>
    <i name="eentropy">      0.00000000 </i>
    <i name="bandstr">  -4495.87711575 </i>
    <i name="atom">  45556.09114881 </i>
    <i name="e_fr_energy">   -306.12574699 </i>
    <i name="e_wo_entrp">   -306.12574699 </i>
    <i name="e_0_energy">   -306.12574699 </i>
   </energy>
  </scstep>
  <structure>
   <crystal>
    <varray name="basis" >
     <v>      11.12788232       0.00071081      -0.00010768 </v>
     <v>       0.00060882       9.49610704      -0.00008897 </v>
     <v>      -0.00010772      -0.00010391      11.11752763 </v>
    </varray>
    <i name="volume">   1174.80650153 </i>
    <varray name="rec_basis" >
     <v>       0.08986436      -0.00000576       0.00000087 </v>
     <v>      -0.00000673       0.10530631       0.00000098 </v>
     <v>       0.00000087       0.00000084       0.08994806 </v>
    </varray>
   </crystal>
   <varray name="positions" >
    <v>       0.37363617       0.00048775       0.43638554 </v>
    <v>       0.12465109       0.99983208       0.18910147 </v>
    <v>       0.37399786       0.00046861       0.18772146 </v>
    <v>       0.62535513       0.99983188       0.43671154 </v>
    <v>       0.87708022      -0.00015801       0.43638863 </v>
    <v>       0.62464351       0.99983209       0.18701726 </v>
    <v>       0.87527644      -0.00013431       0.18770432 </v>
    <v>       0.12536419       0.99983233       0.93909534 </v>
    <v>       0.37575793      -0.00015923       0.93741192 </v>
    <v>       0.37598679      -0.00014122       0.68605334 </v>
    <v>       0.62535480       0.99983212       0.93706715 </v>
    <v>       0.87495857       0.00049758       0.93740903 </v>
    <v>       0.62464307       0.99983192       0.68677878 </v>
    <v>       0.87328319       0.00047887       0.68607156 </v>
    <v>       0.12471402       0.99985014       0.68253651 </v>
    <v>       0.00009727       0.29524503       0.06386710 </v>
    <v>       0.25011682       0.70475446       0.06386764 </v>
    <v>       0.24928438       0.29013275       0.31313251 </v>
    <v>       0.49973337       0.70486939       0.31275090 </v>
    <v>       0.50009068       0.29513839       0.06344179 </v>
    <v>       0.75011553       0.70486062       0.06344336 </v>
    <v>       0.75005224       0.29513291       0.31274956 </v>
    <v>       0.00052097       0.70985181       0.31312770 </v>
    <v>       0.00021543       0.29520596       0.56096260 </v>
    <v>       0.25000127       0.70484296       0.56096529 </v>
    <v>       0.25050225       0.30024146       0.81324281 </v>
    <v>       0.50016134       0.70470085       0.81281705 </v>
    <v>       0.50019987       0.29521290       0.56220093 </v>
    <v>       0.75000200       0.70478177       0.56219942 </v>
    <v>       0.74962355       0.29530318       0.81281899 </v>
    <v>       0.99928161       0.69972448       0.81324935 </v>
    <v>       0.25003414       0.32767420       0.06174961 </v>
    <v>       0.00005799       0.67232733       0.06174835 </v>
    <v>       0.50040425       0.32784493       0.31288154 </v>
    <v>       0.25044323       0.67228532       0.31277806 </v>
    <v>       0.75004669       0.32763945       0.06252692 </v>
    <v>       0.50004975       0.67236039       0.06252685 </v>
    <v>       0.99946023       0.32771230       0.31278501 </v>
    <v>       0.74950384       0.67215482       0.31288155 </v>
    <v>       0.24990906       0.32731079       0.56418892 </v>
    <v>       0.00018078       0.67269497       0.56419247 </v>
    <v>       0.49962960       0.32747417       0.81285428 </v>
    <v>       0.24942782       0.67273869       0.81270386 </v>
    <v>       0.75003378       0.32765969       0.56318103 </v>
    <v>       0.50006689       0.67233874       0.56318120 </v>
    <v>       0.00047177       0.32725764       0.81269813 </v>
    <v>       0.75028078       0.67252658       0.81285381 </v>
    <v>       0.49990117       0.07790131       0.06209221 </v>
    <v>      -0.00266814       0.91792283       0.30993433 </v>
    <v>       0.24989313       0.92214081       0.06146010 </v>
    <v>       0.25286413       0.08209132       0.30993050 </v>
    <v>       0.99989073       0.07785790       0.06146009 </v>
    <v>       0.50042321       0.92184812       0.31244996 </v>
    <v>       0.74988618       0.92209943       0.06209259 </v>
    <v>       0.74979398       0.07815081       0.31245166 </v>
    <v>       0.49989800       0.07788644       0.56282799 </v>
    <v>       0.00244082       0.92615485       0.81048908 </v>
    <v>       0.25033481       0.92203843       0.56795549 </v>
    <v>       0.24772606       0.07383802       0.81045635 </v>
    <v>       0.99940839       0.07794390       0.56794484 </v>
    <v>       0.49979094       0.92239538       0.81244824 </v>
    <v>       0.74989456       0.92211835       0.56282771 </v>
    <v>       0.75042985       0.07760057       0.81244641 </v>
   </varray>
  </structure>
  <varray name="forces" >
   <v>      -0.31076721       0.03096915      -0.01796948 </v>
   <v>       0.00760937       0.00144736       0.34414638 </v>
   <v>      -0.06315998       0.02920029       0.09789154 </v>
   <v>      -0.00672934       0.00091627      -0.02150887 </v>
   <v>       0.29932456      -0.03275435      -0.01576237 </v>
   <v>       0.00745365       0.00107443       0.01979742 </v>
   <v>       0.07657898      -0.03277395       0.09739407 </v>
   <v>      -0.00843041       0.00162092       0.21303946 </v>
   <v>      -0.01213737      -0.03871106       0.01501133 </v>
   <v>       0.18771130      -0.03498676      -0.05343489 </v>
   <v>      -0.00752630       0.00115219       0.02876677 </v>
   <v>      -0.00200258       0.03571443       0.01301638 </v>
   <v>       0.00763284       0.00088282      -0.00316731 </v>
   <v>      -0.17268834       0.03391181      -0.05134377 </v>
   <v>       0.01648152       0.00247672      -0.30377258 </v>
   <v>      -0.00923794       0.27654677       0.03463660 </v>
   <v>       0.00014151      -0.27719388       0.03437498 </v>
   <v>      -0.07520245       1.04021786       0.06608726 </v>
   <v>       0.02838322      -0.34785151      -0.01940410 </v>
   <v>      -0.00534572       0.28306091       0.06832408 </v>
   <v>      -0.00388296      -0.28275735       0.06859553 </v>
   <v>      -0.01862626       0.34737986      -0.01909004 </v>
   <v>       0.08275550      -1.03810528       0.06564169 </v>
   <v>       0.00888812       0.30143414      -0.15827172 </v>
   <v>      -0.01845810      -0.30411162      -0.15850840 </v>
   <v>       0.02149179      -0.02360638       0.04562837 </v>
   <v>      -0.00364339      -0.22087724       0.00049531 </v>
   <v>       0.01801186       0.28884866      -0.06415030 </v>
   <v>      -0.02707986      -0.28746078      -0.06449677 </v>
   <v>       0.01191277       0.21955509       0.00051227 </v>
   <v>      -0.01209326       0.02407854       0.04627116 </v>
   <v>      -0.00235823       0.18822005      -0.10860847 </v>
   <v>       0.00185270      -0.18837568      -0.10837362 </v>
   <v>       0.04889260       0.20859275       0.00781580 </v>
   <v>       0.06504095      -0.11779756      -0.01620348 </v>
   <v>      -0.00122645       0.17816211      -0.03597061 </v>
   <v>       0.00090402      -0.17813088      -0.03588341 </v>
   <v>      -0.06508430       0.11730698      -0.01530694 </v>
   <v>      -0.04842711      -0.20853797       0.00765767 </v>
   <v>      -0.03346675       0.11786550       0.15052553 </v>
   <v>       0.03302705      -0.11742810       0.15065770 </v>
   <v>      -0.02404386       0.15862514      -0.00130571 </v>
   <v>      -0.05682728      -0.21920311      -0.02797482 </v>
   <v>       0.00292234       0.17931146       0.02964156 </v>
   <v>      -0.00313562      -0.17918849       0.02962014 </v>
   <v>       0.05748987       0.21920266      -0.02836940 </v>
   <v>       0.02419721      -0.15908829      -0.00129022 </v>
   <v>       0.00676194      -0.27925049      -0.01805513 </v>
   <v>      -0.51845774       1.18891625      -0.49788974 </v>
   <v>       0.00883483       0.26013521      -0.01525564 </v>
   <v>       0.50900061      -1.19066487      -0.49664249 </v>
   <v>       0.00185319      -0.25970025      -0.01561159 </v>
   <v>      -0.00223943       0.31847677       0.00658577 </v>
   <v>       0.00234523       0.27917118      -0.01793592 </v>
   <v>      -0.00675682      -0.31796083       0.00613007 </v>
   <v>       0.00436343      -0.27292710       0.00000851 </v>
   <v>       0.26778867      -0.27333079      -0.29698041 </v>
   <v>       0.27765655       0.14699186       0.67114881 </v>
   <v>      -0.28483189       0.26777698      -0.30424458 </v>
   <v>      -0.27684664      -0.13919374       0.66778555 </v>
   <v>      -0.00052022       0.22617127       0.00232844 </v>
   <v>       0.00272888       0.27099535       0.00034205 </v>
   <v>      -0.00880327      -0.22444145       0.00290459 </v>
  </varray>
  <varray name="stress" >
   <v>       2.67014379      -0.47978406      -0.01562459 </v>
   <v>      -0.47978397       4.19597744      -0.00663042 </v>
   <v>      -0.01562475      -0.00663048       3.36133081 </v>
  </varray>
  <energy>
   <i name="e_fr_energy">   -323.43830281 </i>
   <i name="e_wo_entrp">   -323.43830281 </i>
   <i name="e_0_energy">      0.00000000 </i>
  </energy>
  <time name="totalsc">  511.31  515.89</time>
 </calculation>
 <calculation>
  <scstep>
   <time name="dav">   45.29   45.41</time>
   <time name="total">   45.80   45.93</time>
   <energy>
    <i name="alphaZ">   1110.96087568 </i>
    <i name="ewald"> -31689.26535129 </i>
    <i name="hartreedc"> -12772.61519153 </i>
    <i name="XCdc">   1569.52936288 </i>
    <i name="pawpsdc">  44403.17810069 </i>
    <i name="pawaedc"> -44050.21708444 </i>
    <i name="eentropy">      0.00000000 </i>
    <i name="bandstr">  -4433.50666734 </i>
    <i name="atom">  45556.09114881 </i>
    <i name="e_fr_energy">   -305.84480654 </i>
    <i name="e_wo_entrp">   -305.84480654 </i>
    <i name="e_0_energy">   -305.84480654 </i>
   </energy>
  </scstep>
  <scstep>
   <time name="dav">   55.93   56.32</time>
   <time name="total">   56.45   57.00</time>
   <energy>
    <i name="e_fr_energy">   -306.36985994 </i>
    <i name="e_wo_entrp">   -306.36985994 </i>
    <i name="e_0_energy">   -306.36985994 </i>
   </energy>
  </scstep>
  <scstep>
   <time name="dav">   70.19   70.49</time>
   <time name="total">   70.72   71.16</time>
   <energy>
    <i name="e_fr_energy">   -306.33861251 </i>
    <i name="e_wo_entrp">   -306.33861251 </i>
    <i name="e_0_energy">   -306.33861251 </i>
   </energy>
  </scstep>
  <scstep>
   <time name="dav">   54.37   54.54</time>
   <time name="total">   54.89   55.19</time>
   <energy>
    <i name="e_fr_energy">   -306.31986143 </i>
    <i name="e_wo_entrp">   -306.31986143 </i>
    <i name="e_0_energy">   -306.31986143 </i>
   </energy>
  </scstep>
  <scstep>
   <time name="dav">   57.60   58.13</time>
   <time name="total">   58.12   58.76</time>
   <energy>
    <i name="e_fr_energy">   -306.31798172 </i>
    <i name="e_wo_entrp">   -306.31798172 </i>
    <i name="e_0_energy">   -306.31798172 </i>
   </energy>
  </scstep>
  <scstep>
   <time name="dav">   63.59   63.75</time>
   <time name="total">   64.11   64.45</time>
   <energy>
    <i name="e_fr_energy">   -306.31813529 </i>
    <i name="e_wo_entrp">   -306.31813529 </i>
    <i name="e_0_energy">   -306.31813529 </i>
   </energy>
  </scstep>
  <scstep>
   <time name="dav">   61.50   61.81</time>
   <time name="total">   62.01   62.47</time>
   <energy>
    <i name="e_fr_energy">   -306.31806552 </i>
    <i name="e_wo_entrp">   -306.31806552 </i>
    <i name="e_0_energy">   -306.31806552 </i>
   </energy>
  </scstep>
  <scstep>
   <time name="dav">   55.58   55.95</time>
   <time name="total">   56.10   56.62</time>
   <energy>
    <i name="e_fr_energy">   -306.31805320 </i>
    <i name="e_wo_entrp">   -306.31805320 </i>
    <i name="e_0_energy">   -306.31805320 </i>
   </energy>
  </scstep>
  <scstep>
   <time name="dav">   62.65   62.79</time>
   <time name="total">   63.21   63.63</time>
   <energy>
    <i name="e_fr_energy">   -306.31806219 </i>
    <i name="e_wo_entrp">   -306.31806219 </i>
    <i name="e_0_energy">   -306.31806219 </i>
   </energy>
  </scstep>
  <scstep>
   <time name="dav">   57.25   57.68</time>
   <time name="total">   57.77   58.36</time>
   <energy>
    <i name="e_fr_energy">   -306.31806437 </i>
    <i name="e_wo_entrp">   -306.31806437 </i>
    <i name="e_0_energy">   -306.31806437 </i>
   </energy>
  </scstep>
  <scstep>
   <time name="dav">   43.74   43.87</time>
   <time name="total">   44.26   44.60</time>
   <energy>
    <i name="e_fr_energy">   -306.31806540 </i>
    <i name="e_wo_entrp">   -306.31806540 </i>
    <i name="e_0_energy">   -306.31806540 </i>
   </energy>
  </scstep>
  <scstep>
   <time name="dav">   37.20   37.34</time>
   <time name="total">   37.26   37.56</time>
   <energy>
    <i name="alphaZ">   1110.96087568 </i>
    <i name="ewald"> -31689.26535129 </i>
    <i name="hartreedc"> -12729.14091236 </i>
    <i name="XCdc">   1567.38698096 </i>
    <i name="pawpsdc">  44313.77330187 </i>
    <i name="pawaedc"> -43958.95587956 </i>
    <i name="eentropy">      0.00000000 </i>
    <i name="bandstr">  -4477.16823006 </i>
    <i name="atom">  45556.09114881 </i>
    <i name="e_fr_energy">   -306.31806594 </i>
    <i name="e_wo_entrp">   -306.31806594 </i>
    <i name="e_0_energy">   -306.31806594 </i>
   </energy>
  </scstep>
  <structure>
   <crystal>
    <varray name="basis" >
     <v>      11.11814496      -0.00189881      -0.00026050 </v>
     <v>      -0.00161748       9.47768282      -0.00017006 </v>
     <v>      -0.00026040      -0.00019874      11.10469488 </v>
    </varray>
    <i name="volume">   1170.14887499 </i>
    <varray name="rec_basis" >
     <v>       0.08994306       0.00001535       0.00000211 </v>
     <v>       0.00001802       0.10551103       0.00000189 </v>
     <v>       0.00000211       0.00000162       0.09005200 </v>
    </varray>
   </crystal>
   <varray name="positions" >
    <v>       0.37137789       0.00081152       0.43605359 </v>
    <v>       0.12470544       0.99984051       0.19175695 </v>
    <v>       0.37340476       0.00077325       0.18859064 </v>
    <v>       0.62530786       0.99983749       0.43653560 </v>
    <v>       0.87925585      -0.00049619       0.43606786 </v>
    <v>       0.62469319       0.99983862       0.18717995 </v>
    <v>       0.87595584      -0.00045998       0.18856236 </v>
    <v>       0.12531437       0.99984176       0.94118251 </v>
    <v>       0.37589870      -0.00052795       0.93776128 </v>
    <v>       0.37751736      -0.00048178       0.68539406 </v>
    <v>       0.62530392       0.99983905       0.93729470 </v>
    <v>       0.87472362       0.00085032       0.93774827 </v>
    <v>       0.62469329       0.99983739       0.68671721 </v>
    <v>       0.87184351       0.00081274       0.68543084 </v>
    <v>       0.12483952       0.99987319       0.67895091 </v>
    <v>       0.00004025       0.29666952       0.06456642 </v>
    <v>       0.25011059       0.70332646       0.06456610 </v>
    <v>       0.24865321       0.29271878       0.31358153 </v>
    <v>       0.49978401       0.70314536       0.31263096 </v>
    <v>       0.50004696       0.29653960       0.06406290 </v>
    <v>       0.75009131       0.70346045       0.06406645 </v>
    <v>       0.75006754       0.29685577       0.31263029 </v>
    <v>       0.00121896       0.70726832       0.31357224 </v>
    <v>       0.00029842       0.29673542       0.55930478 </v>
    <v>       0.24985433       0.70332571       0.55930783 </v>
    <v>       0.25092633       0.30278238       0.81366159 </v>
    <v>       0.50029854       0.70352878       0.81281762 </v>
    <v>       0.50031400       0.29668252       0.56159926 </v>
    <v>       0.74981832       0.70331634       0.56159543 </v>
    <v>       0.74954550       0.29647070       0.81282067 </v>
    <v>       0.99892102       0.69716801       0.81367429 </v>
    <v>       0.25001558       0.32910012       0.06069824 </v>
    <v>       0.00007023       0.67090141       0.06069730 </v>
    <v>       0.50085299       0.32946354       0.31292655 </v>
    <v>       0.25098211       0.67119340       0.31266518 </v>
    <v>       0.75003959       0.32899632       0.06219694 </v>
    <v>       0.50005358       0.67100357       0.06219718 </v>
    <v>       0.99892297       0.32880050       0.31267964 </v>
    <v>       0.74906135       0.67053636       0.31292586 </v>
    <v>       0.24969097       0.32819037       0.56553577 </v>
    <v>       0.00039167       0.67182066       0.56554175 </v>
    <v>       0.49935792       0.32864545       0.81284566 </v>
    <v>       0.24890926       0.67137388       0.81250125 </v>
    <v>       0.75003778       0.32903303       0.56347744 </v>
    <v>       0.50006233       0.67096521       0.56347758 </v>
    <v>       0.00099297       0.32862051       0.81249085 </v>
    <v>       0.75055856       0.67135335       0.81284499 </v>
    <v>       0.49994671       0.07645073       0.06182119 </v>
    <v>      -0.00636882       0.92176497       0.30646164 </v>
    <v>       0.24994323       0.92351710       0.06086912 </v>
    <v>       0.25649043       0.07824773       0.30646118 </v>
    <v>       0.99990965       0.07648310       0.06086755 </v>
    <v>       0.50056730       0.92336468       0.31247309 </v>
    <v>       0.74990469       0.92354999       0.06182231 </v>
    <v>       0.74958870       0.07663630       0.31247369 </v>
    <v>       0.49993156       0.07645994       0.56302132 </v>
    <v>       0.00480611       0.92695277       0.80817378 </v>
    <v>       0.25177430       0.92278984       0.57373495 </v>
    <v>       0.24523849       0.07300828       0.80809249 </v>
    <v>       0.99797418       0.07722266       0.57370418 </v>
    <v>       0.49961077       0.92373435       0.81245210 </v>
    <v>       0.74991912       0.92353763       0.56302234 </v>
    <v>       0.75054932       0.07626819       0.81245178 </v>
   </varray>
  </structure>
  <varray name="forces" >
   <v>      -0.22031770       0.02898614       0.00118041 </v>
   <v>       0.00663700       0.00265382       0.24376985 </v>
   <v>       0.00532526       0.01261970       0.01941067 </v>
   <v>      -0.00554906       0.00165541      -0.01790153 </v>
   <v>       0.21158394      -0.03097682       0.00379284 </v>
   <v>       0.00692998       0.00184381       0.01779119 </v>
   <v>       0.01044682      -0.01937229       0.02377541 </v>
   <v>      -0.00928386       0.00241760       0.01888700 </v>
   <v>      -0.05419264      -0.02944412      -0.02442711 </v>
   <v>       0.10887709      -0.01705223       0.04414304 </v>
   <v>      -0.00672625       0.00184771       0.02737473 </v>
   <v>       0.04176497       0.02410192      -0.02740668 </v>
   <v>       0.00711277       0.00143790      -0.00284052 </v>
   <v>      -0.09293280       0.01535889       0.04367812 </v>
   <v>      -0.00027257       0.00353004       0.29049898 </v>
   <v>      -0.00602942      -0.15324262      -0.18125003 </v>
   <v>      -0.00034629       0.15306000      -0.18158499 </v>
   <v>       0.08544846      -0.15509651      -0.03793974 </v>
   <v>       0.09429542       0.14833371      -0.01985132 </v>
   <v>      -0.00540291      -0.14393993      -0.01970710 </v>
   <v>       0.00015414       0.14419907      -0.02011814 </v>
   <v>      -0.08734010      -0.14886396      -0.01916641 </v>
   <v>      -0.08049570       0.15562035      -0.03749840 </v>
   <v>      -0.02466124      -0.05586812       0.17539678 </v>
   <v>       0.01608767       0.05316298       0.17431317 </v>
   <v>      -0.09700294      -0.49044445      -0.00777765 </v>
   <v>      -0.06090660       0.12337181       0.00018267 </v>
   <v>       0.02359694      -0.13402452       0.02631685 </v>
   <v>      -0.02794012       0.13445170       0.02656830 </v>
   <v>       0.06687082      -0.12350588      -0.00003561 </v>
   <v>       0.10139089       0.49278226      -0.00752740 </v>
   <v>      -0.00455884       0.22071178       0.08033111 </v>
   <v>       0.00444262      -0.22123301       0.08118998 </v>
   <v>      -0.03143699       0.24814188       0.01224098 </v>
   <v>      -0.02250805      -0.12875104      -0.01280747 </v>
   <v>      -0.00188777       0.20458046       0.01178488 </v>
   <v>       0.00116669      -0.20452889       0.01189284 </v>
   <v>       0.02313114       0.12851962      -0.01309424 </v>
   <v>       0.03168029      -0.24805967       0.01201335 </v>
   <v>      -0.03177730       0.14583354      -0.06160940 </v>
   <v>       0.03234346      -0.14561726      -0.06211110 </v>
   <v>       0.03399341       0.18040733      -0.00192994 </v>
   <v>       0.01366411      -0.29585491      -0.01504607 </v>
   <v>       0.00896855       0.20649461      -0.02226612 </v>
   <v>      -0.01060675      -0.20610447      -0.02226305 </v>
   <v>      -0.01187788       0.29588717      -0.01439515 </v>
   <v>      -0.03490745      -0.18115425      -0.00180682 </v>
   <v>       0.01456877       0.15903056       0.00626510 </v>
   <v>      -0.28183893      -0.09442026      -0.26044466 </v>
   <v>       0.01493082      -0.19889890       0.03579421 </v>
   <v>       0.26981261       0.09577266      -0.25556743 </v>
   <v>      -0.00511795       0.19897616       0.03539389 </v>
   <v>       0.00206438      -0.20827249       0.01724689 </v>
   <v>      -0.00777752      -0.15892768       0.00657904 </v>
   <v>      -0.00944519       0.20856398       0.01636051 </v>
   <v>       0.01171305       0.16757345      -0.04400409 </v>
   <v>       0.05062537      -0.76086600      -0.09946760 </v>
   <v>       0.40991710      -0.36661541       0.07587980 </v>
   <v>      -0.05668191       0.75856875      -0.10127490 </v>
   <v>      -0.40272439       0.36856446       0.07867126 </v>
   <v>       0.02679210      -0.14092266       0.00840752 </v>
   <v>      -0.00874737      -0.16883561      -0.04347827 </v>
   <v>      -0.03504210       0.14183276       0.00946759 </v>
  </varray>
  <varray name="stress" >
   <v>       5.68142828      -0.82548117      -0.01175939 </v>
   <v>      -0.82548108     -15.86534125       0.01155686 </v>
   <v>      -0.01175967       0.01155663       7.53449194 </v>
  </varray>
  <energy>
   <i name="e_fr_energy">   -323.71160439 </i>
   <i name="e_wo_entrp">   -323.71160439 </i>
   <i name="e_0_energy">      0.00000000 </i>
  </energy>
  <time name="totalsc">  756.47  762.13</time>
 </calculation>
 <calculation>
  <scstep>
   <time name="dav">   46.41   46.63</time>
   <time name="total">   46.94   47.23</time>
   <energy>
    <i name="alphaZ">   1111.13026937 </i>
    <i name="ewald"> -31694.97578804 </i>
    <i name="hartreedc"> -12726.04501012 </i>
    <i name="XCdc">   1567.45453683 </i>
    <i name="pawpsdc">  44313.72806436 </i>
    <i name="pawaedc"> -43958.91061845 </i>
    <i name="eentropy">      0.00000000 </i>
    <i name="bandstr">  -4474.78743172 </i>
    <i name="atom">  45556.09114881 </i>
    <i name="e_fr_energy">   -306.31482896 </i>
    <i name="e_wo_entrp">   -306.31482896 </i>
    <i name="e_0_energy">   -306.31482896 </i>
   </energy>
  </scstep>
  <scstep>
   <time name="dav">   52.77   53.14</time>
   <time name="total">   53.29   53.78</time>
   <energy>
    <i name="e_fr_energy">   -306.31554898 </i>
    <i name="e_wo_entrp">   -306.31554898 </i>
    <i name="e_0_energy">   -306.31554898 </i>
   </energy>
  </scstep>
  <scstep>
   <time name="dav">   66.53   67.28</time>
   <time name="total">   67.04   67.92</time>
   <energy>
    <i name="e_fr_energy">   -306.31551490 </i>
    <i name="e_wo_entrp">   -306.31551490 </i>
    <i name="e_0_energy">   -306.31551490 </i>
   </energy>
  </scstep>
  <scstep>
   <time name="dav">   54.88   55.31</time>
   <time name="total">   55.40   55.95</time>
   <energy>
    <i name="e_fr_energy">   -306.31548464 </i>
    <i name="e_wo_entrp">   -306.31548464 </i>
    <i name="e_0_energy">   -306.31548464 </i>
   </energy>
  </scstep>
  <scstep>
   <time name="dav">   60.38   60.78</time>
   <time name="total">   60.89   61.39</time>
   <energy>
    <i name="e_fr_energy">   -306.31548510 </i>
    <i name="e_wo_entrp">   -306.31548510 </i>
    <i name="e_0_energy">   -306.31548510 </i>
   </energy>
  </scstep>
  <scstep>
   <time name="dav">   48.19   48.52</time>
   <time name="total">   48.26   48.72</time>
   <energy>
[...]
       <r>   12.8119    0.0000 </r>
       <r>   12.8576    0.0000 </r>
      </set>
     </set>
    </set>
   </array>
  </eigenvalues>
  <separator name="orbital magnetization" >
   <v name="MAGDIPOLOUT">      0.00000000      0.00000000      0.00000000</v>
  </separator>
  <dos>
   <i name="efermi">      4.64906829 </i>
   <total>
    <array>
     <dimension dim="1">gridpoints</dimension>
     <dimension dim="2">spin</dimension>
     <field>energy</field>
     <field>total</field>
     <field>integrated</field>
     <set>
      <set comment="spin 1">
       <r>   -42.1867     0.0000     0.0000 </r>
       <r>   -41.9928     0.0000     0.0000 </r>
       <r>   -41.7988     0.0000     0.0000 </r>
       <r>   -41.6049     0.0000     0.0000 </r>
       <r>   -41.4110     0.0000     0.0000 </r>
       <r>   -41.2170     0.0000     0.0000 </r>
       <r>   -41.0231     0.0000     0.0000 </r>
       <r>   -40.8292     0.0000     0.0000 </r>
       <r>   -40.6352     0.0000     0.0000 </r>
       <r>   -40.4413     0.0000     0.0000 </r>
       <r>   -40.2474     0.0000     0.0000 </r>
       <r>   -40.0534     0.0000     0.0000 </r>
       <r>   -39.8595     0.0000     0.0000 </r>
       <r>   -39.6655     0.0000     0.0000 </r>
       <r>   -39.4716     0.0000     8.0000 </r>
       <r>   -39.2777     0.0000    22.0000 </r>
       <r>   -39.0837     0.0000    28.0000 </r>
       <r>   -38.8898     0.0000    28.0000 </r>
       <r>   -38.6959     0.0000    28.0000 </r>
       <r>   -38.5019     0.0000    28.0000 </r>
       <r>   -38.3080     0.0000    28.0000 </r>
       <r>   -38.1140     0.0000    28.0000 </r>
       <r>   -37.9201     0.0000    28.0000 </r>
       <r>   -37.7262     0.0000    28.0000 </r>
       <r>   -37.5322     0.0000    28.0000 </r>
       <r>   -37.3383     0.0000    28.0000 </r>
       <r>   -37.1444     0.0000    28.0000 </r>
       <r>   -36.9504     0.0000    28.0000 </r>
       <r>   -36.7565     0.0000    28.0000 </r>
       <r>   -36.5625     0.0000    28.0000 </r>
       <r>   -36.3686     0.0000    28.0000 </r>
       <r>   -36.1747     0.0000    28.0000 </r>
       <r>   -35.9807     0.0000    28.0000 </r>
       <r>   -35.7868     0.0000    28.0000 </r>
       <r>   -35.5929     0.0000    28.0000 </r>
       <r>   -35.3989     0.0000    28.0000 </r>
       <r>   -35.2050     0.0000    28.0000 </r>
       <r>   -35.0111     0.0000    28.0000 </r>
       <r>   -34.8171     0.0000    28.0000 </r>
       <r>   -34.6232     0.0000    28.0000 </r>
       <r>   -34.4292     0.0000    28.0000 </r>
       <r>   -34.2353     0.0000    28.0000 </r>
       <r>   -34.0414     0.0000    28.0000 </r>
       <r>   -33.8474     0.0000    28.0000 </r>
       <r>   -33.6535     0.0000    28.0000 </r>
       <r>   -33.4596     0.0000    28.0000 </r>
       <r>   -33.2656     0.0000    28.0000 </r>
       <r>   -33.0717     0.0000    28.0000 </r>
       <r>   -32.8777     0.0000    28.0000 </r>
       <r>   -32.6838     0.0000    28.0000 </r>
       <r>   -32.4899     0.0000    28.0000 </r>
       <r>   -32.2959     0.0000    28.0000 </r>
       <r>   -32.1020     0.0000    28.0000 </r>
       <r>   -31.9081     0.0000    28.0000 </r>
       <r>   -31.7141     0.0000    28.0000 </r>
       <r>   -31.5202     0.0000    28.0000 </r>
       <r>   -31.3263     0.0000    28.0000 </r>
       <r>   -31.1323     0.0000    28.0000 </r>
       <r>   -30.9384     0.0000    28.0000 </r>
       <r>   -30.7444     0.0000    28.0000 </r>
       <r>   -30.5505     0.0000    28.0000 </r>
       <r>   -30.3566     0.0000    28.0000 </r>
       <r>   -30.1626     0.0000    28.0000 </r>
       <r>   -29.9687     0.0000    28.0000 </r>
       <r>   -29.7748     0.0000    28.0000 </r>
       <r>   -29.5808     0.0000    28.0000 </r>
       <r>   -29.3869     0.0000    28.0000 </r>
       <r>   -29.1929     0.0000    28.0000 </r>
       <r>   -28.9990     0.0000    28.0000 </r>
       <r>   -28.8051     0.0000    28.0000 </r>
       <r>   -28.6111     0.0000    28.0000 </r>
       <r>   -28.4172     0.0000    28.0000 </r>
       <r>   -28.2233     0.0000    28.0000 </r>
       <r>   -28.0293     0.0000    28.0000 </r>
       <r>   -27.8354     0.0000    28.0000 </r>
       <r>   -27.6414     0.0000    28.0000 </r>
       <r>   -27.4475     0.0000    28.0000 </r>
       <r>   -27.2536     0.0000    28.0000 </r>
       <r>   -27.0596     0.0000    28.0000 </r>
       <r>   -26.8657     0.0000    28.0000 </r>
       <r>   -26.6718     0.0000    28.0000 </r>
       <r>   -26.4778     0.0000    28.0000 </r>
       <r>   -26.2839     0.0000    28.0000 </r>
       <r>   -26.0900     0.0000    28.0000 </r>
       <r>   -25.8960     0.0000    28.0000 </r>
       <r>   -25.7021     0.0000    28.0000 </r>
       <r>   -25.5081     0.0000    28.0000 </r>
       <r>   -25.3142     0.0000    28.0000 </r>
       <r>   -25.1203     0.0000    28.0000 </r>
       <r>   -24.9263     0.0000    28.0000 </r>
       <r>   -24.7324     0.0000    28.0000 </r>
       <r>   -24.5385     0.0000    28.0000 </r>
       <r>   -24.3445     0.0000    28.0000 </r>
       <r>   -24.1506     0.0000    28.0000 </r>
       <r>   -23.9566     0.0000    28.0000 </r>
       <r>   -23.7627     0.0000    28.0000 </r>
       <r>   -23.5688     0.0000    28.0000 </r>
       <r>   -23.3748     0.0000    28.0000 </r>
       <r>   -23.1809     0.0000    28.0000 </r>
       <r>   -22.9870     0.0000    28.0000 </r>
       <r>   -22.7930     0.0000    28.0000 </r>
       <r>   -22.5991     0.0000    28.0000 </r>
       <r>   -22.4051     0.0000    28.0000 </r>
       <r>   -22.2112     0.0000    28.0000 </r>
       <r>   -22.0173     0.0000    28.0000 </r>
       <r>   -21.8233     0.0000    28.0000 </r>
       <r>   -21.6294     0.0000    28.0000 </r>
       <r>   -21.4355     0.0000    28.0000 </r>
       <r>   -21.2415     0.0000    28.0000 </r>
       <r>   -21.0476     0.0000    28.0000 </r>
       <r>   -20.8537     0.0000    28.0000 </r>
       <r>   -20.6597     0.0000    28.0000 </r>
       <r>   -20.4658     0.0000    28.0000 </r>
       <r>   -20.2718     0.0000    28.0000 </r>
       <r>   -20.0779     0.0000    28.0000 </r>
       <r>   -19.8840     0.0000    28.0000 </r>
       <r>   -19.6900     0.0000    28.0000 </r>
       <r>   -19.4961     0.0000    28.0000 </r>
       <r>   -19.3022     0.0000    28.0000 </r>
       <r>   -19.1082     0.0000    28.0000 </r>
       <r>   -18.9143     0.0000    28.0000 </r>
       <r>   -18.7203     0.0000    28.0000 </r>
       <r>   -18.5264     0.0000    28.0000 </r>
       <r>   -18.3325   176.7874    47.9917 </r>
       <r>   -18.1385     0.0000   148.0000 </r>
       <r>   -17.9446     0.0000   188.0000 </r>
       <r>   -17.7507     0.0000   188.0000 </r>
       <r>   -17.5567     0.0000   188.0000 </r>
       <r>   -17.3628     0.0000   188.0000 </r>
       <r>   -17.1688     0.0000   188.0000 </r>
       <r>   -16.9749     0.0000   188.0000 </r>
       <r>   -16.7810     0.0000   188.0000 </r>
       <r>   -16.5870     0.0000   188.0000 </r>
       <r>   -16.3931     0.0000   188.0000 </r>
       <r>   -16.1992     0.0000   188.0000 </r>
       <r>   -16.0052     0.0000   188.0000 </r>
       <r>   -15.8113     0.0000   188.0000 </r>
       <r>   -15.6174     0.0000   188.0000 </r>
       <r>   -15.4234     0.0000   188.0000 </r>
       <r>   -15.2295     0.0000   188.0000 </r>
       <r>   -15.0355     0.0000   188.0000 </r>
       <r>   -14.8416     0.0000   188.0000 </r>
       <r>   -14.6477     0.0000   188.0000 </r>
       <r>   -14.4537     0.0000   188.0000 </r>
       <r>   -14.2598     0.0000   188.0000 </r>
       <r>   -14.0659     0.0000   188.0000 </r>
       <r>   -13.8719     0.0000   188.0000 </r>
       <r>   -13.6780     0.0000   188.0000 </r>
       <r>   -13.4840     0.0000   188.0000 </r>
       <r>   -13.2901     0.0000   188.0000 </r>
       <r>   -13.0962     0.0000   188.0000 </r>
       <r>   -12.9022     0.0000   188.0000 </r>
       <r>   -12.7083   223.0909   188.1693 </r>
       <r>   -12.5144     0.0000   192.0000 </r>
       <r>   -12.3204   183.1522   202.3489 </r>
       <r>   -12.1265     0.0000   220.0000 </r>
       <r>   -11.9325     0.0000   220.0000 </r>
       <r>   -11.7386     0.0000   220.0000 </r>
       <r>   -11.5447     0.0000   220.0000 </r>
       <r>   -11.3507     0.0000   220.0000 </r>
       <r>   -11.1568     0.0000   220.0000 </r>
       <r>   -10.9629     0.0000   220.0000 </r>
       <r>   -10.7689     0.0000   220.0000 </r>
       <r>   -10.5750     0.0000   220.0000 </r>
       <r>   -10.3811     0.0000   220.0000 </r>
       <r>   -10.1871     0.0000   220.0000 </r>
       <r>    -9.9932     0.0000   220.0000 </r>
       <r>    -9.7992     0.0000   220.0000 </r>
       <r>    -9.6053     0.0000   220.0000 </r>
       <r>    -9.4114     0.0000   220.0000 </r>
       <r>    -9.2174     0.0000   220.0000 </r>
       <r>    -9.0235     9.6888   220.7731 </r>
       <r>    -8.8296     9.0509   223.0163 </r>
       <r>    -8.6356     6.1913   224.2536 </r>
       <r>    -8.4417    22.8027   227.0662 </r>
       <r>    -8.2477    33.7721   229.9380 </r>
       <r>    -8.0538    12.7971   235.0778 </r>
       <r>    -7.8599    11.0655   236.1685 </r>
       <r>    -7.6659    30.4390   242.7642 </r>
       <r>    -7.4720     0.0000   248.0000 </r>
       <r>    -7.2781    22.7074   250.1940 </r>
       <r>    -7.0841     0.0000   252.0000 </r>
       <r>    -6.8902     0.0000   252.0000 </r>
       <r>    -6.6962     0.0000   252.0000 </r>
       <r>    -6.5023     0.0000   252.0000 </r>
       <r>    -6.3084     0.0000   252.0000 </r>
       <r>    -6.1144     0.0000   252.0000 </r>
       <r>    -5.9205    10.8573   252.5244 </r>
       <r>    -5.7266    63.9469   257.0703 </r>
       <r>    -5.5326    10.1554   260.2649 </r>
       <r>    -5.3387    29.3207   264.9712 </r>
       <r>    -5.1448    22.6369   270.2318 </r>
       <r>    -4.9508    13.4024   274.1347 </r>
       <r>    -4.7569     2.4433   275.9640 </r>
       <r>    -4.5629     6.9008   276.5362 </r>
       <r>    -4.3690    13.5967   278.6092 </r>
       <r>    -4.1751     3.1594   280.3500 </r>
       <r>    -3.9811     5.9381   281.2322 </r>
       <r>    -3.7872     9.2490   282.7631 </r>
       <r>    -3.5933     2.1355   283.6366 </r>
       <r>    -3.3993     0.9139   283.9322 </r>
       <r>    -3.2054     0.0000   284.0000 </r>
       <r>    -3.0114     0.0000   284.0000 </r>
       <r>    -2.8175     0.0000   284.0000 </r>
       <r>    -2.6236     0.0000   284.0000 </r>
       <r>    -2.4296     0.0000   284.0000 </r>
       <r>    -2.2357     0.0000   284.0000 </r>
       <r>    -2.0418     0.0000   284.0000 </r>
       <r>    -1.8478     0.0000   284.0000 </r>
       <r>    -1.6539     0.0000   284.0000 </r>
       <r>    -1.4599     0.0000   284.0000 </r>
       <r>    -1.2660     0.0000   284.0000 </r>
       <r>    -1.0721     1.6970   284.0376 </r>
       <r>    -0.8781     8.2463   285.2139 </r>
       <r>    -0.6842     4.9620   286.3480 </r>
       <r>    -0.4903    13.3419   288.0585 </r>
       <r>    -0.2963     8.7092   290.2751 </r>
       <r>    -0.1024    14.8455   292.0921 </r>
       <r>     0.0915    26.0779   296.3312 </r>
       <r>     0.2855    43.2882   301.8274 </r>
       <r>     0.4794    32.2643   310.0118 </r>
       <r>     0.6734    39.7277   317.5593 </r>
       <r>     0.8673    19.5701   324.7866 </r>
       <r>     1.0612    24.2906   331.0400 </r>
       <r>     1.2552    35.2186   336.4463 </r>
       <r>     1.4491    49.9485   344.6679 </r>
       <r>     1.6430    45.9236   353.7549 </r>
       <r>     1.8370    43.4095   361.3898 </r>
       <r>     2.0309    71.8880   371.8178 </r>
       <r>     2.2249    85.2096   385.8783 </r>
       <r>     2.4188    31.7528   395.4655 </r>
       <r>     2.6127    29.6961   400.6813 </r>
       <r>     2.8067    89.5095   411.3323 </r>
       <r>     3.0006    70.9428   426.8960 </r>
       <r>     3.1945    71.3810   438.5887 </r>
       <r>     3.3885    61.1695   452.4381 </r>
       <r>     3.5824    20.9447   459.9676 </r>
       <r>     3.7764    31.0279   464.5123 </r>
       <r>     3.9703    16.9255   471.1462 </r>
       <r>     4.1642    10.5961   473.7365 </r>
       <r>     4.3582     5.7680   475.3231 </r>
       <r>     4.5521     0.9649   475.9746 </r>
       <r>     4.7460     0.0000   476.0000 </r>
       <r>     4.9400     0.0000   476.0000 </r>
       <r>     5.1339     0.0000   476.0000 </r>
       <r>     5.3278     0.0000   476.0000 </r>
       <r>     5.5218     0.0003   476.0000 </r>
       <r>     5.7157     4.2716   476.3244 </r>
       <r>     5.9097     9.8494   477.6941 </r>
       <r>     6.1036     7.8460   479.6651 </r>
       <r>     6.2975    15.2128   483.8452 </r>
       <r>     6.4915    12.9338   486.5415 </r>
       <r>     6.6854    12.1961   488.9764 </r>
       <r>     6.8793    13.8377   491.4772 </r>
       <r>     7.0733    15.7659   494.3479 </r>
       <r>     7.2672    18.3171   497.6297 </r>
       <r>     7.4612    24.6975   501.6482 </r>
       <r>     7.6551    36.1621   507.2567 </r>
       <r>     7.8490    37.1932   515.6633 </r>
       <r>     8.0430    29.1183   520.8692 </r>
       <r>     8.2369    27.2564   526.3794 </r>
       <r>     8.4308    41.0676   532.8107 </r>
       <r>     8.6248    33.5197   540.8780 </r>
       <r>     8.8187    14.3990   544.9419 </r>
       <r>     9.0127    35.4423   548.5826 </r>
       <r>     9.2066    34.6885   556.3738 </r>
       <r>     9.4005    21.1970   562.9249 </r>
       <r>     9.5945    29.3166   569.1382 </r>
       <r>     9.7884     1.6437   571.9703 </r>
       <r>     9.9823     0.0000   572.0000 </r>
       <r>    10.1763    10.5158   572.7079 </r>
       <r>    10.3702     7.6406   575.1532 </r>
       <r>    10.5641    17.2117   577.1177 </r>
       <r>    10.7581    15.9094   580.9704 </r>
       <r>    10.9520    28.2884   585.0916 </r>
       <r>    11.1460    42.7238   593.7179 </r>
       <r>    11.3399    29.4510   600.6986 </r>
       <r>    11.5338    20.7654   605.0085 </r>
       <r>    11.7278    18.3269   609.1761 </r>
       <r>    11.9217    20.5026   612.9907 </r>
       <r>    12.1156    17.5589   616.5964 </r>
       <r>    12.3096    22.5201   620.4271 </r>
       <r>    12.5035    28.7417   625.3355 </r>
       <r>    12.6975    33.4343   631.5552 </r>
       <r>    12.8914    19.6525   637.0285 </r>
       <r>    13.0853     6.6718   639.4241 </r>
       <r>    13.2793     0.3471   639.9928 </r>
       <r>    13.4732     0.0000   640.0000 </r>
       <r>    13.6671     0.0000   640.0000 </r>
       <r>    13.8611     0.0000   640.0000 </r>
       <r>    14.0550     0.0000   640.0000 </r>
       <r>    14.2490     0.0000   640.0000 </r>
       <r>    14.4429     0.0000   640.0000 </r>
       <r>    14.6368     0.0000   640.0000 </r>
       <r>    14.8308     0.0000   640.0000 </r>
       <r>    15.0247     0.0000   640.0000 </r>
       <r>    15.2186     0.0000   640.0000 </r>
       <r>    15.4126     0.0000   640.0000 </r>
       <r>    15.6065     0.0000   640.0000 </r>
       <r>    15.8004     0.0000   640.0000 </r>
       <r>    15.9944     0.0000   640.0000 </r>
      </set>
     </set>
    </array>
   </total>
  </dos>
 </calculation>
 <structure name="finalpos" >
  <crystal>
   <varray name="basis" >
    <v>      11.11827378      -0.01631659       0.00001999 </v>
    <v>      -0.01355114       9.40428128       0.00005033 </v>
    <v>       0.00002151       0.00007361      11.11934813 </v>
   </varray>
   <i name="volume">   1162.62962053 </i>
   <varray name="rec_basis" >
    <v>       0.08994221       0.00012960      -0.00000017 </v>
    <v>       0.00015605       0.10633477      -0.00000070 </v>
    <v>      -0.00000016      -0.00000048       0.08993333 </v>
   </varray>
  </crystal>
  <varray name="positions" >
   <v>       0.36146185      -0.00112142       0.43734454 </v>
   <v>       0.12499434      -0.00000327       0.20233641 </v>
   <v>       0.37786174      -0.00097413       0.18651169 </v>
   <v>       0.62499491       0.00000462       0.43536898 </v>
   <v>       0.88854154       0.00112537       0.43736311 </v>
   <v>       0.62500226      -0.00000553       0.19016842 </v>
   <v>       0.87214856       0.00097527       0.18651152 </v>
   <v>       0.12500446       0.00000103       0.94320350 </v>
   <v>       0.37423348      -0.00130202       0.93858533 </v>
   <v>       0.38267560      -0.00165393       0.68769061 </v>
   <v>       0.62499640      -0.00000362       0.93914302 </v>
   <v>       0.87576367       0.00129880       0.93858148 </v>
   <v>       0.62499223       0.00000917       0.68473829 </v>
   <v>       0.86731208       0.00166705       0.68770069 </v>
   <v>       0.12498794       0.00000873       0.68108067 </v>
   <v>      -0.00031554       0.30050673       0.06270084 </v>
   <v>       0.25030546       0.69948478       0.06269725 </v>
   <v>       0.25148317       0.29593933       0.31027600 </v>
   <v>       0.50043815       0.69912048       0.31192462 </v>
   <v>       0.50004196       0.29938630       0.06332430 </v>
   <v>       0.74995400       0.70060644       0.06332591 </v>
   <v>       0.74955197       0.30087674       0.31192598 </v>
   <v>      -0.00149179       0.70406259       0.31028075 </v>
   <v>      -0.00172611       0.30617078       0.56240000 </v>
   <v>       0.25170998       0.69385822       0.56239799 </v>
   <v>       0.24950560       0.30780289       0.81242695 </v>
   <v>       0.50048803       0.70023640       0.81273519 </v>
   <v>       0.50039417       0.29930554       0.56167428 </v>
   <v>       0.74958697       0.70070915       0.56167427 </v>
   <v>       0.74949046       0.29976619       0.81273095 </v>
   <v>       0.00046638       0.69220920       0.81242806 </v>
   <v>       0.24969619       0.34599681       0.06196732 </v>
   <v>       0.00030121       0.65400059       0.06196768 </v>
   <v>       0.49976284       0.34821059       0.31276467 </v>
   <v>       0.25045125       0.66569177       0.31211672 </v>
   <v>       0.74955541       0.34519018       0.06182982 </v>
   <v>       0.50044208       0.65480609       0.06182754 </v>
   <v>       0.99952566       0.33430265       0.31212310 </v>
   <v>       0.75021514       0.65180032       0.31276272 </v>
   <v>       0.24862103       0.33641086       0.56371197 </v>
   <v>       0.00136325       0.66362681       0.56371038 </v>
   <v>       0.50003405       0.34198915       0.81258533 </v>
   <v>       0.24989477       0.64877105       0.81189169 </v>
   <v>       0.74928974       0.34651323       0.56331137 </v>
   <v>       0.50069224       0.65350289       0.56330855 </v>
   <v>       0.00007569       0.35124758       0.81190060 </v>
   <v>       0.74993804       0.65799857       0.81258125 </v>
   <v>       0.50060368       0.07752681       0.06188282 </v>
   <v>      -0.01402248       0.92075486       0.29960735 </v>
   <v>       0.25122130       0.92086480       0.05720448 </v>
   <v>       0.26401664       0.07924805       0.29959951 </v>
   <v>       0.99877617       0.07912635       0.05721182 </v>
   <v>       0.50296002       0.92022702       0.31188762 </v>
   <v>       0.74940305       0.92246545       0.06187826 </v>
   <v>       0.74703092       0.07977234       0.31188525 </v>
   <v>       0.50098930       0.07767264       0.56253263 </v>
   <v>       0.00847750       0.91814511       0.80725661 </v>
   <v>       0.25807841       0.91510974       0.58229828 </v>
   <v>       0.24148545       0.08186749       0.80726117 </v>
   <v>       0.99190349       0.08491902       0.58230284 </v>
   <v>       0.49894599       0.92262365       0.81316783 </v>
   <v>       0.74900216       0.92234125       0.56253514 </v>
   <v>       0.75102590       0.07737841       0.81316610 </v>
  </varray>
 </structure>
</modeling>
