<?xml version="1.0" encoding="ISO-8859-1"?>
<modeling>
 <generator>
  <i name="program" type="string">vasp </i>
  <i name="version" type="string">5.4.4.18Apr17-6-g9f103f2a35  </i>
  <i name="subversion" type="string">(build Jul 31 2017 11:33:29) complex            parallel </i>
  <i name="platform" type="string">LinuxIFC </i>
  <i name="date" type="string">2021 09 29 </i>
  <i name="time" type="string">03:19:06 </i>
 </generator>
 <incar>
  <i type="string" name="SYSTEM"> La2O2S</i>
  <i type="string" name="PREC">normal</i>
  <i type="int" name="NELMIN">     4</i>
  <i type="int" name="IBRION">     2</i>
  <i type="int" name="NFREE">    10</i>
  <i name="EDIFF">      0.00000100</i>
  <i name="EDIFFG">     -0.01000000</i>
  <i type="int" name="NSW">     1</i>
  <i type="int" name="ISIF">     2</i>
  <i name="ENCUT">    600.00000000</i>
  <i name="ENAUG">    900.00000000</i>
  <i type="int" name="ISMEAR">    -5</i>
  <i type="logical" name="LWAVE"> F  </i>
  <i type="logical" name="LCHARG"> F  </i>
  <v type="int" name="KPOINT_BSE">    -1     0     0     0</v>
 </incar>
 <structure name="primitive_cell" >
  <crystal>
   <varray name="basis" >
    <v>      11.17850000       0.00000000       0.00000000 </v>
    <v>       0.00000000       9.57460000       0.00000000 </v>
    <v>       0.00000000       0.00000000      11.18240000 </v>
   </varray>
   <i name="volume">   1196.84853820 </i>
   <varray name="rec_basis" >
    <v>       0.08945744       0.00000000       0.00000000 </v>
    <v>       0.00000000       0.10444301       0.00000000 </v>
    <v>       0.00000000       0.00000000       0.08942624 </v>
   </varray>
  </crystal>
  <varray name="positions" >
   <v>       0.37539000       0.00017000       0.43687000 </v>
   <v>      -0.49987000      -0.07798000       0.31246000 </v>
   <v>       0.25013000       0.07798000       0.31246000 </v>
   <v>       0.49987000       0.07798000      -0.43754000 </v>
   <v>       0.24987000      -0.07798000      -0.43754000 </v>
   <v>      -0.37461000      -0.00016000       0.43687000 </v>
   <v>       0.37461000       0.00017000      -0.31313000 </v>
   <v>       0.49987000      -0.29519000       0.31282000 </v>
   <v>       0.24987000       0.29519000       0.31282000 </v>
   <v>      -0.49987000       0.29519000      -0.43719000 </v>
   <v>       0.25013000      -0.29519000      -0.43719000 </v>
   <v>       0.49995000       0.32677000       0.31286000 </v>
   <v>       0.24995000      -0.32677000       0.31286000 </v>
   <v>      -0.49995000      -0.32677000      -0.43714000 </v>
   <v>       0.25005000       0.32677000      -0.43714000 </v>
   <v>      -0.37539000      -0.00016000       0.18687000 </v>
   <v>      -0.37539000      -0.00016000      -0.31313000 </v>
   <v>       0.12461000      -0.00016000      -0.31313000 </v>
   <v>       0.12461000      -0.00016000       0.18687000 </v>
   <v>       0.49987000       0.07798000       0.06246000 </v>
   <v>      -0.24987000       0.07798000       0.31246000 </v>
   <v>      -0.25013000      -0.07798000      -0.43754000 </v>
   <v>       0.24987000      -0.07798000       0.06246000 </v>
   <v>       0.00013000      -0.07798000       0.31246000 </v>
   <v>      -0.49987000      -0.07798000      -0.18754000 </v>
   <v>      -0.00013000       0.07798000      -0.43754000 </v>
   <v>       0.25013000       0.07798000      -0.18754000 </v>
   <v>      -0.49987000       0.29519000       0.06281000 </v>
   <v>      -0.25013000       0.29519000       0.31282000 </v>
   <v>       0.25013000      -0.29519000       0.06281000 </v>
   <v>      -0.24987000      -0.29519000      -0.43719000 </v>
   <v>      -0.00013000      -0.29519000       0.31282000 </v>
   <v>       0.00013000       0.29519000      -0.43719000 </v>
   <v>       0.49987000      -0.29519000      -0.18718000 </v>
   <v>       0.24987000       0.29519000      -0.18718000 </v>
   <v>      -0.49995000      -0.32677000       0.06286000 </v>
   <v>       0.25005000       0.32677000       0.06286000 </v>
   <v>      -0.25005000      -0.32677000       0.31286000 </v>
   <v>      -0.24995000       0.32677000      -0.43714000 </v>
   <v>      -0.00005000       0.32677000       0.31286000 </v>
   <v>       0.00005000      -0.32677000      -0.43714000 </v>
   <v>       0.49995000       0.32677000      -0.18714000 </v>
   <v>       0.24995000      -0.32677000      -0.18714000 </v>
   <v>      -0.12461000       0.00017000       0.43687000 </v>
   <v>       0.37539000       0.00017000      -0.06313000 </v>
   <v>      -0.25013000      -0.07798000       0.06246000 </v>
   <v>      -0.00013000       0.07798000       0.06246000 </v>
   <v>      -0.24987000       0.07798000      -0.18754000 </v>
   <v>       0.00013000      -0.07798000      -0.18754000 </v>
   <v>      -0.12539000       0.00017000       0.18687000 </v>
   <v>      -0.12539000       0.00017000      -0.31313000 </v>
   <v>      -0.37461000      -0.00016000      -0.06313000 </v>
   <v>      -0.24987000      -0.29519000       0.06281000 </v>
   <v>       0.00013000       0.29519000       0.06281000 </v>
   <v>      -0.25013000       0.29519000      -0.18718000 </v>
   <v>      -0.00013000      -0.29519000      -0.18718000 </v>
   <v>      -0.24995000       0.32677000       0.06286000 </v>
   <v>       0.00005000      -0.32677000       0.06286000 </v>
   <v>      -0.25005000      -0.32677000      -0.18714000 </v>
   <v>      -0.00005000       0.32677000      -0.18714000 </v>
   <v>      -0.12461000       0.00017000      -0.06313000 </v>
  </varray>
 </structure>
 <varray name="primitive_index" >
  <v type="int" >        1 </v>
  <v type="int" >       53 </v>
  <v type="int" >       48 </v>
  <v type="int" >       54 </v>
  <v type="int" >       55 </v>
  <v type="int" >        2 </v>
  <v type="int" >        6 </v>
  <v type="int" >       17 </v>
  <v type="int" >       16 </v>
  <v type="int" >       26 </v>
  <v type="int" >       23 </v>
  <v type="int" >       32 </v>
  <v type="int" >       33 </v>
  <v type="int" >       43 </v>
  <v type="int" >       38 </v>
  <v type="int" >        3 </v>
  <v type="int" >        9 </v>
  <v type="int" >        5 </v>
  <v type="int" >       11 </v>
  <v type="int" >       46 </v>
  <v type="int" >       52 </v>
  <v type="int" >       59 </v>
  <v type="int" >       47 </v>
  <v type="int" >       49 </v>
  <v type="int" >       61 </v>
  <v type="int" >       58 </v>
  <v type="int" >       56 </v>
  <v type="int" >       18 </v>
  <v type="int" >       20 </v>
  <v type="int" >       15 </v>
  <v type="int" >       27 </v>
  <v type="int" >       21 </v>
  <v type="int" >       22 </v>
  <v type="int" >       25 </v>
  <v type="int" >       24 </v>
  <v type="int" >       35 </v>
  <v type="int" >       30 </v>
  <v type="int" >       37 </v>
  <v type="int" >       42 </v>
  <v type="int" >       36 </v>
  <v type="int" >       39 </v>
  <v type="int" >       40 </v>
  <v type="int" >       41 </v>
  <v type="int" >       12 </v>
  <v type="int" >       13 </v>
  <v type="int" >       51 </v>
  <v type="int" >       50 </v>
  <v type="int" >       60 </v>
  <v type="int" >       57 </v>
  <v type="int" >        4 </v>
  <v type="int" >       10 </v>
  <v type="int" >        7 </v>
  <v type="int" >       19 </v>
  <v type="int" >       14 </v>
  <v type="int" >       28 </v>
  <v type="int" >       29 </v>
  <v type="int" >       34 </v>
  <v type="int" >       31 </v>
  <v type="int" >       45 </v>
  <v type="int" >       44 </v>
  <v type="int" >        8 </v>
 </varray>
 <kpoints>
  <generation param="Gamma">
   <v type="int" name="divisions">       2        2        2 </v>
   <v name="usershift">      0.00000000       0.00000000       0.00000000 </v>
   <v name="genvec1">      0.50000000       0.00000000       0.00000000 </v>
   <v name="genvec2">      0.00000000       0.50000000       0.00000000 </v>
   <v name="genvec3">      0.00000000       0.00000000       0.50000000 </v>
   <v name="shift">      0.00000000       0.00000000       0.00000000 </v>
  </generation>
  <varray name="kpointlist" >
   <v>       0.00000000       0.00000000       0.00000000 </v>
   <v>       0.50000000       0.00000000       0.00000000 </v>
   <v>       0.00000000       0.50000000       0.00000000 </v>
   <v>       0.50000000       0.50000000       0.00000000 </v>
   <v>       0.00000000       0.00000000       0.50000000 </v>
   <v>       0.50000000       0.00000000       0.50000000 </v>
   <v>       0.00000000       0.50000000       0.50000000 </v>
   <v>       0.50000000       0.50000000       0.50000000 </v>
  </varray>
  <varray name="weights" >
   <v>       0.12500000 </v>
   <v>       0.12500000 </v>
   <v>       0.12500000 </v>
   <v>       0.12500000 </v>
   <v>       0.12500000 </v>
   <v>       0.12500000 </v>
   <v>       0.12500000 </v>
   <v>       0.12500000 </v>
  </varray>
  <varray name="tetrahedronlist"  type="int" >
   <v type="int" >        2        1        2        4        5 </v>
   <v type="int" >        2        1        3        4        5 </v>
   <v type="int" >        2        3        4        5        7 </v>
   <v type="int" >        2        2        4        5        6 </v>
   <v type="int" >        2        4        5        6        8 </v>
   <v type="int" >        2        4        5        7        8 </v>
   <v type="int" >        2        1        2        3        6 </v>
   <v type="int" >        2        2        3        4        6 </v>
   <v type="int" >        2        3        4        6        8 </v>
   <v type="int" >        2        1        3        5        6 </v>
   <v type="int" >        2        3        5        6        7 </v>
   <v type="int" >        2        3        6        7        8 </v>
   <v type="int" >        2        2        3        4        7 </v>
   <v type="int" >        2        1        2        3        7 </v>
   <v type="int" >        2        1        2        5        7 </v>
   <v type="int" >        2        2        4        7        8 </v>
   <v type="int" >        2        2        6        7        8 </v>
   <v type="int" >        2        2        5        6        7 </v>
   <v type="int" >        2        1        3        4        8 </v>
   <v type="int" >        2        1        2        4        8 </v>
   <v type="int" >        2        1        2        6        8 </v>
   <v type="int" >        2        1        3        7        8 </v>
   <v type="int" >        2        1        5        7        8 </v>
   <v type="int" >        2        1        5        6        8 </v>
  </varray>
  <i name="volumeweight">      0.02083333 </i>
 </kpoints>
 <parameters>
  <separator name="general" >
   <i type="string" name="SYSTEM">La2O2S</i>
   <i type="logical" name="LCOMPAT"> F  </i>
  </separator>
  <separator name="electronic" >
   <i type="string" name="PREC">normal</i>
   <i name="ENMAX">    600.00000000</i>
   <i name="ENAUG">    900.00000000</i>
   <i name="EDIFF">      0.00000100</i>
   <i type="int" name="IALGO">    38</i>
   <i type="int" name="IWAVPR">    11</i>
   <i type="int" name="NBANDS">   280</i>
   <i name="NELECT">    468.00000000</i>
   <i type="int" name="TURBO">     0</i>
   <i type="int" name="IRESTART">     0</i>
   <i type="int" name="NREBOOT">     0</i>
   <i type="int" name="NMIN">     0</i>
   <i name="EREF">      0.00000000</i>
   <separator name="electronic smearing" >
    <i type="int" name="ISMEAR">    -5</i>
    <i name="SIGMA">      0.20000000</i>
    <i name="KSPACING">      0.50000000</i>
    <i type="logical" name="KGAMMA"> T  </i>
   </separator>
   <separator name="electronic projectors" >
    <i type="logical" name="LREAL"> F  </i>
    <v name="ROPT">      0.00000000      0.00000000      0.00000000      0.00000000      0.00000000</v>
    <i type="int" name="LMAXPAW">  -100</i>
    <i type="int" name="LMAXMIX">     2</i>
    <i type="logical" name="NLSPLINE"> F  </i>
   </separator>
   <separator name="electronic startup" >
    <i type="int" name="ISTART">     0</i>
    <i type="int" name="ICHARG">     2</i>
    <i type="int" name="INIWAV">     1</i>
   </separator>
   <separator name="electronic spin" >
    <i type="int" name="ISPIN">     1</i>
    <i type="logical" name="LNONCOLLINEAR"> F  </i>
    <v name="MAGMOM">      1.00000000      1.00000000      1.00000000      1.00000000      1.00000000      1.00000000      1.00000000      1.00000000      1.00000000      1.00000000      1.00000000      1.00000000      1.00000000      1.00000000      1.00000000      1.00000000      1.00000000      1.00000000      1.00000000      1.00000000
      1.00000000      1.00000000      1.00000000      1.00000000      1.00000000      1.00000000      1.00000000      1.00000000      1.00000000      1.00000000      1.00000000      1.00000000      1.00000000      1.00000000      1.00000000      1.00000000      1.00000000      1.00000000      1.00000000      1.00000000
      1.00000000      1.00000000      1.00000000      1.00000000      1.00000000      1.00000000      1.00000000      1.00000000      1.00000000      1.00000000      1.00000000      1.00000000      1.00000000      1.00000000      1.00000000      1.00000000      1.00000000      1.00000000      1.00000000      1.00000000
      1.00000000</v>
    <i name="NUPDOWN">     -1.00000000</i>
    <i type="logical" name="LSORBIT"> F  </i>
    <v name="SAXIS">      0.00000000      0.00000000      1.00000000</v>
    <i type="logical" name="LSPIRAL"> F  </i>
    <v name="QSPIRAL">      0.00000000      0.00000000      0.00000000</v>
    <i type="logical" name="LZEROZ"> F  </i>
   </separator>
   <separator name="electronic exchange-correlation" >
    <i type="logical" name="LASPH"> F  </i>
    <i type="logical" name="LMETAGGA"> F  </i>
   </separator>
   <separator name="electronic convergence" >
    <i type="int" name="NELM">    60</i>
    <i type="int" name="NELMDL">    -5</i>
    <i type="int" name="NELMIN">     4</i>
    <i name="ENINI">    600.00000000</i>
    <separator name="electronic convergence detail" >
     <i type="logical" name="LDIAG"> T  </i>
     <i type="logical" name="LSUBROT"> F  </i>
     <i name="WEIMIN">      0.00100000</i>
     <i name="EBREAK">      0.00000000</i>
     <i name="DEPER">      0.30000000</i>
     <i type="int" name="NRMM">     4</i>
     <i name="TIME">      0.40000000</i>
    </separator>
   </separator>
   <separator name="electronic mixer" >
    <i name="AMIX">      0.40000000</i>
    <i name="BMIX">      1.00000000</i>
    <i name="AMIN">      0.10000000</i>
    <i name="AMIX_MAG">      1.60000000</i>
    <i name="BMIX_MAG">      1.00000000</i>
    <separator name="electronic mixer details" >
     <i type="int" name="IMIX">     4</i>
     <i type="logical" name="MIXFIRST"> F  </i>
     <i type="int" name="MAXMIX">   -45</i>
     <i name="WC">    100.00000000</i>
     <i type="int" name="INIMIX">     1</i>
     <i type="int" name="MIXPRE">     1</i>
     <i type="int" name="MREMOVE">     5</i>
    </separator>
   </separator>
   <separator name="electronic dipolcorrection" >
    <i type="logical" name="LDIPOL"> F  </i>
    <i type="logical" name="LMONO"> F  </i>
    <i type="int" name="IDIPOL">     0</i>
    <i name="EPSILON">      1.00000000</i>
    <v name="DIPOL">   -100.00000000   -100.00000000   -100.00000000</v>
    <i name="EFIELD">      0.00000000</i>
   </separator>
  </separator>
  <separator name="grids" >
   <i type="int" name="NGX">    70</i>
   <i type="int" name="NGY">    60</i>
   <i type="int" name="NGZ">    70</i>
   <i type="int" name="NGXF">   140</i>
   <i type="int" name="NGYF">   120</i>
   <i type="int" name="NGZF">   140</i>
   <i type="logical" name="ADDGRID"> F  </i>
  </separator>
  <separator name="ionic" >
   <i type="int" name="NSW">     1</i>
   <i type="int" name="IBRION">     2</i>
   <i type="int" name="MDALGO">     0</i>
   <i type="int" name="ISIF">     2</i>
   <i name="PSTRESS">      0.00000000</i>
   <i name="EDIFFG">     -0.01000000</i>
   <i type="int" name="NFREE">    10</i>
   <i name="POTIM">      0.50000000</i>
   <i name="SMASS">     -3.00000000</i>
   <i name="SCALEE">      1.00000000</i>
  </separator>
  <separator name="ionic md" >
   <i name="TEBEG">      0.00010000</i>
   <i name="TEEND">      0.00010000</i>
   <i type="int" name="NBLOCK">     1</i>
   <i type="int" name="KBLOCK">     1</i>
   <i type="int" name="NPACO">   256</i>
   <i name="APACO">     16.00000000</i>
  </separator>
  <separator name="symmetry" >
   <i type="int" name="ISYM">     2</i>
   <i name="SYMPREC">      0.00001000</i>
  </separator>
  <separator name="dos" >
   <i type="int" name="LORBIT">     0</i>
   <v name="RWIGS">     -1.00000000     -1.00000000     -1.00000000     -1.00000000     -1.00000000</v>
   <i type="int" name="NEDOS">   301</i>
   <i name="EMIN">     10.00000000</i>
   <i name="EMAX">    -10.00000000</i>
   <i name="EFERMI">      0.00000000</i>
  </separator>
  <separator name="writing" >
   <i type="int" name="NWRITE">     2</i>
   <i type="logical" name="LWAVE"> F  </i>
   <i type="logical" name="LDOWNSAMPLE"> F  </i>
   <i type="logical" name="LCHARG"> F  </i>
   <i type="logical" name="LPARD"> F  </i>
   <i type="logical" name="LVTOT"> F  </i>
   <i type="logical" name="LVHAR"> F  </i>
   <i type="logical" name="LELF"> F  </i>
   <i type="logical" name="LOPTICS"> F  </i>
   <v name="STM">      0.00000000      0.00000000      0.00000000      0.00000000      0.00000000      0.00000000      0.00000000</v>
  </separator>
  <separator name="performance" >
   <i type="int" name="NPAR">    28</i>
   <i type="int" name="NSIM">     4</i>
   <i type="int" name="NBLK">    -1</i>
   <i type="logical" name="LPLANE"> T  </i>
   <i type="logical" name="LSCALAPACK"> T  </i>
   <i type="logical" name="LSCAAWARE"> F  </i>
   <i type="logical" name="LSCALU"> F  </i>
   <i type="logical" name="LASYNC"> F  </i>
   <i type="logical" name="LORBITALREAL"> F  </i>
  </separator>
  <separator name="miscellaneous" >
   <i type="int" name="IDIOT">     3</i>
   <i type="int" name="ISPECIAL">     0</i>
   <i type="logical" name="LMUSIC"> F  </i>
   <v name="POMASS">      7.01000000     24.30500000    208.98000000     32.06600000     16.00000000</v>
   <v name="DARWINR">      0.00000000      0.00000000      0.00000000      0.00000000      0.00000000</v>
   <v name="DARWINV">      1.00000000      1.00000000      1.00000000      1.00000000      1.00000000</v>
   <i type="logical" name="LCORR"> T  </i>
  </separator>
  <i type="logical" name="GGA_COMPAT"> T  </i>
  <i type="logical" name="LBERRY"> F  </i>
  <i type="int" name="ICORELEVEL">     0</i>
  <i type="logical" name="LDAU"> F  </i>
  <i type="int" name="I_CONSTRAINED_M">     0</i>
  <separator name="electronic exchange-correlation" >
   <i type="string" name="GGA">--</i>
   <i type="int" name="VOSKOWN">     0</i>
   <i type="logical" name="LHFCALC"> F  </i>
   <i type="string" name="PRECFOCK"></i>
   <i type="logical" name="LSYMGRAD"> F  </i>
   <i type="logical" name="LHFONE"> F  </i>
   <i type="logical" name="LRHFCALC"> F  </i>
   <i type="logical" name="LTHOMAS"> F  </i>
   <i type="logical" name="LMODELHF"> F  </i>
   <i name="ENCUT4O">     -1.00000000</i>
   <i type="int" name="EXXOEP">     0</i>
   <i type="int" name="FOURORBIT">     0</i>
   <i name="AEXX">      0.00000000</i>
   <i name="HFALPHA">      0.00000000</i>
   <i name="MCALPHA">      0.00000000</i>
   <i name="ALDAX">      1.00000000</i>
   <i name="AGGAX">      1.00000000</i>
   <i name="ALDAC">      1.00000000</i>
   <i name="AGGAC">      1.00000000</i>
   <i type="int" name="NKREDX">     1</i>
   <i type="int" name="NKREDY">     1</i>
   <i type="int" name="NKREDZ">     1</i>
   <i type="logical" name="SHIFTRED"> F  </i>
   <i type="logical" name="ODDONLY"> F  </i>
   <i type="logical" name="EVENONLY"> F  </i>
   <i type="int" name="LMAXFOCK">     0</i>
   <i type="int" name="NMAXFOCKAE">     0</i>
   <i type="logical" name="LFOCKAEDFT"> F  </i>
   <i name="HFSCREEN">      0.00000000</i>
   <i name="HFSCREENC">      0.00000000</i>
   <i type="int" name="NBANDSGWLOW">     0</i>
  </separator>
  <separator name="vdW DFT" >
   <i type="logical" name="LUSE_VDW"> F  </i>
   <i name="Zab_VDW">     -0.84910000</i>
   <i name="PARAM1">      0.12340000</i>
   <i name="PARAM2">      1.00000000</i>
   <i name="PARAM3">      0.00000000</i>
  </separator>
  <separator name="model GW" >
   <i type="int" name="MODEL_GW">     0</i>
   <i name="MODEL_EPS0">     11.77228070</i>
   <i name="MODEL_ALPHA">      1.00000000</i>
  </separator>
  <separator name="linear response parameters" >
   <i type="logical" name="LEPSILON"> F  </i>
   <i type="logical" name="LRPA"> F  </i>
   <i type="logical" name="LNABLA"> F  </i>
   <i type="logical" name="LVEL"> F  </i>
   <i type="int" name="KINTER">     0</i>
   <i name="CSHIFT">      0.10000000</i>
   <i name="OMEGAMAX">     -1.00000000</i>
   <i name="DEG_THRESHOLD">      0.00200000</i>
   <i name="RTIME">     -0.10000000</i>
   <i name="WPLASMAI">      0.00000000</i>
   <v name="DFIELD">      0.00000000      0.00000000      0.00000000</v>
   <v name="WPLASMA">      0.00000000      0.00000000      0.00000000      0.00000000      0.00000000      0.00000000      0.00000000      0.00000000      0.00000000</v>
  </separator>
  <separator name="orbital magnetization" >
   <i type="logical" name="NUCIND"> F  </i>
   <v name="MAGPOS">      0.00000000      0.00000000      0.00000000</v>
   <i type="logical" name="LNICSALL"> T  </i>
   <i type="logical" name="ORBITALMAG"> F  </i>
   <i type="logical" name="LMAGBLOCH"> F  </i>
   <i type="logical" name="LCHIMAG"> F  </i>
   <i type="logical" name="LGAUGE"> T  </i>
   <i type="int" name="MAGATOM">     0</i>
   <v name="MAGDIPOL">      0.00000000      0.00000000      0.00000000</v>
   <v name="AVECCONST">      0.00000000      0.00000000      0.00000000</v>
  </separator>
  <separator name="response functions" >
   <i type="logical" name="LADDER"> F  </i>
   <i type="logical" name="LRPAFORCE"> F  </i>
   <i type="logical" name="LFXC"> F  </i>
   <i type="logical" name="LHARTREE"> T  </i>
   <i type="int" name="IBSE">     0</i>
   <v type="int" name="KPOINT">    -1     0     0     0</v>
   <i type="logical" name="LTCTE"> F  </i>
   <i type="logical" name="LTETE"> F  </i>
   <i type="logical" name="LTRIPLET"> F  </i>
   <i type="logical" name="LFXCEPS"> F  </i>
   <i type="logical" name="LFXHEG"> F  </i>
   <i type="int" name="NATURALO">     2</i>
   <i type="logical" name="L2ORDER"> F  </i>
   <i type="logical" name="LMP2LT"> F  </i>
   <i type="logical" name="LUSEW"> F  </i>
   <i name="ENCUTGW">     -2.00000000</i>
   <i name="ENCUTGWSOFT">     -2.00000000</i>
   <i name="ENCUTLF">     -1.00000000</i>
   <i type="int" name="LMAXMP2">    -1</i>
   <i name="SCISSOR">      0.00000000</i>
   <i type="int" name="NOMEGA">     0</i>
   <i type="int" name="NOMEGAR">     0</i>
   <i type="int" name="NBANDSGW">    -1</i>
   <i type="int" name="NBANDSO">    -1</i>
   <i type="int" name="NBANDSV">    -1</i>
   <i type="int" name="NELM">     1</i>
   <i type="int" name="NELMHF">     1</i>
   <i type="int" name="DIM">     3</i>
   <i type="int" name="ANTIRES">     0</i>
   <i name="OMEGAMAX">    -30.00000000</i>
   <i name="OMEGAMIN">    -30.00000000</i>
   <i name="OMEGATL">   -200.00000000</i>
   <i type="int" name="OMEGAGRID">   140</i>
   <i name="CSHIFT">     -0.10000000</i>
   <i type="logical" name="SELFENERGY"> F  </i>
   <i type="logical" name="LSPECTRAL"> F  </i>
   <i type="logical" name="LSPECTRALGW"> F  </i>
   <i type="logical" name="LSINGLES"> F  </i>
   <i type="logical" name="LFERMIGW"> F  </i>
   <i type="logical" name="ODDONLYGW"> F  </i>
   <i type="logical" name="EVENONLYGW"> F  </i>
   <i type="int" name="NKREDLFX">     1</i>
   <i type="int" name="NKREDLFY">     1</i>
   <i type="int" name="NKREDLFZ">     1</i>
   <i type="int" name="MAXMEM">  2800</i>
   <i type="int" name="TELESCOPE">     0</i>
   <i type="int" name="TAUPAR">     1</i>
   <i type="int" name="OMEGAPAR">    -1</i>
   <i name="LAMBDA">      1.00000000</i>
  </separator>
  <separator name="External order field" >
   <i name="OFIELD_KAPPA">      0.00000000</i>
   <v name="OFIELD_K">      0.00000000      0.00000000      0.00000000</v>
   <i name="OFIELD_Q6_NEAR">      0.00000000</i>
   <i name="OFIELD_Q6_FAR">      0.00000000</i>
   <i name="OFIELD_A">      0.00000000</i>
  </separator>
 </parameters>
 <atominfo>
  <atoms>      61 </atoms>
  <types>       5 </types>
  <array name="atoms" >
   <dimension dim="1">ion</dimension>
   <field type="string">element</field>
   <field type="int">atomtype</field>
   <set>
    <rc><c>Li</c><c>   1</c></rc>
    <rc><c>Li</c><c>   1</c></rc>
    <rc><c>Li</c><c>   1</c></rc>
    <rc><c>Li</c><c>   1</c></rc>
    <rc><c>Li</c><c>   1</c></rc>
    <rc><c>Li</c><c>   1</c></rc>
    <rc><c>Li</c><c>   1</c></rc>
    <rc><c>Li</c><c>   1</c></rc>
    <rc><c>Li</c><c>   1</c></rc>
    <rc><c>Li</c><c>   1</c></rc>
    <rc><c>Mg</c><c>   2</c></rc>
    <rc><c>Mg</c><c>   2</c></rc>
    <rc><c>Mg</c><c>   2</c></rc>
    <rc><c>Bi</c><c>   3</c></rc>
    <rc><c>Bi</c><c>   3</c></rc>
    <rc><c>Bi</c><c>   3</c></rc>
    <rc><c>Bi</c><c>   3</c></rc>
    <rc><c>Bi</c><c>   3</c></rc>
    <rc><c>Bi</c><c>   3</c></rc>
    <rc><c>Bi</c><c>   3</c></rc>
    <rc><c>Bi</c><c>   3</c></rc>
    <rc><c>Bi</c><c>   3</c></rc>
    <rc><c>Bi</c><c>   3</c></rc>
    <rc><c>Bi</c><c>   3</c></rc>
    <rc><c>Bi</c><c>   3</c></rc>
    <rc><c>Bi</c><c>   3</c></rc>
    <rc><c>Bi</c><c>   3</c></rc>
    <rc><c>Bi</c><c>   3</c></rc>
    <rc><c>Bi</c><c>   3</c></rc>
    <rc><c>S </c><c>   4</c></rc>
    <rc><c>S </c><c>   4</c></rc>
    <rc><c>S </c><c>   4</c></rc>
    <rc><c>S </c><c>   4</c></rc>
    <rc><c>S </c><c>   4</c></rc>
    <rc><c>S </c><c>   4</c></rc>
    <rc><c>S </c><c>   4</c></rc>
    <rc><c>S </c><c>   4</c></rc>
    <rc><c>S </c><c>   4</c></rc>
    <rc><c>S </c><c>   4</c></rc>
    <rc><c>S </c><c>   4</c></rc>
    <rc><c>S </c><c>   4</c></rc>
    <rc><c>S </c><c>   4</c></rc>
    <rc><c>S </c><c>   4</c></rc>
    <rc><c>S </c><c>   4</c></rc>
    <rc><c>S </c><c>   4</c></rc>
    <rc><c>O </c><c>   5</c></rc>
    <rc><c>O </c><c>   5</c></rc>
    <rc><c>O </c><c>   5</c></rc>
    <rc><c>O </c><c>   5</c></rc>
    <rc><c>O </c><c>   5</c></rc>
    <rc><c>O </c><c>   5</c></rc>
    <rc><c>O </c><c>   5</c></rc>
    <rc><c>O </c><c>   5</c></rc>
    <rc><c>O </c><c>   5</c></rc>
    <rc><c>O </c><c>   5</c></rc>
    <rc><c>O </c><c>   5</c></rc>
    <rc><c>O </c><c>   5</c></rc>
    <rc><c>O </c><c>   5</c></rc>
    <rc><c>O </c><c>   5</c></rc>
    <rc><c>O </c><c>   5</c></rc>
    <rc><c>O </c><c>   5</c></rc>
   </set>
  </array>
  <array name="atomtypes" >
   <dimension dim="1">type</dimension>
   <field type="int">atomspertype</field>
   <field type="string">element</field>
   <field>mass</field>
   <field>valence</field>
   <field type="string">pseudopotential</field>
   <set>
    <rc><c>  10</c><c>Li</c><c>      7.01000000</c><c>      3.00000000</c><c>  PAW_PBE Li_sv 10Sep2004               </c></rc>
    <rc><c>   3</c><c>Mg</c><c>     24.30500000</c><c>      2.00000000</c><c>  PAW_PBE Mg 13Apr2007                  </c></rc>
    <rc><c>  16</c><c>Bi</c><c>    208.98000000</c><c>     15.00000000</c><c>  PAW_PBE Bi_d 06Sep2000                </c></rc>
    <rc><c>  16</c><c>S </c><c>     32.06600000</c><c>      6.00000000</c><c>  PAW_PBE S 06Sep2000                   </c></rc>
    <rc><c>  16</c><c>O </c><c>     16.00000000</c><c>      6.00000000</c><c>  PAW_PBE O 08Apr2002                   </c></rc>
   </set>
  </array>
 </atominfo>
 <structure name="initialpos" >
  <crystal>
   <varray name="basis" >
    <v>      11.17850000       0.00000000       0.00000000 </v>
    <v>       0.00000000       9.57460000       0.00000000 </v>
    <v>       0.00000000       0.00000000      11.18240000 </v>
   </varray>
   <i name="volume">   1196.84853820 </i>
   <varray name="rec_basis" >
    <v>       0.08945744       0.00000000       0.00000000 </v>
    <v>       0.00000000       0.10444301       0.00000000 </v>
    <v>       0.00000000       0.00000000       0.08942624 </v>
   </varray>
  </crystal>
  <varray name="positions" >
   <v>       0.37539000       0.00017000       0.43687000 </v>
   <v>       0.62539000       0.99984000       0.43687000 </v>
   <v>       0.62461000       0.99984000       0.18687000 </v>
   <v>       0.87461000       0.00017000       0.18687000 </v>
   <v>       0.12461000       0.99984000       0.68687000 </v>
   <v>       0.37461000       0.00017000       0.68687000 </v>
   <v>       0.62539000       0.99984000       0.93687000 </v>
   <v>       0.87539000       0.00017000       0.93687000 </v>
   <v>       0.62461000       0.99984000       0.68687000 </v>
   <v>       0.87461000       0.00017000       0.68687000 </v>
   <v>       0.12461000       0.99984000       0.18687000 </v>
   <v>       0.87539000       0.00017000       0.43687000 </v>
   <v>       0.37539000       0.00017000       0.93687000 </v>
   <v>       0.00013000       0.29519000       0.06281000 </v>
   <v>       0.25013000       0.70481000       0.06281000 </v>
   <v>       0.24987000       0.29519000       0.31282000 </v>
   <v>       0.49987000       0.70481000       0.31282000 </v>
   <v>       0.50013000       0.29519000       0.06281000 </v>
   <v>       0.75013000       0.70481000       0.06281000 </v>
   <v>       0.74987000       0.29519000       0.31282000 </v>
   <v>       0.99987000       0.70481000       0.31282000 </v>
   <v>       0.00013000       0.29519000       0.56281000 </v>
   <v>       0.25013000       0.70481000       0.56281000 </v>
   <v>       0.24987000       0.29519000       0.81282000 </v>
   <v>       0.49987000       0.70481000       0.81282000 </v>
   <v>       0.50013000       0.29519000       0.56281000 </v>
   <v>       0.75013000       0.70481000       0.56281000 </v>
   <v>       0.74987000       0.29519000       0.81282000 </v>
   <v>       0.99987000       0.70481000       0.81282000 </v>
   <v>       0.25005000       0.32677000       0.06286000 </v>
   <v>       0.00005000       0.67323000       0.06286000 </v>
   <v>       0.49995000       0.32677000       0.31286000 </v>
   <v>       0.24995000       0.67323000       0.31286000 </v>
   <v>       0.75005000       0.32677000       0.06286000 </v>
   <v>       0.50005000       0.67323000       0.06286000 </v>
   <v>       0.99995000       0.32677000       0.31286000 </v>
   <v>       0.74995000       0.67323000       0.31286000 </v>
   <v>       0.25005000       0.32677000       0.56286000 </v>
   <v>       0.00005000       0.67323000       0.56286000 </v>
   <v>       0.49995000       0.32677000       0.81286000 </v>
   <v>       0.24995000       0.67323000       0.81286000 </v>
   <v>       0.75005000       0.32677000       0.56286000 </v>
   <v>       0.50005000       0.67323000       0.56286000 </v>
   <v>       0.99995000       0.32677000       0.81286000 </v>
   <v>       0.74995000       0.67323000       0.81286000 </v>
   <v>       0.49987000       0.07798000       0.06246000 </v>
   <v>       0.24987000       0.92202000       0.06246000 </v>
   <v>       0.25013000       0.07798000       0.31246000 </v>
   <v>       0.00013000       0.92202000       0.31246000 </v>
   <v>       0.99987000       0.07798000       0.06246000 </v>
   <v>       0.74987000       0.92202000       0.06246000 </v>
   <v>       0.75013000       0.07798000       0.31246000 </v>
   <v>       0.50013000       0.92202000       0.31246000 </v>
   <v>       0.49987000       0.07798000       0.56246000 </v>
   <v>       0.24987000       0.92202000       0.56246000 </v>
   <v>       0.25013000       0.07798000       0.81246000 </v>
   <v>       0.00013000       0.92202000       0.81246000 </v>
   <v>       0.99987000       0.07798000       0.56246000 </v>
   <v>       0.74987000       0.92202000       0.56246000 </v>
   <v>       0.75013000       0.07798000       0.81246000 </v>
   <v>       0.50013000       0.92202000       0.81246000 </v>
  </varray>
 </structure>
 <calculation>
  <scstep>
   <time name="dav">   60.85   60.93</time>
   <time name="total">   60.93   61.02</time>
   <energy>
    <i name="alphaZ">   1073.51873187 </i>
    <i name="ewald"> -30865.25886485 </i>
    <i name="hartreedc"> -12723.58228422 </i>
    <i name="XCdc">   1394.97549215 </i>
    <i name="pawpsdc">  36823.70205594 </i>
    <i name="pawaedc"> -36326.52930246 </i>
    <i name="eentropy">      0.00000000 </i>
    <i name="bandstr">   1807.35877395 </i>
    <i name="atom">  44791.06186932 </i>
    <i name="e_fr_energy">   5975.24647169 </i>
    <i name="e_wo_entrp">   5975.24647169 </i>
    <i name="e_0_energy">   5975.24647169 </i>
   </energy>
  </scstep>
  <scstep>
   <time name="dav">   61.63   61.72</time>
   <time name="total">   61.64   61.73</time>
   <energy>
    <i name="e_fr_energy">    792.45946548 </i>
    <i name="e_wo_entrp">    792.45946548 </i>
    <i name="e_0_energy">    792.45946548 </i>
   </energy>
  </scstep>
  <scstep>
   <time name="dav">   68.49   69.20</time>
   <time name="total">   68.49   69.20</time>
   <energy>
    <i name="e_fr_energy">   -242.40070311 </i>
    <i name="e_wo_entrp">   -242.40070311 </i>
    <i name="e_0_energy">   -242.40070311 </i>
   </energy>
  </scstep>
  <scstep>
   <time name="dav">   72.36   73.47</time>
   <time name="total">   72.36   73.47</time>
   <energy>
    <i name="e_fr_energy">   -346.59804173 </i>
    <i name="e_wo_entrp">   -346.59804173 </i>
    <i name="e_0_energy">   -346.59804173 </i>
   </energy>
  </scstep>
  <scstep>
   <time name="dav">   97.65   97.94</time>
   <time name="total">   98.37   98.66</time>
   <energy>
    <i name="e_fr_energy">   -355.29082023 </i>
    <i name="e_wo_entrp">   -355.29082023 </i>
    <i name="e_0_energy">   -355.29082023 </i>
   </energy>
  </scstep>
  <scstep>
   <time name="dav">   86.00   86.17</time>
   <time name="total">   86.79   86.97</time>
   <energy>
    <i name="e_fr_energy">   -296.46271844 </i>
    <i name="e_wo_entrp">   -296.46271844 </i>
    <i name="e_0_energy">   -296.46271844 </i>
   </energy>
  </scstep>
  <scstep>
   <time name="dav">   66.18   66.32</time>
   <time name="total">   66.97   67.12</time>
   <energy>
    <i name="e_fr_energy">   -299.21124652 </i>
    <i name="e_wo_entrp">   -299.21124652 </i>
    <i name="e_0_energy">   -299.21124652 </i>
   </energy>
  </scstep>
  <scstep>
   <time name="dav">   77.40   77.80</time>
   <time name="total">   78.17   78.60</time>
   <energy>
    <i name="e_fr_energy">   -297.95426261 </i>
    <i name="e_wo_entrp">   -297.95426261 </i>
    <i name="e_0_energy">   -297.95426261 </i>
   </energy>
  </scstep>
  <scstep>
   <time name="dav">   73.21   74.70</time>
   <time name="total">   74.00   75.49</time>
   <energy>
    <i name="e_fr_energy">   -297.30713621 </i>
    <i name="e_wo_entrp">   -297.30713621 </i>
    <i name="e_0_energy">   -297.30713621 </i>
   </energy>
  </scstep>
  <scstep>
   <time name="dav">   73.85   74.82</time>
   <time name="total">   74.64   75.62</time>
   <energy>
    <i name="e_fr_energy">   -297.33444450 </i>
    <i name="e_wo_entrp">   -297.33444450 </i>
    <i name="e_0_energy">   -297.33444450 </i>
   </energy>
  </scstep>
  <scstep>
   <time name="dav">   79.02   80.28</time>
   <time name="total">   79.81   81.08</time>
   <energy>
    <i name="e_fr_energy">   -297.34227826 </i>
    <i name="e_wo_entrp">   -297.34227826 </i>
    <i name="e_0_energy">   -297.34227826 </i>
   </energy>
  </scstep>
  <scstep>
   <time name="dav">   83.92   84.37</time>
   <time name="total">   84.71   85.17</time>
   <energy>
    <i name="e_fr_energy">   -297.34623022 </i>
    <i name="e_wo_entrp">   -297.34623022 </i>
    <i name="e_0_energy">   -297.34623022 </i>
   </energy>
  </scstep>
  <scstep>
   <time name="dav">   70.18   70.61</time>
   <time name="total">   70.97   71.41</time>
   <energy>
    <i name="e_fr_energy">   -297.34724648 </i>
    <i name="e_wo_entrp">   -297.34724648 </i>
    <i name="e_0_energy">   -297.34724648 </i>
   </energy>
  </scstep>
  <scstep>
   <time name="dav">   76.76   76.93</time>
   <time name="total">   77.56   77.72</time>
   <energy>
    <i name="e_fr_energy">   -297.34752950 </i>
    <i name="e_wo_entrp">   -297.34752950 </i>
    <i name="e_0_energy">   -297.34752950 </i>
   </energy>
  </scstep>
  <scstep>
   <time name="dav">   85.41   85.79</time>
   <time name="total">   86.21   86.59</time>
   <energy>
    <i name="e_fr_energy">   -297.34755978 </i>
    <i name="e_wo_entrp">   -297.34755978 </i>
    <i name="e_0_energy">   -297.34755978 </i>
   </energy>
  </scstep>
  <scstep>
   <time name="dav">   65.43   65.54</time>
   <time name="total">   66.23   66.34</time>
   <energy>
    <i name="e_fr_energy">   -297.34758423 </i>
    <i name="e_wo_entrp">   -297.34758423 </i>
    <i name="e_0_energy">   -297.34758423 </i>
   </energy>
  </scstep>
  <scstep>
   <time name="dav">   71.72   72.42</time>
   <time name="total">   72.52   73.23</time>
   <energy>
    <i name="e_fr_energy">   -297.34758776 </i>
    <i name="e_wo_entrp">   -297.34758776 </i>
    <i name="e_0_energy">   -297.34758776 </i>
   </energy>
  </scstep>
  <scstep>
   <time name="dav">   60.72   60.82</time>
   <time name="total">   61.51   61.62</time>
   <energy>
    <i name="e_fr_energy">   -297.34758879 </i>
    <i name="e_wo_entrp">   -297.34758879 </i>
    <i name="e_0_energy">   -297.34758879 </i>
   </energy>
  </scstep>
  <scstep>
   <time name="dav">   44.43   44.47</time>
   <time name="total">   44.51   44.54</time>
   <energy>
    <i name="alphaZ">   1073.51873187 </i>
    <i name="ewald"> -30865.25886485 </i>
    <i name="hartreedc"> -12961.16002905 </i>
    <i name="XCdc">   1418.55225853 </i>
    <i name="pawpsdc">  43855.35388360 </i>
    <i name="pawaedc"> -43332.99433590 </i>
    <i name="eentropy">      0.00000000 </i>
    <i name="bandstr">  -4276.42110203 </i>
    <i name="atom">  44791.06186932 </i>
    <i name="e_fr_energy">   -297.34758852 </i>
    <i name="e_wo_entrp">   -297.34758852 </i>
    <i name="e_0_energy">   -297.34758852 </i>
   </energy>
  </scstep>
  <structure>
   <crystal>
    <varray name="basis" >
     <v>      11.17850000       0.00000000       0.00000000 </v>
     <v>       0.00000000       9.57460000       0.00000000 </v>
     <v>       0.00000000       0.00000000      11.18240000 </v>
    </varray>
    <i name="volume">   1196.84853820 </i>
    <varray name="rec_basis" >
     <v>       0.08945744       0.00000000       0.00000000 </v>
     <v>       0.00000000       0.10444301       0.00000000 </v>
     <v>       0.00000000       0.00000000       0.08942624 </v>
    </varray>
   </crystal>
   <varray name="positions" >
    <v>       0.37539000       0.00017000       0.43687000 </v>
    <v>       0.62539000       0.99984000       0.43687000 </v>
    <v>       0.62461000       0.99984000       0.18687000 </v>
    <v>       0.87461000       0.00017000       0.18687000 </v>
    <v>       0.12461000       0.99984000       0.68687000 </v>
    <v>       0.37461000       0.00017000       0.68687000 </v>
    <v>       0.62539000       0.99984000       0.93687000 </v>
    <v>       0.87539000       0.00017000       0.93687000 </v>
    <v>       0.62461000       0.99984000       0.68687000 </v>
    <v>       0.87461000       0.00017000       0.68687000 </v>
    <v>       0.12461000       0.99984000       0.18687000 </v>
    <v>       0.87539000       0.00017000       0.43687000 </v>
    <v>       0.37539000       0.00017000       0.93687000 </v>
    <v>       0.00013000       0.29519000       0.06281000 </v>
    <v>       0.25013000       0.70481000       0.06281000 </v>
    <v>       0.24987000       0.29519000       0.31282000 </v>
    <v>       0.49987000       0.70481000       0.31282000 </v>
    <v>       0.50013000       0.29519000       0.06281000 </v>
    <v>       0.75013000       0.70481000       0.06281000 </v>
    <v>       0.74987000       0.29519000       0.31282000 </v>
    <v>       0.99987000       0.70481000       0.31282000 </v>
    <v>       0.00013000       0.29519000       0.56281000 </v>
    <v>       0.25013000       0.70481000       0.56281000 </v>
    <v>       0.24987000       0.29519000       0.81282000 </v>
    <v>       0.49987000       0.70481000       0.81282000 </v>
    <v>       0.50013000       0.29519000       0.56281000 </v>
    <v>       0.75013000       0.70481000       0.56281000 </v>
    <v>       0.74987000       0.29519000       0.81282000 </v>
    <v>       0.99987000       0.70481000       0.81282000 </v>
    <v>       0.25005000       0.32677000       0.06286000 </v>
    <v>       0.00005000       0.67323000       0.06286000 </v>
    <v>       0.49995000       0.32677000       0.31286000 </v>
    <v>       0.24995000       0.67323000       0.31286000 </v>
    <v>       0.75005000       0.32677000       0.06286000 </v>
    <v>       0.50005000       0.67323000       0.06286000 </v>
    <v>       0.99995000       0.32677000       0.31286000 </v>
    <v>       0.74995000       0.67323000       0.31286000 </v>
    <v>       0.25005000       0.32677000       0.56286000 </v>
    <v>       0.00005000       0.67323000       0.56286000 </v>
    <v>       0.49995000       0.32677000       0.81286000 </v>
    <v>       0.24995000       0.67323000       0.81286000 </v>
    <v>       0.75005000       0.32677000       0.56286000 </v>
    <v>       0.50005000       0.67323000       0.56286000 </v>
    <v>       0.99995000       0.32677000       0.81286000 </v>
    <v>       0.74995000       0.67323000       0.81286000 </v>
    <v>       0.49987000       0.07798000       0.06246000 </v>
    <v>       0.24987000       0.92202000       0.06246000 </v>
    <v>       0.25013000       0.07798000       0.31246000 </v>
    <v>       0.00013000       0.92202000       0.31246000 </v>
    <v>       0.99987000       0.07798000       0.06246000 </v>
    <v>       0.74987000       0.92202000       0.06246000 </v>
    <v>       0.75013000       0.07798000       0.31246000 </v>
    <v>       0.50013000       0.92202000       0.31246000 </v>
    <v>       0.49987000       0.07798000       0.56246000 </v>
    <v>       0.24987000       0.92202000       0.56246000 </v>
    <v>       0.25013000       0.07798000       0.81246000 </v>
    <v>       0.00013000       0.92202000       0.81246000 </v>
    <v>       0.99987000       0.07798000       0.56246000 </v>
    <v>       0.74987000       0.92202000       0.56246000 </v>
    <v>       0.75013000       0.07798000       0.81246000 </v>
    <v>       0.50013000       0.92202000       0.81246000 </v>
   </varray>
  </structure>
  <varray name="forces" >
   <v>      -0.45213515      -0.07071429      -0.40540765 </v>
   <v>      -0.68923602      -0.06431908      -0.14498698 </v>
   <v>      -0.53484702      -0.13564135      -0.00539345 </v>
   <v>      -0.11063607      -0.00659731      -0.47648284 </v>
   <v>       0.04248785      -0.13621387       0.00832292 </v>
   <v>      -0.35556740       0.00007894      -0.46528520 </v>
   <v>       0.27332972       0.06218177       0.16526293 </v>
   <v>       0.43777850      -0.06980571      -0.08275050 </v>
   <v>      -0.02452131       0.13151116       0.00888057 </v>
   <v>       0.36091598      -0.00073839       0.48366989 </v>
   <v>       1.09226247       0.23070489       0.00708126 </v>
   <v>       0.86876450       0.10330971       0.22340113 </v>
   <v>      -0.91064482       0.10813158       0.84763866 </v>
   <v>       0.14398937       0.01992652      -0.31985079 </v>
   <v>       0.01020435       0.12716329       0.03546647 </v>
   <v>       0.18855015      -1.05597905       0.13322328 </v>
   <v>      -0.32249567       0.97104826      -0.09254064 </v>
   <v>      -0.16996693      -0.01067488       0.28935154 </v>
   <v>      -0.00898128      -0.05618315      -0.07249956 </v>
   <v>      -0.20575204       1.07777646      -0.13822710 </v>
   <v>       0.37113559      -0.99037715       0.13344526 </v>
   <v>       0.42151156       0.01775235       0.06780331 </v>
   <v>      -0.08762122       0.99870603      -0.15162716 </v>
   <v>      -0.27466832      -0.01065181      -0.03674952 </v>
   <v>      -0.04676482      -1.03789669      -0.11563550 </v>
   <v>      -0.25132966       0.03200663      -0.09921361 </v>
   <v>      -0.10397145      -1.04136605       0.14646678 </v>
   <v>       0.10809736       0.04247507       0.04838934 </v>
   <v>       0.22821046       0.99476076       0.09934361 </v>
   <v>      -0.00336650       0.12328962      -0.11236466 </v>
   <v>      -0.06879192      -0.12416800       0.23167620 </v>
   <v>       0.29445949       0.16023523       0.02353425 </v>
   <v>      -0.22588460      -0.14366256      -0.12991684 </v>
   <v>       0.00143308       0.15381870       0.07915596 </v>
   <v>       0.06876796      -0.12198457      -0.23895018 </v>
   <v>      -0.28678256       0.08952663      -0.00315270 </v>
   <v>       0.21392965      -0.09764532       0.12578074 </v>
   <v>       0.01995985       0.20170403       0.12235332 </v>
   <v>      -0.32266231      -0.12102912      -0.21394299 </v>
   <v>       0.04349783       0.15030310       0.03550990 </v>
   <v>       0.24979527      -0.16328929       0.11763619 </v>
   <v>       0.03735309       0.09986558      -0.12708047 </v>
   <v>       0.26410140      -0.19418212       0.18142543 </v>
   <v>      -0.10366244       0.16954775      -0.01832643 </v>
   <v>      -0.18162622      -0.15449978      -0.07712301 </v>
   <v>       0.21636731       0.00903265      -1.23048786 </v>
   <v>       0.02694031      -0.33469412      -0.07974653 </v>
   <v>      -0.63530250       0.96852826      -0.55936335 </v>
   <v>      -0.87019002       0.67111463      -0.59192601 </v>
   <v>      -0.22679224       0.00184404       1.22510397 </v>
   <v>       0.00829370       0.09048466       0.07716775 </v>
   <v>       0.62444916      -0.87391551       0.56163254 </v>
   <v>       0.82758059      -0.75721580       0.59941499 </v>
   <v>       0.24512555      -0.02894609       0.14844016 </v>
   <v>       0.62223302      -0.83080729       0.67351682 </v>
   <v>       1.25029377       0.06423393      -0.06085583 </v>
   <v>      -0.70676949      -0.78752617      -0.60626052 </v>
   <v>      -1.33407135      -0.00966389      -0.04154621 </v>
   <v>       0.49078310       0.86010593      -0.58420186 </v>
   <v>      -0.15671888      -0.08099920      -0.07953800 </v>
   <v>      -0.38084177       0.78021945       0.46133874 </v>
  </varray>
  <varray name="stress" >
   <v>      -8.31897814      -0.36676606      -0.76097743 </v>
   <v>      -0.36676593     -14.03865338      -0.15130505 </v>
   <v>      -0.76097740      -0.15130526      -9.12360840 </v>
  </varray>
  <energy>
   <i name="e_fr_energy">   -312.03349518 </i>
   <i name="e_wo_entrp">   -312.03349518 </i>
   <i name="e_0_energy">      0.00000000 </i>
  </energy>
  <time name="totalsc"> 1493.96 1503.20</time>
  <eigenvalues>
   <array>
    <dimension dim="1">band</dimension>
    <dimension dim="2">kpoint</dimension>
    <dimension dim="3">spin</dimension>
    <field>eigene</field>
    <field>occ</field>
    <set>
     <set comment="spin 1">
      <set comment="kpoint 1">
       <r>  -40.2678    1.0000 </r>
       <r>  -40.1758    1.0000 </r>
       <r>  -40.0654    1.0000 </r>
       <r>  -40.0541    1.0000 </r>
       <r>  -39.8983    1.0000 </r>
       <r>  -39.8158    1.0000 </r>
       <r>  -39.7986    1.0000 </r>
       <r>  -39.6480    1.0000 </r>
       <r>  -39.3668    1.0000 </r>
       <r>  -39.2108    1.0000 </r>
       <r>  -18.9294    1.0000 </r>
       <r>  -18.9142    1.0000 </r>
       <r>  -18.8570    1.0000 </r>
       <r>  -18.8501    1.0000 </r>
       <r>  -18.8444    1.0000 </r>
       <r>  -18.8434    1.0000 </r>
       <r>  -18.8374    1.0000 </r>
       <r>  -18.8306    1.0000 </r>
       <r>  -18.7732    1.0000 </r>
       <r>  -18.7708    1.0000 </r>
       <r>  -18.7654    1.0000 </r>
       <r>  -18.7630    1.0000 </r>
       <r>  -18.7549    1.0000 </r>
       <r>  -18.7412    1.0000 </r>
       <r>  -18.7402    1.0000 </r>
       <r>  -18.7263    1.0000 </r>
       <r>  -18.7104    1.0000 </r>
       <r>  -18.7005    1.0000 </r>
       <r>  -18.6972    1.0000 </r>
       <r>  -18.6912    1.0000 </r>
       <r>  -18.6853    1.0000 </r>
       <r>  -18.6796    1.0000 </r>
       <r>  -18.6701    1.0000 </r>
       <r>  -18.6612    1.0000 </r>
       <r>  -18.6545    1.0000 </r>
       <r>  -18.6511    1.0000 </r>
       <r>  -18.6505    1.0000 </r>
       <r>  -18.6476    1.0000 </r>
       <r>  -18.6433    1.0000 </r>
       <r>  -18.6418    1.0000 </r>
       <r>  -18.6392    1.0000 </r>
       <r>  -18.6372    1.0000 </r>
       <r>  -18.6354    1.0000 </r>
       <r>  -18.6350    1.0000 </r>
       <r>  -18.6329    1.0000 </r>
       <r>  -18.6279    1.0000 </r>
       <r>  -18.6256    1.0000 </r>
       <r>  -18.6183    1.0000 </r>
       <r>  -18.5657    1.0000 </r>
       <r>  -18.5528    1.0000 </r>
       <r>  -18.5487    1.0000 </r>
       <r>  -18.5435    1.0000 </r>
       <r>  -18.5425    1.0000 </r>
       <r>  -18.5401    1.0000 </r>
       <r>  -18.5383    1.0000 </r>
       <r>  -18.5323    1.0000 </r>
       <r>  -18.5300    1.0000 </r>
       <r>  -18.5156    1.0000 </r>
       <r>  -18.4952    1.0000 </r>
       <r>  -18.4941    1.0000 </r>
       <r>  -18.4880    1.0000 </r>
       <r>  -18.4803    1.0000 </r>
       <r>  -18.4800    1.0000 </r>
       <r>  -18.4732    1.0000 </r>
       <r>  -18.4728    1.0000 </r>
       <r>  -18.4726    1.0000 </r>
       <r>  -18.4573    1.0000 </r>
       <r>  -18.4537    1.0000 </r>
       <r>  -18.4450    1.0000 </r>
       <r>  -18.4413    1.0000 </r>
       <r>  -18.4096    1.0000 </r>
       <r>  -18.3913    1.0000 </r>
       <r>  -18.3878    1.0000 </r>
       <r>  -18.3875    1.0000 </r>
       <r>  -18.3804    1.0000 </r>
       <r>  -18.3753    1.0000 </r>
       <r>  -18.3750    1.0000 </r>
       <r>  -18.3693    1.0000 </r>
       <r>  -18.3612    1.0000 </r>
       <r>  -18.3565    1.0000 </r>
       <r>  -18.2973    1.0000 </r>
       <r>  -18.2899    1.0000 </r>
       <r>  -18.2525    1.0000 </r>
       <r>  -18.2477    1.0000 </r>
       <r>  -18.2431    1.0000 </r>
       <r>  -18.2382    1.0000 </r>
       <r>  -18.1882    1.0000 </r>
       <r>  -18.1744    1.0000 </r>
       <r>  -18.1618    1.0000 </r>
       <r>  -18.1607    1.0000 </r>
       <r>  -13.5808    1.0000 </r>
       <r>  -13.4557    1.0000 </r>
       <r>  -13.4004    1.0000 </r>
       <r>  -13.3992    1.0000 </r>
       <r>  -12.8198    1.0000 </r>
       <r>  -12.7475    1.0000 </r>
       <r>  -12.7373    1.0000 </r>
       <r>  -12.7196    1.0000 </r>
       <r>  -12.7062    1.0000 </r>
       <r>  -12.6624    1.0000 </r>
       <r>  -12.6142    1.0000 </r>
       <r>  -12.5367    1.0000 </r>
       <r>  -12.0456    1.0000 </r>
       <r>  -12.0167    1.0000 </r>
       <r>  -11.9583    1.0000 </r>
       <r>  -11.9090    1.0000 </r>
       <r>   -9.3162    1.0000 </r>
       <r>   -9.0220    1.0000 </r>
       <r>   -8.5534    1.0000 </r>
       <r>   -8.5067    1.0000 </r>
       <r>   -8.4495    1.0000 </r>
       <r>   -8.4085    1.0000 </r>
       <r>   -8.3301    1.0000 </r>
       <r>   -8.2833    1.0000 </r>
       <r>   -8.2250    1.0000 </r>
       <r>   -8.1870    1.0000 </r>
       <r>   -8.0239    1.0000 </r>
       <r>   -8.0108    1.0000 </r>
       <r>   -7.9881    1.0000 </r>
       <r>   -7.9739    1.0000 </r>
       <r>   -7.3468    1.0000 </r>
       <r>   -7.3385    1.0000 </r>
       <r>   -6.3653    1.0000 </r>
       <r>   -6.3582    1.0000 </r>
       <r>   -6.3436    1.0000 </r>
       <r>   -6.3392    1.0000 </r>
       <r>   -5.5154    1.0000 </r>
       <r>   -5.4645    1.0000 </r>
       <r>   -5.4523    1.0000 </r>
       <r>   -5.3326    1.0000 </r>
       <r>   -5.2967    1.0000 </r>
       <r>   -5.2516    1.0000 </r>
       <r>   -5.2124    1.0000 </r>
       <r>   -5.1323    1.0000 </r>
       <r>   -5.0558    1.0000 </r>
       <r>   -5.0008    1.0000 </r>
       <r>   -3.7940    1.0000 </r>
       <r>   -3.6406    1.0000 </r>
       <r>   -1.4398    1.0000 </r>
       <r>   -1.3066    1.0000 </r>
       <r>   -1.0912    1.0000 </r>
       <r>   -0.9977    1.0000 </r>
       <r>   -0.6118    1.0000 </r>
       <r>   -0.5190    1.0000 </r>
       <r>   -0.4589    1.0000 </r>
       <r>   -0.4355    1.0000 </r>
       <r>   -0.2020    1.0000 </r>
       <r>   -0.1732    1.0000 </r>
       <r>   -0.1368    1.0000 </r>
       <r>   -0.1163    1.0000 </r>
       <r>   -0.0199    1.0000 </r>
       <r>    0.2243    1.0000 </r>
       <r>    0.2479    1.0000 </r>
       <r>    0.2836    1.0000 </r>
       <r>    0.3526    1.0000 </r>
       <r>    0.4561    1.0000 </r>
       <r>    0.5117    1.0000 </r>
       <r>    0.6071    1.0000 </r>
       <r>    0.6374    1.0000 </r>
       <r>    0.6883    1.0000 </r>
       <r>    0.7457    1.0000 </r>
       <r>    0.7743    1.0000 </r>
       <r>    0.8166    1.0000 </r>
       <r>    0.8510    1.0000 </r>
       <r>    0.9290    1.0000 </r>
       <r>    0.9536    1.0000 </r>
       <r>    0.9879    1.0000 </r>
       <r>    1.0127    1.0000 </r>
       <r>    1.0454    1.0000 </r>
       <r>    1.0738    1.0000 </r>
       <r>    1.0980    1.0000 </r>
       <r>    1.1237    1.0000 </r>
       <r>    1.2383    1.0000 </r>
       <r>    1.2890    1.0000 </r>
       <r>    1.3571    1.0000 </r>
       <r>    1.3594    1.0000 </r>
       <r>    1.4233    1.0000 </r>
       <r>    1.4404    1.0000 </r>
       <r>    1.4731    1.0000 </r>
       <r>    1.5336    1.0000 </r>
       <r>    1.6084    1.0000 </r>
       <r>    1.6235    1.0000 </r>
       <r>    1.6658    1.0000 </r>
       <r>    1.6879    1.0000 </r>
       <r>    1.7368    1.0000 </r>
       <r>    1.8409    1.0000 </r>
       <r>    1.8800    1.0000 </r>
       <r>    1.9227    1.0000 </r>
       <r>    1.9507    1.0000 </r>
       <r>    2.0087    1.0000 </r>
       <r>    2.1778    1.0000 </r>
       <r>    2.1997    1.0000 </r>
       <r>    2.2525    1.0000 </r>
       <r>    2.3387    1.0000 </r>
       <r>    2.3424    1.0000 </r>
       <r>    2.3715    1.0000 </r>
       <r>    2.4731    1.0000 </r>
       <r>    2.5388    1.0000 </r>
       <r>    2.5706    1.0000 </r>
       <r>    2.5778    1.0000 </r>
       <r>    2.5898    1.0000 </r>
       <r>    2.6005    1.0000 </r>
       <r>    2.6146    1.0000 </r>
       <r>    2.6436    1.0000 </r>
       <r>    2.6799    1.0000 </r>
       <r>    2.7253    1.0000 </r>
       <r>    2.7531    1.0000 </r>
       <r>    2.7845    1.0000 </r>
       <r>    2.8323    1.0000 </r>
       <r>    2.8947    1.0000 </r>
       <r>    2.9307    1.0000 </r>
       <r>    2.9457    1.0000 </r>
       <r>    2.9905    1.0000 </r>
       <r>    3.0513    1.0000 </r>
       <r>    3.0720    1.0000 </r>
       <r>    3.1043    1.0000 </r>
       <r>    3.1214    1.0000 </r>
       <r>    3.1352    1.0000 </r>
       <r>    3.1678    1.0000 </r>
       <r>    3.1809    1.0000 </r>
       <r>    3.1996    1.0000 </r>
       <r>    3.2047    1.0000 </r>
       <r>    3.2396    1.0000 </r>
       <r>    3.2674    1.0000 </r>
       <r>    3.3200    1.0000 </r>
       <r>    3.3956    1.0000 </r>
       <r>    3.4556    1.0000 </r>
       <r>    3.5046    1.0000 </r>
       <r>    3.5257    1.0000 </r>
       <r>    3.7319    1.0000 </r>
       <r>    4.1909    1.0000 </r>
       <r>    4.2135    1.0000 </r>
       <r>    4.2348    1.0000 </r>
       <r>    4.2513    1.0000 </r>
       <r>    5.0561    0.0000 </r>
       <r>    5.0787    0.0000 </r>
       <r>    5.1709    0.0000 </r>
       <r>    5.1918    0.0000 </r>
       <r>    5.7499    0.0000 </r>
       <r>    5.7686    0.0000 </r>
       <r>    5.8162    0.0000 </r>
       <r>    5.8352    0.0000 </r>
       <r>    6.1012    0.0000 </r>
       <r>    6.1190    0.0000 </r>
       <r>    6.1590    0.0000 </r>
       <r>    6.1652    0.0000 </r>
       <r>    6.2398    0.0000 </r>
       <r>    6.2504    0.0000 </r>
       <r>    6.2806    0.0000 </r>
       <r>    6.2968    0.0000 </r>
       <r>    7.0782    0.0000 </r>
       <r>    7.1674    0.0000 </r>
       <r>    7.2871    0.0000 </r>
       <r>    7.3112    0.0000 </r>
       <r>    7.6959    0.0000 </r>
       <r>    7.8111    0.0000 </r>
       <r>    7.8643    0.0000 </r>
       <r>    7.9751    0.0000 </r>
       <r>    7.9993    0.0000 </r>
       <r>    8.1235    0.0000 </r>
       <r>    8.1905    0.0000 </r>
       <r>    8.3286    0.0000 </r>
       <r>    8.3790    0.0000 </r>
       <r>    8.6408    0.0000 </r>
       <r>    8.7121    0.0000 </r>
       <r>    8.7831    0.0000 </r>
       <r>    8.8113    0.0000 </r>
       <r>    8.9186    0.0000 </r>
       <r>    8.9246    0.0000 </r>
       <r>    8.9837    0.0000 </r>
       <r>    9.0192    0.0000 </r>
       <r>    9.0642    0.0000 </r>
       <r>    9.0825    0.0000 </r>
       <r>    9.1087    0.0000 </r>
       <r>    9.1422    0.0000 </r>
       <r>    9.1794    0.0000 </r>
       <r>    9.2307    0.0000 </r>
       <r>    9.2838    0.0000 </r>
       <r>    9.4367    0.0000 </r>
       <r>    9.5028    0.0000 </r>
      </set>
      <set comment="kpoint 2">
       <r>  -40.2678    1.0000 </r>
       <r>  -40.1758    1.0000 </r>
       <r>  -40.0654    1.0000 </r>
       <r>  -40.0541    1.0000 </r>
       <r>  -39.8983    1.0000 </r>
       <r>  -39.8158    1.0000 </r>
       <r>  -39.7986    1.0000 </r>
       <r>  -39.6480    1.0000 </r>
       <r>  -39.3668    1.0000 </r>
       <r>  -39.2108    1.0000 </r>
       <r>  -18.9294    1.0000 </r>
       <r>  -18.9142    1.0000 </r>
       <r>  -18.8570    1.0000 </r>
       <r>  -18.8501    1.0000 </r>
       <r>  -18.8443    1.0000 </r>
       <r>  -18.8433    1.0000 </r>
       <r>  -18.8378    1.0000 </r>
       <r>  -18.8304    1.0000 </r>
       <r>  -18.7732    1.0000 </r>
       <r>  -18.7707    1.0000 </r>
       <r>  -18.7654    1.0000 </r>
       <r>  -18.7631    1.0000 </r>
       <r>  -18.7549    1.0000 </r>
       <r>  -18.7412    1.0000 </r>
       <r>  -18.7402    1.0000 </r>
       <r>  -18.7263    1.0000 </r>
       <r>  -18.7101    1.0000 </r>
       <r>  -18.7004    1.0000 </r>
       <r>  -18.6973    1.0000 </r>
       <r>  -18.6911    1.0000 </r>
       <r>  -18.6852    1.0000 </r>
       <r>  -18.6795    1.0000 </r>
       <r>  -18.6701    1.0000 </r>
       <r>  -18.6612    1.0000 </r>
       <r>  -18.6545    1.0000 </r>
       <r>  -18.6519    1.0000 </r>
       <r>  -18.6511    1.0000 </r>
       <r>  -18.6469    1.0000 </r>
       <r>  -18.6428    1.0000 </r>
       <r>  -18.6422    1.0000 </r>
       <r>  -18.6400    1.0000 </r>
       <r>  -18.6373    1.0000 </r>
       <r>  -18.6360    1.0000 </r>
       <r>  -18.6344    1.0000 </r>
       <r>  -18.6331    1.0000 </r>
       <r>  -18.6272    1.0000 </r>
       <r>  -18.6250    1.0000 </r>
       <r>  -18.6184    1.0000 </r>
       <r>  -18.5657    1.0000 </r>
       <r>  -18.5530    1.0000 </r>
       <r>  -18.5487    1.0000 </r>
       <r>  -18.5436    1.0000 </r>
       <r>  -18.5426    1.0000 </r>
       <r>  -18.5401    1.0000 </r>
       <r>  -18.5383    1.0000 </r>
       <r>  -18.5324    1.0000 </r>
       <r>  -18.5299    1.0000 </r>
       <r>  -18.5156    1.0000 </r>
       <r>  -18.4952    1.0000 </r>
       <r>  -18.4941    1.0000 </r>
       <r>  -18.4880    1.0000 </r>
       <r>  -18.4804    1.0000 </r>
       <r>  -18.4800    1.0000 </r>
       <r>  -18.4732    1.0000 </r>
       <r>  -18.4728    1.0000 </r>
       <r>  -18.4726    1.0000 </r>
       <r>  -18.4573    1.0000 </r>
       <r>  -18.4537    1.0000 </r>
       <r>  -18.4451    1.0000 </r>
       <r>  -18.4412    1.0000 </r>
       <r>  -18.4096    1.0000 </r>
       <r>  -18.3913    1.0000 </r>
       <r>  -18.3878    1.0000 </r>
       <r>  -18.3875    1.0000 </r>
       <r>  -18.3804    1.0000 </r>
       <r>  -18.3755    1.0000 </r>
       <r>  -18.3750    1.0000 </r>
       <r>  -18.3689    1.0000 </r>
       <r>  -18.3614    1.0000 </r>
       <r>  -18.3565    1.0000 </r>
       <r>  -18.2973    1.0000 </r>
       <r>  -18.2899    1.0000 </r>
       <r>  -18.2525    1.0000 </r>
       <r>  -18.2477    1.0000 </r>
       <r>  -18.2431    1.0000 </r>
       <r>  -18.2382    1.0000 </r>
       <r>  -18.1882    1.0000 </r>
       <r>  -18.1744    1.0000 </r>
       <r>  -18.1618    1.0000 </r>
       <r>  -18.1607    1.0000 </r>
       <r>  -13.5804    1.0000 </r>
       <r>  -13.4558    1.0000 </r>
       <r>  -13.4028    1.0000 </r>
       <r>  -13.3969    1.0000 </r>
       <r>  -12.8091    1.0000 </r>
       <r>  -12.7649    1.0000 </r>
       <r>  -12.7439    1.0000 </r>
       <r>  -12.7215    1.0000 </r>
       <r>  -12.6902    1.0000 </r>
       <r>  -12.6624    1.0000 </r>
       <r>  -12.6154    1.0000 </r>
       <r>  -12.5365    1.0000 </r>
       <r>  -12.0456    1.0000 </r>
       <r>  -12.0168    1.0000 </r>
       <r>  -11.9582    1.0000 </r>
       <r>  -11.9091    1.0000 </r>
       <r>   -9.1718    1.0000 </r>
       <r>   -9.0188    1.0000 </r>
       <r>   -8.8976    1.0000 </r>
       <r>   -8.7412    1.0000 </r>
       <r>   -8.3879    1.0000 </r>
       <r>   -8.3795    1.0000 </r>
       <r>   -8.2534    1.0000 </r>
       <r>   -8.2460    1.0000 </r>
       <r>   -8.1840    1.0000 </r>
       <r>   -8.1817    1.0000 </r>
       <r>   -8.0495    1.0000 </r>
       <r>   -8.0456    1.0000 </r>
       <r>   -7.7360    1.0000 </r>
       <r>   -7.6233    1.0000 </r>
       <r>   -7.6224    1.0000 </r>
       <r>   -7.5091    1.0000 </r>
       <r>   -6.0199    1.0000 </r>
       <r>   -6.0048    1.0000 </r>
       <r>   -5.9036    1.0000 </r>
       <r>   -5.8508    1.0000 </r>
       <r>   -5.8301    1.0000 </r>
       <r>   -5.7892    1.0000 </r>
       <r>   -5.7056    1.0000 </r>
       <r>   -5.6774    1.0000 </r>
       <r>   -5.6205    1.0000 </r>
       <r>   -5.5682    1.0000 </r>
       <r>   -5.5024    1.0000 </r>
       <r>   -5.4024    1.0000 </r>
       <r>   -4.4890    1.0000 </r>
       <r>   -4.3312    1.0000 </r>
       <r>   -4.3231    1.0000 </r>
       <r>   -4.1593    1.0000 </r>
       <r>   -1.2244    1.0000 </r>
       <r>   -1.0594    1.0000 </r>
       <r>   -0.8868    1.0000 </r>
       <r>   -0.7190    1.0000 </r>
       <r>   -0.4614    1.0000 </r>
       <r>   -0.2919    1.0000 </r>
       <r>   -0.0521    1.0000 </r>
       <r>    0.0224    1.0000 </r>
       <r>    0.0506    1.0000 </r>
       <r>    0.0882    1.0000 </r>
       <r>    0.1077    1.0000 </r>
       <r>    0.1431    1.0000 </r>
       <r>    0.1935    1.0000 </r>
       <r>    0.2500    1.0000 </r>
       <r>    0.2662    1.0000 </r>
       <r>    0.3511    1.0000 </r>
       <r>    0.4316    1.0000 </r>
       <r>    0.4611    1.0000 </r>
       <r>    0.4720    1.0000 </r>
       <r>    0.5244    1.0000 </r>
       <r>    0.5676    1.0000 </r>
       <r>    0.6020    1.0000 </r>
       <r>    0.6193    1.0000 </r>
       <r>    0.6975    1.0000 </r>
       <r>    0.7087    1.0000 </r>
       <r>    0.8334    1.0000 </r>
       <r>    0.8443    1.0000 </r>
       <r>    0.9492    1.0000 </r>
       <r>    0.9969    1.0000 </r>
       <r>    1.0729    1.0000 </r>
       <r>    1.1226    1.0000 </r>
       <r>    1.1379    1.0000 </r>
       <r>    1.1724    1.0000 </r>
       <r>    1.1813    1.0000 </r>
       <r>    1.2291    1.0000 </r>
       <r>    1.2799    1.0000 </r>
       <r>    1.2975    1.0000 </r>
       <r>    1.3387    1.0000 </r>
       <r>    1.3855    1.0000 </r>
       <r>    1.4261    1.0000 </r>
       <r>    1.4567    1.0000 </r>
       <r>    1.5041    1.0000 </r>
       <r>    1.5247    1.0000 </r>
       <r>    1.5993    1.0000 </r>
       <r>    1.6242    1.0000 </r>
       <r>    1.6376    1.0000 </r>
       <r>    1.6777    1.0000 </r>
       <r>    1.7474    1.0000 </r>
       <r>    1.7668    1.0000 </r>
       <r>    1.8712    1.0000 </r>
       <r>    1.8828    1.0000 </r>
       <r>    1.8910    1.0000 </r>
       <r>    1.9866    1.0000 </r>
       <r>    2.0307    1.0000 </r>
       <r>    2.0876    1.0000 </r>
       <r>    2.1308    1.0000 </r>
       <r>    2.1558    1.0000 </r>
       <r>    2.1766    1.0000 </r>
       <r>    2.2318    1.0000 </r>
       <r>    2.2989    1.0000 </r>
       <r>    2.3548    1.0000 </r>
       <r>    2.3876    1.0000 </r>
       <r>    2.4058    1.0000 </r>
       <r>    2.4707    1.0000 </r>
       <r>    2.5118    1.0000 </r>
       <r>    2.5199    1.0000 </r>
       <r>    2.5739    1.0000 </r>
       <r>    2.6202    1.0000 </r>
       <r>    2.6323    1.0000 </r>
       <r>    2.6866    1.0000 </r>
       <r>    2.7293    1.0000 </r>
       <r>    2.7473    1.0000 </r>
       <r>    2.7952    1.0000 </r>
       <r>    2.8149    1.0000 </r>
       <r>    2.8286    1.0000 </r>
       <r>    2.9277    1.0000 </r>
       <r>    2.9321    1.0000 </r>
       <r>    2.9637    1.0000 </r>
       <r>    3.0437    1.0000 </r>
       <r>    3.0759    1.0000 </r>
       <r>    3.1211    1.0000 </r>
       <r>    3.1422    1.0000 </r>
       <r>    3.1505    1.0000 </r>
       <r>    3.1545    1.0000 </r>
       <r>    3.2485    1.0000 </r>
       <r>    3.2737    1.0000 </r>
       <r>    3.4215    1.0000 </r>
       <r>    3.4539    1.0000 </r>
       <r>    3.4986    1.0000 </r>
       <r>    3.5111    1.0000 </r>
       <r>    3.5490    1.0000 </r>
       <r>    3.5661    1.0000 </r>
       <r>    3.6127    1.0000 </r>
       <r>    3.6445    1.0000 </r>
       <r>    3.7184    1.0000 </r>
       <r>    3.8370    1.0000 </r>
       <r>    5.5667    0.0000 </r>
       <r>    5.5789    0.0000 </r>
       <r>    5.7249    0.0000 </r>
       <r>    5.7385    0.0000 </r>
       <r>    5.7546    0.0000 </r>
       <r>    5.7663    0.0000 </r>
       <r>    5.9110    0.0000 </r>
       <r>    5.9252    0.0000 </r>
       <r>    7.2091    0.0000 </r>
       <r>    7.2308    0.0000 </r>
       <r>    7.2692    0.0000 </r>
       <r>    7.3385    0.0000 </r>
       <r>    7.3621    0.0000 </r>
       <r>    7.3852    0.0000 </r>
       <r>    7.4330    0.0000 </r>
       <r>    7.4583    0.0000 </r>
       <r>    7.4817    0.0000 </r>
       <r>    7.5189    0.0000 </r>
       <r>    7.6067    0.0000 </r>
       <r>    7.6309    0.0000 </r>
       <r>    7.8049    0.0000 </r>
       <r>    7.8337    0.0000 </r>
       <r>    7.8442    0.0000 </r>
       <r>    7.8667    0.0000 </r>
       <r>    7.8900    0.0000 </r>
       <r>    7.8964    0.0000 </r>
       <r>    7.9526    0.0000 </r>
       <r>    7.9832    0.0000 </r>
       <r>    7.9877    0.0000 </r>
       <r>    8.0467    0.0000 </r>
       <r>    8.0952    0.0000 </r>
       <r>    8.2019    0.0000 </r>
       <r>    8.2747    0.0000 </r>
       <r>    8.4058    0.0000 </r>
       <r>    8.4640    0.0000 </r>
       <r>    8.5566    0.0000 </r>
       <r>    8.6556    0.0000 </r>
       <r>    8.7358    0.0000 </r>
       <r>    8.7559    0.0000 </r>
       <r>    8.7705    0.0000 </r>
       <r>    8.7866    0.0000 </r>
       <r>    8.8679    0.0000 </r>
       <r>    8.9386    0.0000 </r>
       <r>    8.9531    0.0000 </r>
       <r>    9.1139    0.0000 </r>
       <r>    9.3290    0.0000 </r>
      </set>
      <set comment="kpoint 3">
       <r>  -40.2678    1.0000 </r>
       <r>  -40.1758    1.0000 </r>
       <r>  -40.0654    1.0000 </r>
       <r>  -40.0541    1.0000 </r>
       <r>  -39.8983    1.0000 </r>
       <r>  -39.8158    1.0000 </r>
       <r>  -39.7986    1.0000 </r>
       <r>  -39.6480    1.0000 </r>
       <r>  -39.3668    1.0000 </r>
       <r>  -39.2108    1.0000 </r>
       <r>  -18.9295    1.0000 </r>
       <r>  -18.9142    1.0000 </r>
       <r>  -18.8570    1.0000 </r>
       <r>  -18.8501    1.0000 </r>
       <r>  -18.8444    1.0000 </r>
       <r>  -18.8434    1.0000 </r>
       <r>  -18.8374    1.0000 </r>
       <r>  -18.8306    1.0000 </r>
       <r>  -18.7732    1.0000 </r>
       <r>  -18.7708    1.0000 </r>
       <r>  -18.7654    1.0000 </r>
       <r>  -18.7630    1.0000 </r>
       <r>  -18.7549    1.0000 </r>
       <r>  -18.7412    1.0000 </r>
       <r>  -18.7402    1.0000 </r>
       <r>  -18.7263    1.0000 </r>
       <r>  -18.7104    1.0000 </r>
       <r>  -18.7005    1.0000 </r>
       <r>  -18.6972    1.0000 </r>
       <r>  -18.6912    1.0000 </r>
       <r>  -18.6853    1.0000 </r>
       <r>  -18.6796    1.0000 </r>
       <r>  -18.6701    1.0000 </r>
       <r>  -18.6612    1.0000 </r>
       <r>  -18.6545    1.0000 </r>
       <r>  -18.6511    1.0000 </r>
       <r>  -18.6505    1.0000 </r>
       <r>  -18.6476    1.0000 </r>
       <r>  -18.6433    1.0000 </r>
       <r>  -18.6418    1.0000 </r>
       <r>  -18.6392    1.0000 </r>
       <r>  -18.6372    1.0000 </r>
       <r>  -18.6354    1.0000 </r>
       <r>  -18.6350    1.0000 </r>
       <r>  -18.6329    1.0000 </r>
       <r>  -18.6279    1.0000 </r>
       <r>  -18.6256    1.0000 </r>
       <r>  -18.6183    1.0000 </r>
       <r>  -18.5657    1.0000 </r>
       <r>  -18.5528    1.0000 </r>
       <r>  -18.5487    1.0000 </r>
       <r>  -18.5433    1.0000 </r>
       <r>  -18.5427    1.0000 </r>
       <r>  -18.5401    1.0000 </r>
       <r>  -18.5383    1.0000 </r>
       <r>  -18.5323    1.0000 </r>
       <r>  -18.5299    1.0000 </r>
       <r>  -18.5156    1.0000 </r>
       <r>  -18.4952    1.0000 </r>
       <r>  -18.4941    1.0000 </r>
       <r>  -18.4880    1.0000 </r>
       <r>  -18.4803    1.0000 </r>
       <r>  -18.4800    1.0000 </r>
       <r>  -18.4732    1.0000 </r>
       <r>  -18.4728    1.0000 </r>
       <r>  -18.4726    1.0000 </r>
       <r>  -18.4573    1.0000 </r>
       <r>  -18.4537    1.0000 </r>
       <r>  -18.4450    1.0000 </r>
       <r>  -18.4413    1.0000 </r>
       <r>  -18.4096    1.0000 </r>
       <r>  -18.3913    1.0000 </r>
       <r>  -18.3878    1.0000 </r>
       <r>  -18.3875    1.0000 </r>
       <r>  -18.3804    1.0000 </r>
       <r>  -18.3753    1.0000 </r>
       <r>  -18.3750    1.0000 </r>
       <r>  -18.3692    1.0000 </r>
       <r>  -18.3612    1.0000 </r>
       <r>  -18.3565    1.0000 </r>
       <r>  -18.2974    1.0000 </r>
       <r>  -18.2899    1.0000 </r>
       <r>  -18.2525    1.0000 </r>
       <r>  -18.2477    1.0000 </r>
       <r>  -18.2431    1.0000 </r>
       <r>  -18.2382    1.0000 </r>
       <r>  -18.1882    1.0000 </r>
       <r>  -18.1744    1.0000 </r>
       <r>  -18.1618    1.0000 </r>
       <r>  -18.1608    1.0000 </r>
       <r>  -13.5805    1.0000 </r>
       <r>  -13.4558    1.0000 </r>
       <r>  -13.4003    1.0000 </r>
       <r>  -13.3993    1.0000 </r>
       <r>  -12.8188    1.0000 </r>
       <r>  -12.7477    1.0000 </r>
       <r>  -12.7372    1.0000 </r>
       <r>  -12.7195    1.0000 </r>
       <r>  -12.7068    1.0000 </r>
       <r>  -12.6624    1.0000 </r>
       <r>  -12.6142    1.0000 </r>
       <r>  -12.5374    1.0000 </r>
       <r>  -12.0452    1.0000 </r>
       <r>  -12.0172    1.0000 </r>
       <r>  -11.9583    1.0000 </r>
       <r>  -11.9103    1.0000 </r>
       <r>   -9.3066    1.0000 </r>
       <r>   -9.0285    1.0000 </r>
       <r>   -8.5720    1.0000 </r>
       <r>   -8.5250    1.0000 </r>
       <r>   -8.4675    1.0000 </r>
       <r>   -8.4255    1.0000 </r>
       <r>   -8.3090    1.0000 </r>
       <r>   -8.2630    1.0000 </r>
       <r>   -8.2048    1.0000 </r>
       <r>   -8.1684    1.0000 </r>
       <r>   -8.0280    1.0000 </r>
       <r>   -8.0149    1.0000 </r>
       <r>   -7.9910    1.0000 </r>
       <r>   -7.9767    1.0000 </r>
       <r>   -7.3496    1.0000 </r>
       <r>   -7.3413    1.0000 </r>
       <r>   -6.3554    1.0000 </r>
       <r>   -6.3483    1.0000 </r>
       <r>   -6.3340    1.0000 </r>
       <r>   -6.3292    1.0000 </r>
       <r>   -5.5340    1.0000 </r>
       <r>   -5.4907    1.0000 </r>
       <r>   -5.4527    1.0000 </r>
       <r>   -5.3696    1.0000 </r>
       <r>   -5.3165    1.0000 </r>
       <r>   -5.2495    1.0000 </r>
       <r>   -5.1757    1.0000 </r>
       <r>   -5.0983    1.0000 </r>
       <r>   -5.0151    1.0000 </r>
       <r>   -4.9572    1.0000 </r>
       <r>   -3.8669    1.0000 </r>
       <r>   -3.5561    1.0000 </r>
       <r>   -1.3472    1.0000 </r>
       <r>   -1.2649    1.0000 </r>
       <r>   -1.2207    1.0000 </r>
       <r>   -1.0532    1.0000 </r>
       <r>   -0.4798    1.0000 </r>
       <r>   -0.4284    1.0000 </r>
       <r>   -0.4155    1.0000 </r>
       <r>   -0.3808    1.0000 </r>
       <r>   -0.3628    1.0000 </r>
       <r>   -0.3222    1.0000 </r>
       <r>   -0.2518    1.0000 </r>
       <r>   -0.2189    1.0000 </r>
       <r>   -0.1169    1.0000 </r>
       <r>   -0.1026    1.0000 </r>
       <r>    0.0624    1.0000 </r>
       <r>    0.0977    1.0000 </r>
       <r>    0.2309    1.0000 </r>
       <r>    0.2867    1.0000 </r>
       <r>    0.3838    1.0000 </r>
       <r>    0.4184    1.0000 </r>
       <r>    0.5259    1.0000 </r>
       <r>    0.6014    1.0000 </r>
       <r>    0.6398    1.0000 </r>
       <r>    0.7390    1.0000 </r>
       <r>    0.7521    1.0000 </r>
       <r>    0.8093    1.0000 </r>
       <r>    0.8346    1.0000 </r>
       <r>    0.8857    1.0000 </r>
       <r>    1.0151    1.0000 </r>
       <r>    1.1235    1.0000 </r>
       <r>    1.1350    1.0000 </r>
       <r>    1.1895    1.0000 </r>
       <r>    1.2444    1.0000 </r>
       <r>    1.2943    1.0000 </r>
       <r>    1.3278    1.0000 </r>
       <r>    1.3549    1.0000 </r>
       <r>    1.4050    1.0000 </r>
       <r>    1.4899    1.0000 </r>
       <r>    1.4993    1.0000 </r>
       <r>    1.5647    1.0000 </r>
       <r>    1.6205    1.0000 </r>
       <r>    1.6285    1.0000 </r>
       <r>    1.6708    1.0000 </r>
       <r>    1.7222    1.0000 </r>
       <r>    1.7695    1.0000 </r>
       <r>    1.8028    1.0000 </r>
       <r>    1.8915    1.0000 </r>
       <r>    1.9656    1.0000 </r>
       <r>    1.9881    1.0000 </r>
       <r>    2.0346    1.0000 </r>
       <r>    2.1010    1.0000 </r>
       <r>    2.1342    1.0000 </r>
       <r>    2.2339    1.0000 </r>
       <r>    2.2407    1.0000 </r>
       <r>    2.3032    1.0000 </r>
       <r>    2.3625    1.0000 </r>
       <r>    2.4508    1.0000 </r>
       <r>    2.4639    1.0000 </r>
       <r>    2.4880    1.0000 </r>
       <r>    2.5345    1.0000 </r>
       <r>    2.5577    1.0000 </r>
       <r>    2.5826    1.0000 </r>
       <r>    2.5876    1.0000 </r>
       <r>    2.6010    1.0000 </r>
       <r>    2.6120    1.0000 </r>
       <r>    2.6573    1.0000 </r>
       <r>    2.7039    1.0000 </r>
       <r>    2.7114    1.0000 </r>
       <r>    2.7350    1.0000 </r>
       <r>    2.7633    1.0000 </r>
       <r>    2.8247    1.0000 </r>
       <r>    2.8825    1.0000 </r>
       <r>    2.8933    1.0000 </r>
       <r>    2.9527    1.0000 </r>
       <r>    2.9807    1.0000 </r>
       <r>    3.0031    1.0000 </r>
       <r>    3.0290    1.0000 </r>
       <r>    3.0464    1.0000 </r>
       <r>    3.0813    1.0000 </r>
       <r>    3.1038    1.0000 </r>
       <r>    3.1183    1.0000 </r>
       <r>    3.1347    1.0000 </r>
       <r>    3.2361    1.0000 </r>
       <r>    3.3233    1.0000 </r>
       <r>    3.3614    1.0000 </r>
       <r>    3.4066    1.0000 </r>
       <r>    3.4325    1.0000 </r>
       <r>    3.4548    1.0000 </r>
       <r>    3.4910    1.0000 </r>
       <r>    3.5664    1.0000 </r>
       <r>    3.6099    1.0000 </r>
       <r>    3.6804    1.0000 </r>
       <r>    4.2392    1.0000 </r>
       <r>    4.2662    1.0000 </r>
       <r>    4.2856    1.0000 </r>
       <r>    4.3022    1.0000 </r>
       <r>    5.1307    0.0000 </r>
       <r>    5.1517    0.0000 </r>
       <r>    5.2341    0.0000 </r>
       <r>    5.2546    0.0000 </r>
       <r>    5.7580    0.0000 </r>
       <r>    5.7769    0.0000 </r>
       <r>    5.8249    0.0000 </r>
       <r>    5.8439    0.0000 </r>
       <r>    6.1612    0.0000 </r>
       <r>    6.1791    0.0000 </r>
       <r>    6.2037    0.0000 </r>
       <r>    6.2083    0.0000 </r>
       <r>    6.2501    0.0000 </r>
       <r>    6.2599    0.0000 </r>
       <r>    6.2941    0.0000 </r>
       <r>    6.3158    0.0000 </r>
       <r>    6.7300    0.0000 </r>
       <r>    6.9270    0.0000 </r>
       <r>    6.9750    0.0000 </r>
       <r>    7.0167    0.0000 </r>
       <r>    7.1460    0.0000 </r>
       <r>    7.2988    0.0000 </r>
       <r>    7.4833    0.0000 </r>
       <r>    7.6309    0.0000 </r>
       <r>    7.7731    0.0000 </r>
       <r>    7.8338    0.0000 </r>
       <r>    7.9018    0.0000 </r>
       <r>    8.0077    0.0000 </r>
       <r>    8.1056    0.0000 </r>
       <r>    8.3198    0.0000 </r>
       <r>    8.3750    0.0000 </r>
       <r>    8.4756    0.0000 </r>
       <r>    8.7236    0.0000 </r>
       <r>    8.8056    0.0000 </r>
       <r>    8.9288    0.0000 </r>
       <r>    8.9495    0.0000 </r>
       <r>    9.0140    0.0000 </r>
       <r>    9.0209    0.0000 </r>
       <r>    9.0840    0.0000 </r>
       <r>    9.1065    0.0000 </r>
       <r>    9.1172    0.0000 </r>
       <r>    9.1511    0.0000 </r>
       <r>    9.1852    0.0000 </r>
       <r>    9.2462    0.0000 </r>
       <r>    9.5097    0.0000 </r>
       <r>    9.6783    0.0000 </r>
      </set>
      <set comment="kpoint 4">
       <r>  -40.2678    1.0000 </r>
       <r>  -40.1758    1.0000 </r>
       <r>  -40.0654    1.0000 </r>
       <r>  -40.0541    1.0000 </r>
       <r>  -39.8983    1.0000 </r>
       <r>  -39.8158    1.0000 </r>
       <r>  -39.7986    1.0000 </r>
       <r>  -39.6480    1.0000 </r>
       <r>  -39.3668    1.0000 </r>
       <r>  -39.2108    1.0000 </r>
       <r>  -18.9295    1.0000 </r>
       <r>  -18.9142    1.0000 </r>
       <r>  -18.8570    1.0000 </r>
       <r>  -18.8501    1.0000 </r>
       <r>  -18.8443    1.0000 </r>
       <r>  -18.8433    1.0000 </r>
       <r>  -18.8378    1.0000 </r>
       <r>  -18.8304    1.0000 </r>
       <r>  -18.7732    1.0000 </r>
       <r>  -18.7707    1.0000 </r>
       <r>  -18.7654    1.0000 </r>
       <r>  -18.7631    1.0000 </r>
       <r>  -18.7549    1.0000 </r>
       <r>  -18.7412    1.0000 </r>
       <r>  -18.7402    1.0000 </r>
       <r>  -18.7263    1.0000 </r>
       <r>  -18.7101    1.0000 </r>
       <r>  -18.7004    1.0000 </r>
       <r>  -18.6973    1.0000 </r>
       <r>  -18.6911    1.0000 </r>
       <r>  -18.6852    1.0000 </r>
       <r>  -18.6795    1.0000 </r>
       <r>  -18.6701    1.0000 </r>
       <r>  -18.6612    1.0000 </r>
       <r>  -18.6545    1.0000 </r>
       <r>  -18.6519    1.0000 </r>
       <r>  -18.6511    1.0000 </r>
       <r>  -18.6469    1.0000 </r>
       <r>  -18.6428    1.0000 </r>
       <r>  -18.6422    1.0000 </r>
       <r>  -18.6399    1.0000 </r>
       <r>  -18.6373    1.0000 </r>
       <r>  -18.6360    1.0000 </r>
       <r>  -18.6344    1.0000 </r>
       <r>  -18.6331    1.0000 </r>
       <r>  -18.6272    1.0000 </r>
       <r>  -18.6250    1.0000 </r>
       <r>  -18.6184    1.0000 </r>
       <r>  -18.5657    1.0000 </r>
       <r>  -18.5529    1.0000 </r>
       <r>  -18.5487    1.0000 </r>
       <r>  -18.5433    1.0000 </r>
       <r>  -18.5428    1.0000 </r>
       <r>  -18.5401    1.0000 </r>
       <r>  -18.5383    1.0000 </r>
       <r>  -18.5323    1.0000 </r>
       <r>  -18.5299    1.0000 </r>
       <r>  -18.5156    1.0000 </r>
       <r>  -18.4952    1.0000 </r>
       <r>  -18.4941    1.0000 </r>
       <r>  -18.4880    1.0000 </r>
       <r>  -18.4803    1.0000 </r>
[...]
       <r>    8.8704    0.0000 </r>
       <r>    8.8849    0.0000 </r>
       <r>    8.9098    0.0000 </r>
       <r>    8.9195    0.0000 </r>
       <r>    8.9712    0.0000 </r>
      </set>
     </set>
    </set>
   </array>
  </eigenvalues>
  <separator name="orbital magnetization" >
   <v name="MAGDIPOLOUT">      0.00000000      0.00000000      0.00000000</v>
  </separator>
  <dos>
   <i name="efermi">      4.34658262 </i>
   <total>
    <array>
     <dimension dim="1">gridpoints</dimension>
     <dimension dim="2">spin</dimension>
     <field>energy</field>
     <field>total</field>
     <field>integrated</field>
     <set>
      <set comment="spin 1">
       <r>   -42.7651     0.0000     0.0000 </r>
       <r>   -42.5819     0.0000     0.0000 </r>
       <r>   -42.3988     0.0000     0.0000 </r>
       <r>   -42.2157     0.0000     0.0000 </r>
       <r>   -42.0325     0.0000     0.0000 </r>
       <r>   -41.8494     0.0000     0.0000 </r>
       <r>   -41.6663     0.0000     0.0000 </r>
       <r>   -41.4831     0.0000     0.0000 </r>
       <r>   -41.3000     0.0000     0.0000 </r>
       <r>   -41.1169     0.0000     0.0000 </r>
       <r>   -40.9337     0.0000     0.0000 </r>
       <r>   -40.7506     0.0000     0.0000 </r>
       <r>   -40.5674     0.0000     0.0000 </r>
       <r>   -40.3843     0.0000     0.0000 </r>
       <r>   -40.2012     0.0000     2.0000 </r>
       <r>   -40.0180     0.0000     8.0000 </r>
       <r>   -39.8349     0.0000    10.0000 </r>
       <r>   -39.6518     0.0000    14.0000 </r>
       <r>   -39.4686     0.0000    16.0000 </r>
       <r>   -39.2855     0.0000    18.0000 </r>
       <r>   -39.1024     0.0000    20.0000 </r>
       <r>   -38.9192     0.0000    20.0000 </r>
       <r>   -38.7361     0.0000    20.0000 </r>
       <r>   -38.5530     0.0000    20.0000 </r>
       <r>   -38.3698     0.0000    20.0000 </r>
       <r>   -38.1867     0.0000    20.0000 </r>
       <r>   -38.0035     0.0000    20.0000 </r>
       <r>   -37.8204     0.0000    20.0000 </r>
       <r>   -37.6373     0.0000    20.0000 </r>
       <r>   -37.4541     0.0000    20.0000 </r>
       <r>   -37.2710     0.0000    20.0000 </r>
       <r>   -37.0879     0.0000    20.0000 </r>
       <r>   -36.9047     0.0000    20.0000 </r>
       <r>   -36.7216     0.0000    20.0000 </r>
       <r>   -36.5385     0.0000    20.0000 </r>
       <r>   -36.3553     0.0000    20.0000 </r>
       <r>   -36.1722     0.0000    20.0000 </r>
       <r>   -35.9891     0.0000    20.0000 </r>
       <r>   -35.8059     0.0000    20.0000 </r>
       <r>   -35.6228     0.0000    20.0000 </r>
       <r>   -35.4396     0.0000    20.0000 </r>
       <r>   -35.2565     0.0000    20.0000 </r>
       <r>   -35.0734     0.0000    20.0000 </r>
       <r>   -34.8902     0.0000    20.0000 </r>
       <r>   -34.7071     0.0000    20.0000 </r>
       <r>   -34.5240     0.0000    20.0000 </r>
       <r>   -34.3408     0.0000    20.0000 </r>
       <r>   -34.1577     0.0000    20.0000 </r>
       <r>   -33.9746     0.0000    20.0000 </r>
       <r>   -33.7914     0.0000    20.0000 </r>
       <r>   -33.6083     0.0000    20.0000 </r>
       <r>   -33.4252     0.0000    20.0000 </r>
       <r>   -33.2420     0.0000    20.0000 </r>
       <r>   -33.0589     0.0000    20.0000 </r>
       <r>   -32.8757     0.0000    20.0000 </r>
       <r>   -32.6926     0.0000    20.0000 </r>
       <r>   -32.5095     0.0000    20.0000 </r>
       <r>   -32.3263     0.0000    20.0000 </r>
       <r>   -32.1432     0.0000    20.0000 </r>
       <r>   -31.9601     0.0000    20.0000 </r>
       <r>   -31.7769     0.0000    20.0000 </r>
       <r>   -31.5938     0.0000    20.0000 </r>
       <r>   -31.4107     0.0000    20.0000 </r>
       <r>   -31.2275     0.0000    20.0000 </r>
       <r>   -31.0444     0.0000    20.0000 </r>
       <r>   -30.8613     0.0000    20.0000 </r>
       <r>   -30.6781     0.0000    20.0000 </r>
       <r>   -30.4950     0.0000    20.0000 </r>
       <r>   -30.3118     0.0000    20.0000 </r>
       <r>   -30.1287     0.0000    20.0000 </r>
       <r>   -29.9456     0.0000    20.0000 </r>
       <r>   -29.7624     0.0000    20.0000 </r>
       <r>   -29.5793     0.0000    20.0000 </r>
       <r>   -29.3962     0.0000    20.0000 </r>
       <r>   -29.2130     0.0000    20.0000 </r>
       <r>   -29.0299     0.0000    20.0000 </r>
       <r>   -28.8468     0.0000    20.0000 </r>
       <r>   -28.6636     0.0000    20.0000 </r>
       <r>   -28.4805     0.0000    20.0000 </r>
       <r>   -28.2974     0.0000    20.0000 </r>
       <r>   -28.1142     0.0000    20.0000 </r>
       <r>   -27.9311     0.0000    20.0000 </r>
       <r>   -27.7479     0.0000    20.0000 </r>
       <r>   -27.5648     0.0000    20.0000 </r>
       <r>   -27.3817     0.0000    20.0000 </r>
       <r>   -27.1985     0.0000    20.0000 </r>
       <r>   -27.0154     0.0000    20.0000 </r>
       <r>   -26.8323     0.0000    20.0000 </r>
       <r>   -26.6491     0.0000    20.0000 </r>
       <r>   -26.4660     0.0000    20.0000 </r>
       <r>   -26.2829     0.0000    20.0000 </r>
       <r>   -26.0997     0.0000    20.0000 </r>
       <r>   -25.9166     0.0000    20.0000 </r>
       <r>   -25.7335     0.0000    20.0000 </r>
       <r>   -25.5503     0.0000    20.0000 </r>
       <r>   -25.3672     0.0000    20.0000 </r>
       <r>   -25.1840     0.0000    20.0000 </r>
       <r>   -25.0009     0.0000    20.0000 </r>
       <r>   -24.8178     0.0000    20.0000 </r>
       <r>   -24.6346     0.0000    20.0000 </r>
       <r>   -24.4515     0.0000    20.0000 </r>
       <r>   -24.2684     0.0000    20.0000 </r>
       <r>   -24.0852     0.0000    20.0000 </r>
       <r>   -23.9021     0.0000    20.0000 </r>
       <r>   -23.7190     0.0000    20.0000 </r>
       <r>   -23.5358     0.0000    20.0000 </r>
       <r>   -23.3527     0.0000    20.0000 </r>
       <r>   -23.1696     0.0000    20.0000 </r>
       <r>   -22.9864     0.0000    20.0000 </r>
       <r>   -22.8033     0.0000    20.0000 </r>
       <r>   -22.6201     0.0000    20.0000 </r>
       <r>   -22.4370     0.0000    20.0000 </r>
       <r>   -22.2539     0.0000    20.0000 </r>
       <r>   -22.0707     0.0000    20.0000 </r>
       <r>   -21.8876     0.0000    20.0000 </r>
       <r>   -21.7045     0.0000    20.0000 </r>
       <r>   -21.5213     0.0000    20.0000 </r>
       <r>   -21.3382     0.0000    20.0000 </r>
       <r>   -21.1551     0.0000    20.0000 </r>
       <r>   -20.9719     0.0000    20.0000 </r>
       <r>   -20.7888     0.0000    20.0000 </r>
       <r>   -20.6057     0.0000    20.0000 </r>
       <r>   -20.4225     0.0000    20.0000 </r>
       <r>   -20.2394     0.0000    20.0000 </r>
       <r>   -20.0562     0.0000    20.0000 </r>
       <r>   -19.8731     0.0000    20.0000 </r>
       <r>   -19.6900     0.0000    20.0000 </r>
       <r>   -19.5068     0.0000    20.0000 </r>
       <r>   -19.3237     0.0000    20.0000 </r>
       <r>   -19.1406     0.0000    20.0000 </r>
       <r>   -18.9574     0.0000    20.0000 </r>
       <r>   -18.7743     0.0000    36.0000 </r>
       <r>   -18.5912     0.0000    96.0000 </r>
       <r>   -18.4080     0.0000   142.0000 </r>
       <r>   -18.2249     0.0000   172.0000 </r>
       <r>   -18.0418     0.0000   180.0000 </r>
       <r>   -17.8586     0.0000   180.0000 </r>
       <r>   -17.6755     0.0000   180.0000 </r>
       <r>   -17.4924     0.0000   180.0000 </r>
       <r>   -17.3092     0.0000   180.0000 </r>
       <r>   -17.1261     0.0000   180.0000 </r>
       <r>   -16.9429     0.0000   180.0000 </r>
       <r>   -16.7598     0.0000   180.0000 </r>
       <r>   -16.5767     0.0000   180.0000 </r>
       <r>   -16.3935     0.0000   180.0000 </r>
       <r>   -16.2104     0.0000   180.0000 </r>
       <r>   -16.0273     0.0000   180.0000 </r>
       <r>   -15.8441     0.0000   180.0000 </r>
       <r>   -15.6610     0.0000   180.0000 </r>
       <r>   -15.4779     0.0000   180.0000 </r>
       <r>   -15.2947     0.0000   180.0000 </r>
       <r>   -15.1116     0.0000   180.0000 </r>
       <r>   -14.9285     0.0000   180.0000 </r>
       <r>   -14.7453     0.0000   180.0000 </r>
       <r>   -14.5622     0.0000   180.0000 </r>
       <r>   -14.3790     0.0000   180.0000 </r>
       <r>   -14.1959     0.0000   180.0000 </r>
       <r>   -14.0128     0.0000   180.0000 </r>
       <r>   -13.8296     0.0000   180.0000 </r>
       <r>   -13.6465     0.0000   180.0000 </r>
       <r>   -13.4634     0.0000   182.0000 </r>
       <r>   -13.2802     0.0000   188.0000 </r>
       <r>   -13.0971     0.0000   188.0000 </r>
       <r>   -12.9140     0.0000   188.0000 </r>
       <r>   -12.7308     0.0000   194.0000 </r>
       <r>   -12.5477     0.0000   202.0000 </r>
       <r>   -12.3646     0.0000   204.0000 </r>
       <r>   -12.1814     0.0000   204.0000 </r>
       <r>   -11.9983     0.0000   208.0000 </r>
       <r>   -11.8151     0.0000   212.0000 </r>
       <r>   -11.6320     0.0000   212.0000 </r>
       <r>   -11.4489     0.0000   212.0000 </r>
       <r>   -11.2657     0.0000   212.0000 </r>
       <r>   -11.0826     0.0000   212.0000 </r>
       <r>   -10.8995     0.0000   212.0000 </r>
       <r>   -10.7163     0.0000   212.0000 </r>
       <r>   -10.5332     0.0000   212.0000 </r>
       <r>   -10.3501     0.0000   212.0000 </r>
       <r>   -10.1669     0.0000   212.0000 </r>
       <r>    -9.9838     0.0000   212.0000 </r>
       <r>    -9.8007     0.0000   212.0000 </r>
       <r>    -9.6175     0.0000   212.0000 </r>
       <r>    -9.4344     0.0000   212.0000 </r>
       <r>    -9.2512     4.6005   212.1386 </r>
       <r>    -9.0681    16.9081   213.9309 </r>
       <r>    -8.8850     3.7591   216.0191 </r>
       <r>    -8.7018    13.9357   218.9153 </r>
       <r>    -8.5187    13.3294   221.1049 </r>
       <r>    -8.3356    23.3548   225.9463 </r>
       <r>    -8.1524    26.3540   228.9306 </r>
       <r>    -7.9693    23.7090   233.7141 </r>
       <r>    -7.7862    15.2724   237.2565 </r>
       <r>    -7.6030    21.8112   240.4118 </r>
       <r>    -7.4199     8.6237   243.6693 </r>
       <r>    -7.2368     0.0000   244.0000 </r>
       <r>    -7.0536     0.0000   244.0000 </r>
       <r>    -6.8705     0.0000   244.0000 </r>
       <r>    -6.6873     0.0000   244.0000 </r>
       <r>    -6.5042     0.0000   244.0000 </r>
       <r>    -6.3211     3.1715   244.0515 </r>
       <r>    -6.1379    23.1011   246.4970 </r>
       <r>    -5.9548    17.3604   251.0580 </r>
       <r>    -5.7717    25.7692   254.1006 </r>
       <r>    -5.5885    20.7477   258.8915 </r>
       <r>    -5.4054    20.0495   262.2445 </r>
       <r>    -5.2223    17.0013   266.0903 </r>
       <r>    -5.0391     3.6102   267.8789 </r>
       <r>    -4.8560     7.8022   268.6620 </r>
       <r>    -4.6729     8.6680   270.1491 </r>
       <r>    -4.4897     9.8415   271.9699 </r>
       <r>    -4.3066     6.4347   273.3048 </r>
       <r>    -4.1234     6.7146   274.6103 </r>
       <r>    -3.9403     3.4669   275.5454 </r>
       <r>    -3.7572     1.0402   275.9155 </r>
       <r>    -3.5740     0.0125   275.9999 </r>
       <r>    -3.3909     0.0000   276.0000 </r>
       <r>    -3.2078     0.0000   276.0000 </r>
       <r>    -3.0246     0.0000   276.0000 </r>
       <r>    -2.8415     0.0000   276.0000 </r>
       <r>    -2.6584     0.0000   276.0000 </r>
       <r>    -2.4752     0.0000   276.0000 </r>
       <r>    -2.2921     0.0000   276.0000 </r>
       <r>    -2.1090     0.0000   276.0000 </r>
       <r>    -1.9258     0.0000   276.0000 </r>
       <r>    -1.7427     0.0000   276.0000 </r>
       <r>    -1.5595     0.0000   276.0000 </r>
       <r>    -1.3764     0.5972   276.0126 </r>
       <r>    -1.1933     8.0636   276.6906 </r>
       <r>    -1.0101    10.9842   278.5590 </r>
       <r>    -0.8270    12.7016   280.9772 </r>
       <r>    -0.6439     6.9269   282.7315 </r>
       <r>    -0.4607    14.4329   284.1568 </r>
       <r>    -0.2776    22.2706   287.4338 </r>
       <r>    -0.0945    43.9216   292.8516 </r>
       <r>     0.0887    29.9267   300.7132 </r>
       <r>     0.2718    21.9245   307.0106 </r>
       <r>     0.4549    38.6039   313.4807 </r>
       <r>     0.6381    38.5410   320.3654 </r>
       <r>     0.8212    31.4176   326.7107 </r>
       <r>     1.0044    39.6907   332.9429 </r>
       <r>     1.1875    45.0696   342.1449 </r>
       <r>     1.3706    50.6676   350.6415 </r>
       <r>     1.5538    43.4956   360.7235 </r>
       <r>     1.7369    47.0484   369.5083 </r>
       <r>     1.9200    39.9489   376.7268 </r>
       <r>     2.1032    38.6957   383.0489 </r>
       <r>     2.2863    48.2964   391.4363 </r>
       <r>     2.4694    54.3978   400.8754 </r>
       <r>     2.6526    58.0054   411.6423 </r>
       <r>     2.8357    52.2887   422.4470 </r>
       <r>     3.0188    68.6984   433.7551 </r>
       <r>     3.2020    45.0394   444.6816 </r>
       <r>     3.3851    34.1531   451.4533 </r>
       <r>     3.5683    35.6288   459.2334 </r>
       <r>     3.7514    11.3582   463.2204 </r>
       <r>     3.9345    11.9777   466.0731 </r>
       <r>     4.1177     5.1108   467.6381 </r>
       <r>     4.3008     0.0003   468.0000 </r>
       <r>     4.4839     0.0000   468.0000 </r>
       <r>     4.6671     0.0000   468.0000 </r>
       <r>     4.8502     0.0000   468.0000 </r>
       <r>     5.0333     0.0000   468.0000 </r>
       <r>     5.2165     1.3146   468.0716 </r>
       <r>     5.3996     5.2671   468.6678 </r>
       <r>     5.5827     9.2781   470.0021 </r>
       <r>     5.7659    20.0596   471.7972 </r>
       <r>     5.9490    14.7112   475.9874 </r>
       <r>     6.1322    12.0608   478.4138 </r>
       <r>     6.3153    12.0809   480.5705 </r>
       <r>     6.4984    13.9192   482.9516 </r>
       <r>     6.6816    15.7372   485.6675 </r>
       <r>     6.8647    17.6513   488.7184 </r>
       <r>     7.0478    21.4351   492.2412 </r>
       <r>     7.2310    31.1586   496.9342 </r>
       <r>     7.4141    40.7168   503.6943 </r>
       <r>     7.5972    20.7541   509.6313 </r>
       <r>     7.7804    45.6990   515.7762 </r>
       <r>     7.9635    39.2038   523.8460 </r>
       <r>     8.1466    26.1757   530.1142 </r>
       <r>     8.3298    19.2095   534.0822 </r>
       <r>     8.5129    22.1003   537.7581 </r>
       <r>     8.6961    27.6230   542.4145 </r>
       <r>     8.8792    48.7961   549.0190 </r>
       <r>     9.0623    24.5063   555.7257 </r>
       <r>     9.2455     9.5167   558.6128 </r>
       <r>     9.4286     3.1685   559.7682 </r>
       <r>     9.6117     0.1842   559.9959 </r>
       <r>     9.7949     0.0000   560.0000 </r>
       <r>     9.9780     0.0000   560.0000 </r>
       <r>    10.1611     0.0000   560.0000 </r>
       <r>    10.3443     0.0000   560.0000 </r>
       <r>    10.5274     0.0000   560.0000 </r>
       <r>    10.7105     0.0000   560.0000 </r>
       <r>    10.8937     0.0000   560.0000 </r>
       <r>    11.0768     0.0000   560.0000 </r>
       <r>    11.2600     0.0000   560.0000 </r>
       <r>    11.4431     0.0000   560.0000 </r>
       <r>    11.6262     0.0000   560.0000 </r>
       <r>    11.8094     0.0000   560.0000 </r>
       <r>    11.9925     0.0000   560.0000 </r>
       <r>    12.1756     0.0000   560.0000 </r>
      </set>
     </set>
    </array>
   </total>
  </dos>
 </calculation>
 <structure name="finalpos" >
  <crystal>
   <varray name="basis" >
    <v>      11.17850000       0.00000000       0.00000000 </v>
    <v>       0.00000000       9.57460000       0.00000000 </v>
    <v>       0.00000000       0.00000000      11.18240000 </v>
   </varray>
   <i name="volume">   1196.84853820 </i>
   <varray name="rec_basis" >
    <v>       0.08945744       0.00000000       0.00000000 </v>
    <v>       0.00000000       0.10444301       0.00000000 </v>
    <v>       0.00000000       0.00000000       0.08942624 </v>
   </varray>
  </crystal>
  <varray name="positions" >
   <v>       0.37539000       0.00017000       0.43687000 </v>
   <v>       0.62539000       0.99984000       0.43687000 </v>
   <v>       0.62461000       0.99984000       0.18687000 </v>
   <v>       0.87461000       0.00017000       0.18687000 </v>
   <v>       0.12461000       0.99984000       0.68687000 </v>
   <v>       0.37461000       0.00017000       0.68687000 </v>
   <v>       0.62539000       0.99984000       0.93687000 </v>
   <v>       0.87539000       0.00017000       0.93687000 </v>
   <v>       0.62461000       0.99984000       0.68687000 </v>
   <v>       0.87461000       0.00017000       0.68687000 </v>
   <v>       0.12461000       0.99984000       0.18687000 </v>
   <v>       0.87539000       0.00017000       0.43687000 </v>
   <v>       0.37539000       0.00017000       0.93687000 </v>
   <v>       0.00013000       0.29519000       0.06281000 </v>
   <v>       0.25013000       0.70481000       0.06281000 </v>
   <v>       0.24987000       0.29519000       0.31282000 </v>
   <v>       0.49987000       0.70481000       0.31282000 </v>
   <v>       0.50013000       0.29519000       0.06281000 </v>
   <v>       0.75013000       0.70481000       0.06281000 </v>
   <v>       0.74987000       0.29519000       0.31282000 </v>
   <v>       0.99987000       0.70481000       0.31282000 </v>
   <v>       0.00013000       0.29519000       0.56281000 </v>
   <v>       0.25013000       0.70481000       0.56281000 </v>
   <v>       0.24987000       0.29519000       0.81282000 </v>
   <v>       0.49987000       0.70481000       0.81282000 </v>
   <v>       0.50013000       0.29519000       0.56281000 </v>
   <v>       0.75013000       0.70481000       0.56281000 </v>
   <v>       0.74987000       0.29519000       0.81282000 </v>
   <v>       0.99987000       0.70481000       0.81282000 </v>
   <v>       0.25005000       0.32677000       0.06286000 </v>
   <v>       0.00005000       0.67323000       0.06286000 </v>
   <v>       0.49995000       0.32677000       0.31286000 </v>
   <v>       0.24995000       0.67323000       0.31286000 </v>
   <v>       0.75005000       0.32677000       0.06286000 </v>
   <v>       0.50005000       0.67323000       0.06286000 </v>
   <v>       0.99995000       0.32677000       0.31286000 </v>
   <v>       0.74995000       0.67323000       0.31286000 </v>
   <v>       0.25005000       0.32677000       0.56286000 </v>
   <v>       0.00005000       0.67323000       0.56286000 </v>
   <v>       0.49995000       0.32677000       0.81286000 </v>
   <v>       0.24995000       0.67323000       0.81286000 </v>
   <v>       0.75005000       0.32677000       0.56286000 </v>
   <v>       0.50005000       0.67323000       0.56286000 </v>
   <v>       0.99995000       0.32677000       0.81286000 </v>
   <v>       0.74995000       0.67323000       0.81286000 </v>
   <v>       0.49987000       0.07798000       0.06246000 </v>
   <v>       0.24987000       0.92202000       0.06246000 </v>
   <v>       0.25013000       0.07798000       0.31246000 </v>
   <v>       0.00013000       0.92202000       0.31246000 </v>
   <v>       0.99987000       0.07798000       0.06246000 </v>
   <v>       0.74987000       0.92202000       0.06246000 </v>
   <v>       0.75013000       0.07798000       0.31246000 </v>
   <v>       0.50013000       0.92202000       0.31246000 </v>
   <v>       0.49987000       0.07798000       0.56246000 </v>
   <v>       0.24987000       0.92202000       0.56246000 </v>
   <v>       0.25013000       0.07798000       0.81246000 </v>
   <v>       0.00013000       0.92202000       0.81246000 </v>
   <v>       0.99987000       0.07798000       0.56246000 </v>
   <v>       0.74987000       0.92202000       0.56246000 </v>
   <v>       0.75013000       0.07798000       0.81246000 </v>
   <v>       0.50013000       0.92202000       0.81246000 </v>
  </varray>
 </structure>
</modeling>
