<?xml version="1.0" encoding="ISO-8859-1"?>
<modeling>
 <generator>
  <i name="program" type="string">vasp </i>
  <i name="version" type="string">5.4.4.18Apr17-6-g9f103f2a35  </i>
  <i name="subversion" type="string">(build Jul 31 2017 11:33:29) complex            parallel </i>
  <i name="platform" type="string">LinuxIFC </i>
  <i name="date" type="string">2021 09 20 </i>
  <i name="time" type="string">19:41:23 </i>
 </generator>
 <incar>
  <i type="string" name="SYSTEM"> La2O2S</i>
  <i type="string" name="PREC">normal</i>
  <i type="int" name="NELMIN">     4</i>
  <i type="int" name="IBRION">     2</i>
  <i type="int" name="NFREE">    10</i>
  <i name="EDIFF">      0.00000100</i>
  <i name="EDIFFG">     -0.01000000</i>
  <i type="int" name="NSW">   200</i>
  <i type="int" name="ISIF">     3</i>
  <i name="ENCUT">    600.00000000</i>
  <i name="ENAUG">    900.00000000</i>
  <i type="int" name="ISMEAR">    -5</i>
  <i type="logical" name="LWAVE"> F  </i>
  <i type="logical" name="LCHARG"> F  </i>
  <v type="int" name="KPOINT_BSE">    -1     0     0     0</v>
 </incar>
 <structure name="primitive_cell" >
  <crystal>
   <varray name="basis" >
    <v>      11.17850000       0.00000000       0.00000000 </v>
    <v>       0.00000000       9.57460000       0.00000000 </v>
    <v>       0.00000000       0.00000000      11.18240000 </v>
   </varray>
   <i name="volume">   1196.84853820 </i>
   <varray name="rec_basis" >
    <v>       0.08945744       0.00000000       0.00000000 </v>
    <v>       0.00000000       0.10444301       0.00000000 </v>
    <v>       0.00000000       0.00000000       0.08942624 </v>
   </varray>
  </crystal>
  <varray name="positions" >
   <v>       0.12461000      -0.00016000       0.18687000 </v>
   <v>      -0.00013000       0.07798000       0.06246000 </v>
   <v>       0.24987000      -0.07798000       0.06246000 </v>
   <v>       0.00013000      -0.07798000       0.31246000 </v>
   <v>       0.25013000       0.07798000       0.31246000 </v>
   <v>      -0.12539000       0.00017000       0.18687000 </v>
   <v>       0.37461000       0.00017000       0.18687000 </v>
   <v>       0.12539000      -0.00016000      -0.06313000 </v>
   <v>       0.00013000       0.29519000       0.06281000 </v>
   <v>       0.25013000      -0.29519000       0.06281000 </v>
   <v>      -0.00013000      -0.29519000       0.31282000 </v>
   <v>       0.24987000       0.29519000       0.31282000 </v>
   <v>       0.00005000      -0.32677000       0.06286000 </v>
   <v>       0.25005000       0.32677000       0.06286000 </v>
   <v>      -0.00005000       0.32677000       0.31286000 </v>
   <v>       0.24995000      -0.32677000       0.31286000 </v>
   <v>      -0.12461000       0.00017000       0.43687000 </v>
   <v>       0.37539000       0.00017000      -0.06313000 </v>
   <v>       0.00013000      -0.07798000      -0.18754000 </v>
   <v>      -0.25013000      -0.07798000       0.06246000 </v>
   <v>      -0.24987000       0.07798000       0.31246000 </v>
   <v>       0.25013000       0.07798000      -0.18754000 </v>
   <v>       0.49987000       0.07798000       0.06246000 </v>
   <v>      -0.00013000       0.07798000      -0.43754000 </v>
   <v>      -0.49987000      -0.07798000       0.31246000 </v>
   <v>       0.24987000      -0.07798000      -0.43754000 </v>
   <v>      -0.00013000      -0.29519000      -0.18718000 </v>
   <v>      -0.24987000      -0.29519000       0.06281000 </v>
   <v>       0.24987000       0.29519000      -0.18718000 </v>
   <v>      -0.25013000       0.29519000       0.31282000 </v>
   <v>      -0.49987000       0.29519000       0.06281000 </v>
   <v>       0.49987000      -0.29519000       0.31282000 </v>
   <v>       0.00013000       0.29519000      -0.43719000 </v>
   <v>       0.25013000      -0.29519000      -0.43719000 </v>
   <v>      -0.00005000       0.32677000      -0.18714000 </v>
   <v>       0.24995000      -0.32677000      -0.18714000 </v>
   <v>      -0.24995000       0.32677000       0.06286000 </v>
   <v>      -0.25005000      -0.32677000       0.31286000 </v>
   <v>      -0.49995000      -0.32677000       0.06286000 </v>
   <v>       0.49995000       0.32677000       0.31286000 </v>
   <v>       0.00005000      -0.32677000      -0.43714000 </v>
   <v>       0.25005000       0.32677000      -0.43714000 </v>
   <v>      -0.37539000      -0.00016000       0.18687000 </v>
   <v>       0.12461000      -0.00016000      -0.31313000 </v>
   <v>      -0.24987000       0.07798000      -0.18754000 </v>
   <v>      -0.49987000      -0.07798000      -0.18754000 </v>
   <v>      -0.25013000      -0.07798000      -0.43754000 </v>
   <v>       0.49987000       0.07798000      -0.43754000 </v>
   <v>      -0.37461000      -0.00016000      -0.06313000 </v>
   <v>       0.37461000       0.00017000      -0.31313000 </v>
   <v>      -0.12539000       0.00017000      -0.31313000 </v>
   <v>      -0.25013000       0.29519000      -0.18718000 </v>
   <v>       0.49987000      -0.29519000      -0.18718000 </v>
   <v>      -0.24987000      -0.29519000      -0.43719000 </v>
   <v>      -0.49987000       0.29519000      -0.43719000 </v>
   <v>      -0.25005000      -0.32677000      -0.18714000 </v>
   <v>       0.49995000       0.32677000      -0.18714000 </v>
   <v>      -0.24995000       0.32677000      -0.43714000 </v>
   <v>      -0.49995000      -0.32677000      -0.43714000 </v>
  </varray>
 </structure>
 <varray name="primitive_index" >
  <v type="int" >        1 </v>
  <v type="int" >       48 </v>
  <v type="int" >       45 </v>
  <v type="int" >       47 </v>
  <v type="int" >       46 </v>
  <v type="int" >        2 </v>
  <v type="int" >        7 </v>
  <v type="int" >        3 </v>
  <v type="int" >       12 </v>
  <v type="int" >       13 </v>
  <v type="int" >       19 </v>
  <v type="int" >       14 </v>
  <v type="int" >       29 </v>
  <v type="int" >       28 </v>
  <v type="int" >       34 </v>
  <v type="int" >       31 </v>
  <v type="int" >        8 </v>
  <v type="int" >        4 </v>
  <v type="int" >       55 </v>
  <v type="int" >       49 </v>
  <v type="int" >       50 </v>
  <v type="int" >       54 </v>
  <v type="int" >       44 </v>
  <v type="int" >       56 </v>
  <v type="int" >       51 </v>
  <v type="int" >       53 </v>
  <v type="int" >       27 </v>
  <v type="int" >       17 </v>
  <v type="int" >       22 </v>
  <v type="int" >       18 </v>
  <v type="int" >       16 </v>
  <v type="int" >       15 </v>
  <v type="int" >       20 </v>
  <v type="int" >       21 </v>
  <v type="int" >       42 </v>
  <v type="int" >       39 </v>
  <v type="int" >       32 </v>
  <v type="int" >       35 </v>
  <v type="int" >       33 </v>
  <v type="int" >       30 </v>
  <v type="int" >       37 </v>
  <v type="int" >       36 </v>
  <v type="int" >        9 </v>
  <v type="int" >        5 </v>
  <v type="int" >       58 </v>
  <v type="int" >       59 </v>
  <v type="int" >       57 </v>
  <v type="int" >       52 </v>
  <v type="int" >       10 </v>
  <v type="int" >        6 </v>
  <v type="int" >       11 </v>
  <v type="int" >       26 </v>
  <v type="int" >       23 </v>
  <v type="int" >       25 </v>
  <v type="int" >       24 </v>
  <v type="int" >       43 </v>
  <v type="int" >       38 </v>
  <v type="int" >       40 </v>
  <v type="int" >       41 </v>
 </varray>
 <kpoints>
  <generation param="Gamma">
   <v type="int" name="divisions">       2        2        2 </v>
   <v name="usershift">      0.00000000       0.00000000       0.00000000 </v>
   <v name="genvec1">      0.50000000       0.00000000       0.00000000 </v>
   <v name="genvec2">      0.00000000       0.50000000       0.00000000 </v>
   <v name="genvec3">      0.00000000       0.00000000       0.50000000 </v>
   <v name="shift">      0.00000000       0.00000000       0.00000000 </v>
  </generation>
  <varray name="kpointlist" >
   <v>       0.00000000       0.00000000       0.00000000 </v>
   <v>       0.50000000       0.00000000       0.00000000 </v>
   <v>       0.00000000       0.50000000       0.00000000 </v>
   <v>       0.50000000       0.50000000       0.00000000 </v>
   <v>       0.00000000       0.00000000       0.50000000 </v>
   <v>       0.50000000       0.00000000       0.50000000 </v>
   <v>       0.00000000       0.50000000       0.50000000 </v>
   <v>       0.50000000       0.50000000       0.50000000 </v>
  </varray>
  <varray name="weights" >
   <v>       0.12500000 </v>
   <v>       0.12500000 </v>
   <v>       0.12500000 </v>
   <v>       0.12500000 </v>
   <v>       0.12500000 </v>
   <v>       0.12500000 </v>
   <v>       0.12500000 </v>
   <v>       0.12500000 </v>
  </varray>
  <varray name="tetrahedronlist"  type="int" >
   <v type="int" >        2        1        2        4        5 </v>
   <v type="int" >        2        1        3        4        5 </v>
   <v type="int" >        2        3        4        5        7 </v>
   <v type="int" >        2        2        4        5        6 </v>
   <v type="int" >        2        4        5        6        8 </v>
   <v type="int" >        2        4        5        7        8 </v>
   <v type="int" >        2        1        2        3        6 </v>
   <v type="int" >        2        2        3        4        6 </v>
   <v type="int" >        2        3        4        6        8 </v>
   <v type="int" >        2        1        3        5        6 </v>
   <v type="int" >        2        3        5        6        7 </v>
   <v type="int" >        2        3        6        7        8 </v>
   <v type="int" >        2        2        3        4        7 </v>
   <v type="int" >        2        1        2        3        7 </v>
   <v type="int" >        2        1        2        5        7 </v>
   <v type="int" >        2        2        4        7        8 </v>
   <v type="int" >        2        2        6        7        8 </v>
   <v type="int" >        2        2        5        6        7 </v>
   <v type="int" >        2        1        3        4        8 </v>
   <v type="int" >        2        1        2        4        8 </v>
   <v type="int" >        2        1        2        6        8 </v>
   <v type="int" >        2        1        3        7        8 </v>
   <v type="int" >        2        1        5        7        8 </v>
   <v type="int" >        2        1        5        6        8 </v>
  </varray>
  <i name="volumeweight">      0.02083333 </i>
 </kpoints>
 <parameters>
  <separator name="general" >
   <i type="string" name="SYSTEM">La2O2S</i>
   <i type="logical" name="LCOMPAT"> F  </i>
  </separator>
  <separator name="electronic" >
   <i type="string" name="PREC">normal</i>
   <i name="ENMAX">    600.00000000</i>
   <i name="ENAUG">    900.00000000</i>
   <i name="EDIFF">      0.00000100</i>
   <i type="int" name="IALGO">    38</i>
   <i type="int" name="IWAVPR">    11</i>
   <i type="int" name="NBANDS">   280</i>
   <i name="NELECT">    460.00000000</i>
   <i type="int" name="TURBO">     0</i>
   <i type="int" name="IRESTART">     0</i>
   <i type="int" name="NREBOOT">     0</i>
   <i type="int" name="NMIN">     0</i>
   <i name="EREF">      0.00000000</i>
   <separator name="electronic smearing" >
    <i type="int" name="ISMEAR">    -5</i>
    <i name="SIGMA">      0.20000000</i>
    <i name="KSPACING">      0.50000000</i>
    <i type="logical" name="KGAMMA"> T  </i>
   </separator>
   <separator name="electronic projectors" >
    <i type="logical" name="LREAL"> F  </i>
    <v name="ROPT">      0.00000000      0.00000000      0.00000000      0.00000000      0.00000000</v>
    <i type="int" name="LMAXPAW">  -100</i>
    <i type="int" name="LMAXMIX">     2</i>
    <i type="logical" name="NLSPLINE"> F  </i>
   </separator>
   <separator name="electronic startup" >
    <i type="int" name="ISTART">     0</i>
    <i type="int" name="ICHARG">     2</i>
    <i type="int" name="INIWAV">     1</i>
   </separator>
   <separator name="electronic spin" >
    <i type="int" name="ISPIN">     1</i>
    <i type="logical" name="LNONCOLLINEAR"> F  </i>
    <v name="MAGMOM">      1.00000000      1.00000000      1.00000000      1.00000000      1.00000000      1.00000000      1.00000000      1.00000000      1.00000000      1.00000000      1.00000000      1.00000000      1.00000000      1.00000000      1.00000000      1.00000000      1.00000000      1.00000000      1.00000000      1.00000000
      1.00000000      1.00000000      1.00000000      1.00000000      1.00000000      1.00000000      1.00000000      1.00000000      1.00000000      1.00000000      1.00000000      1.00000000      1.00000000      1.00000000      1.00000000      1.00000000      1.00000000      1.00000000      1.00000000      1.00000000
      1.00000000      1.00000000      1.00000000      1.00000000      1.00000000      1.00000000      1.00000000      1.00000000      1.00000000      1.00000000      1.00000000      1.00000000      1.00000000      1.00000000      1.00000000      1.00000000      1.00000000      1.00000000      1.00000000</v>
    <i name="NUPDOWN">     -1.00000000</i>
    <i type="logical" name="LSORBIT"> F  </i>
    <v name="SAXIS">      0.00000000      0.00000000      1.00000000</v>
    <i type="logical" name="LSPIRAL"> F  </i>
    <v name="QSPIRAL">      0.00000000      0.00000000      0.00000000</v>
    <i type="logical" name="LZEROZ"> F  </i>
   </separator>
   <separator name="electronic exchange-correlation" >
    <i type="logical" name="LASPH"> F  </i>
    <i type="logical" name="LMETAGGA"> F  </i>
   </separator>
   <separator name="electronic convergence" >
    <i type="int" name="NELM">    60</i>
    <i type="int" name="NELMDL">    -5</i>
    <i type="int" name="NELMIN">     4</i>
    <i name="ENINI">    600.00000000</i>
    <separator name="electronic convergence detail" >
     <i type="logical" name="LDIAG"> T  </i>
     <i type="logical" name="LSUBROT"> F  </i>
     <i name="WEIMIN">      0.00100000</i>
     <i name="EBREAK">      0.00000000</i>
     <i name="DEPER">      0.30000000</i>
     <i type="int" name="NRMM">     4</i>
     <i name="TIME">      0.40000000</i>
    </separator>
   </separator>
   <separator name="electronic mixer" >
    <i name="AMIX">      0.40000000</i>
    <i name="BMIX">      1.00000000</i>
    <i name="AMIN">      0.10000000</i>
    <i name="AMIX_MAG">      1.60000000</i>
    <i name="BMIX_MAG">      1.00000000</i>
    <separator name="electronic mixer details" >
     <i type="int" name="IMIX">     4</i>
     <i type="logical" name="MIXFIRST"> F  </i>
     <i type="int" name="MAXMIX">   -45</i>
     <i name="WC">    100.00000000</i>
     <i type="int" name="INIMIX">     1</i>
     <i type="int" name="MIXPRE">     1</i>
     <i type="int" name="MREMOVE">     5</i>
    </separator>
   </separator>
   <separator name="electronic dipolcorrection" >
    <i type="logical" name="LDIPOL"> F  </i>
    <i type="logical" name="LMONO"> F  </i>
    <i type="int" name="IDIPOL">     0</i>
    <i name="EPSILON">      1.00000000</i>
    <v name="DIPOL">   -100.00000000   -100.00000000   -100.00000000</v>
    <i name="EFIELD">      0.00000000</i>
   </separator>
  </separator>
  <separator name="grids" >
   <i type="int" name="NGX">    70</i>
   <i type="int" name="NGY">    60</i>
   <i type="int" name="NGZ">    70</i>
   <i type="int" name="NGXF">   140</i>
   <i type="int" name="NGYF">   120</i>
   <i type="int" name="NGZF">   140</i>
   <i type="logical" name="ADDGRID"> F  </i>
  </separator>
  <separator name="ionic" >
   <i type="int" name="NSW">   200</i>
   <i type="int" name="IBRION">     2</i>
   <i type="int" name="MDALGO">     0</i>
   <i type="int" name="ISIF">     3</i>
   <i name="PSTRESS">      0.00000000</i>
   <i name="EDIFFG">     -0.01000000</i>
   <i type="int" name="NFREE">    10</i>
   <i name="POTIM">      0.50000000</i>
   <i name="SMASS">     -3.00000000</i>
   <i name="SCALEE">      1.00000000</i>
  </separator>
  <separator name="ionic md" >
   <i name="TEBEG">      0.00010000</i>
   <i name="TEEND">      0.00010000</i>
   <i type="int" name="NBLOCK">     1</i>
   <i type="int" name="KBLOCK">   200</i>
   <i type="int" name="NPACO">   256</i>
   <i name="APACO">     16.00000000</i>
  </separator>
  <separator name="symmetry" >
   <i type="int" name="ISYM">     2</i>
   <i name="SYMPREC">      0.00001000</i>
  </separator>
  <separator name="dos" >
   <i type="int" name="LORBIT">     0</i>
   <v name="RWIGS">     -1.00000000     -1.00000000     -1.00000000     -1.00000000     -1.00000000</v>
   <i type="int" name="NEDOS">   301</i>
   <i name="EMIN">     10.00000000</i>
   <i name="EMAX">    -10.00000000</i>
   <i name="EFERMI">      0.00000000</i>
  </separator>
  <separator name="writing" >
   <i type="int" name="NWRITE">     2</i>
   <i type="logical" name="LWAVE"> F  </i>
   <i type="logical" name="LDOWNSAMPLE"> F  </i>
   <i type="logical" name="LCHARG"> F  </i>
   <i type="logical" name="LPARD"> F  </i>
   <i type="logical" name="LVTOT"> F  </i>
   <i type="logical" name="LVHAR"> F  </i>
   <i type="logical" name="LELF"> F  </i>
   <i type="logical" name="LOPTICS"> F  </i>
   <v name="STM">      0.00000000      0.00000000      0.00000000      0.00000000      0.00000000      0.00000000      0.00000000</v>
  </separator>
  <separator name="performance" >
   <i type="int" name="NPAR">    28</i>
   <i type="int" name="NSIM">     4</i>
   <i type="int" name="NBLK">    -1</i>
   <i type="logical" name="LPLANE"> T  </i>
   <i type="logical" name="LSCALAPACK"> T  </i>
   <i type="logical" name="LSCAAWARE"> F  </i>
   <i type="logical" name="LSCALU"> F  </i>
   <i type="logical" name="LASYNC"> F  </i>
   <i type="logical" name="LORBITALREAL"> F  </i>
  </separator>
  <separator name="miscellaneous" >
   <i type="int" name="IDIOT">     3</i>
   <i type="int" name="ISPECIAL">     0</i>
   <i type="logical" name="LMUSIC"> F  </i>
   <v name="POMASS">      7.01000000     24.30500000    208.98000000     32.06600000     16.00000000</v>
   <v name="DARWINR">      0.00000000      0.00000000      0.00000000      0.00000000      0.00000000</v>
   <v name="DARWINV">      1.00000000      1.00000000      1.00000000      1.00000000      1.00000000</v>
   <i type="logical" name="LCORR"> T  </i>
  </separator>
  <i type="logical" name="GGA_COMPAT"> T  </i>
  <i type="logical" name="LBERRY"> F  </i>
  <i type="int" name="ICORELEVEL">     0</i>
  <i type="logical" name="LDAU"> F  </i>
  <i type="int" name="I_CONSTRAINED_M">     0</i>
  <separator name="electronic exchange-correlation" >
   <i type="string" name="GGA">--</i>
   <i type="int" name="VOSKOWN">     0</i>
   <i type="logical" name="LHFCALC"> F  </i>
   <i type="string" name="PRECFOCK"></i>
   <i type="logical" name="LSYMGRAD"> F  </i>
   <i type="logical" name="LHFONE"> F  </i>
   <i type="logical" name="LRHFCALC"> F  </i>
   <i type="logical" name="LTHOMAS"> F  </i>
   <i type="logical" name="LMODELHF"> F  </i>
   <i name="ENCUT4O">     -1.00000000</i>
   <i type="int" name="EXXOEP">     0</i>
   <i type="int" name="FOURORBIT">     0</i>
   <i name="AEXX">      0.00000000</i>
   <i name="HFALPHA">      0.00000000</i>
   <i name="MCALPHA">      0.00000000</i>
   <i name="ALDAX">      1.00000000</i>
   <i name="AGGAX">      1.00000000</i>
   <i name="ALDAC">      1.00000000</i>
   <i name="AGGAC">      1.00000000</i>
   <i type="int" name="NKREDX">     1</i>
   <i type="int" name="NKREDY">     1</i>
   <i type="int" name="NKREDZ">     1</i>
   <i type="logical" name="SHIFTRED"> F  </i>
   <i type="logical" name="ODDONLY"> F  </i>
   <i type="logical" name="EVENONLY"> F  </i>
   <i type="int" name="LMAXFOCK">     0</i>
   <i type="int" name="NMAXFOCKAE">     0</i>
   <i type="logical" name="LFOCKAEDFT"> F  </i>
   <i name="HFSCREEN">      0.00000000</i>
   <i name="HFSCREENC">      0.00000000</i>
   <i type="int" name="NBANDSGWLOW">     0</i>
  </separator>
  <separator name="vdW DFT" >
   <i type="logical" name="LUSE_VDW"> F  </i>
   <i name="Zab_VDW">     -0.84910000</i>
   <i name="PARAM1">      0.12340000</i>
   <i name="PARAM2">      1.00000000</i>
   <i name="PARAM3">      0.00000000</i>
  </separator>
  <separator name="model GW" >
   <i type="int" name="MODEL_GW">     0</i>
   <i name="MODEL_EPS0">     12.17134107</i>
   <i name="MODEL_ALPHA">      1.00000000</i>
  </separator>
  <separator name="linear response parameters" >
   <i type="logical" name="LEPSILON"> F  </i>
   <i type="logical" name="LRPA"> F  </i>
   <i type="logical" name="LNABLA"> F  </i>
   <i type="logical" name="LVEL"> F  </i>
   <i type="int" name="KINTER">     0</i>
   <i name="CSHIFT">      0.10000000</i>
   <i name="OMEGAMAX">     -1.00000000</i>
   <i name="DEG_THRESHOLD">      0.00200000</i>
   <i name="RTIME">     -0.10000000</i>
   <i name="WPLASMAI">      0.00000000</i>
   <v name="DFIELD">      0.00000000      0.00000000      0.00000000</v>
   <v name="WPLASMA">      0.00000000      0.00000000      0.00000000      0.00000000      0.00000000      0.00000000      0.00000000      0.00000000      0.00000000</v>
  </separator>
  <separator name="orbital magnetization" >
   <i type="logical" name="NUCIND"> F  </i>
   <v name="MAGPOS">      0.00000000      0.00000000      0.00000000</v>
   <i type="logical" name="LNICSALL"> T  </i>
   <i type="logical" name="ORBITALMAG"> F  </i>
   <i type="logical" name="LMAGBLOCH"> F  </i>
   <i type="logical" name="LCHIMAG"> F  </i>
   <i type="logical" name="LGAUGE"> T  </i>
   <i type="int" name="MAGATOM">     0</i>
   <v name="MAGDIPOL">      0.00000000      0.00000000      0.00000000</v>
   <v name="AVECCONST">      0.00000000      0.00000000      0.00000000</v>
  </separator>
  <separator name="response functions" >
   <i type="logical" name="LADDER"> F  </i>
   <i type="logical" name="LRPAFORCE"> F  </i>
   <i type="logical" name="LFXC"> F  </i>
   <i type="logical" name="LHARTREE"> T  </i>
   <i type="int" name="IBSE">     0</i>
   <v type="int" name="KPOINT">    -1     0     0     0</v>
   <i type="logical" name="LTCTE"> F  </i>
   <i type="logical" name="LTETE"> F  </i>
   <i type="logical" name="LTRIPLET"> F  </i>
   <i type="logical" name="LFXCEPS"> F  </i>
   <i type="logical" name="LFXHEG"> F  </i>
   <i type="int" name="NATURALO">     2</i>
   <i type="logical" name="L2ORDER"> F  </i>
   <i type="logical" name="LMP2LT"> F  </i>
   <i type="logical" name="LUSEW"> F  </i>
   <i name="ENCUTGW">     -2.00000000</i>
   <i name="ENCUTGWSOFT">     -2.00000000</i>
   <i name="ENCUTLF">     -1.00000000</i>
   <i type="int" name="LMAXMP2">    -1</i>
   <i name="SCISSOR">      0.00000000</i>
   <i type="int" name="NOMEGA">     0</i>
   <i type="int" name="NOMEGAR">     0</i>
   <i type="int" name="NBANDSGW">    -1</i>
   <i type="int" name="NBANDSO">    -1</i>
   <i type="int" name="NBANDSV">    -1</i>
   <i type="int" name="NELM">     1</i>
   <i type="int" name="NELMHF">     1</i>
   <i type="int" name="DIM">     3</i>
   <i type="int" name="ANTIRES">     0</i>
   <i name="OMEGAMAX">    -30.00000000</i>
   <i name="OMEGAMIN">    -30.00000000</i>
   <i name="OMEGATL">   -200.00000000</i>
   <i type="int" name="OMEGAGRID">   140</i>
   <i name="CSHIFT">     -0.10000000</i>
   <i type="logical" name="SELFENERGY"> F  </i>
   <i type="logical" name="LSPECTRAL"> F  </i>
   <i type="logical" name="LSPECTRALGW"> F  </i>
   <i type="logical" name="LSINGLES"> F  </i>
   <i type="logical" name="LFERMIGW"> F  </i>
   <i type="logical" name="ODDONLYGW"> F  </i>
   <i type="logical" name="EVENONLYGW"> F  </i>
   <i type="int" name="NKREDLFX">     1</i>
   <i type="int" name="NKREDLFY">     1</i>
   <i type="int" name="NKREDLFZ">     1</i>
   <i type="int" name="MAXMEM">  2800</i>
   <i type="int" name="TELESCOPE">     0</i>
   <i type="int" name="TAUPAR">     1</i>
   <i type="int" name="OMEGAPAR">    -1</i>
   <i name="LAMBDA">      1.00000000</i>
  </separator>
  <separator name="External order field" >
   <i name="OFIELD_KAPPA">      0.00000000</i>
   <v name="OFIELD_K">      0.00000000      0.00000000      0.00000000</v>
   <i name="OFIELD_Q6_NEAR">      0.00000000</i>
   <i name="OFIELD_Q6_FAR">      0.00000000</i>
   <i name="OFIELD_A">      0.00000000</i>
  </separator>
 </parameters>
 <atominfo>
  <atoms>      59 </atoms>
  <types>       5 </types>
  <array name="atoms" >
   <dimension dim="1">ion</dimension>
   <field type="string">element</field>
   <field type="int">atomtype</field>
   <set>
    <rc><c>Li</c><c>   1</c></rc>
    <rc><c>Li</c><c>   1</c></rc>
    <rc><c>Li</c><c>   1</c></rc>
    <rc><c>Li</c><c>   1</c></rc>
    <rc><c>Li</c><c>   1</c></rc>
    <rc><c>Li</c><c>   1</c></rc>
    <rc><c>Mg</c><c>   2</c></rc>
    <rc><c>Mg</c><c>   2</c></rc>
    <rc><c>Mg</c><c>   2</c></rc>
    <rc><c>Mg</c><c>   2</c></rc>
    <rc><c>Mg</c><c>   2</c></rc>
    <rc><c>Bi</c><c>   3</c></rc>
    <rc><c>Bi</c><c>   3</c></rc>
    <rc><c>Bi</c><c>   3</c></rc>
    <rc><c>Bi</c><c>   3</c></rc>
    <rc><c>Bi</c><c>   3</c></rc>
    <rc><c>Bi</c><c>   3</c></rc>
    <rc><c>Bi</c><c>   3</c></rc>
    <rc><c>Bi</c><c>   3</c></rc>
    <rc><c>Bi</c><c>   3</c></rc>
    <rc><c>Bi</c><c>   3</c></rc>
    <rc><c>Bi</c><c>   3</c></rc>
    <rc><c>Bi</c><c>   3</c></rc>
    <rc><c>Bi</c><c>   3</c></rc>
    <rc><c>Bi</c><c>   3</c></rc>
    <rc><c>Bi</c><c>   3</c></rc>
    <rc><c>Bi</c><c>   3</c></rc>
    <rc><c>S </c><c>   4</c></rc>
    <rc><c>S </c><c>   4</c></rc>
    <rc><c>S </c><c>   4</c></rc>
    <rc><c>S </c><c>   4</c></rc>
    <rc><c>S </c><c>   4</c></rc>
    <rc><c>S </c><c>   4</c></rc>
    <rc><c>S </c><c>   4</c></rc>
    <rc><c>S </c><c>   4</c></rc>
    <rc><c>S </c><c>   4</c></rc>
    <rc><c>S </c><c>   4</c></rc>
    <rc><c>S </c><c>   4</c></rc>
    <rc><c>S </c><c>   4</c></rc>
    <rc><c>S </c><c>   4</c></rc>
    <rc><c>S </c><c>   4</c></rc>
    <rc><c>S </c><c>   4</c></rc>
    <rc><c>S </c><c>   4</c></rc>
    <rc><c>O </c><c>   5</c></rc>
    <rc><c>O </c><c>   5</c></rc>
    <rc><c>O </c><c>   5</c></rc>
    <rc><c>O </c><c>   5</c></rc>
    <rc><c>O </c><c>   5</c></rc>
    <rc><c>O </c><c>   5</c></rc>
    <rc><c>O </c><c>   5</c></rc>
    <rc><c>O </c><c>   5</c></rc>
    <rc><c>O </c><c>   5</c></rc>
    <rc><c>O </c><c>   5</c></rc>
    <rc><c>O </c><c>   5</c></rc>
    <rc><c>O </c><c>   5</c></rc>
    <rc><c>O </c><c>   5</c></rc>
    <rc><c>O </c><c>   5</c></rc>
    <rc><c>O </c><c>   5</c></rc>
    <rc><c>O </c><c>   5</c></rc>
   </set>
  </array>
  <array name="atomtypes" >
   <dimension dim="1">type</dimension>
   <field type="int">atomspertype</field>
   <field type="string">element</field>
   <field>mass</field>
   <field>valence</field>
   <field type="string">pseudopotential</field>
   <set>
    <rc><c>   6</c><c>Li</c><c>      7.01000000</c><c>      3.00000000</c><c>  PAW_PBE Li_sv 10Sep2004               </c></rc>
    <rc><c>   5</c><c>Mg</c><c>     24.30500000</c><c>      2.00000000</c><c>  PAW_PBE Mg 13Apr2007                  </c></rc>
    <rc><c>  16</c><c>Bi</c><c>    208.98000000</c><c>     15.00000000</c><c>  PAW_PBE Bi_d 06Sep2000                </c></rc>
    <rc><c>  16</c><c>S </c><c>     32.06600000</c><c>      6.00000000</c><c>  PAW_PBE S 06Sep2000                   </c></rc>
    <rc><c>  16</c><c>O </c><c>     16.00000000</c><c>      6.00000000</c><c>  PAW_PBE O 08Apr2002                   </c></rc>
   </set>
  </array>
 </atominfo>
 <structure name="initialpos" >
  <crystal>
   <varray name="basis" >
    <v>      11.17850000       0.00000000       0.00000000 </v>
    <v>       0.00000000       9.57460000       0.00000000 </v>
    <v>       0.00000000       0.00000000      11.18240000 </v>
   </varray>
   <i name="volume">   1196.84853820 </i>
   <varray name="rec_basis" >
    <v>       0.08945744       0.00000000       0.00000000 </v>
    <v>       0.00000000       0.10444301       0.00000000 </v>
    <v>       0.00000000       0.00000000       0.08942624 </v>
   </varray>
  </crystal>
  <varray name="positions" >
   <v>       0.12461000       0.99984000       0.18687000 </v>
   <v>       0.87461000       0.00017000       0.18687000 </v>
   <v>       0.12539000       0.99984000       0.93687000 </v>
   <v>       0.37539000       0.00017000       0.93687000 </v>
   <v>       0.12461000       0.99984000       0.68687000 </v>
   <v>       0.37461000       0.00017000       0.68687000 </v>
   <v>       0.37461000       0.00017000       0.18687000 </v>
   <v>       0.87539000       0.00017000       0.43687000 </v>
   <v>       0.62461000       0.99984000       0.18687000 </v>
   <v>       0.62539000       0.99984000       0.93687000 </v>
   <v>       0.87461000       0.00017000       0.68687000 </v>
   <v>       0.00013000       0.29519000       0.06281000 </v>
   <v>       0.25013000       0.70481000       0.06281000 </v>
   <v>       0.24987000       0.29519000       0.31282000 </v>
   <v>       0.49987000       0.70481000       0.31282000 </v>
   <v>       0.50013000       0.29519000       0.06281000 </v>
   <v>       0.75013000       0.70481000       0.06281000 </v>
   <v>       0.74987000       0.29519000       0.31282000 </v>
   <v>       0.99987000       0.70481000       0.31282000 </v>
   <v>       0.00013000       0.29519000       0.56281000 </v>
   <v>       0.25013000       0.70481000       0.56281000 </v>
   <v>       0.24987000       0.29519000       0.81282000 </v>
   <v>       0.49987000       0.70481000       0.81282000 </v>
   <v>       0.50013000       0.29519000       0.56281000 </v>
   <v>       0.75013000       0.70481000       0.56281000 </v>
   <v>       0.74987000       0.29519000       0.81282000 </v>
   <v>       0.99987000       0.70481000       0.81282000 </v>
   <v>       0.25005000       0.32677000       0.06286000 </v>
   <v>       0.00005000       0.67323000       0.06286000 </v>
   <v>       0.49995000       0.32677000       0.31286000 </v>
   <v>       0.24995000       0.67323000       0.31286000 </v>
   <v>       0.75005000       0.32677000       0.06286000 </v>
   <v>       0.50005000       0.67323000       0.06286000 </v>
   <v>       0.99995000       0.32677000       0.31286000 </v>
   <v>       0.74995000       0.67323000       0.31286000 </v>
   <v>       0.25005000       0.32677000       0.56286000 </v>
   <v>       0.00005000       0.67323000       0.56286000 </v>
   <v>       0.49995000       0.32677000       0.81286000 </v>
   <v>       0.24995000       0.67323000       0.81286000 </v>
   <v>       0.75005000       0.32677000       0.56286000 </v>
   <v>       0.50005000       0.67323000       0.56286000 </v>
   <v>       0.99995000       0.32677000       0.81286000 </v>
   <v>       0.74995000       0.67323000       0.81286000 </v>
   <v>       0.49987000       0.07798000       0.06246000 </v>
   <v>       0.24987000       0.92202000       0.06246000 </v>
   <v>       0.25013000       0.07798000       0.31246000 </v>
   <v>       0.00013000       0.92202000       0.31246000 </v>
   <v>       0.99987000       0.07798000       0.06246000 </v>
   <v>       0.74987000       0.92202000       0.06246000 </v>
   <v>       0.75013000       0.07798000       0.31246000 </v>
   <v>       0.50013000       0.92202000       0.31246000 </v>
   <v>       0.49987000       0.07798000       0.56246000 </v>
   <v>       0.24987000       0.92202000       0.56246000 </v>
   <v>       0.25013000       0.07798000       0.81246000 </v>
   <v>       0.00013000       0.92202000       0.81246000 </v>
   <v>       0.99987000       0.07798000       0.56246000 </v>
   <v>       0.74987000       0.92202000       0.56246000 </v>
   <v>       0.75013000       0.07798000       0.81246000 </v>
   <v>       0.50013000       0.92202000       0.81246000 </v>
  </varray>
 </structure>
 <calculation>
  <scstep>
   <time name="dav">  135.84  154.96</time>
   <time name="total">  137.76  156.91</time>
   <energy>
    <i name="alphaZ">   1060.66890660 </i>
    <i name="ewald"> -30392.41225874 </i>
    <i name="hartreedc"> -12723.50047751 </i>
    <i name="XCdc">   1247.34317010 </i>
    <i name="pawpsdc">  36635.26894311 </i>
    <i name="pawaedc"> -35972.74895369 </i>
    <i name="eentropy">      0.00000000 </i>
    <i name="bandstr">   1868.68384126 </i>
    <i name="atom">  44026.03258983 </i>
    <i name="e_fr_energy">   5749.33576095 </i>
    <i name="e_wo_entrp">   5749.33576095 </i>
    <i name="e_0_energy">   5749.33576095 </i>
   </energy>
  </scstep>
  <scstep>
   <time name="dav">  161.26  187.18</time>
   <time name="total">  161.27  187.19</time>
   <energy>
    <i name="e_fr_energy">    763.02025582 </i>
    <i name="e_wo_entrp">    763.02025582 </i>
    <i name="e_0_energy">    763.02025582 </i>
   </energy>
  </scstep>
  <scstep>
   <time name="dav">  142.34  163.32</time>
   <time name="total">  142.37  163.36</time>
   <energy>
    <i name="e_fr_energy">   -240.68671806 </i>
    <i name="e_wo_entrp">   -240.68671806 </i>
    <i name="e_0_energy">   -240.68671806 </i>
   </energy>
  </scstep>
  <scstep>
   <time name="dav">  153.68  175.58</time>
   <time name="total">  153.72  175.62</time>
   <energy>
    <i name="e_fr_energy">   -334.96306615 </i>
    <i name="e_wo_entrp">   -334.96306615 </i>
    <i name="e_0_energy">   -334.96306615 </i>
   </energy>
  </scstep>
  <scstep>
   <time name="dav">  192.01  212.32</time>
   <time name="total">  193.64  213.96</time>
   <energy>
    <i name="e_fr_energy">   -341.83113288 </i>
    <i name="e_wo_entrp">   -341.83113288 </i>
    <i name="e_0_energy">   -341.83113288 </i>
   </energy>
  </scstep>
  <scstep>
   <time name="dav">  193.05  221.24</time>
   <time name="total">  196.20  224.39</time>
   <energy>
    <i name="e_fr_energy">   -286.30433474 </i>
    <i name="e_wo_entrp">   -286.30433474 </i>
    <i name="e_0_energy">   -286.30433474 </i>
   </energy>
  </scstep>
  <scstep>
   <time name="dav">  140.84  153.96</time>
   <time name="total">  143.26  157.69</time>
   <energy>
    <i name="e_fr_energy">   -288.48705154 </i>
    <i name="e_wo_entrp">   -288.48705154 </i>
    <i name="e_0_energy">   -288.48705154 </i>
   </energy>
  </scstep>
  <scstep>
   <time name="dav">  213.09  258.32</time>
   <time name="total">  214.95  260.21</time>
   <energy>
    <i name="e_fr_energy">   -287.26031783 </i>
    <i name="e_wo_entrp">   -287.26031783 </i>
    <i name="e_0_energy">   -287.26031783 </i>
   </energy>
  </scstep>
  <scstep>
   <time name="dav">  180.35  203.66</time>
   <time name="total">  182.86  206.21</time>
   <energy>
    <i name="e_fr_energy">   -286.58423447 </i>
    <i name="e_wo_entrp">   -286.58423447 </i>
    <i name="e_0_energy">   -286.58423447 </i>
   </energy>
  </scstep>
  <scstep>
   <time name="dav">  152.53  175.93</time>
   <time name="total">  155.26  178.70</time>
   <energy>
    <i name="e_fr_energy">   -286.56843825 </i>
    <i name="e_wo_entrp">   -286.56843825 </i>
    <i name="e_0_energy">   -286.56843825 </i>
   </energy>
  </scstep>
  <scstep>
   <time name="dav">  150.37  162.41</time>
   <time name="total">  153.56  165.63</time>
   <energy>
    <i name="e_fr_energy">   -286.56916237 </i>
    <i name="e_wo_entrp">   -286.56916237 </i>
    <i name="e_0_energy">   -286.56916237 </i>
   </energy>
  </scstep>
  <scstep>
   <time name="dav">  184.78  212.58</time>
   <time name="total">  186.65  214.48</time>
   <energy>
    <i name="e_fr_energy">   -286.57037093 </i>
    <i name="e_wo_entrp">   -286.57037093 </i>
    <i name="e_0_energy">   -286.57037093 </i>
   </energy>
  </scstep>
  <scstep>
   <time name="dav">  152.95  169.50</time>
   <time name="total">  153.55  171.61</time>
   <energy>
    <i name="e_fr_energy">   -286.57342887 </i>
    <i name="e_wo_entrp">   -286.57342887 </i>
    <i name="e_0_energy">   -286.57342887 </i>
   </energy>
  </scstep>
  <scstep>
   <time name="dav">  167.21  188.05</time>
   <time name="total">  169.06  189.99</time>
   <energy>
    <i name="e_fr_energy">   -286.57371838 </i>
    <i name="e_wo_entrp">   -286.57371838 </i>
    <i name="e_0_energy">   -286.57371838 </i>
   </energy>
  </scstep>
  <scstep>
   <time name="dav">  163.34  187.61</time>
   <time name="total">  165.89  190.17</time>
   <energy>
    <i name="e_fr_energy">   -286.57378853 </i>
    <i name="e_wo_entrp">   -286.57378853 </i>
    <i name="e_0_energy">   -286.57378853 </i>
   </energy>
  </scstep>
  <scstep>
   <time name="dav">  182.54  209.22</time>
   <time name="total">  184.55  211.67</time>
   <energy>
    <i name="e_fr_energy">   -286.57384613 </i>
    <i name="e_wo_entrp">   -286.57384613 </i>
    <i name="e_0_energy">   -286.57384613 </i>
   </energy>
  </scstep>
  <scstep>
   <time name="dav">  165.20  182.09</time>
   <time name="total">  166.31  184.29</time>
   <energy>
    <i name="e_fr_energy">   -286.57386042 </i>
    <i name="e_wo_entrp">   -286.57386042 </i>
    <i name="e_0_energy">   -286.57386042 </i>
   </energy>
  </scstep>
  <scstep>
   <time name="dav">  139.90  150.61</time>
   <time name="total">  141.40  152.24</time>
   <energy>
    <i name="e_fr_energy">   -286.57386064 </i>
    <i name="e_wo_entrp">   -286.57386064 </i>
    <i name="e_0_energy">   -286.57386064 </i>
   </energy>
  </scstep>
  <scstep>
   <time name="dav">  121.84  128.33</time>
   <time name="total">  123.06  129.59</time>
   <energy>
    <i name="e_fr_energy">   -286.57386162 </i>
    <i name="e_wo_entrp">   -286.57386162 </i>
    <i name="e_0_energy">   -286.57386162 </i>
   </energy>
  </scstep>
  <scstep>
   <time name="dav">  114.66  128.04</time>
   <time name="total">  116.15  129.53</time>
   <energy>
    <i name="alphaZ">   1060.66890660 </i>
    <i name="ewald"> -30392.41225874 </i>
    <i name="hartreedc"> -12954.31956665 </i>
    <i name="XCdc">   1271.60529638 </i>
    <i name="pawpsdc">  43657.00070515 </i>
    <i name="pawaedc"> -42968.07514351 </i>
    <i name="eentropy">      0.00000000 </i>
    <i name="bandstr">  -3987.07439157 </i>
    <i name="atom">  44026.03258983 </i>
    <i name="e_fr_energy">   -286.57386252 </i>
    <i name="e_wo_entrp">   -286.57386252 </i>
    <i name="e_0_energy">   -286.57386252 </i>
   </energy>
  </scstep>
  <structure>
   <crystal>
    <varray name="basis" >
     <v>      11.17850000       0.00000000       0.00000000 </v>
     <v>       0.00000000       9.57460000       0.00000000 </v>
     <v>       0.00000000       0.00000000      11.18240000 </v>
    </varray>
    <i name="volume">   1196.84853820 </i>
    <varray name="rec_basis" >
     <v>       0.08945744       0.00000000       0.00000000 </v>
     <v>       0.00000000       0.10444301       0.00000000 </v>
     <v>       0.00000000       0.00000000       0.08942624 </v>
    </varray>
   </crystal>
   <varray name="positions" >
    <v>       0.12461000       0.99984000       0.18687000 </v>
    <v>       0.87461000       0.00017000       0.18687000 </v>
    <v>       0.12539000       0.99984000       0.93687000 </v>
    <v>       0.37539000       0.00017000       0.93687000 </v>
    <v>       0.12461000       0.99984000       0.68687000 </v>
    <v>       0.37461000       0.00017000       0.68687000 </v>
    <v>       0.37461000       0.00017000       0.18687000 </v>
    <v>       0.87539000       0.00017000       0.43687000 </v>
    <v>       0.62461000       0.99984000       0.18687000 </v>
    <v>       0.62539000       0.99984000       0.93687000 </v>
    <v>       0.87461000       0.00017000       0.68687000 </v>
    <v>       0.00013000       0.29519000       0.06281000 </v>
    <v>       0.25013000       0.70481000       0.06281000 </v>
    <v>       0.24987000       0.29519000       0.31282000 </v>
    <v>       0.49987000       0.70481000       0.31282000 </v>
    <v>       0.50013000       0.29519000       0.06281000 </v>
    <v>       0.75013000       0.70481000       0.06281000 </v>
    <v>       0.74987000       0.29519000       0.31282000 </v>
    <v>       0.99987000       0.70481000       0.31282000 </v>
    <v>       0.00013000       0.29519000       0.56281000 </v>
    <v>       0.25013000       0.70481000       0.56281000 </v>
    <v>       0.24987000       0.29519000       0.81282000 </v>
    <v>       0.49987000       0.70481000       0.81282000 </v>
    <v>       0.50013000       0.29519000       0.56281000 </v>
    <v>       0.75013000       0.70481000       0.56281000 </v>
    <v>       0.74987000       0.29519000       0.81282000 </v>
    <v>       0.99987000       0.70481000       0.81282000 </v>
    <v>       0.25005000       0.32677000       0.06286000 </v>
    <v>       0.00005000       0.67323000       0.06286000 </v>
    <v>       0.49995000       0.32677000       0.31286000 </v>
    <v>       0.24995000       0.67323000       0.31286000 </v>
    <v>       0.75005000       0.32677000       0.06286000 </v>
    <v>       0.50005000       0.67323000       0.06286000 </v>
    <v>       0.99995000       0.32677000       0.31286000 </v>
    <v>       0.74995000       0.67323000       0.31286000 </v>
    <v>       0.25005000       0.32677000       0.56286000 </v>
    <v>       0.00005000       0.67323000       0.56286000 </v>
    <v>       0.49995000       0.32677000       0.81286000 </v>
    <v>       0.24995000       0.67323000       0.81286000 </v>
    <v>       0.75005000       0.32677000       0.56286000 </v>
    <v>       0.50005000       0.67323000       0.56286000 </v>
    <v>       0.99995000       0.32677000       0.81286000 </v>
    <v>       0.74995000       0.67323000       0.81286000 </v>
    <v>       0.49987000       0.07798000       0.06246000 </v>
    <v>       0.24987000       0.92202000       0.06246000 </v>
    <v>       0.25013000       0.07798000       0.31246000 </v>
    <v>       0.00013000       0.92202000       0.31246000 </v>
    <v>       0.99987000       0.07798000       0.06246000 </v>
    <v>       0.74987000       0.92202000       0.06246000 </v>
    <v>       0.75013000       0.07798000       0.31246000 </v>
    <v>       0.50013000       0.92202000       0.31246000 </v>
    <v>       0.49987000       0.07798000       0.56246000 </v>
    <v>       0.24987000       0.92202000       0.56246000 </v>
    <v>       0.25013000       0.07798000       0.81246000 </v>
    <v>       0.00013000       0.92202000       0.81246000 </v>
    <v>       0.99987000       0.07798000       0.56246000 </v>
    <v>       0.74987000       0.92202000       0.56246000 </v>
    <v>       0.75013000       0.07798000       0.81246000 </v>
    <v>       0.50013000       0.92202000       0.81246000 </v>
   </varray>
  </structure>
  <varray name="forces" >
   <v>      -0.36077475       0.20078946       0.47545742 </v>
   <v>       0.62966456       0.08228407      -0.50073272 </v>
   <v>      -0.48451916       0.14204466      -0.06452467 </v>
   <v>      -0.46454343      -0.11097474      -0.80123730 </v>
   <v>       0.56846506      -0.16995421      -0.44331048 </v>
   <v>       0.33204339       0.05376844      -0.89420438 </v>
   <v>      -1.24984340      -0.09306803       1.76579847 </v>
   <v>       0.03299191      -0.21967839      -0.40047759 </v>
   <v>       0.77151894      -0.28732989       1.96838706 </v>
   <v>       0.94102198      -0.18418943      -2.12319360 </v>
   <v>      -0.70759097      -0.10657462       1.25807306 </v>
   <v>       0.05278056      -0.91064866      -0.12101205 </v>
   <v>      -0.31014974      -1.12127617      -0.06383532 </v>
   <v>      -0.05485367      -0.94838819       0.68114025 </v>
   <v>      -0.26758075      -0.15030759       0.97357139 </v>
   <v>      -0.29400351       3.06219514      -0.11276706 </v>
   <v>       0.52624794      -1.15974825      -0.18195632 </v>
   <v>      -0.11464521       1.02233928       0.44203479 </v>
   <v>       0.45792913      -0.02809366       0.19620710 </v>
   <v>       0.58948232       1.08612186      -0.11234029 </v>
   <v>       0.17083591       1.91179248      -0.21981591 </v>
   <v>       0.01912252       0.05838508      -0.43869473 </v>
   <v>      -0.15440642      -0.12107043      -0.79749196 </v>
   <v>      -0.15325550      -2.64000470      -0.07967763 </v>
   <v>      -0.60552966      -0.09422295       0.05089640 </v>
   <v>      -0.00075897      -0.04840340      -0.32474770 </v>
   <v>       0.15701684       0.02952225       0.01607964 </v>
   <v>       0.32890436       0.13227543      -0.06264548 </v>
   <v>      -0.06826805      -0.11080203       0.02292764 </v>
   <v>       0.25220170      -0.00396126      -0.74599120 </v>
   <v>       0.06856167      -0.10983375      -0.49998549 </v>
   <v>      -0.37188984      -0.05889211       0.09563701 </v>
   <v>       0.13036660       0.04281178       0.03407568 </v>
   <v>      -0.30481088       0.13444471       0.06357496 </v>
   <v>      -0.00363315      -0.06461556      -0.25156976 </v>
   <v>      -0.43028300       0.22616254       0.13263005 </v>
   <v>      -0.36055277      -0.16254693      -0.00328721 </v>
   <v>       0.10253447       0.08501295       0.71949230 </v>
   <v>       0.01618638      -0.22564626       0.44914026 </v>
   <v>       0.48088344       0.06370532      -0.10325174 </v>
   <v>       0.27058208      -0.18848584       0.00953588 </v>
   <v>      -0.08943954       0.13521299      -0.08592704 </v>
   <v>      -0.02042675      -0.04756428       0.24259398 </v>
   <v>       0.55144744      -2.31195130       0.35351263 </v>
   <v>       0.81180933       0.87392434       0.36248024 </v>
   <v>       0.49905667       0.64334553      -1.92401897 </v>
   <v>      -1.30845091       0.00157102      -0.13795767 </v>
   <v>       0.54352453       0.66096875       0.61783678 </v>
   <v>      -1.83151724       1.08709957       0.63486297 </v>
   <v>       0.54758734      -0.74198198      -0.88242518 </v>
   <v>       0.17588410       0.35971993      -2.58322020 </v>
   <v>      -0.36747303       2.26261630       0.53951997 </v>
   <v>      -0.19483228      -1.60876380       1.19824260 </v>
   <v>       0.01254507      -0.02386300       0.37145644 </v>
   <v>       0.04630936      -0.03955069      -1.09660945 </v>
   <v>      -1.65965284      -0.76621979       0.56313747 </v>
   <v>       2.23169225       0.16856000      -0.08928352 </v>
   <v>      -0.07288262       0.19235924       0.23523645 </v>
   <v>      -0.01262981       0.13957877       1.67265375 </v>
  </varray>
  <varray name="stress" >
   <v>      -2.99544061       0.15119195       1.57506762 </v>
   <v>       0.15119204     -12.54373319      -0.22220359 </v>
   <v>       1.57506772      -0.22220358      -4.34418237 </v>
  </varray>
  <energy>
   <i name="e_fr_energy">   -299.09363783 </i>
   <i name="e_wo_entrp">   -299.09363783 </i>
   <i name="e_0_energy">      0.00000000 </i>
  </energy>
  <time name="totalsc"> 3366.88 3804.08</time>
 </calculation>
 <calculation>
  <scstep>
   <time name="dav">  126.29  139.15</time>
   <time name="total">  128.77  141.67</time>
   <energy>
    <i name="alphaZ">   1073.66756090 </i>
    <i name="ewald"> -30492.51644581 </i>
    <i name="hartreedc"> -13014.76428861 </i>
    <i name="XCdc">   1278.79646313 </i>
    <i name="pawpsdc">  43657.02386235 </i>
    <i name="pawaedc"> -42968.09845801 </i>
    <i name="eentropy">      0.00000000 </i>
    <i name="bandstr">  -3846.03070169 </i>
    <i name="atom">  44026.03258983 </i>
    <i name="e_fr_energy">   -285.88941792 </i>
    <i name="e_wo_entrp">   -285.88941792 </i>
    <i name="e_0_energy">   -285.88941792 </i>
   </energy>
  </scstep>
  <scstep>
   <time name="dav">  125.21  135.53</time>
   <time name="total">  126.71  137.11</time>
   <energy>
    <i name="e_fr_energy">   -289.23200877 </i>
    <i name="e_wo_entrp">   -289.23200877 </i>
    <i name="e_0_energy">   -289.23200877 </i>
   </energy>
  </scstep>
  <scstep>
   <time name="dav">  150.60  158.81</time>
   <time name="total">  152.98  161.62</time>
   <energy>
    <i name="e_fr_energy">   -289.00712823 </i>
    <i name="e_wo_entrp">   -289.00712823 </i>
    <i name="e_0_energy">   -289.00712823 </i>
   </energy>
  </scstep>
  <scstep>
   <time name="dav">  190.59  211.03</time>
   <time name="total">  192.86  213.99</time>
   <energy>
    <i name="e_fr_energy">   -288.88550422 </i>
    <i name="e_wo_entrp">   -288.88550422 </i>
    <i name="e_0_energy">   -288.88550422 </i>
   </energy>
  </scstep>
  <scstep>
   <time name="dav">  209.73  247.39</time>
   <time name="total">  211.89  250.58</time>
   <energy>
    <i name="e_fr_energy">   -288.86758513 </i>
    <i name="e_wo_entrp">   -288.86758513 </i>
    <i name="e_0_energy">   -288.86758513 </i>
   </energy>
  </scstep>
  <scstep>
   <time name="dav">  154.85  173.24</time>
   <time name="total">  156.86  176.63</time>
   <energy>
    <i name="e_fr_energy">   -288.86532157 </i>
    <i name="e_wo_entrp">   -288.86532157 </i>
    <i name="e_0_energy">   -288.86532157 </i>
   </energy>
  </scstep>
  <scstep>
   <time name="dav">  206.05  231.39</time>
   <time name="total">  208.47  233.83</time>
   <energy>
    <i name="e_fr_energy">   -288.86473944 </i>
    <i name="e_wo_entrp">   -288.86473944 </i>
    <i name="e_0_energy">   -288.86473944 </i>
   </energy>
  </scstep>
  <scstep>
   <time name="dav">  162.95  180.84</time>
   <time name="total">  165.04  182.94</time>
   <energy>
    <i name="e_fr_energy">   -288.86444913 </i>
    <i name="e_wo_entrp">   -288.86444913 </i>
    <i name="e_0_energy">   -288.86444913 </i>
   </energy>
  </scstep>
  <scstep>
   <time name="dav">  149.64  169.88</time>
   <time name="total">  151.44  171.69</time>
   <energy>
    <i name="e_fr_energy">   -288.86448866 </i>
    <i name="e_wo_entrp">   -288.86448866 </i>
    <i name="e_0_energy">   -288.86448866 </i>
   </energy>
  </scstep>
  <scstep>
   <time name="dav">  177.14  201.34</time>
   <time name="total">  179.73  203.93</time>
   <energy>
    <i name="e_fr_energy">   -288.86449849 </i>
    <i name="e_wo_entrp">   -288.86449849 </i>
    <i name="e_0_energy">   -288.86449849 </i>
   </energy>
  </scstep>
  <scstep>
   <time name="dav">  159.66  180.07</time>
   <time name="total">  161.08  181.84</time>
   <energy>
    <i name="e_fr_energy">   -288.86450254 </i>
    <i name="e_wo_entrp">   -288.86450254 </i>
    <i name="e_0_energy">   -288.86450254 </i>
   </energy>
  </scstep>
  <scstep>
   <time name="dav">  179.45  223.66</time>
   <time name="total">  181.04  225.55</time>
   <energy>
    <i name="e_fr_energy">   -288.86450146 </i>
    <i name="e_wo_entrp">   -288.86450146 </i>
    <i name="e_0_energy">   -288.86450146 </i>
   </energy>
  </scstep>
  <scstep>
   <time name="dav">  113.39  134.49</time>
   <time name="total">  113.58  136.25</time>
   <energy>
    <i name="alphaZ">   1073.66756090 </i>
    <i name="ewald"> -30492.51644581 </i>
    <i name="hartreedc"> -12912.14602347 </i>
    <i name="XCdc">   1274.49695817 </i>
    <i name="pawpsdc">  43987.76986001 </i>
    <i name="pawaedc"> -43301.73452890 </i>
    <i name="eentropy">      0.00000000 </i>
    <i name="bandstr">  -3944.43447228 </i>
    <i name="atom">  44026.03258983 </i>
    <i name="e_fr_energy">   -288.86450154 </i>
    <i name="e_wo_entrp">   -288.86450154 </i>
    <i name="e_0_energy">   -288.86450154 </i>
   </energy>
  </scstep>
  <structure>
   <crystal>
    <varray name="basis" >
     <v>      11.15804723       0.00103233       0.01075451 </v>
     <v>       0.00088421       9.50124069      -0.00129951 </v>
     <v>       0.01075826      -0.00151773      11.15272772 </v>
    </varray>
    <i name="volume">   1182.35855921 </i>
    <varray name="rec_basis" >
     <v>       0.08962150      -0.00000835      -0.00008645 </v>
     <v>      -0.00000975       0.10524942       0.00001433 </v>
     <v>      -0.00008642       0.00001227       0.08966425 </v>
    </varray>
   </crystal>
   <varray name="positions" >
    <v>       0.12305302       0.00085170       0.18892120 </v>
    <v>       0.87732742       0.00058460       0.18470976 </v>
    <v>       0.12329898       0.00055571       0.93659163 </v>
    <v>       0.37338519      -0.00038916       0.93341333 </v>
    <v>       0.12706330       0.99898367       0.68495749 </v>
    <v>       0.37604299       0.00044092       0.68301226 </v>
    <v>       0.36921610      -0.00029893       0.19448794 </v>
    <v>       0.87553238      -0.00093687       0.43514228 </v>
    <v>       0.62793962       0.99839226       0.19536194 </v>
    <v>       0.62945114       0.99891194       0.92771020 </v>
    <v>       0.87155627      -0.00036699       0.69229753 </v>
    <v>       0.00035778       0.29060160       0.06228793 </v>
    <v>       0.24879150       0.69916033       0.06253460 </v>
    <v>       0.24963327       0.29041144       0.31575855 </v>
    <v>       0.49871521       0.70405266       0.31702014 </v>
    <v>       0.49886118       0.31061920       0.06232350 </v>
    <v>       0.75240111       0.69896648       0.06202501 </v>
    <v>       0.74937523       0.30034117       0.31472701 </v>
    <v>       0.00184627       0.70466845       0.31366647 </v>
    <v>       0.00267401       0.30066254       0.56232535 </v>
    <v>       0.25086727       0.71444277       0.56186168 </v>
    <v>       0.24995253       0.29548418       0.81092740 </v>
    <v>       0.49920363       0.70419997       0.80937949 </v>
    <v>       0.49946860       0.28188805       0.56246626 </v>
    <v>       0.74751674       0.70433525       0.56302958 </v>
    <v>       0.74986672       0.29494611       0.81141899 </v>
    <v>       0.00054763       0.70495875       0.81288937 </v>
    <v>       0.25146944       0.32743648       0.06258974 </v>
    <v>      -0.00024462       0.67267171       0.06295891 </v>
    <v>       0.50103842       0.32675004       0.30964168 </v>
    <v>       0.25024589       0.67267659       0.31070298 </v>
    <v>       0.74844505       0.32647327       0.06327259 </v>
    <v>       0.50061262       0.67344571       0.06300701 </v>
    <v>       0.99863454       0.32744741       0.31313427 </v>
    <v>       0.74993432       0.67290443       0.31177469 </v>
    <v>       0.24819304       0.32790954       0.56343219 </v>
    <v>      -0.00150602       0.67241099       0.56284582 </v>
    <v>       0.50039250       0.32719835       0.81596400 </v>
    <v>       0.25001985       0.67209306       0.81479766 </v>
    <v>       0.75212533       0.32709099       0.56241456 </v>
    <v>       0.50121774       0.67228029       0.56290114 </v>
    <v>       0.99956401       0.32745129       0.81248930 </v>
    <v>       0.74986184       0.67299034       0.81390659 </v>
    <v>       0.50224986       0.06633098       0.06398511 </v>
    <v>       0.25337350       0.92642336       0.06402380 </v>
    <v>       0.25228376       0.08122157       0.30415948 </v>
    <v>      -0.00551683       0.92202792       0.31186483 </v>
    <v>       0.00221567       0.08131036       0.06512545 </v>
    <v>       0.74196579       0.92749747       0.06519890 </v>
    <v>       0.75249320       0.07424144       0.30865308 </v>
    <v>       0.50088906       0.92383249       0.30131558 </v>
    <v>       0.49828411       0.08938044       0.56478758 </v>
    <v>       0.24902917       0.91391407       0.56762941 </v>
    <v>       0.25018414       0.07785976       0.81406252 </v>
    <v>       0.00032986       0.92182072       0.80772905 </v>
    <v>       0.99270750       0.07411932       0.56488946 </v>
    <v>       0.75950123       0.92286931       0.56207482 </v>
    <v>       0.74981546       0.07894922       0.81347485 </v>
    <v>       0.50007549       0.92272328       0.81967609 </v>
   </varray>
  </structure>
  <varray name="forces" >
   <v>      -0.25664770       0.11695768       0.30687808 </v>
   <v>       0.28945699       0.03898141      -0.48063804 </v>
   <v>      -0.28162593       0.08447962      -0.02491497 </v>
   <v>      -0.12555957      -0.05135277      -0.18199369 </v>
   <v>       0.23092077      -0.06458517      -0.38482059 </v>
   <v>       0.31228945       0.03901186      -0.58115472 </v>
   <v>       0.09931483      -0.18912512       0.12244500 </v>
   <v>      -0.01191700       0.01391601      -0.13373252 </v>
   <v>       0.18007515       0.02195058       0.35517288 </v>
   <v>       0.26636524      -0.09858437      -0.26571252 </v>
   <v>      -0.34759297      -0.01531215       0.65275174 </v>
   <v>      -0.02317971       0.80391823      -0.09787803 </v>
   <v>       0.06576288       0.07398934      -0.07672255 </v>
   <v>      -0.05291589       0.76742260       0.37688108 </v>
   <v>      -0.07831779       0.13522401       0.28064087 </v>
   <v>      -0.10694289      -0.04021784      -0.04043482 </v>
   <v>       0.03815029       0.28148637      -0.03749231 </v>
   <v>      -0.07128446       0.10117060       0.16250801 </v>
   <v>       0.19306443      -0.27225765       0.17639370 </v>
   <v>       0.18885475      -0.04782200      -0.04060102 </v>
   <v>      -0.02781213      -2.34946164      -0.22972867 </v>
   <v>       0.02881383       0.24427280      -0.10786478 </v>
   <v>      -0.11173456      -0.10535644      -0.14602487 </v>
   <v>       0.08887329       4.04768917      -0.15582526 </v>
   <v>      -0.20767730      -0.01513687      -0.02828333 </v>
   <v>      -0.02269254       0.60738036      -0.11494607 </v>
   <v>       0.11736412      -0.29383371      -0.05670036 </v>
   <v>       0.10435465       0.25828172      -0.00594009 </v>
   <v>      -0.02246600      -0.06665543       0.02622362 </v>
   <v>       0.09757377       0.08890442      -0.35386427 </v>
   <v>       0.06852939      -0.04949231      -0.26880760 </v>
   <v>      -0.12786042       0.13342796       0.02813303 </v>
   <v>       0.06152265      -0.37837806       0.01175706 </v>
   <v>      -0.14127350       0.13248349       0.03994142 </v>
   <v>      -0.01948515      -0.13984566      -0.09133994 </v>
   <v>      -0.24072359       0.12568000       0.07748499 </v>
   <v>      -0.18485691      -0.26852722      -0.02001804 </v>
   <v>       0.08334431       0.14468837       0.32785527 </v>
   <v>       0.00220419      -0.21371970       0.20595537 </v>
   <v>       0.27030635       0.12629975      -0.04757834 </v>
   <v>       0.11735127      -0.05133375       0.01297881 </v>
   <v>      -0.05682399       0.12463087      -0.06197345 </v>
   <v>      -0.01339133      -0.00902246       0.09311812 </v>
   <v>       0.28595515       0.72195915       0.26538790 </v>
   <v>       0.18157328      -0.39288489       0.27654252 </v>
   <v>      -0.14350634      -0.64299374      -0.96000751 </v>
   <v>      -0.75538590       0.10467080      -0.27748628 </v>
   <v>       0.49892694      -0.95156968       0.48261679 </v>
   <v>      -0.80004212      -0.60497309       0.29477884 </v>
   <v>       0.68887709       0.36014015      -0.29020010 </v>
   <v>      -0.16060754      -0.45249897      -1.05598258 </v>
   <v>      -0.48449272      -4.47473696       0.58017043 </v>
   <v>      -0.06121054       2.61889415       1.08001907 </v>
   <v>      -0.03703738      -0.20042627       0.03273466 </v>
   <v>       0.14836163       0.16091710      -0.67735260 </v>
   <v>      -0.98219526       0.41180688       0.45897339 </v>
   <v>       1.33334028      -0.16843178       0.02124693 </v>
   <v>       0.14111260      -0.16432826      -0.09267815 </v>
   <v>      -0.22538041      -0.11777151       0.63910849 </v>
  </varray>
  <varray name="stress" >
   <v>       8.14150314       0.22138842      -1.42522172 </v>
   <v>       0.22138861      12.09827283       0.59664396 </v>
   <v>      -1.42522166       0.59664391       6.66237584 </v>
  </varray>
  <energy>
   <i name="e_fr_energy">   -301.50811093 </i>
   <i name="e_wo_entrp">   -301.50811093 </i>
   <i name="e_0_energy">      0.00000000 </i>
  </energy>
  <time name="totalsc"> 2228.37 2538.04</time>
 </calculation>
 <calculation>
  <scstep>
   <time name="dav">  123.47  135.84</time>
   <time name="total">  125.22  137.59</time>
   <energy>
    <i name="alphaZ">   1072.42779836 </i>
    <i name="ewald"> -30485.92069282 </i>
    <i name="hartreedc"> -12903.93505750 </i>
    <i name="XCdc">   1273.77515966 </i>
    <i name="pawpsdc">  43987.79605677 </i>
    <i name="pawaedc"> -43301.76119825 </i>
    <i name="eentropy">      0.00000000 </i>
    <i name="bandstr">  -3957.29446636 </i>
    <i name="atom">  44026.03258983 </i>
    <i name="e_fr_energy">   -288.87981030 </i>
    <i name="e_wo_entrp">   -288.87981030 </i>
    <i name="e_0_energy">   -288.87981030 </i>
   </energy>
  </scstep>
  <scstep>
   <time name="dav">  168.90  182.60</time>
   <time name="total">  170.42  184.13</time>
   <energy>
    <i name="e_fr_energy">   -288.91129711 </i>
    <i name="e_wo_entrp">   -288.91129711 </i>
    <i name="e_0_energy">   -288.91129711 </i>
   </energy>
  </scstep>
  <scstep>
   <time name="dav">  209.22  234.41</time>
   <time name="total">  211.29  236.91</time>
   <energy>
    <i name="e_fr_energy">   -288.90953656 </i>
    <i name="e_wo_entrp">   -288.90953656 </i>
    <i name="e_0_energy">   -288.90953656 </i>
   </energy>
  </scstep>
  <scstep>
   <time name="dav">  171.33  183.76</time>
   <time name="total">  173.70  186.19</time>
   <energy>
    <i name="e_fr_energy">   -288.90808847 </i>
    <i name="e_wo_entrp">   -288.90808847 </i>
    <i name="e_0_energy">   -288.90808847 </i>
   </energy>
  </scstep>
  <scstep>
   <time name="dav">  225.59  261.51</time>
   <time name="total">  228.09  264.05</time>
   <energy>
    <i name="e_fr_energy">   -288.90793024 </i>
    <i name="e_wo_entrp">   -288.90793024 </i>
    <i name="e_0_energy">   -288.90793024 </i>
   </energy>
  </scstep>
  <scstep>
   <time name="dav">  173.13  204.08</time>
   <time name="total">  174.08  206.54</time>
   <energy>
    <i name="e_fr_energy">   -288.90791042 </i>
    <i name="e_wo_entrp">   -288.90791042 </i>
    <i name="e_0_energy">   -288.90791042 </i>
   </energy>
  </scstep>
  <scstep>
   <time name="dav">  201.02  220.22</time>
   <time name="total">  203.70  223.18</time>
   <energy>
    <i name="e_fr_energy">   -288.90789909 </i>
    <i name="e_wo_entrp">   -288.90789909 </i>
    <i name="e_0_energy">   -288.90789909 </i>
   </energy>
  </scstep>
  <scstep>
   <time name="dav">  143.97  165.05</time>
   <time name="total">  145.58  166.73</time>
   <energy>
    <i name="e_fr_energy">   -288.90789313 </i>
    <i name="e_wo_entrp">   -288.90789313 </i>
    <i name="e_0_energy">   -288.90789313 </i>
   </energy>
  </scstep>
  <scstep>
   <time name="dav">  177.40  198.94</time>
   <time name="total">  179.50  201.04</time>
   <energy>
    <i name="e_fr_energy">   -288.90789175 </i>
    <i name="e_wo_entrp">   -288.90789175 </i>
    <i name="e_0_energy">   -288.90789175 </i>
   </energy>
  </scstep>
  <scstep>
   <time name="dav">  145.92  160.37</time>
   <time name="total">  146.83  161.28</time>
   <energy>
    <i name="alphaZ">   1072.42779836 </i>
    <i name="ewald"> -30485.92069282 </i>
    <i name="hartreedc"> -12913.87008424 </i>
    <i name="XCdc">   1274.19691663 </i>
    <i name="pawpsdc">  43945.31268738 </i>
    <i name="pawaedc"> -43258.81366774 </i>
    <i name="eentropy">      0.00000000 </i>
    <i name="bandstr">  -3948.27343959 </i>
    <i name="atom">  44026.03258983 </i>
    <i name="e_fr_energy">   -288.90789218 </i>
    <i name="e_wo_entrp">   -288.90789218 </i>
    <i name="e_0_energy">   -288.90789218 </i>
   </energy>
  </scstep>
  <structure>
   <crystal>
    <varray name="basis" >
     <v>      11.15998208       0.00093467       0.00973712 </v>
     <v>       0.00080057       9.50818053      -0.00117658 </v>
     <v>       0.00974052      -0.00137415      11.15553474 </v>
    </varray>
    <i name="volume">   1183.72540539 </i>
    <varray name="rec_basis" >
     <v>       0.08960595      -0.00000755      -0.00007824 </v>
     <v>      -0.00000882       0.10517260       0.00001296 </v>
     <v>      -0.00007821       0.00001110       0.08964167 </v>
    </varray>
   </crystal>
   <varray name="positions" >
    <v>       0.12320077       0.00075521       0.18872648 </v>
    <v>       0.87706969       0.00054513       0.18491491 </v>
    <v>       0.12349713       0.00048746       0.93661784 </v>
    <v>       0.37357487      -0.00033582       0.93374103 </v>
    <v>       0.12683061       0.99906536       0.68513913 </v>
    <v>       0.37590683       0.00041516       0.68337830 </v>
    <v>       0.36972799      -0.00025440       0.19376487 </v>
    <v>       0.87551872      -0.00083133       0.43530618 </v>
    <v>       0.62762482       0.99853018       0.19455677 </v>
    <v>       0.62906540       0.99900060       0.92857942 </v>
    <v>       0.87184618      -0.00031591       0.69178244 </v>
    <v>       0.00033611       0.29103903       0.06233753 </v>
    <v>       0.24891829       0.69969891       0.06256067 </v>
    <v>       0.24965594       0.29086694       0.31547985 </v>
    <v>       0.49882503       0.70412478       0.31662165 </v>
    <v>       0.49898150       0.30914831       0.06236936 </v>
    <v>       0.75218575       0.69952359       0.06209974 </v>
    <v>       0.74942233       0.29985007       0.31454602 </v>
    <v>       0.00165905       0.70468195       0.31358636 </v>
    <v>       0.00243290       0.30014087       0.56237149 </v>
    <v>       0.25079738       0.71352449       0.56195159 </v>
    <v>       0.24994453       0.29545616       0.81110692 </v>
    <v>       0.49926647       0.70425817       0.80970578 </v>
    <v>       0.49953115       0.28315614       0.56249895 </v>
    <v>       0.74776442       0.70438048       0.56300851 </v>
    <v>       0.74986691       0.29496939       0.81155188 </v>
    <v>       0.00048342       0.70494458       0.81288285 </v>
    <v>       0.25133489       0.32737297       0.06261549 </v>
    <v>      -0.00021669       0.67272493       0.06294951 </v>
    <v>       0.50093497       0.32675200       0.30994704 </v>
    <v>       0.25021765       0.67272938       0.31090761 </v>
    <v>       0.74859719       0.32650153       0.06323331 </v>
    <v>       0.50055931       0.67342515       0.06299311 </v>
    <v>       0.99875924       0.32738282       0.31310813 </v>
    <v>       0.74993570       0.67293548       0.31187763 </v>
    <v>       0.24836910       0.32780088       0.56337773 </v>
    <v>      -0.00135856       0.67248905       0.56284703 </v>
    <v>       0.50035085       0.32715747       0.81566962 </v>
    <v>       0.25001340       0.67220141       0.81461389 </v>
    <v>       0.75192861       0.32706041       0.56245699 </v>
    <v>       0.50110707       0.67237084       0.56289735 </v>
    <v>       0.99960056       0.32738634       0.81252442 </v>
    <v>       0.74987029       0.67301317       0.81380731 </v>
    <v>       0.50202436       0.06744150       0.06384080 </v>
    <v>       0.25304163       0.92600360       0.06387574 </v>
    <v>       0.25207891       0.08091269       0.30494696 </v>
    <v>      -0.00498172       0.92202711       0.31192077 </v>
    <v>       0.00199363       0.08099286       0.06487280 </v>
    <v>       0.74271519       0.92697517       0.06493833 </v>
    <v>       0.75226886       0.07459793       0.30901443 </v>
    <v>       0.50081611       0.92365988       0.30237270 </v>
    <v>       0.49843471       0.08829357       0.56456653 </v>
    <v>       0.24910927       0.91468673       0.56713909 </v>
    <v>       0.25017915       0.07787120       0.81391053 </v>
    <v>       0.00031048       0.92183979       0.80817781 </v>
    <v>       0.99338651       0.07448725       0.56465841 </v>
    <v>       0.75858841       0.92278845       0.56211222 </v>
    <v>       0.74984537       0.07885681       0.81337855 </v>
    <v>       0.50008133       0.92265613       0.81899162 </v>
   </varray>
  </structure>
  <varray name="forces" >
   <v>      -0.26559535       0.12527224       0.32351871 </v>
   <v>       0.32243636       0.04333704      -0.48225074 </v>
   <v>      -0.30071001       0.08992441      -0.02862408 </v>
   <v>      -0.15535200      -0.05673223      -0.24045018 </v>
   <v>       0.26464255      -0.07682441      -0.39315961 </v>
   <v>       0.31641868       0.04197687      -0.61356856 </v>
   <v>      -0.04279203      -0.15923392       0.29952191 </v>
   <v>      -0.00720410      -0.01167749      -0.15506086 </v>
   <v>       0.22389258      -0.00991037       0.51331712 </v>
   <v>       0.32812154      -0.09949044      -0.44361595 </v>
   <v>      -0.38273494      -0.02316302       0.70912200 </v>
   <v>      -0.01405024       0.60560000      -0.09778321 </v>
   <v>       0.03076356      -0.02057441      -0.07641363 </v>
   <v>      -0.05099039       0.57649518       0.39918261 </v>
   <v>      -0.09683132       0.10684665       0.34956177 </v>
   <v>      -0.12506497       0.13681022      -0.04807568 </v>
   <v>       0.08557248       0.16984350      -0.05276506 </v>
   <v>      -0.07512332       0.17367943       0.19120524 </v>
   <v>       0.21789885      -0.24947625       0.17878052 </v>
   <v>       0.23146946       0.04278701      -0.04822131 </v>
   <v>      -0.01280972      -1.76259155      -0.21056017 </v>
   <v>       0.02779042       0.22392730      -0.14136949 </v>
   <v>      -0.11590448      -0.10743838      -0.20893612 </v>
   <v>       0.05745445       3.00101031      -0.13219667 </v>
   <v>      -0.24881846      -0.02508822      -0.02059313 </v>
   <v>      -0.02062067       0.54000840      -0.13548238 </v>
   <v>       0.12128209      -0.26204819      -0.05072582 </v>
   <v>       0.12779139       0.24695233      -0.01088832 </v>
   <v>      -0.02713401      -0.07106075       0.02577539 </v>
   <v>       0.11252819       0.08289244      -0.39586880 </v>
   <v>       0.06795737      -0.05647904      -0.29206922 </v>
   <v>      -0.15204197       0.11721517       0.03480615 </v>
   <v>       0.06846402      -0.34257141       0.01421752 </v>
   <v>      -0.15769097       0.13294222       0.04276856 </v>
   <v>      -0.01728572      -0.13299281      -0.10726901 </v>
   <v>      -0.26362216       0.13742099       0.08227938 </v>
   <v>      -0.20195295      -0.25941929      -0.01853438 </v>
   <v>       0.08539378       0.14164964       0.37066838 </v>
   <v>       0.00299935      -0.21593429       0.23092742 </v>
   <v>       0.29182439       0.12206855      -0.05335143 </v>
   <v>       0.13431510      -0.06506256       0.01199909 </v>
   <v>      -0.06019546       0.12596291      -0.06434413 </v>
   <v>      -0.01359630      -0.01334158       0.10831024 </v>
   <v>       0.31381448       0.53750691       0.27827526 </v>
   <v>       0.24357217      -0.28992283       0.28670682 </v>
   <v>      -0.05863453      -0.51459271      -1.06716269 </v>
   <v>      -0.81167975       0.09795382      -0.26171220 </v>
   <v>       0.50152498      -0.76408016       0.49297209 </v>
   <v>      -0.90482858      -0.46667041       0.33436417 </v>
   <v>       0.66655994       0.26423923      -0.35686485 </v>
   <v>      -0.11577008      -0.36056950      -1.22160147 </v>
   <v>      -0.46521134      -3.43038147       0.56162077 </v>
   <v>      -0.07124128       2.03977095       1.07463139 </v>
   <v>      -0.03234399      -0.18167134       0.06630589 </v>
   <v>       0.13627897       0.14230915      -0.71837112 </v>
   <v>      -1.05274280       0.31306105       0.46983588 </v>
   <v>       1.42608228      -0.12957828       0.00822810 </v>
   <v>       0.11395081      -0.13314333      -0.05508473 </v>
   <v>      -0.20022634      -0.08774327       0.74407263 </v>
  </varray>
  <varray name="stress" >
   <v>       6.86748557       0.22313388      -1.10484759 </v>
   <v>       0.22313386       7.90207233       0.47797561 </v>
   <v>      -1.10484745       0.47797598       5.42006173 </v>
  </varray>
  <energy>
   <i name="e_fr_energy">   -301.53911294 </i>
   <i name="e_wo_entrp">   -301.53911294 </i>
   <i name="e_0_energy">      0.00000000 </i>
  </energy>
  <time name="totalsc"> 1863.38 2084.36</time>
 </calculation>
 <calculation>
  <scstep>
   <time name="dav">  162.91  185.18</time>
   <time name="total">  166.50  188.77</time>
   <energy>
    <i name="alphaZ">   1065.40362707 </i>
    <i name="ewald"> -30518.71201523 </i>
    <i name="hartreedc"> -12790.73025390 </i>
    <i name="XCdc">   1269.82752321 </i>
    <i name="pawpsdc">  43945.36846727 </i>
    <i name="pawaedc"> -43258.86913266 </i>
    <i name="eentropy">      0.00000000 </i>
    <i name="bandstr">  -4025.95187474 </i>
    <i name="atom">  44026.03258983 </i>
    <i name="e_fr_energy">   -287.63106916 </i>
    <i name="e_wo_entrp">   -287.63106916 </i>
    <i name="e_0_energy">   -287.63106916 </i>
   </energy>
  </scstep>
  <scstep>
   <time name="dav">  166.08  201.61</time>
   <time name="total">  167.66  203.92</time>
   <energy>
    <i name="e_fr_energy">   -289.95216362 </i>
    <i name="e_wo_entrp">   -289.95216362 </i>
    <i name="e_0_energy">   -289.95216362 </i>
   </energy>
  </scstep>
  <scstep>
   <time name="dav">  212.59  263.61</time>
   <time name="total">  214.01  265.88</time>
   <energy>
    <i name="e_fr_energy">   -289.88042327 </i>
    <i name="e_wo_entrp">   -289.88042327 </i>
    <i name="e_0_energy">   -289.88042327 </i>
   </energy>
  </scstep>
  <scstep>
   <time name="dav">  149.74  166.66</time>
   <time name="total">  150.94  169.49</time>
   <energy>
    <i name="e_fr_energy">   -289.84088996 </i>
    <i name="e_wo_entrp">   -289.84088996 </i>
    <i name="e_0_energy">   -289.84088996 </i>
   </energy>
  </scstep>
  <scstep>
   <time name="dav">  189.38  212.71</time>
   <time name="total">  191.45  214.80</time>
   <energy>
    <i name="e_fr_energy">   -289.81304229 </i>
    <i name="e_wo_entrp">   -289.81304229 </i>
    <i name="e_0_energy">   -289.81304229 </i>
   </energy>
  </scstep>
  <scstep>
   <time name="dav">  179.14  209.93</time>
   <time name="total">  180.91  212.51</time>
   <energy>
    <i name="e_fr_energy">   -289.80846647 </i>
    <i name="e_wo_entrp">   -289.80846647 </i>
    <i name="e_0_energy">   -289.80846647 </i>
   </energy>
  </scstep>
  <scstep>
   <time name="dav">  130.01  152.90</time>
   <time name="total">  131.31  154.73</time>
   <energy>
    <i name="e_fr_energy">   -289.80872488 </i>
    <i name="e_wo_entrp">   -289.80872488 </i>
    <i name="e_0_energy">   -289.80872488 </i>
   </energy>
  </scstep>
  <scstep>
   <time name="dav">  159.64  172.82</time>
   <time name="total">  160.73  175.36</time>
   <energy>
    <i name="e_fr_energy">   -289.80862825 </i>
    <i name="e_wo_entrp">   -289.80862825 </i>
    <i name="e_0_energy">   -289.80862825 </i>
   </energy>
  </scstep>
  <scstep>
   <time name="dav">  254.74  305.51</time>
   <time name="total">  257.36  308.65</time>
   <energy>
    <i name="e_fr_energy">   -289.80861810 </i>
    <i name="e_wo_entrp">   -289.80861810 </i>
    <i name="e_0_energy">   -289.80861810 </i>
   </energy>
  </scstep>
  <scstep>
   <time name="dav">  186.71  213.48</time>
   <time name="total">  188.61  216.59</time>
   <energy>
    <i name="e_fr_energy">   -289.80862244 </i>
    <i name="e_wo_entrp">   -289.80862244 </i>
    <i name="e_0_energy">   -289.80862244 </i>
   </energy>
  </scstep>
  <scstep>
   <time name="dav">  210.51  257.72</time>
   <time name="total">  211.29  259.69</time>
   <energy>
    <i name="e_fr_energy">   -289.80862459 </i>
    <i name="e_wo_entrp">   -289.80862459 </i>
    <i name="e_0_energy">   -289.80862459 </i>
   </energy>
  </scstep>
  <scstep>
   <time name="dav">  134.30  148.03</time>
   <time name="total">  136.68  150.45</time>
   <energy>
    <i name="e_fr_energy">   -289.80862758 </i>
    <i name="e_wo_entrp">   -289.80862758 </i>
    <i name="e_0_energy">   -289.80862758 </i>
   </energy>
  </scstep>
  <scstep>
   <time name="dav">  123.03  138.06</time>
   <time name="total">  125.58  140.66</time>
   <energy>
    <i name="e_fr_energy">   -289.80862912 </i>
    <i name="e_wo_entrp">   -289.80862912 </i>
    <i name="e_0_energy">   -289.80862912 </i>
   </energy>
  </scstep>
  <scstep>
   <time name="dav">  112.49  123.75</time>
   <time name="total">  113.39  124.64</time>
   <energy>
    <i name="alphaZ">   1065.40362707 </i>
    <i name="ewald"> -30518.71201523 </i>
    <i name="hartreedc"> -12849.58454180 </i>
    <i name="XCdc">   1272.56822571 </i>
    <i name="pawpsdc">  43630.29258868 </i>
    <i name="pawaedc"> -42939.22732001 </i>
    <i name="eentropy">      0.00000000 </i>
    <i name="bandstr">  -3976.58178397 </i>
    <i name="atom">  44026.03258983 </i>
    <i name="e_fr_energy">   -289.80862973 </i>
    <i name="e_wo_entrp">   -289.80862973 </i>
    <i name="e_0_energy">   -289.80862973 </i>
   </energy>
  </scstep>
  <structure>
   <crystal>
    <varray name="basis" >
     <v>      11.19634802       0.00287103       0.00721113 </v>
     <v>       0.00245032       9.52040149       0.00094206 </v>
     <v>       0.00722702       0.00111450      11.17823979 </v>
    </varray>
    <i name="volume">   1191.52966831 </i>
    <varray name="rec_basis" >
     <v>       0.08931488      -0.00002298      -0.00005774 </v>
     <v>      -0.00002693       0.10503760      -0.00001046 </v>
     <v>      -0.00005762      -0.00000884       0.08945956 </v>
    </varray>
   </crystal>
   <varray name="positions" >
    <v>       0.12138062       0.00183113       0.19101271 </v>
    <v>       0.87964695       0.00094533       0.18190624 </v>
    <v>       0.12129304       0.00125491       0.93637464 </v>
    <v>       0.37202765      -0.00086817       0.93118540 </v>
    <v>       0.12904510       0.99829991       0.68261878 </v>
    <v>       0.37788912       0.00074429       0.67905834 </v>
    <v>       0.36714629      -0.00125554       0.19842458 </v>
    <v>       0.87555271      -0.00138400       0.43388010 </v>
    <v>       0.63004838       0.99783489       0.20050778 </v>
    <v>       0.63226638       0.99808970       0.92262214 </v>
    <v>       0.86886167      -0.00066996       0.69720658 </v>
    <v>       0.00037821       0.29200427       0.06169062 </v>
    <v>       0.24845471       0.69707328       0.06211416 </v>
    <v>       0.24933185       0.29160295       0.31848025 </v>
    <v>       0.49789842       0.70431898       0.31997287 </v>
    <v>       0.49788725       0.31672019       0.06195086 </v>
    <v>       0.75355823       0.69775905       0.06152550 </v>
    <v>       0.74888226       0.30301546       0.31620587 </v>
    <v>       0.00346022       0.70337687       0.31471949 </v>
    <v>       0.00454491       0.30279767       0.56194987 </v>
    <v>       0.25107205       0.70905251       0.56063593 </v>
    <v>       0.25010022       0.29670199       0.80966572 </v>
    <v>       0.49848105       0.70345065       0.80729035 </v>
    <v>       0.49948097       0.29215373       0.56178625 </v>
    <v>       0.74554826       0.70404378       0.56302066 </v>
    <v>       0.74977886       0.29754836       0.81035455 </v>
    <v>       0.00129907       0.70370648       0.81269763 </v>
    <v>       0.25250748       0.32889977       0.06244828 </v>
    <v>      -0.00046275       0.67212191       0.06310299 </v>
    <v>       0.50189842       0.32715517       0.30683588 </v>
    <v>       0.25063926       0.67220073       0.30870906 </v>
    <v>       0.74723906       0.32695266       0.06356565 </v>
    <v>       0.50109962       0.67181620       0.06311815 </v>
    <v>       0.99750574       0.32834728       0.31341272 </v>
    <v>       0.74985631       0.67212794       0.31094000 </v>
    <v>       0.24642550       0.32899415       0.56398302 </v>
    <v>      -0.00290612       0.67083207       0.56276327 </v>
    <v>       0.50090695       0.32805425       0.81862185 </v>
    <v>       0.25005566       0.67061903       0.81645489 </v>
    <v>       0.75408852       0.32781113       0.56203080 </v>
    <v>       0.50219546       0.67162273       0.56296552 </v>
    <v>       0.99917411       0.32831760       0.81208709 </v>
[...]
    <v>       0.00384260       0.33726294       0.82107847 </v>
    <v>       0.75664967       0.66972595       0.82108772 </v>
    <v>       0.53452032       0.09354100       0.08927683 </v>
    <v>       0.28618297       0.90435289       0.06479692 </v>
    <v>       0.26508812       0.09802885       0.27214381 </v>
    <v>      -0.02104040       0.91871989       0.30337058 </v>
    <v>       0.03126290       0.07980528       0.06359789 </v>
    <v>       0.73914046       0.91161592       0.07790532 </v>
    <v>       0.75686283       0.09480356       0.31757180 </v>
    <v>       0.50660554       0.90055720       0.27421974 </v>
    <v>       0.48669229       0.08330236       0.57645951 </v>
    <v>       0.21422009       0.89281338       0.56385938 </v>
    <v>       0.23484977       0.08832408       0.82793401 </v>
    <v>      -0.00724420       0.91589600       0.77806826 </v>
    <v>       0.95643781       0.09080104       0.56823079 </v>
    <v>       0.78880252       0.89573061       0.56098461 </v>
    <v>       0.74834775       0.09242934       0.82637193 </v>
    <v>       0.50385598       0.90612495       0.87476836 </v>
   </varray>
  </structure>
  <varray name="forces" >
   <v>      -0.01780802      -0.00703729       0.03624920 </v>
   <v>       0.00574540       0.01778738       0.03422302 </v>
   <v>      -0.10038749      -0.03436683       0.10174441 </v>
   <v>       0.01204884       0.00216058      -0.01256490 </v>
   <v>       0.09530829       0.06917241       0.05014583 </v>
   <v>       0.14871065      -0.20768464      -0.09458462 </v>
   <v>       0.02923305       0.00482002       0.01645069 </v>
   <v>       0.07304939      -0.03029266       0.06600515 </v>
   <v>      -0.03796414      -0.03765212       0.02838184 </v>
   <v>      -0.10599661      -0.04456328       0.00685489 </v>
   <v>      -0.02501540      -0.01748847      -0.01322202 </v>
   <v>      -0.03415003      -0.01500377       0.02403625 </v>
   <v>       0.03832923       0.08678959      -0.00995597 </v>
   <v>      -0.00620332      -0.01821038      -0.03460927 </v>
   <v>       0.04379470       0.04341360      -0.06670172 </v>
   <v>       0.00511300      -0.03302776       0.00304292 </v>
   <v>      -0.01035347       0.09416698       0.01233017 </v>
   <v>      -0.01089621      -0.10150453      -0.01844611 </v>
   <v>       0.01004419      -0.02154760       0.03555687 </v>
   <v>      -0.00532291       0.05032102       0.00335129 </v>
   <v>       0.00881644       0.12138766       0.00946653 </v>
   <v>      -0.01439434      -0.10757341      -0.01631387 </v>
   <v>       0.01071918       0.15770844       0.06020325 </v>
   <v>      -0.05957108      -0.23200516      -0.00881650 </v>
   <v>       0.02296131       0.06690601      -0.05025685 </v>
   <v>       0.01715760       0.02536169       0.01268646 </v>
   <v>      -0.03180911       0.10074143       0.01154771 </v>
   <v>       0.00749929      -0.00148976      -0.07571802 </v>
   <v>      -0.00298716      -0.00720226       0.02532046 </v>
   <v>       0.00696310      -0.05605151      -0.00902186 </v>
   <v>      -0.00980919      -0.00729570      -0.01639019 </v>
   <v>      -0.00709087       0.02850223      -0.04102516 </v>
   <v>       0.00304588      -0.02656737      -0.00390233 </v>
   <v>       0.01372143      -0.01873677      -0.00013679 </v>
   <v>       0.00053867      -0.02106411       0.00906452 </v>
   <v>      -0.03065972      -0.02841838      -0.05838677 </v>
   <v>      -0.03345614      -0.00733381      -0.02077913 </v>
   <v>      -0.01540309      -0.00965633      -0.02834429 </v>
   <v>       0.01170079      -0.04824570      -0.03669850 </v>
   <v>      -0.01265768       0.02980179       0.01740108 </v>
   <v>       0.01158890      -0.02228647      -0.01014747 </v>
   <v>      -0.01208347       0.03527561      -0.01123677 </v>
   <v>      -0.04085526       0.01158743      -0.00684498 </v>
   <v>      -0.01574054       0.08095524      -0.01133123 </v>
   <v>      -0.00154173      -0.08823266       0.03901209 </v>
   <v>      -0.00174841       0.08041097       0.09419736 </v>
   <v>       0.00865440       0.00934933       0.03031697 </v>
   <v>      -0.05889567       0.03773950       0.03201165 </v>
   <v>       0.01301607      -0.11064776      -0.05311668 </v>
   <v>      -0.00552170       0.15809596       0.00466014 </v>
   <v>       0.00870211       0.01792022       0.01591367 </v>
   <v>      -0.05402895       0.17853329      -0.07868736 </v>
   <v>       0.12587694       0.04128517      -0.00978638 </v>
   <v>       0.00858621       0.13297815       0.10716859 </v>
   <v>       0.01519727      -0.11426311       0.02791564 </v>
   <v>       0.00486012      -0.02986715       0.02049494 </v>
   <v>       0.00392348      -0.03738804       0.00756110 </v>
   <v>       0.00046967      -0.05692439      -0.03418900 </v>
   <v>      -0.00302392      -0.08354250      -0.11209997 </v>
  </varray>
  <varray name="stress" >
   <v>      -0.18788470      -1.01946143       0.09246139 </v>
   <v>      -1.01946150      -2.92489222      -0.61929948 </v>
   <v>       0.09246132      -0.61929936       0.59352709 </v>
  </varray>
  <energy>
   <i name="e_fr_energy">   -304.42303590 </i>
   <i name="e_wo_entrp">   -304.42303590 </i>
   <i name="e_0_energy">      0.00000000 </i>
  </energy>
  <time name="totalsc"> 1996.95 2240.91</time>
 </calculation>
 <calculation>
  <scstep>
   <time name="dav">  117.48  127.10</time>
   <time name="total">  118.85  128.54</time>
   <energy>
    <i name="alphaZ">   1050.39545404 </i>
    <i name="ewald"> -30059.76479996 </i>
    <i name="hartreedc"> -13251.92762648 </i>
    <i name="XCdc">   1274.39868202 </i>
    <i name="pawpsdc">  43661.66428219 </i>
    <i name="pawaedc"> -42969.91651953 </i>
    <i name="eentropy">      0.00000000 </i>
    <i name="bandstr">  -4022.38533094 </i>
    <i name="atom">  44026.03258983 </i>
    <i name="e_fr_energy">   -291.50326885 </i>
    <i name="e_wo_entrp">   -291.50326885 </i>
    <i name="e_0_energy">   -291.50326885 </i>
   </energy>
  </scstep>
  <scstep>
   <time name="dav">  152.73  166.91</time>
   <time name="total">  155.04  169.37</time>
   <energy>
    <i name="e_fr_energy">   -291.62852141 </i>
    <i name="e_wo_entrp">   -291.62852141 </i>
    <i name="e_0_energy">   -291.62852141 </i>
   </energy>
  </scstep>
  <scstep>
   <time name="dav">  211.71  237.86</time>
   <time name="total">  214.27  240.62</time>
   <energy>
    <i name="e_fr_energy">   -291.64416780 </i>
    <i name="e_wo_entrp">   -291.64416780 </i>
    <i name="e_0_energy">   -291.64416780 </i>
   </energy>
  </scstep>
  <scstep>
   <time name="dav">  152.49  175.68</time>
   <time name="total">  154.88  178.13</time>
   <energy>
    <i name="e_fr_energy">   -291.64311571 </i>
    <i name="e_wo_entrp">   -291.64311571 </i>
    <i name="e_0_energy">   -291.64311571 </i>
   </energy>
  </scstep>
  <scstep>
   <time name="dav">  148.40  164.40</time>
   <time name="total">  149.51  165.65</time>
   <energy>
    <i name="e_fr_energy">   -291.64205738 </i>
    <i name="e_wo_entrp">   -291.64205738 </i>
    <i name="e_0_energy">   -291.64205738 </i>
   </energy>
  </scstep>
  <scstep>
   <time name="dav">  180.89  202.45</time>
   <time name="total">  182.65  204.21</time>
   <energy>
    <i name="e_fr_energy">   -291.64210874 </i>
    <i name="e_wo_entrp">   -291.64210874 </i>
    <i name="e_0_energy">   -291.64210874 </i>
   </energy>
  </scstep>
  <scstep>
   <time name="dav">  175.59  200.00</time>
   <time name="total">  177.82  202.32</time>
   <energy>
    <i name="e_fr_energy">   -291.64211196 </i>
    <i name="e_wo_entrp">   -291.64211196 </i>
    <i name="e_0_energy">   -291.64211196 </i>
   </energy>
  </scstep>
  <scstep>
   <time name="dav">  204.76  234.66</time>
   <time name="total">  207.33  237.25</time>
   <energy>
    <i name="e_fr_energy">   -291.64211112 </i>
    <i name="e_wo_entrp">   -291.64211112 </i>
    <i name="e_0_energy">   -291.64211112 </i>
   </energy>
  </scstep>
  <scstep>
   <time name="dav">  215.66  240.00</time>
   <time name="total">  216.68  242.55</time>
   <energy>
    <i name="e_fr_energy">   -291.64211133 </i>
    <i name="e_wo_entrp">   -291.64211133 </i>
    <i name="e_0_energy">   -291.64211133 </i>
   </energy>
  </scstep>
  <scstep>
   <time name="dav">  176.19  202.76</time>
   <time name="total">  178.64  205.23</time>
   <energy>
    <i name="e_fr_energy">   -291.64211265 </i>
    <i name="e_wo_entrp">   -291.64211265 </i>
    <i name="e_0_energy">   -291.64211265 </i>
   </energy>
  </scstep>
  <scstep>
   <time name="dav">  138.51  161.77</time>
   <time name="total">  138.58  162.83</time>
   <energy>
    <i name="alphaZ">   1050.39545404 </i>
    <i name="ewald"> -30059.76479996 </i>
    <i name="hartreedc"> -13247.53287337 </i>
    <i name="XCdc">   1274.20801262 </i>
    <i name="pawpsdc">  43672.63221566 </i>
    <i name="pawaedc"> -42981.00179987 </i>
    <i name="eentropy">      0.00000000 </i>
    <i name="bandstr">  -4026.61091149 </i>
    <i name="atom">  44026.03258983 </i>
    <i name="e_fr_energy">   -291.64211255 </i>
    <i name="e_wo_entrp">   -291.64211255 </i>
    <i name="e_0_energy">   -291.64211255 </i>
   </energy>
  </scstep>
  <structure>
   <crystal>
    <varray name="basis" >
     <v>      11.26110971       0.04380637       0.03611809 </v>
     <v>       0.03669684       9.55732829       0.02073023 </v>
     <v>       0.03608116       0.02548678      11.22953003 </v>
    </varray>
    <i name="volume">   1208.55438348 </i>
    <varray name="rec_basis" >
     <v>       0.08880343      -0.00034036      -0.00028456 </v>
     <v>      -0.00040627       0.10463382      -0.00023617 </v>
     <v>      -0.00028487      -0.00019206       0.08905227 </v>
    </varray>
   </crystal>
   <varray name="positions" >
    <v>       0.12031329       0.01707327       0.21916545 </v>
    <v>       0.90997304      -0.03723018       0.12574810 </v>
    <v>       0.08549445       0.03157924       0.88832848 </v>
    <v>       0.33942360      -0.03307773       0.90860473 </v>
    <v>       0.08064812      -0.03174910       0.63053171 </v>
    <v>       0.32901961       0.02924628       0.56936630 </v>
    <v>       0.38715691       0.00119698       0.17742650 </v>
    <v>       0.86963851       0.00155706       0.42882002 </v>
    <v>       0.64502839       0.00024474       0.21175503 </v>
    <v>       0.63576120       0.00460124       0.94640282 </v>
    <v>       0.84892234       0.00021470       0.70000248 </v>
    <v>       0.01375443       0.29366279       0.06637388 </v>
    <v>       0.25680136       0.69081590       0.06667537 </v>
    <v>       0.25796822       0.30677673       0.31321867 </v>
    <v>       0.49748167       0.69201144       0.32310880 </v>
    <v>       0.50930215       0.32208885       0.07363757 </v>
    <v>       0.75092563       0.68610877       0.06815154 </v>
    <v>       0.75480614       0.31691638       0.32091538 </v>
    <v>       0.00113056       0.70199446       0.31375975 </v>
    <v>       0.00006216       0.30774442       0.56654655 </v>
    <v>       0.24885107       0.68579886       0.56672821 </v>
    <v>       0.25265637       0.29816367       0.81721875 </v>
    <v>       0.50124878       0.70110789       0.82135717 </v>
    <v>       0.50250272       0.28812336       0.57403609 </v>
    <v>       0.74552150       0.68569606       0.56703168 </v>
    <v>       0.75053709       0.31250535       0.82048669 </v>
    <v>       0.00331599       0.70011835       0.80851722 </v>
    <v>       0.25290262       0.35845023       0.06725839 </v>
    <v>      -0.00020295       0.68989032       0.06975442 </v>
    <v>       0.50412350       0.35196324       0.32242210 </v>
    <v>       0.25296147       0.66232607       0.31830423 </v>
    <v>       0.75507773       0.34862119       0.07175605 </v>
    <v>       0.50554337       0.63184833       0.07293869 </v>
    <v>       0.00196802       0.33914941       0.31945645 </v>
    <v>       0.75362253       0.65718651       0.31941675 </v>
    <v>       0.24680413       0.30151012       0.56697889 </v>
    <v>       0.00243024       0.63278039       0.57117121 </v>
    <v>       0.50744343       0.34032876       0.82770748 </v>
    <v>       0.25483624       0.67630060       0.82219423 </v>
    <v>       0.75118113       0.34697586       0.57182115 </v>
    <v>       0.50260181       0.71520534       0.57149643 </v>
    <v>       0.00393363       0.33737117       0.82102017 </v>
    <v>       0.75661662       0.67001841       0.82087071 </v>
    <v>       0.53396409       0.09374912       0.08881752 </v>
    <v>       0.28574967       0.90436725       0.06491416 </v>
    <v>       0.26444563       0.09776841       0.27217123 </v>
    <v>      -0.02087816       0.91895085       0.30295427 </v>
    <v>       0.03058896       0.08036238       0.06344445 </v>
    <v>       0.73883532       0.91162452       0.07741294 </v>
    <v>       0.75734315       0.09533635       0.31680658 </v>
    <v>       0.50667434       0.90083249       0.27414250 </v>
    <v>       0.48730846       0.08289398       0.57723048 </v>
    <v>       0.21505523       0.89267745       0.56539858 </v>
    <v>       0.23517785       0.08787595       0.82687203 </v>
    <v>      -0.00724428       0.91612970       0.77806351 </v>
    <v>       0.95663163       0.09095044       0.56821802 </v>
    <v>       0.78885099       0.89595662       0.56045418 </v>
    <v>       0.74795503       0.09207597       0.82597415 </v>
    <v>       0.50328324       0.90545281       0.87437312 </v>
   </varray>
  </structure>
  <varray name="forces" >
   <v>      -0.01339316      -0.01370955       0.03912892 </v>
   <v>       0.00833162       0.01188052       0.03011417 </v>
   <v>      -0.07830994      -0.02928414       0.08522053 </v>
   <v>       0.00931704      -0.00386993       0.01676252 </v>
   <v>       0.07193612       0.07067833       0.06042923 </v>
   <v>       0.13366052      -0.16152271      -0.12864426 </v>
   <v>       0.00951017       0.01735058       0.03630828 </v>
   <v>       0.07605792      -0.03290286       0.06743862 </v>
   <v>      -0.01783382      -0.03041245      -0.00090563 </v>
   <v>      -0.08686576      -0.01821712      -0.00881726 </v>
   <v>      -0.03532352       0.00838908       0.01456447 </v>
   <v>      -0.03461845       0.02224526       0.01281425 </v>
   <v>       0.02882024       0.05642423      -0.01956516 </v>
   <v>      -0.00625088       0.00547638      -0.02586778 </v>
   <v>       0.03595165      -0.00886636      -0.04580728 </v>
   <v>       0.00754355       0.00089939      -0.01786882 </v>
   <v>      -0.00078833       0.03741862       0.00054809 </v>
   <v>      -0.00952107      -0.03533221      -0.01893140 </v>
   <v>       0.01590969      -0.03001411       0.02698442 </v>
   <v>       0.00183172       0.04331803       0.01094231 </v>
   <v>       0.00530149       0.09979552       0.01512886 </v>
   <v>      -0.00104652      -0.02352863      -0.01925884 </v>
   <v>      -0.00041077       0.08359010       0.03078303 </v>
   <v>      -0.04391338      -0.13338688       0.00630793 </v>
   <v>       0.00807118       0.01459505      -0.03635611 </v>
   <v>       0.01097594       0.01843802       0.01636167 </v>
   <v>      -0.02338103       0.04286632       0.02779257 </v>
   <v>       0.00723044      -0.00661378      -0.06325964 </v>
   <v>      -0.00878494      -0.00501925       0.02952052 </v>
   <v>       0.00622013      -0.05409319      -0.00972963 </v>
   <v>      -0.01259139      -0.00384981      -0.01100455 </v>
   <v>      -0.01225890       0.02129137      -0.02630194 </v>
   <v>       0.00576634      -0.01829097       0.00461006 </v>
   <v>       0.01188827      -0.01983673       0.00129977 </v>
   <v>       0.00394269      -0.01210509       0.00111566 </v>
   <v>      -0.02550730      -0.03950382      -0.05202227 </v>
   <v>      -0.02805428       0.00215405      -0.02380313 </v>
   <v>      -0.01919752      -0.00877189      -0.02575706 </v>
   <v>       0.01087476      -0.03920156      -0.03683469 </v>
   <v>      -0.00742006       0.02215145       0.00573919 </v>
   <v>       0.00424082      -0.01899177      -0.01944317 </v>
   <v>      -0.00884785       0.02937131      -0.01210633 </v>
   <v>      -0.03804011       0.01474031      -0.00213586 </v>
   <v>       0.00118039       0.02440241       0.00772097 </v>
   <v>       0.00217925      -0.06424568       0.02296996 </v>
   <v>       0.01656127       0.04635861       0.05852251 </v>
   <v>      -0.00762654       0.02082315       0.03590402 </v>
   <v>      -0.04812813       0.00552472       0.03163047 </v>
   <v>      -0.00527958      -0.05061640      -0.02079129 </v>
   <v>      -0.01311054       0.08298990       0.00599321 </v>
   <v>       0.00329331       0.05672579       0.00428965 </v>
   <v>      -0.03444732       0.09869752      -0.06549049 </v>
   <v>       0.10628916       0.01899351      -0.01284042 </v>
   <v>      -0.01994168       0.05233678       0.11017532 </v>
   <v>       0.01919108      -0.06790727       0.01288470 </v>
   <v>       0.00395785      -0.03022568       0.00716159 </v>
   <v>       0.01222652       0.00501134      -0.00839848 </v>
   <v>       0.00469753      -0.06262479      -0.03678378 </v>
   <v>      -0.00206588      -0.01199303      -0.08844222 </v>
  </varray>
  <varray name="stress" >
   <v>      -0.13903667      -0.71054659       0.25044128 </v>
   <v>      -0.71054626      -1.02582596      -0.55669035 </v>
   <v>       0.25044148      -0.55669036       0.60636061 </v>
  </varray>
  <energy>
   <i name="e_fr_energy">   -304.42594932 </i>
   <i name="e_wo_entrp">   -304.42594932 </i>
   <i name="e_0_energy">      0.00000000 </i>
  </energy>
  <time name="totalsc"> 1994.21 2254.60</time>
 </calculation>
 <calculation>
  <scstep>
   <time name="dav">  152.18  175.86</time>
   <time name="total">  154.16  177.89</time>
   <energy>
    <i name="alphaZ">   1050.35094457 </i>
    <i name="ewald"> -30057.77540879 </i>
    <i name="hartreedc"> -13248.59855446 </i>
    <i name="XCdc">   1274.19917723 </i>
    <i name="pawpsdc">  43672.54682781 </i>
    <i name="pawaedc"> -42980.91752354 </i>
    <i name="eentropy">      0.00000000 </i>
    <i name="bandstr">  -4027.46623227 </i>
    <i name="atom">  44026.03258983 </i>
    <i name="e_fr_energy">   -291.62817963 </i>
    <i name="e_wo_entrp">   -291.62817963 </i>
    <i name="e_0_energy">   -291.62817963 </i>
   </energy>
  </scstep>
  <scstep>
   <time name="dav">  146.95  171.06</time>
   <time name="total">  148.94  173.12</time>
   <energy>
    <i name="e_fr_energy">   -291.64203162 </i>
    <i name="e_wo_entrp">   -291.64203162 </i>
    <i name="e_0_energy">   -291.64203162 </i>
   </energy>
  </scstep>
  <scstep>
   <time name="dav">  176.63  208.39</time>
   <time name="total">  177.88  210.23</time>
   <energy>
    <i name="e_fr_energy">   -291.64277458 </i>
    <i name="e_wo_entrp">   -291.64277458 </i>
    <i name="e_0_energy">   -291.64277458 </i>
   </energy>
  </scstep>
  <scstep>
   <time name="dav">  154.30  175.32</time>
   <time name="total">  155.42  177.60</time>
   <energy>
    <i name="e_fr_energy">   -291.64262223 </i>
    <i name="e_wo_entrp">   -291.64262223 </i>
    <i name="e_0_energy">   -291.64262223 </i>
   </energy>
  </scstep>
  <scstep>
   <time name="dav">  180.75  195.43</time>
   <time name="total">  182.33  197.02</time>
   <energy>
    <i name="e_fr_energy">   -291.64258969 </i>
    <i name="e_wo_entrp">   -291.64258969 </i>
    <i name="e_0_energy">   -291.64258969 </i>
   </energy>
  </scstep>
  <scstep>
   <time name="dav">  162.94  183.89</time>
   <time name="total">  164.61  185.55</time>
   <energy>
    <i name="e_fr_energy">   -291.64259618 </i>
    <i name="e_wo_entrp">   -291.64259618 </i>
    <i name="e_0_energy">   -291.64259618 </i>
   </energy>
  </scstep>
  <scstep>
