<?xml version="1.0" encoding="ISO-8859-1"?>
<modeling>
 <generator>
  <i name="program" type="string">vasp </i>
  <i name="version" type="string">5.4.4.18Apr17-6-g9f103f2a35  </i>
  <i name="subversion" type="string">(build Jul 31 2017 11:33:29) complex            parallel </i>
  <i name="platform" type="string">LinuxIFC </i>
  <i name="date" type="string">2021 09 29 </i>
  <i name="time" type="string">01:43:52 </i>
 </generator>
 <incar>
  <i type="string" name="SYSTEM"> La2O2S</i>
  <i type="string" name="PREC">normal</i>
  <i type="int" name="NELMIN">     4</i>
  <i type="int" name="IBRION">     2</i>
  <i type="int" name="NFREE">    10</i>
  <i name="EDIFF">      0.00000100</i>
  <i name="EDIFFG">     -0.01000000</i>
  <i type="int" name="NSW">     1</i>
  <i type="int" name="ISIF">     2</i>
  <i name="ENCUT">    600.00000000</i>
  <i name="ENAUG">    900.00000000</i>
  <i type="int" name="ISMEAR">    -5</i>
  <i type="logical" name="LWAVE"> F  </i>
  <i type="logical" name="LCHARG"> F  </i>
  <v type="int" name="KPOINT_BSE">    -1     0     0     0</v>
 </incar>
 <structure name="primitive_cell" >
  <crystal>
   <varray name="basis" >
    <v>      11.17850000       0.00000000       0.00000000 </v>
    <v>       0.00000000       9.57460000       0.00000000 </v>
    <v>       0.00000000       0.00000000      11.18240000 </v>
   </varray>
   <i name="volume">   1196.84853820 </i>
   <varray name="rec_basis" >
    <v>       0.08945744       0.00000000       0.00000000 </v>
    <v>       0.00000000       0.10444301       0.00000000 </v>
    <v>       0.00000000       0.00000000       0.08942624 </v>
   </varray>
  </crystal>
  <varray name="positions" >
   <v>       0.37539000       0.00017000       0.43687000 </v>
   <v>      -0.49987000      -0.07798000       0.31246000 </v>
   <v>       0.25013000       0.07798000       0.31246000 </v>
   <v>       0.49987000       0.07798000      -0.43754000 </v>
   <v>       0.24987000      -0.07798000      -0.43754000 </v>
   <v>      -0.37461000      -0.00016000       0.43687000 </v>
   <v>       0.37461000       0.00017000       0.18687000 </v>
   <v>       0.37461000       0.00017000      -0.31313000 </v>
   <v>       0.49987000      -0.29519000       0.31282000 </v>
   <v>       0.24987000       0.29519000       0.31282000 </v>
   <v>      -0.49987000       0.29519000      -0.43719000 </v>
   <v>       0.25013000      -0.29519000      -0.43719000 </v>
   <v>       0.49995000       0.32677000       0.31286000 </v>
   <v>       0.24995000      -0.32677000       0.31286000 </v>
   <v>      -0.49995000      -0.32677000      -0.43714000 </v>
   <v>       0.25005000       0.32677000      -0.43714000 </v>
   <v>      -0.37539000      -0.00016000       0.18687000 </v>
   <v>      -0.37539000      -0.00016000      -0.31313000 </v>
   <v>       0.12461000      -0.00016000       0.18687000 </v>
   <v>       0.12461000      -0.00016000      -0.31313000 </v>
   <v>       0.49987000       0.07798000       0.06246000 </v>
   <v>      -0.24987000       0.07798000       0.31246000 </v>
   <v>      -0.25013000      -0.07798000      -0.43754000 </v>
   <v>       0.24987000      -0.07798000       0.06246000 </v>
   <v>       0.00013000      -0.07798000       0.31246000 </v>
   <v>      -0.49987000      -0.07798000      -0.18754000 </v>
   <v>      -0.00013000       0.07798000      -0.43754000 </v>
   <v>       0.25013000       0.07798000      -0.18754000 </v>
   <v>      -0.49987000       0.29519000       0.06281000 </v>
   <v>      -0.25013000       0.29519000       0.31282000 </v>
   <v>       0.25013000      -0.29519000       0.06281000 </v>
   <v>      -0.24987000      -0.29519000      -0.43719000 </v>
   <v>      -0.00013000      -0.29519000       0.31282000 </v>
   <v>       0.00013000       0.29519000      -0.43719000 </v>
   <v>       0.49987000      -0.29519000      -0.18718000 </v>
   <v>       0.24987000       0.29519000      -0.18718000 </v>
   <v>      -0.49995000      -0.32677000       0.06286000 </v>
   <v>       0.25005000       0.32677000       0.06286000 </v>
   <v>      -0.25005000      -0.32677000       0.31286000 </v>
   <v>      -0.24995000       0.32677000      -0.43714000 </v>
   <v>      -0.00005000       0.32677000       0.31286000 </v>
   <v>       0.00005000      -0.32677000      -0.43714000 </v>
   <v>       0.49995000       0.32677000      -0.18714000 </v>
   <v>       0.24995000      -0.32677000      -0.18714000 </v>
   <v>      -0.12461000       0.00017000       0.43687000 </v>
   <v>       0.37539000       0.00017000      -0.06313000 </v>
   <v>      -0.25013000      -0.07798000       0.06246000 </v>
   <v>      -0.00013000       0.07798000       0.06246000 </v>
   <v>      -0.24987000       0.07798000      -0.18754000 </v>
   <v>       0.00013000      -0.07798000      -0.18754000 </v>
   <v>       0.12539000      -0.00016000      -0.06313000 </v>
   <v>      -0.37461000      -0.00016000      -0.06313000 </v>
   <v>      -0.24987000      -0.29519000       0.06281000 </v>
   <v>       0.00013000       0.29519000       0.06281000 </v>
   <v>      -0.25013000       0.29519000      -0.18718000 </v>
   <v>      -0.00013000      -0.29519000      -0.18718000 </v>
   <v>      -0.24995000       0.32677000       0.06286000 </v>
   <v>       0.00005000      -0.32677000       0.06286000 </v>
   <v>      -0.25005000      -0.32677000      -0.18714000 </v>
   <v>      -0.00005000       0.32677000      -0.18714000 </v>
   <v>      -0.12461000       0.00017000      -0.06313000 </v>
  </varray>
 </structure>
 <varray name="primitive_index" >
  <v type="int" >        1 </v>
  <v type="int" >       53 </v>
  <v type="int" >       48 </v>
  <v type="int" >       54 </v>
  <v type="int" >       55 </v>
  <v type="int" >        4 </v>
  <v type="int" >        3 </v>
  <v type="int" >        8 </v>
  <v type="int" >       17 </v>
  <v type="int" >       16 </v>
  <v type="int" >       26 </v>
  <v type="int" >       23 </v>
  <v type="int" >       32 </v>
  <v type="int" >       33 </v>
  <v type="int" >       43 </v>
  <v type="int" >       38 </v>
  <v type="int" >        5 </v>
  <v type="int" >       10 </v>
  <v type="int" >        2 </v>
  <v type="int" >       12 </v>
  <v type="int" >       46 </v>
  <v type="int" >       52 </v>
  <v type="int" >       59 </v>
  <v type="int" >       47 </v>
  <v type="int" >       49 </v>
  <v type="int" >       61 </v>
  <v type="int" >       58 </v>
  <v type="int" >       56 </v>
  <v type="int" >       18 </v>
  <v type="int" >       20 </v>
  <v type="int" >       15 </v>
  <v type="int" >       27 </v>
  <v type="int" >       21 </v>
  <v type="int" >       22 </v>
  <v type="int" >       25 </v>
  <v type="int" >       24 </v>
  <v type="int" >       35 </v>
  <v type="int" >       30 </v>
  <v type="int" >       37 </v>
  <v type="int" >       42 </v>
  <v type="int" >       36 </v>
  <v type="int" >       39 </v>
  <v type="int" >       40 </v>
  <v type="int" >       41 </v>
  <v type="int" >       11 </v>
  <v type="int" >        7 </v>
  <v type="int" >       51 </v>
  <v type="int" >       50 </v>
  <v type="int" >       60 </v>
  <v type="int" >       57 </v>
  <v type="int" >        6 </v>
  <v type="int" >       13 </v>
  <v type="int" >       19 </v>
  <v type="int" >       14 </v>
  <v type="int" >       28 </v>
  <v type="int" >       29 </v>
  <v type="int" >       34 </v>
  <v type="int" >       31 </v>
  <v type="int" >       45 </v>
  <v type="int" >       44 </v>
  <v type="int" >        9 </v>
 </varray>
 <kpoints>
  <generation param="Gamma">
   <v type="int" name="divisions">       2        2        2 </v>
   <v name="usershift">      0.00000000       0.00000000       0.00000000 </v>
   <v name="genvec1">      0.50000000       0.00000000       0.00000000 </v>
   <v name="genvec2">      0.00000000       0.50000000       0.00000000 </v>
   <v name="genvec3">      0.00000000       0.00000000       0.50000000 </v>
   <v name="shift">      0.00000000       0.00000000       0.00000000 </v>
  </generation>
  <varray name="kpointlist" >
   <v>       0.00000000       0.00000000       0.00000000 </v>
   <v>       0.50000000       0.00000000       0.00000000 </v>
   <v>       0.00000000       0.50000000       0.00000000 </v>
   <v>       0.50000000       0.50000000       0.00000000 </v>
   <v>       0.00000000       0.00000000       0.50000000 </v>
   <v>       0.50000000       0.00000000       0.50000000 </v>
   <v>       0.00000000       0.50000000       0.50000000 </v>
   <v>       0.50000000       0.50000000       0.50000000 </v>
  </varray>
  <varray name="weights" >
   <v>       0.12500000 </v>
   <v>       0.12500000 </v>
   <v>       0.12500000 </v>
   <v>       0.12500000 </v>
   <v>       0.12500000 </v>
   <v>       0.12500000 </v>
   <v>       0.12500000 </v>
   <v>       0.12500000 </v>
  </varray>
  <varray name="tetrahedronlist"  type="int" >
   <v type="int" >        2        1        2        4        5 </v>
   <v type="int" >        2        1        3        4        5 </v>
   <v type="int" >        2        3        4        5        7 </v>
   <v type="int" >        2        2        4        5        6 </v>
   <v type="int" >        2        4        5        6        8 </v>
   <v type="int" >        2        4        5        7        8 </v>
   <v type="int" >        2        1        2        3        6 </v>
   <v type="int" >        2        2        3        4        6 </v>
   <v type="int" >        2        3        4        6        8 </v>
   <v type="int" >        2        1        3        5        6 </v>
   <v type="int" >        2        3        5        6        7 </v>
   <v type="int" >        2        3        6        7        8 </v>
   <v type="int" >        2        2        3        4        7 </v>
   <v type="int" >        2        1        2        3        7 </v>
   <v type="int" >        2        1        2        5        7 </v>
   <v type="int" >        2        2        4        7        8 </v>
   <v type="int" >        2        2        6        7        8 </v>
   <v type="int" >        2        2        5        6        7 </v>
   <v type="int" >        2        1        3        4        8 </v>
   <v type="int" >        2        1        2        4        8 </v>
   <v type="int" >        2        1        2        6        8 </v>
   <v type="int" >        2        1        3        7        8 </v>
   <v type="int" >        2        1        5        7        8 </v>
   <v type="int" >        2        1        5        6        8 </v>
  </varray>
  <i name="volumeweight">      0.02083333 </i>
 </kpoints>
 <parameters>
  <separator name="general" >
   <i type="string" name="SYSTEM">La2O2S</i>
   <i type="logical" name="LCOMPAT"> F  </i>
  </separator>
  <separator name="electronic" >
   <i type="string" name="PREC">normal</i>
   <i name="ENMAX">    600.00000000</i>
   <i name="ENAUG">    900.00000000</i>
   <i name="EDIFF">      0.00000100</i>
   <i type="int" name="IALGO">    38</i>
   <i type="int" name="IWAVPR">    11</i>
   <i type="int" name="NBANDS">   280</i>
   <i name="NELECT">    468.00000000</i>
   <i type="int" name="TURBO">     0</i>
   <i type="int" name="IRESTART">     0</i>
   <i type="int" name="NREBOOT">     0</i>
   <i type="int" name="NMIN">     0</i>
   <i name="EREF">      0.00000000</i>
   <separator name="electronic smearing" >
    <i type="int" name="ISMEAR">    -5</i>
    <i name="SIGMA">      0.20000000</i>
    <i name="KSPACING">      0.50000000</i>
    <i type="logical" name="KGAMMA"> T  </i>
   </separator>
   <separator name="electronic projectors" >
    <i type="logical" name="LREAL"> F  </i>
    <v name="ROPT">      0.00000000      0.00000000      0.00000000      0.00000000      0.00000000</v>
    <i type="int" name="LMAXPAW">  -100</i>
    <i type="int" name="LMAXMIX">     2</i>
    <i type="logical" name="NLSPLINE"> F  </i>
   </separator>
   <separator name="electronic startup" >
    <i type="int" name="ISTART">     0</i>
    <i type="int" name="ICHARG">     2</i>
    <i type="int" name="INIWAV">     1</i>
   </separator>
   <separator name="electronic spin" >
    <i type="int" name="ISPIN">     1</i>
    <i type="logical" name="LNONCOLLINEAR"> F  </i>
    <v name="MAGMOM">      1.00000000      1.00000000      1.00000000      1.00000000      1.00000000      1.00000000      1.00000000      1.00000000      1.00000000      1.00000000      1.00000000      1.00000000      1.00000000      1.00000000      1.00000000      1.00000000      1.00000000      1.00000000      1.00000000      1.00000000
      1.00000000      1.00000000      1.00000000      1.00000000      1.00000000      1.00000000      1.00000000      1.00000000      1.00000000      1.00000000      1.00000000      1.00000000      1.00000000      1.00000000      1.00000000      1.00000000      1.00000000      1.00000000      1.00000000      1.00000000
      1.00000000      1.00000000      1.00000000      1.00000000      1.00000000      1.00000000      1.00000000      1.00000000      1.00000000      1.00000000      1.00000000      1.00000000      1.00000000      1.00000000      1.00000000      1.00000000      1.00000000      1.00000000      1.00000000      1.00000000
      1.00000000</v>
    <i name="NUPDOWN">     -1.00000000</i>
    <i type="logical" name="LSORBIT"> F  </i>
    <v name="SAXIS">      0.00000000      0.00000000      1.00000000</v>
    <i type="logical" name="LSPIRAL"> F  </i>
    <v name="QSPIRAL">      0.00000000      0.00000000      0.00000000</v>
    <i type="logical" name="LZEROZ"> F  </i>
   </separator>
   <separator name="electronic exchange-correlation" >
    <i type="logical" name="LASPH"> F  </i>
    <i type="logical" name="LMETAGGA"> F  </i>
   </separator>
   <separator name="electronic convergence" >
    <i type="int" name="NELM">    60</i>
    <i type="int" name="NELMDL">    -5</i>
    <i type="int" name="NELMIN">     4</i>
    <i name="ENINI">    600.00000000</i>
    <separator name="electronic convergence detail" >
     <i type="logical" name="LDIAG"> T  </i>
     <i type="logical" name="LSUBROT"> F  </i>
     <i name="WEIMIN">      0.00100000</i>
     <i name="EBREAK">      0.00000000</i>
     <i name="DEPER">      0.30000000</i>
     <i type="int" name="NRMM">     4</i>
     <i name="TIME">      0.40000000</i>
    </separator>
   </separator>
   <separator name="electronic mixer" >
    <i name="AMIX">      0.40000000</i>
    <i name="BMIX">      1.00000000</i>
    <i name="AMIN">      0.10000000</i>
    <i name="AMIX_MAG">      1.60000000</i>
    <i name="BMIX_MAG">      1.00000000</i>
    <separator name="electronic mixer details" >
     <i type="int" name="IMIX">     4</i>
     <i type="logical" name="MIXFIRST"> F  </i>
     <i type="int" name="MAXMIX">   -45</i>
     <i name="WC">    100.00000000</i>
     <i type="int" name="INIMIX">     1</i>
     <i type="int" name="MIXPRE">     1</i>
     <i type="int" name="MREMOVE">     5</i>
    </separator>
   </separator>
   <separator name="electronic dipolcorrection" >
    <i type="logical" name="LDIPOL"> F  </i>
    <i type="logical" name="LMONO"> F  </i>
    <i type="int" name="IDIPOL">     0</i>
    <i name="EPSILON">      1.00000000</i>
    <v name="DIPOL">   -100.00000000   -100.00000000   -100.00000000</v>
    <i name="EFIELD">      0.00000000</i>
   </separator>
  </separator>
  <separator name="grids" >
   <i type="int" name="NGX">    70</i>
   <i type="int" name="NGY">    60</i>
   <i type="int" name="NGZ">    70</i>
   <i type="int" name="NGXF">   140</i>
   <i type="int" name="NGYF">   120</i>
   <i type="int" name="NGZF">   140</i>
   <i type="logical" name="ADDGRID"> F  </i>
  </separator>
  <separator name="ionic" >
   <i type="int" name="NSW">     1</i>
   <i type="int" name="IBRION">     2</i>
   <i type="int" name="MDALGO">     0</i>
   <i type="int" name="ISIF">     2</i>
   <i name="PSTRESS">      0.00000000</i>
   <i name="EDIFFG">     -0.01000000</i>
   <i type="int" name="NFREE">    10</i>
   <i name="POTIM">      0.50000000</i>
   <i name="SMASS">     -3.00000000</i>
   <i name="SCALEE">      1.00000000</i>
  </separator>
  <separator name="ionic md" >
   <i name="TEBEG">      0.00010000</i>
   <i name="TEEND">      0.00010000</i>
   <i type="int" name="NBLOCK">     1</i>
   <i type="int" name="KBLOCK">     1</i>
   <i type="int" name="NPACO">   256</i>
   <i name="APACO">     16.00000000</i>
  </separator>
  <separator name="symmetry" >
   <i type="int" name="ISYM">     2</i>
   <i name="SYMPREC">      0.00001000</i>
  </separator>
  <separator name="dos" >
   <i type="int" name="LORBIT">     0</i>
   <v name="RWIGS">     -1.00000000     -1.00000000     -1.00000000     -1.00000000     -1.00000000</v>
   <i type="int" name="NEDOS">   301</i>
   <i name="EMIN">     10.00000000</i>
   <i name="EMAX">    -10.00000000</i>
   <i name="EFERMI">      0.00000000</i>
  </separator>
  <separator name="writing" >
   <i type="int" name="NWRITE">     2</i>
   <i type="logical" name="LWAVE"> F  </i>
   <i type="logical" name="LDOWNSAMPLE"> F  </i>
   <i type="logical" name="LCHARG"> F  </i>
   <i type="logical" name="LPARD"> F  </i>
   <i type="logical" name="LVTOT"> F  </i>
   <i type="logical" name="LVHAR"> F  </i>
   <i type="logical" name="LELF"> F  </i>
   <i type="logical" name="LOPTICS"> F  </i>
   <v name="STM">      0.00000000      0.00000000      0.00000000      0.00000000      0.00000000      0.00000000      0.00000000</v>
  </separator>
  <separator name="performance" >
   <i type="int" name="NPAR">    28</i>
   <i type="int" name="NSIM">     4</i>
   <i type="int" name="NBLK">    -1</i>
   <i type="logical" name="LPLANE"> T  </i>
   <i type="logical" name="LSCALAPACK"> T  </i>
   <i type="logical" name="LSCAAWARE"> F  </i>
   <i type="logical" name="LSCALU"> F  </i>
   <i type="logical" name="LASYNC"> F  </i>
   <i type="logical" name="LORBITALREAL"> F  </i>
  </separator>
  <separator name="miscellaneous" >
   <i type="int" name="IDIOT">     3</i>
   <i type="int" name="ISPECIAL">     0</i>
   <i type="logical" name="LMUSIC"> F  </i>
   <v name="POMASS">      7.01000000     24.30500000    208.98000000     32.06600000     16.00000000</v>
   <v name="DARWINR">      0.00000000      0.00000000      0.00000000      0.00000000      0.00000000</v>
   <v name="DARWINV">      1.00000000      1.00000000      1.00000000      1.00000000      1.00000000</v>
   <i type="logical" name="LCORR"> T  </i>
  </separator>
  <i type="logical" name="GGA_COMPAT"> T  </i>
  <i type="logical" name="LBERRY"> F  </i>
  <i type="int" name="ICORELEVEL">     0</i>
  <i type="logical" name="LDAU"> F  </i>
  <i type="int" name="I_CONSTRAINED_M">     0</i>
  <separator name="electronic exchange-correlation" >
   <i type="string" name="GGA">--</i>
   <i type="int" name="VOSKOWN">     0</i>
   <i type="logical" name="LHFCALC"> F  </i>
   <i type="string" name="PRECFOCK"></i>
   <i type="logical" name="LSYMGRAD"> F  </i>
   <i type="logical" name="LHFONE"> F  </i>
   <i type="logical" name="LRHFCALC"> F  </i>
   <i type="logical" name="LTHOMAS"> F  </i>
   <i type="logical" name="LMODELHF"> F  </i>
   <i name="ENCUT4O">     -1.00000000</i>
   <i type="int" name="EXXOEP">     0</i>
   <i type="int" name="FOURORBIT">     0</i>
   <i name="AEXX">      0.00000000</i>
   <i name="HFALPHA">      0.00000000</i>
   <i name="MCALPHA">      0.00000000</i>
   <i name="ALDAX">      1.00000000</i>
   <i name="AGGAX">      1.00000000</i>
   <i name="ALDAC">      1.00000000</i>
   <i name="AGGAC">      1.00000000</i>
   <i type="int" name="NKREDX">     1</i>
   <i type="int" name="NKREDY">     1</i>
   <i type="int" name="NKREDZ">     1</i>
   <i type="logical" name="SHIFTRED"> F  </i>
   <i type="logical" name="ODDONLY"> F  </i>
   <i type="logical" name="EVENONLY"> F  </i>
   <i type="int" name="LMAXFOCK">     0</i>
   <i type="int" name="NMAXFOCKAE">     0</i>
   <i type="logical" name="LFOCKAEDFT"> F  </i>
   <i name="HFSCREEN">      0.00000000</i>
   <i name="HFSCREENC">      0.00000000</i>
   <i type="int" name="NBANDSGWLOW">     0</i>
  </separator>
  <separator name="vdW DFT" >
   <i type="logical" name="LUSE_VDW"> F  </i>
   <i name="Zab_VDW">     -0.84910000</i>
   <i name="PARAM1">      0.12340000</i>
   <i name="PARAM2">      1.00000000</i>
   <i name="PARAM3">      0.00000000</i>
  </separator>
  <separator name="model GW" >
   <i type="int" name="MODEL_GW">     0</i>
   <i name="MODEL_EPS0">     11.77228070</i>
   <i name="MODEL_ALPHA">      1.00000000</i>
  </separator>
  <separator name="linear response parameters" >
   <i type="logical" name="LEPSILON"> F  </i>
   <i type="logical" name="LRPA"> F  </i>
   <i type="logical" name="LNABLA"> F  </i>
   <i type="logical" name="LVEL"> F  </i>
   <i type="int" name="KINTER">     0</i>
   <i name="CSHIFT">      0.10000000</i>
   <i name="OMEGAMAX">     -1.00000000</i>
   <i name="DEG_THRESHOLD">      0.00200000</i>
   <i name="RTIME">     -0.10000000</i>
   <i name="WPLASMAI">      0.00000000</i>
   <v name="DFIELD">      0.00000000      0.00000000      0.00000000</v>
   <v name="WPLASMA">      0.00000000      0.00000000      0.00000000      0.00000000      0.00000000      0.00000000      0.00000000      0.00000000      0.00000000</v>
  </separator>
  <separator name="orbital magnetization" >
   <i type="logical" name="NUCIND"> F  </i>
   <v name="MAGPOS">      0.00000000      0.00000000      0.00000000</v>
   <i type="logical" name="LNICSALL"> T  </i>
   <i type="logical" name="ORBITALMAG"> F  </i>
   <i type="logical" name="LMAGBLOCH"> F  </i>
   <i type="logical" name="LCHIMAG"> F  </i>
   <i type="logical" name="LGAUGE"> T  </i>
   <i type="int" name="MAGATOM">     0</i>
   <v name="MAGDIPOL">      0.00000000      0.00000000      0.00000000</v>
   <v name="AVECCONST">      0.00000000      0.00000000      0.00000000</v>
  </separator>
  <separator name="response functions" >
   <i type="logical" name="LADDER"> F  </i>
   <i type="logical" name="LRPAFORCE"> F  </i>
   <i type="logical" name="LFXC"> F  </i>
   <i type="logical" name="LHARTREE"> T  </i>
   <i type="int" name="IBSE">     0</i>
   <v type="int" name="KPOINT">    -1     0     0     0</v>
   <i type="logical" name="LTCTE"> F  </i>
   <i type="logical" name="LTETE"> F  </i>
   <i type="logical" name="LTRIPLET"> F  </i>
   <i type="logical" name="LFXCEPS"> F  </i>
   <i type="logical" name="LFXHEG"> F  </i>
   <i type="int" name="NATURALO">     2</i>
   <i type="logical" name="L2ORDER"> F  </i>
   <i type="logical" name="LMP2LT"> F  </i>
   <i type="logical" name="LUSEW"> F  </i>
   <i name="ENCUTGW">     -2.00000000</i>
   <i name="ENCUTGWSOFT">     -2.00000000</i>
   <i name="ENCUTLF">     -1.00000000</i>
   <i type="int" name="LMAXMP2">    -1</i>
   <i name="SCISSOR">      0.00000000</i>
   <i type="int" name="NOMEGA">     0</i>
   <i type="int" name="NOMEGAR">     0</i>
   <i type="int" name="NBANDSGW">    -1</i>
   <i type="int" name="NBANDSO">    -1</i>
   <i type="int" name="NBANDSV">    -1</i>
   <i type="int" name="NELM">     1</i>
   <i type="int" name="NELMHF">     1</i>
   <i type="int" name="DIM">     3</i>
   <i type="int" name="ANTIRES">     0</i>
   <i name="OMEGAMAX">    -30.00000000</i>
   <i name="OMEGAMIN">    -30.00000000</i>
   <i name="OMEGATL">   -200.00000000</i>
   <i type="int" name="OMEGAGRID">   140</i>
   <i name="CSHIFT">     -0.10000000</i>
   <i type="logical" name="SELFENERGY"> F  </i>
   <i type="logical" name="LSPECTRAL"> F  </i>
   <i type="logical" name="LSPECTRALGW"> F  </i>
   <i type="logical" name="LSINGLES"> F  </i>
   <i type="logical" name="LFERMIGW"> F  </i>
   <i type="logical" name="ODDONLYGW"> F  </i>
   <i type="logical" name="EVENONLYGW"> F  </i>
   <i type="int" name="NKREDLFX">     1</i>
   <i type="int" name="NKREDLFY">     1</i>
   <i type="int" name="NKREDLFZ">     1</i>
   <i type="int" name="MAXMEM">  2800</i>
   <i type="int" name="TELESCOPE">     0</i>
   <i type="int" name="TAUPAR">     1</i>
   <i type="int" name="OMEGAPAR">    -1</i>
   <i name="LAMBDA">      1.00000000</i>
  </separator>
  <separator name="External order field" >
   <i name="OFIELD_KAPPA">      0.00000000</i>
   <v name="OFIELD_K">      0.00000000      0.00000000      0.00000000</v>
   <i name="OFIELD_Q6_NEAR">      0.00000000</i>
   <i name="OFIELD_Q6_FAR">      0.00000000</i>
   <i name="OFIELD_A">      0.00000000</i>
  </separator>
 </parameters>
 <atominfo>
  <atoms>      61 </atoms>
  <types>       5 </types>
  <array name="atoms" >
   <dimension dim="1">ion</dimension>
   <field type="string">element</field>
   <field type="int">atomtype</field>
   <set>
    <rc><c>Li</c><c>   1</c></rc>
    <rc><c>Li</c><c>   1</c></rc>
    <rc><c>Li</c><c>   1</c></rc>
    <rc><c>Li</c><c>   1</c></rc>
    <rc><c>Li</c><c>   1</c></rc>
    <rc><c>Li</c><c>   1</c></rc>
    <rc><c>Li</c><c>   1</c></rc>
    <rc><c>Li</c><c>   1</c></rc>
    <rc><c>Li</c><c>   1</c></rc>
    <rc><c>Li</c><c>   1</c></rc>
    <rc><c>Mg</c><c>   2</c></rc>
    <rc><c>Mg</c><c>   2</c></rc>
    <rc><c>Mg</c><c>   2</c></rc>
    <rc><c>Bi</c><c>   3</c></rc>
    <rc><c>Bi</c><c>   3</c></rc>
    <rc><c>Bi</c><c>   3</c></rc>
    <rc><c>Bi</c><c>   3</c></rc>
    <rc><c>Bi</c><c>   3</c></rc>
    <rc><c>Bi</c><c>   3</c></rc>
    <rc><c>Bi</c><c>   3</c></rc>
    <rc><c>Bi</c><c>   3</c></rc>
    <rc><c>Bi</c><c>   3</c></rc>
    <rc><c>Bi</c><c>   3</c></rc>
    <rc><c>Bi</c><c>   3</c></rc>
    <rc><c>Bi</c><c>   3</c></rc>
    <rc><c>Bi</c><c>   3</c></rc>
    <rc><c>Bi</c><c>   3</c></rc>
    <rc><c>Bi</c><c>   3</c></rc>
    <rc><c>Bi</c><c>   3</c></rc>
    <rc><c>S </c><c>   4</c></rc>
    <rc><c>S </c><c>   4</c></rc>
    <rc><c>S </c><c>   4</c></rc>
    <rc><c>S </c><c>   4</c></rc>
    <rc><c>S </c><c>   4</c></rc>
    <rc><c>S </c><c>   4</c></rc>
    <rc><c>S </c><c>   4</c></rc>
    <rc><c>S </c><c>   4</c></rc>
    <rc><c>S </c><c>   4</c></rc>
    <rc><c>S </c><c>   4</c></rc>
    <rc><c>S </c><c>   4</c></rc>
    <rc><c>S </c><c>   4</c></rc>
    <rc><c>S </c><c>   4</c></rc>
    <rc><c>S </c><c>   4</c></rc>
    <rc><c>S </c><c>   4</c></rc>
    <rc><c>S </c><c>   4</c></rc>
    <rc><c>O </c><c>   5</c></rc>
    <rc><c>O </c><c>   5</c></rc>
    <rc><c>O </c><c>   5</c></rc>
    <rc><c>O </c><c>   5</c></rc>
    <rc><c>O </c><c>   5</c></rc>
    <rc><c>O </c><c>   5</c></rc>
    <rc><c>O </c><c>   5</c></rc>
    <rc><c>O </c><c>   5</c></rc>
    <rc><c>O </c><c>   5</c></rc>
    <rc><c>O </c><c>   5</c></rc>
    <rc><c>O </c><c>   5</c></rc>
    <rc><c>O </c><c>   5</c></rc>
    <rc><c>O </c><c>   5</c></rc>
    <rc><c>O </c><c>   5</c></rc>
    <rc><c>O </c><c>   5</c></rc>
    <rc><c>O </c><c>   5</c></rc>
   </set>
  </array>
  <array name="atomtypes" >
   <dimension dim="1">type</dimension>
   <field type="int">atomspertype</field>
   <field type="string">element</field>
   <field>mass</field>
   <field>valence</field>
   <field type="string">pseudopotential</field>
   <set>
    <rc><c>  10</c><c>Li</c><c>      7.01000000</c><c>      3.00000000</c><c>  PAW_PBE Li_sv 10Sep2004               </c></rc>
    <rc><c>   3</c><c>Mg</c><c>     24.30500000</c><c>      2.00000000</c><c>  PAW_PBE Mg 13Apr2007                  </c></rc>
    <rc><c>  16</c><c>Bi</c><c>    208.98000000</c><c>     15.00000000</c><c>  PAW_PBE Bi_d 06Sep2000                </c></rc>
    <rc><c>  16</c><c>S </c><c>     32.06600000</c><c>      6.00000000</c><c>  PAW_PBE S 06Sep2000                   </c></rc>
    <rc><c>  16</c><c>O </c><c>     16.00000000</c><c>      6.00000000</c><c>  PAW_PBE O 08Apr2002                   </c></rc>
   </set>
  </array>
 </atominfo>
 <structure name="initialpos" >
  <crystal>
   <varray name="basis" >
    <v>      11.17850000       0.00000000       0.00000000 </v>
    <v>       0.00000000       9.57460000       0.00000000 </v>
    <v>       0.00000000       0.00000000      11.18240000 </v>
   </varray>
   <i name="volume">   1196.84853820 </i>
   <varray name="rec_basis" >
    <v>       0.08945744       0.00000000       0.00000000 </v>
    <v>       0.00000000       0.10444301       0.00000000 </v>
    <v>       0.00000000       0.00000000       0.08942624 </v>
   </varray>
  </crystal>
  <varray name="positions" >
   <v>       0.37539000       0.00017000       0.43687000 </v>
   <v>       0.12461000       0.99984000       0.18687000 </v>
   <v>       0.37461000       0.00017000       0.18687000 </v>
   <v>       0.62539000       0.99984000       0.43687000 </v>
   <v>       0.62461000       0.99984000       0.18687000 </v>
   <v>       0.12539000       0.99984000       0.93687000 </v>
   <v>       0.37539000       0.00017000       0.93687000 </v>
   <v>       0.37461000       0.00017000       0.68687000 </v>
   <v>       0.87539000       0.00017000       0.93687000 </v>
   <v>       0.62461000       0.99984000       0.68687000 </v>
   <v>       0.87539000       0.00017000       0.43687000 </v>
   <v>       0.12461000       0.99984000       0.68687000 </v>
   <v>       0.62539000       0.99984000       0.93687000 </v>
   <v>       0.00013000       0.29519000       0.06281000 </v>
   <v>       0.25013000       0.70481000       0.06281000 </v>
   <v>       0.24987000       0.29519000       0.31282000 </v>
   <v>       0.49987000       0.70481000       0.31282000 </v>
   <v>       0.50013000       0.29519000       0.06281000 </v>
   <v>       0.75013000       0.70481000       0.06281000 </v>
   <v>       0.74987000       0.29519000       0.31282000 </v>
   <v>       0.99987000       0.70481000       0.31282000 </v>
   <v>       0.00013000       0.29519000       0.56281000 </v>
   <v>       0.25013000       0.70481000       0.56281000 </v>
   <v>       0.24987000       0.29519000       0.81282000 </v>
   <v>       0.49987000       0.70481000       0.81282000 </v>
   <v>       0.50013000       0.29519000       0.56281000 </v>
   <v>       0.75013000       0.70481000       0.56281000 </v>
   <v>       0.74987000       0.29519000       0.81282000 </v>
   <v>       0.99987000       0.70481000       0.81282000 </v>
   <v>       0.25005000       0.32677000       0.06286000 </v>
   <v>       0.00005000       0.67323000       0.06286000 </v>
   <v>       0.49995000       0.32677000       0.31286000 </v>
   <v>       0.24995000       0.67323000       0.31286000 </v>
   <v>       0.75005000       0.32677000       0.06286000 </v>
   <v>       0.50005000       0.67323000       0.06286000 </v>
   <v>       0.99995000       0.32677000       0.31286000 </v>
   <v>       0.74995000       0.67323000       0.31286000 </v>
   <v>       0.25005000       0.32677000       0.56286000 </v>
   <v>       0.00005000       0.67323000       0.56286000 </v>
   <v>       0.49995000       0.32677000       0.81286000 </v>
   <v>       0.24995000       0.67323000       0.81286000 </v>
   <v>       0.75005000       0.32677000       0.56286000 </v>
   <v>       0.50005000       0.67323000       0.56286000 </v>
   <v>       0.99995000       0.32677000       0.81286000 </v>
   <v>       0.74995000       0.67323000       0.81286000 </v>
   <v>       0.49987000       0.07798000       0.06246000 </v>
   <v>       0.24987000       0.92202000       0.06246000 </v>
   <v>       0.25013000       0.07798000       0.31246000 </v>
   <v>       0.00013000       0.92202000       0.31246000 </v>
   <v>       0.99987000       0.07798000       0.06246000 </v>
   <v>       0.74987000       0.92202000       0.06246000 </v>
   <v>       0.75013000       0.07798000       0.31246000 </v>
   <v>       0.50013000       0.92202000       0.31246000 </v>
   <v>       0.49987000       0.07798000       0.56246000 </v>
   <v>       0.24987000       0.92202000       0.56246000 </v>
   <v>       0.25013000       0.07798000       0.81246000 </v>
   <v>       0.00013000       0.92202000       0.81246000 </v>
   <v>       0.99987000       0.07798000       0.56246000 </v>
   <v>       0.74987000       0.92202000       0.56246000 </v>
   <v>       0.75013000       0.07798000       0.81246000 </v>
   <v>       0.50013000       0.92202000       0.81246000 </v>
  </varray>
 </structure>
 <calculation>
  <scstep>
   <time name="dav">   59.00   59.07</time>
   <time name="total">   59.08   59.16</time>
   <energy>
    <i name="alphaZ">   1073.51873187 </i>
    <i name="ewald"> -30868.61566492 </i>
    <i name="hartreedc"> -12720.38340807 </i>
    <i name="XCdc">   1394.97930300 </i>
    <i name="pawpsdc">  36823.70205594 </i>
    <i name="pawaedc"> -36326.52930246 </i>
    <i name="eentropy">      0.00000000 </i>
    <i name="bandstr">   1807.66038776 </i>
    <i name="atom">  44791.06186932 </i>
    <i name="e_fr_energy">   5975.39397245 </i>
    <i name="e_wo_entrp">   5975.39397245 </i>
    <i name="e_0_energy">   5975.39397245 </i>
   </energy>
  </scstep>
  <scstep>
   <time name="dav">   59.81   59.87</time>
   <time name="total">   59.82   59.88</time>
   <energy>
    <i name="e_fr_energy">    800.58267596 </i>
    <i name="e_wo_entrp">    800.58267596 </i>
    <i name="e_0_energy">    800.58267596 </i>
   </energy>
  </scstep>
  <scstep>
   <time name="dav">   68.40   68.53</time>
   <time name="total">   68.40   68.53</time>
   <energy>
    <i name="e_fr_energy">   -242.66211562 </i>
    <i name="e_wo_entrp">   -242.66211562 </i>
    <i name="e_0_energy">   -242.66211562 </i>
   </energy>
  </scstep>
  <scstep>
   <time name="dav">   71.06   71.28</time>
   <time name="total">   71.06   71.28</time>
   <energy>
    <i name="e_fr_energy">   -346.46328200 </i>
    <i name="e_wo_entrp">   -346.46328200 </i>
    <i name="e_0_energy">   -346.46328200 </i>
   </energy>
  </scstep>
  <scstep>
   <time name="dav">   94.53   94.68</time>
   <time name="total">   95.25   95.40</time>
   <energy>
    <i name="e_fr_energy">   -355.07247585 </i>
    <i name="e_wo_entrp">   -355.07247585 </i>
    <i name="e_0_energy">   -355.07247585 </i>
   </energy>
  </scstep>
  <scstep>
   <time name="dav">   84.38   84.45</time>
   <time name="total">   85.17   85.24</time>
   <energy>
    <i name="e_fr_energy">   -296.44136409 </i>
    <i name="e_wo_entrp">   -296.44136409 </i>
    <i name="e_0_energy">   -296.44136409 </i>
   </energy>
  </scstep>
  <scstep>
   <time name="dav">   65.25   65.38</time>
   <time name="total">   66.03   66.16</time>
   <energy>
    <i name="e_fr_energy">   -299.19838986 </i>
    <i name="e_wo_entrp">   -299.19838986 </i>
    <i name="e_0_energy">   -299.19838986 </i>
   </energy>
  </scstep>
  <scstep>
   <time name="dav">   77.83   78.16</time>
   <time name="total">   78.62   78.95</time>
   <energy>
    <i name="e_fr_energy">   -297.95378021 </i>
    <i name="e_wo_entrp">   -297.95378021 </i>
    <i name="e_0_energy">   -297.95378021 </i>
   </energy>
  </scstep>
  <scstep>
   <time name="dav">   73.98   74.32</time>
   <time name="total">   74.77   75.11</time>
   <energy>
    <i name="e_fr_energy">   -297.31296184 </i>
    <i name="e_wo_entrp">   -297.31296184 </i>
    <i name="e_0_energy">   -297.31296184 </i>
   </energy>
  </scstep>
  <scstep>
   <time name="dav">   71.28   71.53</time>
   <time name="total">   72.08   72.32</time>
   <energy>
    <i name="e_fr_energy">   -297.33879395 </i>
    <i name="e_wo_entrp">   -297.33879395 </i>
    <i name="e_0_energy">   -297.33879395 </i>
   </energy>
  </scstep>
  <scstep>
   <time name="dav">   78.61   78.91</time>
   <time name="total">   79.40   79.71</time>
   <energy>
    <i name="e_fr_energy">   -297.34803075 </i>
    <i name="e_wo_entrp">   -297.34803075 </i>
    <i name="e_0_energy">   -297.34803075 </i>
   </energy>
  </scstep>
  <scstep>
   <time name="dav">   85.09   85.43</time>
   <time name="total">   85.89   86.23</time>
   <energy>
    <i name="e_fr_energy">   -297.35166125 </i>
    <i name="e_wo_entrp">   -297.35166125 </i>
    <i name="e_0_energy">   -297.35166125 </i>
   </energy>
  </scstep>
  <scstep>
   <time name="dav">   71.74   72.07</time>
   <time name="total">   72.54   72.87</time>
   <energy>
    <i name="e_fr_energy">   -297.35291522 </i>
    <i name="e_wo_entrp">   -297.35291522 </i>
    <i name="e_0_energy">   -297.35291522 </i>
   </energy>
  </scstep>
  <scstep>
   <time name="dav">   72.93   73.23</time>
   <time name="total">   73.71   74.02</time>
   <energy>
    <i name="e_fr_energy">   -297.35315480 </i>
    <i name="e_wo_entrp">   -297.35315480 </i>
    <i name="e_0_energy">   -297.35315480 </i>
   </energy>
  </scstep>
  <scstep>
   <time name="dav">   81.14   81.49</time>
   <time name="total">   81.92   82.28</time>
   <energy>
    <i name="e_fr_energy">   -297.35318770 </i>
    <i name="e_wo_entrp">   -297.35318770 </i>
    <i name="e_0_energy">   -297.35318770 </i>
   </energy>
  </scstep>
  <scstep>
   <time name="dav">   61.97   62.27</time>
   <time name="total">   62.76   63.07</time>
   <energy>
    <i name="e_fr_energy">   -297.35320839 </i>
    <i name="e_wo_entrp">   -297.35320839 </i>
    <i name="e_0_energy">   -297.35320839 </i>
   </energy>
  </scstep>
  <scstep>
   <time name="dav">   67.65   67.94</time>
   <time name="total">   68.44   68.74</time>
   <energy>
    <i name="e_fr_energy">   -297.35321231 </i>
    <i name="e_wo_entrp">   -297.35321231 </i>
    <i name="e_0_energy">   -297.35321231 </i>
   </energy>
  </scstep>
  <scstep>
   <time name="dav">   66.97   67.22</time>
   <time name="total">   67.04   67.30</time>
   <energy>
    <i name="alphaZ">   1073.51873187 </i>
    <i name="ewald"> -30868.61566492 </i>
    <i name="hartreedc"> -12956.29251511 </i>
    <i name="XCdc">   1418.52900814 </i>
    <i name="pawpsdc">  43850.22662380 </i>
    <i name="pawaedc"> -43327.79499838 </i>
    <i name="eentropy">      0.00000000 </i>
    <i name="bandstr">  -4277.98626792 </i>
    <i name="atom">  44791.06186932 </i>
    <i name="e_fr_energy">   -297.35321320 </i>
    <i name="e_wo_entrp">   -297.35321320 </i>
    <i name="e_0_energy">   -297.35321320 </i>
   </energy>
  </scstep>
  <structure>
   <crystal>
    <varray name="basis" >
     <v>      11.17850000       0.00000000       0.00000000 </v>
     <v>       0.00000000       9.57460000       0.00000000 </v>
     <v>       0.00000000       0.00000000      11.18240000 </v>
    </varray>
    <i name="volume">   1196.84853820 </i>
    <varray name="rec_basis" >
     <v>       0.08945744       0.00000000       0.00000000 </v>
     <v>       0.00000000       0.10444301       0.00000000 </v>
     <v>       0.00000000       0.00000000       0.08942624 </v>
    </varray>
   </crystal>
   <varray name="positions" >
    <v>       0.37539000       0.00017000       0.43687000 </v>
    <v>       0.12461000       0.99984000       0.18687000 </v>
    <v>       0.37461000       0.00017000       0.18687000 </v>
    <v>       0.62539000       0.99984000       0.43687000 </v>
    <v>       0.62461000       0.99984000       0.18687000 </v>
    <v>       0.12539000       0.99984000       0.93687000 </v>
    <v>       0.37539000       0.00017000       0.93687000 </v>
    <v>       0.37461000       0.00017000       0.68687000 </v>
    <v>       0.87539000       0.00017000       0.93687000 </v>
    <v>       0.62461000       0.99984000       0.68687000 </v>
    <v>       0.87539000       0.00017000       0.43687000 </v>
    <v>       0.12461000       0.99984000       0.68687000 </v>
    <v>       0.62539000       0.99984000       0.93687000 </v>
    <v>       0.00013000       0.29519000       0.06281000 </v>
    <v>       0.25013000       0.70481000       0.06281000 </v>
    <v>       0.24987000       0.29519000       0.31282000 </v>
    <v>       0.49987000       0.70481000       0.31282000 </v>
    <v>       0.50013000       0.29519000       0.06281000 </v>
    <v>       0.75013000       0.70481000       0.06281000 </v>
    <v>       0.74987000       0.29519000       0.31282000 </v>
    <v>       0.99987000       0.70481000       0.31282000 </v>
    <v>       0.00013000       0.29519000       0.56281000 </v>
    <v>       0.25013000       0.70481000       0.56281000 </v>
    <v>       0.24987000       0.29519000       0.81282000 </v>
    <v>       0.49987000       0.70481000       0.81282000 </v>
    <v>       0.50013000       0.29519000       0.56281000 </v>
    <v>       0.75013000       0.70481000       0.56281000 </v>
    <v>       0.74987000       0.29519000       0.81282000 </v>
    <v>       0.99987000       0.70481000       0.81282000 </v>
    <v>       0.25005000       0.32677000       0.06286000 </v>
    <v>       0.00005000       0.67323000       0.06286000 </v>
    <v>       0.49995000       0.32677000       0.31286000 </v>
    <v>       0.24995000       0.67323000       0.31286000 </v>
    <v>       0.75005000       0.32677000       0.06286000 </v>
    <v>       0.50005000       0.67323000       0.06286000 </v>
    <v>       0.99995000       0.32677000       0.31286000 </v>
    <v>       0.74995000       0.67323000       0.31286000 </v>
    <v>       0.25005000       0.32677000       0.56286000 </v>
    <v>       0.00005000       0.67323000       0.56286000 </v>
    <v>       0.49995000       0.32677000       0.81286000 </v>
    <v>       0.24995000       0.67323000       0.81286000 </v>
    <v>       0.75005000       0.32677000       0.56286000 </v>
    <v>       0.50005000       0.67323000       0.56286000 </v>
    <v>       0.99995000       0.32677000       0.81286000 </v>
    <v>       0.74995000       0.67323000       0.81286000 </v>
    <v>       0.49987000       0.07798000       0.06246000 </v>
    <v>       0.24987000       0.92202000       0.06246000 </v>
    <v>       0.25013000       0.07798000       0.31246000 </v>
    <v>       0.00013000       0.92202000       0.31246000 </v>
    <v>       0.99987000       0.07798000       0.06246000 </v>
    <v>       0.74987000       0.92202000       0.06246000 </v>
    <v>       0.75013000       0.07798000       0.31246000 </v>
    <v>       0.50013000       0.92202000       0.31246000 </v>
    <v>       0.49987000       0.07798000       0.56246000 </v>
    <v>       0.24987000       0.92202000       0.56246000 </v>
    <v>       0.25013000       0.07798000       0.81246000 </v>
    <v>       0.00013000       0.92202000       0.81246000 </v>
    <v>       0.99987000       0.07798000       0.56246000 </v>
    <v>       0.74987000       0.92202000       0.56246000 </v>
    <v>       0.75013000       0.07798000       0.81246000 </v>
    <v>       0.50013000       0.92202000       0.81246000 </v>
   </varray>
  </structure>
  <varray name="forces" >
   <v>      -0.46124808       0.06574183      -0.11302035 </v>
   <v>      -0.43382796       0.07006044       0.45932944 </v>
   <v>      -0.26961195      -0.00536538       0.28777212 </v>
   <v>      -0.11582124      -0.00105612      -0.03286297 </v>
   <v>       0.45976041      -0.06410087       0.44185418 </v>
   <v>      -0.36332458      -0.00238920       0.51735368 </v>
   <v>      -0.44315027      -0.06334846       0.12777750 </v>
   <v>       0.20568424       0.00494434      -0.28079474 </v>
   <v>       0.41737854       0.06632563       0.11674476 </v>
   <v>       0.46394571       0.06713518      -0.43181332 </v>
   <v>       0.83798694      -0.11578280      -0.20301173 </v>
   <v>      -0.86837892      -0.10951198      -0.85743725 </v>
   <v>       0.49309876       0.00887160       0.10158065 </v>
   <v>      -0.08600130      -1.00147638       0.28527206 </v>
   <v>      -0.24859919      -0.03138442       0.23738897 </v>
   <v>      -0.26187616      -1.01700585       0.08232686 </v>
   <v>      -0.05465899      -0.03396727       0.05545367 </v>
   <v>      -0.11263868       1.03306983       0.28524919 </v>
   <v>       0.42428181      -0.02963816       0.33818690 </v>
   <v>       0.21234512      -0.01922731      -0.19399854 </v>
   <v>       0.13668212       1.06733225      -0.14272454 </v>
   <v>      -0.00218254      -0.11346885      -0.19964733 </v>
   <v>      -0.16144459      -0.00829974      -0.44847787 </v>
   <v>      -0.11147760       1.04463020       0.11241926 </v>
   <v>      -0.03261740      -1.06027006      -0.13747043 </v>
   <v>      -0.00275850       0.05306290      -0.21476949 </v>
   <v>       0.14193015       0.03527887       0.03109088 </v>
   <v>       0.36997531       0.05927300      -0.19400449 </v>
   <v>      -0.20737645      -0.02018794       0.03219834 </v>
   <v>       0.26304663       0.19547265      -0.26199538 </v>
   <v>       0.01713497      -0.20163269      -0.19736434 </v>
   <v>       0.09839422       0.19500548      -0.08089070 </v>
   <v>       0.20444732      -0.19664349      -0.02641990 </v>
   <v>      -0.31649028       0.12233332      -0.14163493 </v>
   <v>       0.03715678      -0.10228610      -0.20314350 </v>
   <v>      -0.14899843       0.17528819       0.13089760 </v>
   <v>      -0.15611549      -0.18011765       0.04808818 </v>
   <v>       0.06467992       0.11738812       0.31752213 </v>
   <v>       0.00945169      -0.12127313       0.18393827 </v>
   <v>      -0.03432879       0.06787619       0.11949288 </v>
   <v>       0.12317705      -0.11864012      -0.03352571 </v>
   <v>      -0.07117875       0.14759481       0.02703588 </v>
   <v>      -0.00635812      -0.15541851       0.16269507 </v>
   <v>       0.14794108       0.13800829      -0.11556533 </v>
   <v>      -0.23081730      -0.09490325       0.06579802 </v>
   <v>       0.47434805      -0.85152881      -0.65569209 </v>
   <v>       0.24444544       0.03003374      -0.23996398 </v>
   <v>       0.73972865       0.83260468      -0.60208417 </v>
   <v>      -0.54324872      -1.02947705       0.54107077 </v>
   <v>       0.61293028       0.82605452      -0.74698611 </v>
   <v>      -1.27155047       0.09250387      -1.13065583 </v>
   <v>      -0.28977694       0.09376013       1.07891644 </v>
   <v>       0.06614119       0.02703662      -0.07894057 </v>
   <v>       0.00073870      -0.08510274       0.16433691 </v>
   <v>       0.20550102       0.00541994       1.30583092 </v>
   <v>      -0.32186542      -0.83416180      -0.47581688 </v>
   <v>       1.20056632      -0.01536375       0.06331442 </v>
   <v>       0.04373829       0.33498468       0.14434520 </v>
   <v>      -0.22496465      -0.06072780      -1.01295353 </v>
   <v>      -1.23999955      -0.12547254       1.04611654 </v>
   <v>       0.37605059       0.89213891       0.54226829 </v>
  </varray>
  <varray name="stress" >
   <v>      -7.03180963       0.04411539       0.39515538 </v>
   <v>       0.04411522     -14.04789338      -0.08274091 </v>
   <v>       0.39515516      -0.08274076      -9.52127910 </v>
  </varray>
  <energy>
   <i name="e_fr_energy">   -312.08740994 </i>
   <i name="e_wo_entrp">   -312.08740994 </i>
   <i name="e_0_energy">      0.00000000 </i>
  </energy>
  <time name="totalsc"> 1429.61 1434.17</time>
  <eigenvalues>
   <array>
    <dimension dim="1">band</dimension>
    <dimension dim="2">kpoint</dimension>
    <dimension dim="3">spin</dimension>
    <field>eigene</field>
    <field>occ</field>
    <set>
     <set comment="spin 1">
      <set comment="kpoint 1">
       <r>  -40.4359    1.0000 </r>
       <r>  -40.2629    1.0000 </r>
       <r>  -40.0608    1.0000 </r>
       <r>  -39.9751    1.0000 </r>
       <r>  -39.8497    1.0000 </r>
       <r>  -39.8325    1.0000 </r>
       <r>  -39.8021    1.0000 </r>
       <r>  -39.6210    1.0000 </r>
       <r>  -39.6030    1.0000 </r>
       <r>  -39.1693    1.0000 </r>
       <r>  -18.9997    1.0000 </r>
       <r>  -18.9259    1.0000 </r>
       <r>  -18.9195    1.0000 </r>
       <r>  -18.9179    1.0000 </r>
       <r>  -18.9116    1.0000 </r>
       <r>  -18.8528    1.0000 </r>
       <r>  -18.8460    1.0000 </r>
       <r>  -18.8382    1.0000 </r>
       <r>  -18.8300    1.0000 </r>
       <r>  -18.8204    1.0000 </r>
       <r>  -18.8163    1.0000 </r>
       <r>  -18.7436    1.0000 </r>
       <r>  -18.7401    1.0000 </r>
       <r>  -18.7305    1.0000 </r>
       <r>  -18.7271    1.0000 </r>
       <r>  -18.7207    1.0000 </r>
       <r>  -18.7112    1.0000 </r>
       <r>  -18.7058    1.0000 </r>
       <r>  -18.6969    1.0000 </r>
       <r>  -18.6847    1.0000 </r>
       <r>  -18.6799    1.0000 </r>
       <r>  -18.6631    1.0000 </r>
       <r>  -18.6573    1.0000 </r>
       <r>  -18.6490    1.0000 </r>
       <r>  -18.6449    1.0000 </r>
       <r>  -18.6428    1.0000 </r>
       <r>  -18.6401    1.0000 </r>
       <r>  -18.6376    1.0000 </r>
       <r>  -18.6362    1.0000 </r>
       <r>  -18.6311    1.0000 </r>
       <r>  -18.6293    1.0000 </r>
       <r>  -18.6270    1.0000 </r>
       <r>  -18.6243    1.0000 </r>
       <r>  -18.6217    1.0000 </r>
       <r>  -18.6203    1.0000 </r>
       <r>  -18.6177    1.0000 </r>
       <r>  -18.6081    1.0000 </r>
       <r>  -18.5991    1.0000 </r>
       <r>  -18.5940    1.0000 </r>
       <r>  -18.5661    1.0000 </r>
       <r>  -18.5634    1.0000 </r>
       <r>  -18.5574    1.0000 </r>
       <r>  -18.5533    1.0000 </r>
       <r>  -18.5470    1.0000 </r>
       <r>  -18.5414    1.0000 </r>
       <r>  -18.5400    1.0000 </r>
       <r>  -18.5326    1.0000 </r>
       <r>  -18.5311    1.0000 </r>
       <r>  -18.5225    1.0000 </r>
       <r>  -18.4962    1.0000 </r>
       <r>  -18.4921    1.0000 </r>
       <r>  -18.4907    1.0000 </r>
       <r>  -18.4839    1.0000 </r>
       <r>  -18.4778    1.0000 </r>
       <r>  -18.4752    1.0000 </r>
       <r>  -18.4747    1.0000 </r>
       <r>  -18.4733    1.0000 </r>
       <r>  -18.4707    1.0000 </r>
       <r>  -18.4647    1.0000 </r>
       <r>  -18.4580    1.0000 </r>
       <r>  -18.4499    1.0000 </r>
       <r>  -18.4053    1.0000 </r>
       <r>  -18.3952    1.0000 </r>
       <r>  -18.3938    1.0000 </r>
       <r>  -18.3857    1.0000 </r>
       <r>  -18.3829    1.0000 </r>
       <r>  -18.3796    1.0000 </r>
       <r>  -18.3657    1.0000 </r>
       <r>  -18.3652    1.0000 </r>
       <r>  -18.3202    1.0000 </r>
       <r>  -18.3082    1.0000 </r>
       <r>  -18.2992    1.0000 </r>
       <r>  -18.2913    1.0000 </r>
       <r>  -18.2280    1.0000 </r>
       <r>  -18.1829    1.0000 </r>
       <r>  -18.1771    1.0000 </r>
       <r>  -18.1679    1.0000 </r>
       <r>  -18.1650    1.0000 </r>
       <r>  -18.1183    1.0000 </r>
       <r>  -18.0929    1.0000 </r>
       <r>  -13.6295    1.0000 </r>
       <r>  -13.4795    1.0000 </r>
       <r>  -13.4704    1.0000 </r>
       <r>  -12.8964    1.0000 </r>
       <r>  -12.8058    1.0000 </r>
       <r>  -12.7562    1.0000 </r>
       <r>  -12.7432    1.0000 </r>
       <r>  -12.7086    1.0000 </r>
       <r>  -12.6778    1.0000 </r>
       <r>  -12.6675    1.0000 </r>
       <r>  -12.6358    1.0000 </r>
       <r>  -12.5820    1.0000 </r>
       <r>  -12.5473    1.0000 </r>
       <r>  -11.9657    1.0000 </r>
       <r>  -11.9162    1.0000 </r>
       <r>  -11.8615    1.0000 </r>
       <r>   -9.3299    1.0000 </r>
       <r>   -9.0370    1.0000 </r>
       <r>   -8.5206    1.0000 </r>
       <r>   -8.5140    1.0000 </r>
       <r>   -8.4596    1.0000 </r>
       <r>   -8.4550    1.0000 </r>
       <r>   -8.2986    1.0000 </r>
       <r>   -8.2905    1.0000 </r>
       <r>   -8.2410    1.0000 </r>
       <r>   -8.2309    1.0000 </r>
       <r>   -8.0152    1.0000 </r>
       <r>   -7.9909    1.0000 </r>
       <r>   -7.9853    1.0000 </r>
       <r>   -7.9522    1.0000 </r>
       <r>   -7.3445    1.0000 </r>
       <r>   -7.3399    1.0000 </r>
       <r>   -6.3738    1.0000 </r>
       <r>   -6.3610    1.0000 </r>
       <r>   -6.3503    1.0000 </r>
       <r>   -6.3393    1.0000 </r>
       <r>   -5.5394    1.0000 </r>
       <r>   -5.5357    1.0000 </r>
       <r>   -5.3603    1.0000 </r>
       <r>   -5.3418    1.0000 </r>
       <r>   -5.2643    1.0000 </r>
       <r>   -5.2608    1.0000 </r>
       <r>   -5.1865    1.0000 </r>
       <r>   -5.1394    1.0000 </r>
       <r>   -5.0682    1.0000 </r>
       <r>   -5.0419    1.0000 </r>
       <r>   -3.7891    1.0000 </r>
       <r>   -3.6356    1.0000 </r>
       <r>   -1.4007    1.0000 </r>
       <r>   -1.3611    1.0000 </r>
       <r>   -1.0762    1.0000 </r>
       <r>   -1.0296    1.0000 </r>
       <r>   -0.5421    1.0000 </r>
       <r>   -0.5074    1.0000 </r>
       <r>   -0.4735    1.0000 </r>
       <r>   -0.4528    1.0000 </r>
       <r>   -0.1726    1.0000 </r>
       <r>   -0.1687    1.0000 </r>
       <r>   -0.1425    1.0000 </r>
       <r>   -0.1287    1.0000 </r>
       <r>   -0.0170    1.0000 </r>
       <r>    0.1265    1.0000 </r>
       <r>    0.2301    1.0000 </r>
       <r>    0.3964    1.0000 </r>
       <r>    0.4303    1.0000 </r>
       <r>    0.4974    1.0000 </r>
       <r>    0.5805    1.0000 </r>
       <r>    0.6193    1.0000 </r>
       <r>    0.6611    1.0000 </r>
       <r>    0.7419    1.0000 </r>
       <r>    0.7589    1.0000 </r>
       <r>    0.7815    1.0000 </r>
       <r>    0.7826    1.0000 </r>
       <r>    0.8675    1.0000 </r>
       <r>    0.8884    1.0000 </r>
       <r>    0.9540    1.0000 </r>
       <r>    0.9944    1.0000 </r>
       <r>    1.0126    1.0000 </r>
       <r>    1.0263    1.0000 </r>
       <r>    1.0819    1.0000 </r>
       <r>    1.1413    1.0000 </r>
       <r>    1.1820    1.0000 </r>
       <r>    1.2071    1.0000 </r>
       <r>    1.2624    1.0000 </r>
       <r>    1.3044    1.0000 </r>
       <r>    1.3722    1.0000 </r>
       <r>    1.4657    1.0000 </r>
       <r>    1.4826    1.0000 </r>
       <r>    1.5040    1.0000 </r>
       <r>    1.5455    1.0000 </r>
       <r>    1.5799    1.0000 </r>
       <r>    1.6401    1.0000 </r>
       <r>    1.6528    1.0000 </r>
       <r>    1.6873    1.0000 </r>
       <r>    1.7597    1.0000 </r>
       <r>    1.8497    1.0000 </r>
       <r>    1.8626    1.0000 </r>
       <r>    1.9215    1.0000 </r>
       <r>    1.9949    1.0000 </r>
       <r>    2.0291    1.0000 </r>
       <r>    2.1050    1.0000 </r>
       <r>    2.1928    1.0000 </r>
       <r>    2.2248    1.0000 </r>
       <r>    2.2886    1.0000 </r>
       <r>    2.2991    1.0000 </r>
       <r>    2.3552    1.0000 </r>
       <r>    2.4847    1.0000 </r>
       <r>    2.5142    1.0000 </r>
       <r>    2.5693    1.0000 </r>
       <r>    2.5762    1.0000 </r>
       <r>    2.5916    1.0000 </r>
       <r>    2.5937    1.0000 </r>
       <r>    2.5999    1.0000 </r>
       <r>    2.6372    1.0000 </r>
       <r>    2.6607    1.0000 </r>
       <r>    2.7257    1.0000 </r>
       <r>    2.7448    1.0000 </r>
       <r>    2.7841    1.0000 </r>
       <r>    2.7948    1.0000 </r>
       <r>    2.8503    1.0000 </r>
       <r>    2.8768    1.0000 </r>
       <r>    2.8981    1.0000 </r>
       <r>    2.9394    1.0000 </r>
       <r>    3.0282    1.0000 </r>
       <r>    3.0683    1.0000 </r>
       <r>    3.0864    1.0000 </r>
       <r>    3.0978    1.0000 </r>
       <r>    3.1291    1.0000 </r>
       <r>    3.1501    1.0000 </r>
       <r>    3.2010    1.0000 </r>
       <r>    3.2209    1.0000 </r>
       <r>    3.2318    1.0000 </r>
       <r>    3.2339    1.0000 </r>
       <r>    3.2501    1.0000 </r>
       <r>    3.3101    1.0000 </r>
       <r>    3.3734    1.0000 </r>
       <r>    3.4579    1.0000 </r>
       <r>    3.4814    1.0000 </r>
       <r>    3.5179    1.0000 </r>
       <r>    3.7880    1.0000 </r>
       <r>    4.1982    1.0000 </r>
       <r>    4.2181    1.0000 </r>
       <r>    4.2454    1.0000 </r>
       <r>    4.2469    1.0000 </r>
       <r>    5.0766    0.0000 </r>
       <r>    5.0866    0.0000 </r>
       <r>    5.1430    0.0000 </r>
       <r>    5.1581    0.0000 </r>
       <r>    5.7436    0.0000 </r>
       <r>    5.7521    0.0000 </r>
       <r>    5.7890    0.0000 </r>
       <r>    5.8153    0.0000 </r>
       <r>    6.1251    0.0000 </r>
       <r>    6.1351    0.0000 </r>
       <r>    6.1530    0.0000 </r>
       <r>    6.1660    0.0000 </r>
       <r>    6.2537    0.0000 </r>
       <r>    6.2759    0.0000 </r>
       <r>    6.2784    0.0000 </r>
       <r>    6.2994    0.0000 </r>
       <r>    7.1243    0.0000 </r>
       <r>    7.1654    0.0000 </r>
       <r>    7.2087    0.0000 </r>
       <r>    7.2717    0.0000 </r>
       <r>    7.8299    0.0000 </r>
       <r>    7.8548    0.0000 </r>
       <r>    7.9599    0.0000 </r>
       <r>    7.9912    0.0000 </r>
       <r>    8.0034    0.0000 </r>
       <r>    8.0140    0.0000 </r>
       <r>    8.1246    0.0000 </r>
       <r>    8.1974    0.0000 </r>
       <r>    8.4709    0.0000 </r>
       <r>    8.5396    0.0000 </r>
       <r>    8.7135    0.0000 </r>
       <r>    8.8157    0.0000 </r>
       <r>    8.8179    0.0000 </r>
       <r>    8.8977    0.0000 </r>
       <r>    8.9521    0.0000 </r>
       <r>    8.9759    0.0000 </r>
       <r>    8.9905    0.0000 </r>
       <r>    9.0310    0.0000 </r>
       <r>    9.0684    0.0000 </r>
       <r>    9.1350    0.0000 </r>
       <r>    9.1581    0.0000 </r>
       <r>    9.1783    0.0000 </r>
       <r>    9.2278    0.0000 </r>
       <r>    9.2899    0.0000 </r>
       <r>    9.4361    0.0000 </r>
       <r>    9.5650    0.0000 </r>
      </set>
      <set comment="kpoint 2">
       <r>  -40.4359    1.0000 </r>
       <r>  -40.2629    1.0000 </r>
       <r>  -40.0608    1.0000 </r>
       <r>  -39.9751    1.0000 </r>
       <r>  -39.8497    1.0000 </r>
       <r>  -39.8325    1.0000 </r>
       <r>  -39.8021    1.0000 </r>
       <r>  -39.6210    1.0000 </r>
       <r>  -39.6030    1.0000 </r>
       <r>  -39.1692    1.0000 </r>
       <r>  -18.9997    1.0000 </r>
       <r>  -18.9258    1.0000 </r>
       <r>  -18.9195    1.0000 </r>
       <r>  -18.9179    1.0000 </r>
       <r>  -18.9116    1.0000 </r>
       <r>  -18.8526    1.0000 </r>
       <r>  -18.8460    1.0000 </r>
       <r>  -18.8384    1.0000 </r>
       <r>  -18.8300    1.0000 </r>
       <r>  -18.8204    1.0000 </r>
       <r>  -18.8163    1.0000 </r>
       <r>  -18.7436    1.0000 </r>
       <r>  -18.7401    1.0000 </r>
       <r>  -18.7305    1.0000 </r>
       <r>  -18.7271    1.0000 </r>
       <r>  -18.7208    1.0000 </r>
       <r>  -18.7112    1.0000 </r>
       <r>  -18.7057    1.0000 </r>
       <r>  -18.6969    1.0000 </r>
       <r>  -18.6847    1.0000 </r>
       <r>  -18.6799    1.0000 </r>
       <r>  -18.6599    1.0000 </r>
       <r>  -18.6548    1.0000 </r>
       <r>  -18.6522    1.0000 </r>
       <r>  -18.6469    1.0000 </r>
       <r>  -18.6433    1.0000 </r>
       <r>  -18.6412    1.0000 </r>
       <r>  -18.6389    1.0000 </r>
       <r>  -18.6366    1.0000 </r>
       <r>  -18.6344    1.0000 </r>
       <r>  -18.6295    1.0000 </r>
       <r>  -18.6273    1.0000 </r>
       <r>  -18.6229    1.0000 </r>
       <r>  -18.6220    1.0000 </r>
       <r>  -18.6193    1.0000 </r>
       <r>  -18.6117    1.0000 </r>
       <r>  -18.6038    1.0000 </r>
       <r>  -18.6029    1.0000 </r>
       <r>  -18.5963    1.0000 </r>
       <r>  -18.5661    1.0000 </r>
       <r>  -18.5633    1.0000 </r>
       <r>  -18.5574    1.0000 </r>
       <r>  -18.5533    1.0000 </r>
       <r>  -18.5469    1.0000 </r>
       <r>  -18.5414    1.0000 </r>
       <r>  -18.5400    1.0000 </r>
       <r>  -18.5326    1.0000 </r>
       <r>  -18.5311    1.0000 </r>
       <r>  -18.5225    1.0000 </r>
       <r>  -18.4960    1.0000 </r>
       <r>  -18.4920    1.0000 </r>
       <r>  -18.4910    1.0000 </r>
       <r>  -18.4836    1.0000 </r>
       <r>  -18.4778    1.0000 </r>
       <r>  -18.4753    1.0000 </r>
       <r>  -18.4747    1.0000 </r>
       <r>  -18.4733    1.0000 </r>
       <r>  -18.4709    1.0000 </r>
       <r>  -18.4645    1.0000 </r>
       <r>  -18.4580    1.0000 </r>
       <r>  -18.4499    1.0000 </r>
       <r>  -18.4053    1.0000 </r>
       <r>  -18.3952    1.0000 </r>
       <r>  -18.3939    1.0000 </r>
       <r>  -18.3856    1.0000 </r>
       <r>  -18.3828    1.0000 </r>
       <r>  -18.3795    1.0000 </r>
       <r>  -18.3658    1.0000 </r>
       <r>  -18.3653    1.0000 </r>
       <r>  -18.3202    1.0000 </r>
       <r>  -18.3083    1.0000 </r>
       <r>  -18.2992    1.0000 </r>
       <r>  -18.2913    1.0000 </r>
       <r>  -18.2280    1.0000 </r>
       <r>  -18.1829    1.0000 </r>
       <r>  -18.1771    1.0000 </r>
       <r>  -18.1679    1.0000 </r>
       <r>  -18.1650    1.0000 </r>
       <r>  -18.1183    1.0000 </r>
       <r>  -18.0929    1.0000 </r>
       <r>  -13.6290    1.0000 </r>
       <r>  -13.4801    1.0000 </r>
       <r>  -13.4702    1.0000 </r>
       <r>  -12.8950    1.0000 </r>
       <r>  -12.7965    1.0000 </r>
       <r>  -12.7671    1.0000 </r>
       <r>  -12.7554    1.0000 </r>
       <r>  -12.6927    1.0000 </r>
       <r>  -12.6819    1.0000 </r>
       <r>  -12.6656    1.0000 </r>
       <r>  -12.6372    1.0000 </r>
       <r>  -12.5807    1.0000 </r>
       <r>  -12.5482    1.0000 </r>
       <r>  -11.9658    1.0000 </r>
       <r>  -11.9164    1.0000 </r>
       <r>  -11.8612    1.0000 </r>
       <r>   -9.1833    1.0000 </r>
       <r>   -9.0319    1.0000 </r>
       <r>   -8.9105    1.0000 </r>
       <r>   -8.7553    1.0000 </r>
       <r>   -8.3881    1.0000 </r>
       <r>   -8.3756    1.0000 </r>
       <r>   -8.2535    1.0000 </r>
       <r>   -8.2425    1.0000 </r>
       <r>   -8.1856    1.0000 </r>
       <r>   -8.1794    1.0000 </r>
       <r>   -8.0549    1.0000 </r>
       <r>   -8.0432    1.0000 </r>
       <r>   -7.7329    1.0000 </r>
       <r>   -7.6260    1.0000 </r>
       <r>   -7.6176    1.0000 </r>
       <r>   -7.5101    1.0000 </r>
       <r>   -6.0391    1.0000 </r>
       <r>   -6.0086    1.0000 </r>
       <r>   -5.9211    1.0000 </r>
       <r>   -5.8343    1.0000 </r>
       <r>   -5.8321    1.0000 </r>
       <r>   -5.7884    1.0000 </r>
       <r>   -5.7103    1.0000 </r>
       <r>   -5.6662    1.0000 </r>
       <r>   -5.6361    1.0000 </r>
       <r>   -5.6015    1.0000 </r>
       <r>   -5.4672    1.0000 </r>
       <r>   -5.4101    1.0000 </r>
       <r>   -4.4856    1.0000 </r>
       <r>   -4.3315    1.0000 </r>
       <r>   -4.3184    1.0000 </r>
       <r>   -4.1578    1.0000 </r>
       <r>   -1.2150    1.0000 </r>
       <r>   -1.0533    1.0000 </r>
       <r>   -0.8851    1.0000 </r>
       <r>   -0.7181    1.0000 </r>
       <r>   -0.4609    1.0000 </r>
       <r>   -0.3461    1.0000 </r>
       <r>   -0.0672    1.0000 </r>
       <r>    0.0173    1.0000 </r>
       <r>    0.0468    1.0000 </r>
       <r>    0.0902    1.0000 </r>
       <r>    0.1276    1.0000 </r>
       <r>    0.1600    1.0000 </r>
       <r>    0.1981    1.0000 </r>
       <r>    0.2533    1.0000 </r>
       <r>    0.3306    1.0000 </r>
       <r>    0.3749    1.0000 </r>
       <r>    0.4530    1.0000 </r>
       <r>    0.5042    1.0000 </r>
       <r>    0.5324    1.0000 </r>
       <r>    0.5949    1.0000 </r>
       <r>    0.6379    1.0000 </r>
       <r>    0.6532    1.0000 </r>
       <r>    0.6636    1.0000 </r>
       <r>    0.6963    1.0000 </r>
       <r>    0.7131    1.0000 </r>
       <r>    0.7834    1.0000 </r>
       <r>    0.8703    1.0000 </r>
       <r>    0.8983    1.0000 </r>
       <r>    0.9555    1.0000 </r>
       <r>    1.0251    1.0000 </r>
       <r>    1.0630    1.0000 </r>
       <r>    1.0922    1.0000 </r>
       <r>    1.1803    1.0000 </r>
       <r>    1.2195    1.0000 </r>
       <r>    1.2527    1.0000 </r>
       <r>    1.2796    1.0000 </r>
       <r>    1.2920    1.0000 </r>
       <r>    1.3280    1.0000 </r>
       <r>    1.3677    1.0000 </r>
       <r>    1.4732    1.0000 </r>
       <r>    1.4897    1.0000 </r>
       <r>    1.5010    1.0000 </r>
       <r>    1.5163    1.0000 </r>
       <r>    1.5893    1.0000 </r>
       <r>    1.5940    1.0000 </r>
       <r>    1.6376    1.0000 </r>
       <r>    1.7080    1.0000 </r>
       <r>    1.7781    1.0000 </r>
       <r>    1.8168    1.0000 </r>
       <r>    1.8466    1.0000 </r>
       <r>    1.8787    1.0000 </r>
       <r>    1.9527    1.0000 </r>
       <r>    1.9952    1.0000 </r>
       <r>    2.0503    1.0000 </r>
       <r>    2.0693    1.0000 </r>
       <r>    2.1131    1.0000 </r>
       <r>    2.1367    1.0000 </r>
       <r>    2.1859    1.0000 </r>
       <r>    2.2522    1.0000 </r>
       <r>    2.2837    1.0000 </r>
       <r>    2.3183    1.0000 </r>
       <r>    2.3511    1.0000 </r>
       <r>    2.3683    1.0000 </r>
       <r>    2.4576    1.0000 </r>
       <r>    2.5059    1.0000 </r>
       <r>    2.5327    1.0000 </r>
       <r>    2.5594    1.0000 </r>
       <r>    2.6046    1.0000 </r>
       <r>    2.6373    1.0000 </r>
       <r>    2.6979    1.0000 </r>
       <r>    2.7234    1.0000 </r>
       <r>    2.7505    1.0000 </r>
       <r>    2.7781    1.0000 </r>
       <r>    2.7914    1.0000 </r>
       <r>    2.8170    1.0000 </r>
       <r>    2.8438    1.0000 </r>
       <r>    2.9009    1.0000 </r>
       <r>    2.9299    1.0000 </r>
       <r>    3.0251    1.0000 </r>
       <r>    3.0597    1.0000 </r>
       <r>    3.0933    1.0000 </r>
       <r>    3.1092    1.0000 </r>
       <r>    3.1363    1.0000 </r>
       <r>    3.1402    1.0000 </r>
       <r>    3.1989    1.0000 </r>
       <r>    3.2908    1.0000 </r>
       <r>    3.3268    1.0000 </r>
       <r>    3.4537    1.0000 </r>
       <r>    3.4864    1.0000 </r>
       <r>    3.5169    1.0000 </r>
       <r>    3.5515    1.0000 </r>
       <r>    3.5650    1.0000 </r>
       <r>    3.6360    1.0000 </r>
       <r>    3.6486    1.0000 </r>
       <r>    3.7291    1.0000 </r>
       <r>    3.9228    1.0000 </r>
       <r>    5.5725    0.0000 </r>
       <r>    5.5778    0.0000 </r>
       <r>    5.7262    0.0000 </r>
       <r>    5.7364    0.0000 </r>
       <r>    5.7483    0.0000 </r>
       <r>    5.7609    0.0000 </r>
       <r>    5.9084    0.0000 </r>
       <r>    5.9163    0.0000 </r>
       <r>    7.1882    0.0000 </r>
       <r>    7.2238    0.0000 </r>
       <r>    7.2560    0.0000 </r>
       <r>    7.2814    0.0000 </r>
       <r>    7.3705    0.0000 </r>
       <r>    7.4201    0.0000 </r>
       <r>    7.4345    0.0000 </r>
       <r>    7.4614    0.0000 </r>
       <r>    7.4806    0.0000 </r>
       <r>    7.4951    0.0000 </r>
       <r>    7.5872    0.0000 </r>
       <r>    7.6079    0.0000 </r>
       <r>    7.8149    0.0000 </r>
       <r>    7.8380    0.0000 </r>
       <r>    7.8620    0.0000 </r>
       <r>    7.8725    0.0000 </r>
       <r>    7.8919    0.0000 </r>
       <r>    7.9206    0.0000 </r>
       <r>    7.9604    0.0000 </r>
       <r>    7.9900    0.0000 </r>
       <r>    8.0180    0.0000 </r>
       <r>    8.0443    0.0000 </r>
       <r>    8.0838    0.0000 </r>
       <r>    8.1512    0.0000 </r>
       <r>    8.2873    0.0000 </r>
       <r>    8.4328    0.0000 </r>
       <r>    8.4486    0.0000 </r>
       <r>    8.5627    0.0000 </r>
       <r>    8.6387    0.0000 </r>
       <r>    8.7315    0.0000 </r>
       <r>    8.7566    0.0000 </r>
       <r>    8.7686    0.0000 </r>
       <r>    8.7995    0.0000 </r>
       <r>    8.8785    0.0000 </r>
       <r>    8.9468    0.0000 </r>
       <r>    8.9593    0.0000 </r>
       <r>    9.1130    0.0000 </r>
       <r>    9.3256    0.0000 </r>
      </set>
      <set comment="kpoint 3">
       <r>  -40.4359    1.0000 </r>
       <r>  -40.2629    1.0000 </r>
       <r>  -40.0608    1.0000 </r>
       <r>  -39.9751    1.0000 </r>
       <r>  -39.8497    1.0000 </r>
       <r>  -39.8325    1.0000 </r>
       <r>  -39.8021    1.0000 </r>
       <r>  -39.6210    1.0000 </r>
       <r>  -39.6030    1.0000 </r>
       <r>  -39.1692    1.0000 </r>
       <r>  -18.9997    1.0000 </r>
       <r>  -18.9258    1.0000 </r>
       <r>  -18.9195    1.0000 </r>
       <r>  -18.9179    1.0000 </r>
       <r>  -18.9116    1.0000 </r>
       <r>  -18.8528    1.0000 </r>
       <r>  -18.8460    1.0000 </r>
       <r>  -18.8382    1.0000 </r>
       <r>  -18.8300    1.0000 </r>
       <r>  -18.8204    1.0000 </r>
       <r>  -18.8163    1.0000 </r>
       <r>  -18.7436    1.0000 </r>
       <r>  -18.7401    1.0000 </r>
       <r>  -18.7305    1.0000 </r>
       <r>  -18.7271    1.0000 </r>
       <r>  -18.7207    1.0000 </r>
       <r>  -18.7112    1.0000 </r>
       <r>  -18.7058    1.0000 </r>
       <r>  -18.6969    1.0000 </r>
       <r>  -18.6847    1.0000 </r>
       <r>  -18.6799    1.0000 </r>
       <r>  -18.6631    1.0000 </r>
       <r>  -18.6573    1.0000 </r>
       <r>  -18.6490    1.0000 </r>
       <r>  -18.6449    1.0000 </r>
       <r>  -18.6428    1.0000 </r>
       <r>  -18.6401    1.0000 </r>
       <r>  -18.6376    1.0000 </r>
       <r>  -18.6362    1.0000 </r>
       <r>  -18.6311    1.0000 </r>
       <r>  -18.6293    1.0000 </r>
       <r>  -18.6270    1.0000 </r>
       <r>  -18.6243    1.0000 </r>
       <r>  -18.6217    1.0000 </r>
       <r>  -18.6203    1.0000 </r>
       <r>  -18.6177    1.0000 </r>
       <r>  -18.6081    1.0000 </r>
       <r>  -18.5991    1.0000 </r>
       <r>  -18.5940    1.0000 </r>
       <r>  -18.5661    1.0000 </r>
       <r>  -18.5633    1.0000 </r>
       <r>  -18.5574    1.0000 </r>
       <r>  -18.5533    1.0000 </r>
       <r>  -18.5470    1.0000 </r>
       <r>  -18.5414    1.0000 </r>
       <r>  -18.5400    1.0000 </r>
       <r>  -18.5326    1.0000 </r>
       <r>  -18.5311    1.0000 </r>
       <r>  -18.5225    1.0000 </r>
       <r>  -18.4961    1.0000 </r>
       <r>  -18.4920    1.0000 </r>
       <r>  -18.4907    1.0000 </r>
       <r>  -18.4839    1.0000 </r>
       <r>  -18.4778    1.0000 </r>
       <r>  -18.4752    1.0000 </r>
       <r>  -18.4747    1.0000 </r>
       <r>  -18.4733    1.0000 </r>
       <r>  -18.4707    1.0000 </r>
       <r>  -18.4647    1.0000 </r>
       <r>  -18.4580    1.0000 </r>
       <r>  -18.4499    1.0000 </r>
       <r>  -18.4053    1.0000 </r>
       <r>  -18.3952    1.0000 </r>
       <r>  -18.3938    1.0000 </r>
       <r>  -18.3857    1.0000 </r>
       <r>  -18.3829    1.0000 </r>
       <r>  -18.3796    1.0000 </r>
       <r>  -18.3657    1.0000 </r>
       <r>  -18.3652    1.0000 </r>
       <r>  -18.3202    1.0000 </r>
       <r>  -18.3083    1.0000 </r>
       <r>  -18.2992    1.0000 </r>
       <r>  -18.2913    1.0000 </r>
       <r>  -18.2280    1.0000 </r>
       <r>  -18.1829    1.0000 </r>
       <r>  -18.1771    1.0000 </r>
       <r>  -18.1679    1.0000 </r>
       <r>  -18.1650    1.0000 </r>
       <r>  -18.1183    1.0000 </r>
       <r>  -18.0929    1.0000 </r>
       <r>  -13.6292    1.0000 </r>
       <r>  -13.4795    1.0000 </r>
       <r>  -13.4705    1.0000 </r>
       <r>  -12.8954    1.0000 </r>
       <r>  -12.8050    1.0000 </r>
       <r>  -12.7566    1.0000 </r>
       <r>  -12.7435    1.0000 </r>
       <r>  -12.7085    1.0000 </r>
       <r>  -12.6779    1.0000 </r>
       <r>  -12.6676    1.0000 </r>
       <r>  -12.6358    1.0000 </r>
       <r>  -12.5833    1.0000 </r>
       <r>  -12.5476    1.0000 </r>
       <r>  -11.9650    1.0000 </r>
       <r>  -11.9163    1.0000 </r>
       <r>  -11.8632    1.0000 </r>
       <r>   -9.3208    1.0000 </r>
       <r>   -9.0431    1.0000 </r>
       <r>   -8.5389    1.0000 </r>
       <r>   -8.5317    1.0000 </r>
       <r>   -8.4768    1.0000 </r>
       <r>   -8.4727    1.0000 </r>
       <r>   -8.2782    1.0000 </r>
       <r>   -8.2714    1.0000 </r>
       <r>   -8.2228    1.0000 </r>
       <r>   -8.2110    1.0000 </r>
       <r>   -8.0192    1.0000 </r>
       <r>   -7.9937    1.0000 </r>
       <r>   -7.9884    1.0000 </r>
       <r>   -7.9547    1.0000 </r>
       <r>   -7.3473    1.0000 </r>
       <r>   -7.3428    1.0000 </r>
       <r>   -6.3648    1.0000 </r>
       <r>   -6.3512    1.0000 </r>
       <r>   -6.3408    1.0000 </r>
       <r>   -6.3292    1.0000 </r>
       <r>   -5.5431    1.0000 </r>
       <r>   -5.5401    1.0000 </r>
       <r>   -5.3943    1.0000 </r>
       <r>   -5.3850    1.0000 </r>
       <r>   -5.2865    1.0000 </r>
       <r>   -5.2840    1.0000 </r>
       <r>   -5.1287    1.0000 </r>
       <r>   -5.0987    1.0000 </r>
       <r>   -5.0197    1.0000 </r>
       <r>   -5.0020    1.0000 </r>
       <r>   -3.8618    1.0000 </r>
       <r>   -3.5513    1.0000 </r>
       <r>   -1.3351    1.0000 </r>
       <r>   -1.2930    1.0000 </r>
       <r>   -1.1648    1.0000 </r>
       <r>   -1.1253    1.0000 </r>
       <r>   -0.4140    1.0000 </r>
       <r>   -0.4111    1.0000 </r>
       <r>   -0.3933    1.0000 </r>
       <r>   -0.3795    1.0000 </r>
       <r>   -0.3613    1.0000 </r>
       <r>   -0.3030    1.0000 </r>
       <r>   -0.2918    1.0000 </r>
       <r>   -0.2444    1.0000 </r>
       <r>   -0.2029    1.0000 </r>
       <r>   -0.0405    1.0000 </r>
       <r>    0.0370    1.0000 </r>
       <r>    0.1618    1.0000 </r>
       <r>    0.2569    1.0000 </r>
       <r>    0.3110    1.0000 </r>
       <r>    0.3618    1.0000 </r>
       <r>    0.4933    1.0000 </r>
       <r>    0.5529    1.0000 </r>
       <r>    0.6523    1.0000 </r>
       <r>    0.7210    1.0000 </r>
       <r>    0.7530    1.0000 </r>
       <r>    0.7769    1.0000 </r>
       <r>    0.8012    1.0000 </r>
       <r>    0.8313    1.0000 </r>
       <r>    0.8926    1.0000 </r>
       <r>    0.9355    1.0000 </r>
       <r>    1.1255    1.0000 </r>
       <r>    1.1334    1.0000 </r>
       <r>    1.1793    1.0000 </r>
       <r>    1.2469    1.0000 </r>
       <r>    1.2547    1.0000 </r>
       <r>    1.3331    1.0000 </r>
       <r>    1.3720    1.0000 </r>
       <r>    1.3848    1.0000 </r>
       <r>    1.4387    1.0000 </r>
       <r>    1.5415    1.0000 </r>
       <r>    1.6344    1.0000 </r>
       <r>    1.6547    1.0000 </r>
       <r>    1.7075    1.0000 </r>
       <r>    1.7176    1.0000 </r>
       <r>    1.7334    1.0000 </r>
       <r>    1.7741    1.0000 </r>
       <r>    1.8571    1.0000 </r>
       <r>    1.9037    1.0000 </r>
       <r>    1.9351    1.0000 </r>
       <r>    2.0007    1.0000 </r>
       <r>    2.0180    1.0000 </r>
       <r>    2.0838    1.0000 </r>
       <r>    2.1467    1.0000 </r>
       <r>    2.1811    1.0000 </r>
       <r>    2.2368    1.0000 </r>
       <r>    2.3110    1.0000 </r>
       <r>    2.3242    1.0000 </r>
       <r>    2.3831    1.0000 </r>
       <r>    2.4495    1.0000 </r>
       <r>    2.4953    1.0000 </r>
       <r>    2.5167    1.0000 </r>
       <r>    2.5359    1.0000 </r>
       <r>    2.5668    1.0000 </r>
       <r>    2.5841    1.0000 </r>
       <r>    2.5887    1.0000 </r>
       <r>    2.5935    1.0000 </r>
       <r>    2.6049    1.0000 </r>
       <r>    2.6426    1.0000 </r>
       <r>    2.6729    1.0000 </r>
       <r>    2.7406    1.0000 </r>
       <r>    2.7512    1.0000 </r>
       <r>    2.8176    1.0000 </r>
       <r>    2.8442    1.0000 </r>
       <r>    2.8591    1.0000 </r>
       <r>    2.9349    1.0000 </r>
       <r>    2.9481    1.0000 </r>
       <r>    2.9835    1.0000 </r>
       <r>    3.0021    1.0000 </r>
       <r>    3.0213    1.0000 </r>
       <r>    3.0513    1.0000 </r>
       <r>    3.0832    1.0000 </r>
       <r>    3.1250    1.0000 </r>
       <r>    3.1374    1.0000 </r>
       <r>    3.2446    1.0000 </r>
       <r>    3.3442    1.0000 </r>
       <r>    3.3964    1.0000 </r>
       <r>    3.4229    1.0000 </r>
       <r>    3.4307    1.0000 </r>
       <r>    3.4454    1.0000 </r>
       <r>    3.4800    1.0000 </r>
       <r>    3.5409    1.0000 </r>
       <r>    3.5734    1.0000 </r>
       <r>    3.7358    1.0000 </r>
       <r>    4.2465    1.0000 </r>
       <r>    4.2707    1.0000 </r>
       <r>    4.2949    1.0000 </r>
       <r>    4.2989    1.0000 </r>
       <r>    5.1466    0.0000 </r>
       <r>    5.1558    0.0000 </r>
       <r>    5.2105    0.0000 </r>
       <r>    5.2228    0.0000 </r>
       <r>    5.7527    0.0000 </r>
       <r>    5.7611    0.0000 </r>
       <r>    5.7991    0.0000 </r>
       <r>    5.8235    0.0000 </r>
       <r>    6.1808    0.0000 </r>
       <r>    6.1881    0.0000 </r>
       <r>    6.2031    0.0000 </r>
       <r>    6.2070    0.0000 </r>
       <r>    6.2668    0.0000 </r>
       <r>    6.2882    0.0000 </r>
       <r>    6.2928    0.0000 </r>
       <r>    6.3170    0.0000 </r>
       <r>    6.7509    0.0000 </r>
       <r>    6.8669    0.0000 </r>
       <r>    6.9480    0.0000 </r>
       <r>    7.0085    0.0000 </r>
       <r>    7.3103    0.0000 </r>
       <r>    7.3350    0.0000 </r>
       <r>    7.4385    0.0000 </r>
       <r>    7.5381    0.0000 </r>
       <r>    7.8166    0.0000 </r>
       <r>    7.8650    0.0000 </r>
       <r>    7.8698    0.0000 </r>
       <r>    7.9807    0.0000 </r>
       <r>    8.0307    0.0000 </r>
       <r>    8.3646    0.0000 </r>
       <r>    8.3913    0.0000 </r>
       <r>    8.4750    0.0000 </r>
       <r>    8.6899    0.0000 </r>
       <r>    8.8153    0.0000 </r>
       <r>    8.8766    0.0000 </r>
       <r>    8.9216    0.0000 </r>
       <r>    9.0113    0.0000 </r>
       <r>    9.0569    0.0000 </r>
       <r>    9.0749    0.0000 </r>
       <r>    9.0963    0.0000 </r>
       <r>    9.1104    0.0000 </r>
       <r>    9.1649    0.0000 </r>
       <r>    9.1862    0.0000 </r>
       <r>    9.2500    0.0000 </r>
       <r>    9.5615    0.0000 </r>
       <r>    9.7119    0.0000 </r>
      </set>
      <set comment="kpoint 4">
       <r>  -40.4359    1.0000 </r>
       <r>  -40.2629    1.0000 </r>
       <r>  -40.0608    1.0000 </r>
       <r>  -39.9751    1.0000 </r>
       <r>  -39.8497    1.0000 </r>
       <r>  -39.8324    1.0000 </r>
       <r>  -39.8021    1.0000 </r>
       <r>  -39.6210    1.0000 </r>
       <r>  -39.6030    1.0000 </r>
       <r>  -39.1692    1.0000 </r>
       <r>  -18.9997    1.0000 </r>
       <r>  -18.9258    1.0000 </r>
       <r>  -18.9195    1.0000 </r>
       <r>  -18.9179    1.0000 </r>
       <r>  -18.9117    1.0000 </r>
       <r>  -18.8526    1.0000 </r>
       <r>  -18.8460    1.0000 </r>
       <r>  -18.8384    1.0000 </r>
       <r>  -18.8300    1.0000 </r>
       <r>  -18.8204    1.0000 </r>
       <r>  -18.8163    1.0000 </r>
       <r>  -18.7436    1.0000 </r>
       <r>  -18.7401    1.0000 </r>
       <r>  -18.7305    1.0000 </r>
       <r>  -18.7271    1.0000 </r>
       <r>  -18.7208    1.0000 </r>
       <r>  -18.7112    1.0000 </r>
       <r>  -18.7057    1.0000 </r>
       <r>  -18.6969    1.0000 </r>
       <r>  -18.6847    1.0000 </r>
       <r>  -18.6799    1.0000 </r>
       <r>  -18.6599    1.0000 </r>
       <r>  -18.6548    1.0000 </r>
       <r>  -18.6522    1.0000 </r>
       <r>  -18.6469    1.0000 </r>
       <r>  -18.6433    1.0000 </r>
       <r>  -18.6412    1.0000 </r>
       <r>  -18.6388    1.0000 </r>
       <r>  -18.6366    1.0000 </r>
       <r>  -18.6344    1.0000 </r>
       <r>  -18.6295    1.0000 </r>
       <r>  -18.6273    1.0000 </r>
       <r>  -18.6229    1.0000 </r>
       <r>  -18.6220    1.0000 </r>
       <r>  -18.6193    1.0000 </r>
       <r>  -18.6117    1.0000 </r>
       <r>  -18.6038    1.0000 </r>
       <r>  -18.6029    1.0000 </r>
       <r>  -18.5963    1.0000 </r>
       <r>  -18.5661    1.0000 </r>
       <r>  -18.5633    1.0000 </r>
       <r>  -18.5574    1.0000 </r>
       <r>  -18.5533    1.0000 </r>
       <r>  -18.5469    1.0000 </r>
       <r>  -18.5414    1.0000 </r>
       <r>  -18.5400    1.0000 </r>
       <r>  -18.5326    1.0000 </r>
       <r>  -18.5311    1.0000 </r>
       <r>  -18.5226    1.0000 </r>
       <r>  -18.4960    1.0000 </r>
       <r>  -18.4920    1.0000 </r>
       <r>  -18.4910    1.0000 </r>
       <r>  -18.4836    1.0000 </r>
       <r>  -18.4778    1.0000 </r>
       <r>  -18.4753    1.0000 </r>
       <r>  -18.4747    1.0000 </r>
       <r>  -18.4733    1.0000 </r>
       <r>  -18.4709    1.0000 </r>
       <r>  -18.4645    1.0000 </r>
       <r>  -18.4580    1.0000 </r>
[...]
       <r>    8.8737    0.0000 </r>
       <r>    8.9002    0.0000 </r>
       <r>    8.9104    0.0000 </r>
       <r>    8.9310    0.0000 </r>
       <r>    8.9530    0.0000 </r>
      </set>
     </set>
    </set>
   </array>
  </eigenvalues>
  <separator name="orbital magnetization" >
   <v name="MAGDIPOLOUT">      0.00000000      0.00000000      0.00000000</v>
  </separator>
  <dos>
   <i name="efermi">      4.35865997 </i>
   <total>
    <array>
     <dimension dim="1">gridpoints</dimension>
     <dimension dim="2">spin</dimension>
     <field>energy</field>
     <field>total</field>
     <field>integrated</field>
     <set>
      <set comment="spin 1">
       <r>   -42.9433     0.0000     0.0000 </r>
       <r>   -42.7594     0.0000     0.0000 </r>
       <r>   -42.5755     0.0000     0.0000 </r>
       <r>   -42.3916     0.0000     0.0000 </r>
       <r>   -42.2078     0.0000     0.0000 </r>
       <r>   -42.0239     0.0000     0.0000 </r>
       <r>   -41.8400     0.0000     0.0000 </r>
       <r>   -41.6561     0.0000     0.0000 </r>
       <r>   -41.4723     0.0000     0.0000 </r>
       <r>   -41.2884     0.0000     0.0000 </r>
       <r>   -41.1045     0.0000     0.0000 </r>
       <r>   -40.9206     0.0000     0.0000 </r>
       <r>   -40.7368     0.0000     0.0000 </r>
       <r>   -40.5529     0.0000     0.0000 </r>
       <r>   -40.3690     0.0000     2.0000 </r>
       <r>   -40.1851     0.0000     4.0000 </r>
       <r>   -40.0013     0.0000     6.0000 </r>
       <r>   -39.8174     0.0000    12.0000 </r>
       <r>   -39.6335     0.0000    14.0000 </r>
       <r>   -39.4496     0.0000    18.0000 </r>
       <r>   -39.2658     0.0000    18.0000 </r>
       <r>   -39.0819     0.0000    20.0000 </r>
       <r>   -38.8980     0.0000    20.0000 </r>
       <r>   -38.7141     0.0000    20.0000 </r>
       <r>   -38.5303     0.0000    20.0000 </r>
       <r>   -38.3464     0.0000    20.0000 </r>
       <r>   -38.1625     0.0000    20.0000 </r>
       <r>   -37.9786     0.0000    20.0000 </r>
       <r>   -37.7948     0.0000    20.0000 </r>
       <r>   -37.6109     0.0000    20.0000 </r>
       <r>   -37.4270     0.0000    20.0000 </r>
       <r>   -37.2431     0.0000    20.0000 </r>
       <r>   -37.0593     0.0000    20.0000 </r>
       <r>   -36.8754     0.0000    20.0000 </r>
       <r>   -36.6915     0.0000    20.0000 </r>
       <r>   -36.5076     0.0000    20.0000 </r>
       <r>   -36.3238     0.0000    20.0000 </r>
       <r>   -36.1399     0.0000    20.0000 </r>
       <r>   -35.9560     0.0000    20.0000 </r>
       <r>   -35.7721     0.0000    20.0000 </r>
       <r>   -35.5883     0.0000    20.0000 </r>
       <r>   -35.4044     0.0000    20.0000 </r>
       <r>   -35.2205     0.0000    20.0000 </r>
       <r>   -35.0366     0.0000    20.0000 </r>
       <r>   -34.8528     0.0000    20.0000 </r>
       <r>   -34.6689     0.0000    20.0000 </r>
       <r>   -34.4850     0.0000    20.0000 </r>
       <r>   -34.3011     0.0000    20.0000 </r>
       <r>   -34.1173     0.0000    20.0000 </r>
       <r>   -33.9334     0.0000    20.0000 </r>
       <r>   -33.7495     0.0000    20.0000 </r>
       <r>   -33.5656     0.0000    20.0000 </r>
       <r>   -33.3817     0.0000    20.0000 </r>
       <r>   -33.1979     0.0000    20.0000 </r>
       <r>   -33.0140     0.0000    20.0000 </r>
       <r>   -32.8301     0.0000    20.0000 </r>
       <r>   -32.6462     0.0000    20.0000 </r>
       <r>   -32.4624     0.0000    20.0000 </r>
       <r>   -32.2785     0.0000    20.0000 </r>
       <r>   -32.0946     0.0000    20.0000 </r>
       <r>   -31.9107     0.0000    20.0000 </r>
       <r>   -31.7269     0.0000    20.0000 </r>
       <r>   -31.5430     0.0000    20.0000 </r>
       <r>   -31.3591     0.0000    20.0000 </r>
       <r>   -31.1752     0.0000    20.0000 </r>
       <r>   -30.9914     0.0000    20.0000 </r>
       <r>   -30.8075     0.0000    20.0000 </r>
       <r>   -30.6236     0.0000    20.0000 </r>
       <r>   -30.4397     0.0000    20.0000 </r>
       <r>   -30.2559     0.0000    20.0000 </r>
       <r>   -30.0720     0.0000    20.0000 </r>
       <r>   -29.8881     0.0000    20.0000 </r>
       <r>   -29.7042     0.0000    20.0000 </r>
       <r>   -29.5204     0.0000    20.0000 </r>
       <r>   -29.3365     0.0000    20.0000 </r>
       <r>   -29.1526     0.0000    20.0000 </r>
       <r>   -28.9687     0.0000    20.0000 </r>
       <r>   -28.7849     0.0000    20.0000 </r>
       <r>   -28.6010     0.0000    20.0000 </r>
       <r>   -28.4171     0.0000    20.0000 </r>
       <r>   -28.2332     0.0000    20.0000 </r>
       <r>   -28.0494     0.0000    20.0000 </r>
       <r>   -27.8655     0.0000    20.0000 </r>
       <r>   -27.6816     0.0000    20.0000 </r>
       <r>   -27.4977     0.0000    20.0000 </r>
       <r>   -27.3139     0.0000    20.0000 </r>
       <r>   -27.1300     0.0000    20.0000 </r>
       <r>   -26.9461     0.0000    20.0000 </r>
       <r>   -26.7622     0.0000    20.0000 </r>
       <r>   -26.5784     0.0000    20.0000 </r>
       <r>   -26.3945     0.0000    20.0000 </r>
       <r>   -26.2106     0.0000    20.0000 </r>
       <r>   -26.0267     0.0000    20.0000 </r>
       <r>   -25.8429     0.0000    20.0000 </r>
       <r>   -25.6590     0.0000    20.0000 </r>
       <r>   -25.4751     0.0000    20.0000 </r>
       <r>   -25.2912     0.0000    20.0000 </r>
       <r>   -25.1074     0.0000    20.0000 </r>
       <r>   -24.9235     0.0000    20.0000 </r>
       <r>   -24.7396     0.0000    20.0000 </r>
       <r>   -24.5557     0.0000    20.0000 </r>
       <r>   -24.3719     0.0000    20.0000 </r>
       <r>   -24.1880     0.0000    20.0000 </r>
       <r>   -24.0041     0.0000    20.0000 </r>
       <r>   -23.8202     0.0000    20.0000 </r>
       <r>   -23.6364     0.0000    20.0000 </r>
       <r>   -23.4525     0.0000    20.0000 </r>
       <r>   -23.2686     0.0000    20.0000 </r>
       <r>   -23.0847     0.0000    20.0000 </r>
       <r>   -22.9009     0.0000    20.0000 </r>
       <r>   -22.7170     0.0000    20.0000 </r>
       <r>   -22.5331     0.0000    20.0000 </r>
       <r>   -22.3492     0.0000    20.0000 </r>
       <r>   -22.1654     0.0000    20.0000 </r>
       <r>   -21.9815     0.0000    20.0000 </r>
       <r>   -21.7976     0.0000    20.0000 </r>
       <r>   -21.6137     0.0000    20.0000 </r>
       <r>   -21.4299     0.0000    20.0000 </r>
       <r>   -21.2460     0.0000    20.0000 </r>
       <r>   -21.0621     0.0000    20.0000 </r>
       <r>   -20.8782     0.0000    20.0000 </r>
       <r>   -20.6944     0.0000    20.0000 </r>
       <r>   -20.5105     0.0000    20.0000 </r>
       <r>   -20.3266     0.0000    20.0000 </r>
       <r>   -20.1427     0.0000    20.0000 </r>
       <r>   -19.9589     0.0000    20.0000 </r>
       <r>   -19.7750     0.0000    20.0000 </r>
       <r>   -19.5911     0.0000    20.0000 </r>
       <r>   -19.4072     0.0000    20.0000 </r>
       <r>   -19.2233     0.0000    20.0000 </r>
       <r>   -19.0395     0.0000    20.0000 </r>
       <r>   -18.8556     0.0000    30.0000 </r>
       <r>   -18.6717     0.0000    62.0000 </r>
       <r>   -18.4878     0.0000   124.0000 </r>
       <r>   -18.3040     0.0000   162.0000 </r>
       <r>   -18.1201     0.0000   176.0000 </r>
       <r>   -17.9362     0.0000   180.0000 </r>
       <r>   -17.7523     0.0000   180.0000 </r>
       <r>   -17.5685     0.0000   180.0000 </r>
       <r>   -17.3846     0.0000   180.0000 </r>
       <r>   -17.2007     0.0000   180.0000 </r>
       <r>   -17.0168     0.0000   180.0000 </r>
       <r>   -16.8330     0.0000   180.0000 </r>
       <r>   -16.6491     0.0000   180.0000 </r>
       <r>   -16.4652     0.0000   180.0000 </r>
       <r>   -16.2813     0.0000   180.0000 </r>
       <r>   -16.0975     0.0000   180.0000 </r>
       <r>   -15.9136     0.0000   180.0000 </r>
       <r>   -15.7297     0.0000   180.0000 </r>
       <r>   -15.5458     0.0000   180.0000 </r>
       <r>   -15.3620     0.0000   180.0000 </r>
       <r>   -15.1781     0.0000   180.0000 </r>
       <r>   -14.9942     0.0000   180.0000 </r>
       <r>   -14.8103     0.0000   180.0000 </r>
       <r>   -14.6265     0.0000   180.0000 </r>
       <r>   -14.4426     0.0000   180.0000 </r>
       <r>   -14.2587     0.0000   180.0000 </r>
       <r>   -14.0748     0.0000   180.0000 </r>
       <r>   -13.8910     0.0000   180.0000 </r>
       <r>   -13.7071     0.0000   180.0000 </r>
       <r>   -13.5232     0.0000   182.0000 </r>
       <r>   -13.3393     0.0000   186.0000 </r>
       <r>   -13.1555     0.0000   186.0000 </r>
       <r>   -12.9716     0.0000   186.0000 </r>
       <r>   -12.7877     0.0000   190.0000 </r>
       <r>   -12.6038     0.0000   202.0000 </r>
       <r>   -12.4200     0.0000   206.0000 </r>
       <r>   -12.2361     0.0000   206.0000 </r>
       <r>   -12.0522     0.0000   206.0000 </r>
       <r>   -11.8683     0.0000   210.0000 </r>
       <r>   -11.6845     0.0000   212.0000 </r>
       <r>   -11.5006     0.0000   212.0000 </r>
       <r>   -11.3167     0.0000   212.0000 </r>
       <r>   -11.1328     0.0000   212.0000 </r>
       <r>   -10.9490     0.0000   212.0000 </r>
       <r>   -10.7651     0.0000   212.0000 </r>
       <r>   -10.5812     0.0000   212.0000 </r>
       <r>   -10.3973     0.0000   212.0000 </r>
       <r>   -10.2135     0.0000   212.0000 </r>
       <r>   -10.0296     0.0000   212.0000 </r>
       <r>    -9.8457     0.0000   212.0000 </r>
       <r>    -9.6618     0.0000   212.0000 </r>
       <r>    -9.4780     0.0000   212.0000 </r>
       <r>    -9.2941     3.2482   212.0511 </r>
       <r>    -9.1102     6.4221   213.8095 </r>
       <r>    -8.9263     4.4744   215.9394 </r>
       <r>    -8.7425    16.1688   218.2439 </r>
       <r>    -8.5586    14.2865   220.6838 </r>
       <r>    -8.3747    12.6509   225.0690 </r>
       <r>    -8.1908    31.6331   228.5915 </r>
       <r>    -8.0070    33.3740   232.5686 </r>
       <r>    -7.8231    18.8802   236.5440 </r>
       <r>    -7.6392    15.4270   239.8660 </r>
       <r>    -7.4553    14.7994   243.1676 </r>
       <r>    -7.2715     0.0000   244.0000 </r>
       <r>    -7.0876     0.0000   244.0000 </r>
       <r>    -6.9037     0.0000   244.0000 </r>
       <r>    -6.7198     0.0000   244.0000 </r>
       <r>    -6.5360     0.0000   244.0000 </r>
       <r>    -6.3521     0.9125   244.0071 </r>
       <r>    -6.1682    22.1443   246.1157 </r>
       <r>    -5.9843    12.6790   250.1827 </r>
       <r>    -5.8005    16.2358   253.7083 </r>
       <r>    -5.6166    21.8188   258.2115 </r>
       <r>    -5.4327    19.0967   261.8120 </r>
       <r>    -5.2488    18.0616   265.6009 </r>
       <r>    -5.0650     4.7723   267.8040 </r>
       <r>    -4.8811     6.6637   268.5467 </r>
       <r>    -4.6972     8.7910   269.9968 </r>
       <r>    -4.5133     8.5612   271.7685 </r>
       <r>    -4.3294     5.9597   273.1965 </r>
       <r>    -4.1456     6.6386   274.4152 </r>
       <r>    -3.9617     3.9486   275.4160 </r>
       <r>    -3.7778     1.3424   275.8741 </r>
       <r>    -3.5939     0.0784   275.9989 </r>
       <r>    -3.4101     0.0000   276.0000 </r>
       <r>    -3.2262     0.0000   276.0000 </r>
       <r>    -3.0423     0.0000   276.0000 </r>
       <r>    -2.8584     0.0000   276.0000 </r>
       <r>    -2.6746     0.0000   276.0000 </r>
       <r>    -2.4907     0.0000   276.0000 </r>
       <r>    -2.3068     0.0000   276.0000 </r>
       <r>    -2.1229     0.0000   276.0000 </r>
       <r>    -1.9391     0.0000   276.0000 </r>
       <r>    -1.7552     0.0000   276.0000 </r>
       <r>    -1.5713     0.0000   276.0000 </r>
       <r>    -1.3874     0.0571   276.0003 </r>
       <r>    -1.2036     8.0639   276.7080 </r>
       <r>    -1.0197    12.6809   278.3807 </r>
       <r>    -0.8358    12.1813   280.7809 </r>
       <r>    -0.6519     7.7930   282.6850 </r>
       <r>    -0.4681    13.5938   283.9638 </r>
       <r>    -0.2842    21.3826   287.5529 </r>
       <r>    -0.1003    41.4587   292.7509 </r>
       <r>     0.0836    33.9106   299.9829 </r>
       <r>     0.2674    27.7825   305.4973 </r>
       <r>     0.4513    37.4913   312.4326 </r>
       <r>     0.6352    32.4642   319.0689 </r>
       <r>     0.8191    34.9357   326.3098 </r>
       <r>     1.0029    33.4440   334.0912 </r>
       <r>     1.1868    41.0384   341.4725 </r>
       <r>     1.3707    56.6086   351.2079 </r>
       <r>     1.5546    46.8739   359.2226 </r>
       <r>     1.7384    38.3117   368.5621 </r>
       <r>     1.9223    39.5621   376.7839 </r>
       <r>     2.1062    47.6636   383.5259 </r>
       <r>     2.2901    49.0882   392.4334 </r>
       <r>     2.4739    57.1631   401.9296 </r>
       <r>     2.6578    58.9819   413.3346 </r>
       <r>     2.8417    56.9903   424.4543 </r>
       <r>     3.0256    69.4462   435.2953 </r>
       <r>     3.2094    45.9185   445.4036 </r>
       <r>     3.3933    36.1428   452.4284 </r>
       <r>     3.5772    17.3811   459.5093 </r>
       <r>     3.7611    12.3577   463.0821 </r>
       <r>     3.9449    13.8891   465.8050 </r>
       <r>     4.1288     5.7630   467.6123 </r>
       <r>     4.3127     0.0000   468.0000 </r>
       <r>     4.4966     0.0000   468.0000 </r>
       <r>     4.6804     0.0000   468.0000 </r>
       <r>     4.8643     0.0000   468.0000 </r>
       <r>     5.0482     0.0000   468.0000 </r>
       <r>     5.2321     2.0120   468.1050 </r>
       <r>     5.4159     6.2858   468.8677 </r>
       <r>     5.5998     9.1742   470.4000 </r>
       <r>     5.7837    26.8106   472.8753 </r>
       <r>     5.9676    14.1489   476.2813 </r>
       <r>     6.1514    11.7615   478.6603 </r>
       <r>     6.3353    12.1472   480.8047 </r>
       <r>     6.5192    14.1463   483.2226 </r>
       <r>     6.7031    16.1069   486.0051 </r>
       <r>     6.8869    18.1544   489.1415 </r>
       <r>     7.0708    22.6068   492.8057 </r>
       <r>     7.2547    32.3603   497.8730 </r>
       <r>     7.4386    41.3022   504.6030 </r>
       <r>     7.6224    22.7699   510.1691 </r>
       <r>     7.8063    46.5440   516.2588 </r>
       <r>     7.9902    41.3763   525.3610 </r>
       <r>     8.1741    22.9679   531.0313 </r>
       <r>     8.3579    19.1599   534.8310 </r>
       <r>     8.5418    22.1701   538.5618 </r>
       <r>     8.7257    27.4081   543.3032 </r>
       <r>     8.9096    52.2675   550.2632 </r>
       <r>     9.0934    19.6592   556.5004 </r>
       <r>     9.2773     7.7577   558.7130 </r>
       <r>     9.4612     3.0772   559.7462 </r>
       <r>     9.6451     0.2147   559.9952 </r>
       <r>     9.8290     0.0000   560.0000 </r>
       <r>    10.0128     0.0000   560.0000 </r>
       <r>    10.1967     0.0000   560.0000 </r>
       <r>    10.3806     0.0000   560.0000 </r>
       <r>    10.5645     0.0000   560.0000 </r>
       <r>    10.7483     0.0000   560.0000 </r>
       <r>    10.9322     0.0000   560.0000 </r>
       <r>    11.1161     0.0000   560.0000 </r>
       <r>    11.3000     0.0000   560.0000 </r>
       <r>    11.4838     0.0000   560.0000 </r>
       <r>    11.6677     0.0000   560.0000 </r>
       <r>    11.8516     0.0000   560.0000 </r>
       <r>    12.0355     0.0000   560.0000 </r>
       <r>    12.2193     0.0000   560.0000 </r>
      </set>
     </set>
    </array>
   </total>
  </dos>
 </calculation>
 <structure name="finalpos" >
  <crystal>
   <varray name="basis" >
    <v>      11.17850000       0.00000000       0.00000000 </v>
    <v>       0.00000000       9.57460000       0.00000000 </v>
    <v>       0.00000000       0.00000000      11.18240000 </v>
   </varray>
   <i name="volume">   1196.84853820 </i>
   <varray name="rec_basis" >
    <v>       0.08945744       0.00000000       0.00000000 </v>
    <v>       0.00000000       0.10444301       0.00000000 </v>
    <v>       0.00000000       0.00000000       0.08942624 </v>
   </varray>
  </crystal>
  <varray name="positions" >
   <v>       0.37539000       0.00017000       0.43687000 </v>
   <v>       0.12461000       0.99984000       0.18687000 </v>
   <v>       0.37461000       0.00017000       0.18687000 </v>
   <v>       0.62539000       0.99984000       0.43687000 </v>
   <v>       0.62461000       0.99984000       0.18687000 </v>
   <v>       0.12539000       0.99984000       0.93687000 </v>
   <v>       0.37539000       0.00017000       0.93687000 </v>
   <v>       0.37461000       0.00017000       0.68687000 </v>
   <v>       0.87539000       0.00017000       0.93687000 </v>
   <v>       0.62461000       0.99984000       0.68687000 </v>
   <v>       0.87539000       0.00017000       0.43687000 </v>
   <v>       0.12461000       0.99984000       0.68687000 </v>
   <v>       0.62539000       0.99984000       0.93687000 </v>
   <v>       0.00013000       0.29519000       0.06281000 </v>
   <v>       0.25013000       0.70481000       0.06281000 </v>
   <v>       0.24987000       0.29519000       0.31282000 </v>
   <v>       0.49987000       0.70481000       0.31282000 </v>
   <v>       0.50013000       0.29519000       0.06281000 </v>
   <v>       0.75013000       0.70481000       0.06281000 </v>
   <v>       0.74987000       0.29519000       0.31282000 </v>
   <v>       0.99987000       0.70481000       0.31282000 </v>
   <v>       0.00013000       0.29519000       0.56281000 </v>
   <v>       0.25013000       0.70481000       0.56281000 </v>
   <v>       0.24987000       0.29519000       0.81282000 </v>
   <v>       0.49987000       0.70481000       0.81282000 </v>
   <v>       0.50013000       0.29519000       0.56281000 </v>
   <v>       0.75013000       0.70481000       0.56281000 </v>
   <v>       0.74987000       0.29519000       0.81282000 </v>
   <v>       0.99987000       0.70481000       0.81282000 </v>
   <v>       0.25005000       0.32677000       0.06286000 </v>
   <v>       0.00005000       0.67323000       0.06286000 </v>
   <v>       0.49995000       0.32677000       0.31286000 </v>
   <v>       0.24995000       0.67323000       0.31286000 </v>
   <v>       0.75005000       0.32677000       0.06286000 </v>
   <v>       0.50005000       0.67323000       0.06286000 </v>
   <v>       0.99995000       0.32677000       0.31286000 </v>
   <v>       0.74995000       0.67323000       0.31286000 </v>
   <v>       0.25005000       0.32677000       0.56286000 </v>
   <v>       0.00005000       0.67323000       0.56286000 </v>
   <v>       0.49995000       0.32677000       0.81286000 </v>
   <v>       0.24995000       0.67323000       0.81286000 </v>
   <v>       0.75005000       0.32677000       0.56286000 </v>
   <v>       0.50005000       0.67323000       0.56286000 </v>
   <v>       0.99995000       0.32677000       0.81286000 </v>
   <v>       0.74995000       0.67323000       0.81286000 </v>
   <v>       0.49987000       0.07798000       0.06246000 </v>
   <v>       0.24987000       0.92202000       0.06246000 </v>
   <v>       0.25013000       0.07798000       0.31246000 </v>
   <v>       0.00013000       0.92202000       0.31246000 </v>
   <v>       0.99987000       0.07798000       0.06246000 </v>
   <v>       0.74987000       0.92202000       0.06246000 </v>
   <v>       0.75013000       0.07798000       0.31246000 </v>
   <v>       0.50013000       0.92202000       0.31246000 </v>
   <v>       0.49987000       0.07798000       0.56246000 </v>
   <v>       0.24987000       0.92202000       0.56246000 </v>
   <v>       0.25013000       0.07798000       0.81246000 </v>
   <v>       0.00013000       0.92202000       0.81246000 </v>
   <v>       0.99987000       0.07798000       0.56246000 </v>
   <v>       0.74987000       0.92202000       0.56246000 </v>
   <v>       0.75013000       0.07798000       0.81246000 </v>
   <v>       0.50013000       0.92202000       0.81246000 </v>
  </varray>
 </structure>
</modeling>
