<?xml version="1.0" encoding="ISO-8859-1"?>
<modeling>
 <generator>
  <i name="program" type="string">vasp </i>
  <i name="version" type="string">5.3.3  </i>
  <i name="subversion" type="string">18Dez12 (build Nov 19 2020 19:34:37) complex                          parallel </i>
  <i name="platform" type="string">LinuxIFC </i>
  <i name="date" type="string">2021 10 01 </i>
  <i name="time" type="string">13:25:35 </i>
 </generator>
 <incar>
  <i type="string" name="SYSTEM"> La2O2S</i>
  <i type="string" name="PREC">normal</i>
  <i type="int" name="NELMIN">     4</i>
  <i type="int" name="IBRION">     2</i>
  <i type="int" name="NFREE">    10</i>
  <i name="EDIFF">      0.00000100</i>
  <i name="EDIFFG">     -0.01000000</i>
  <i type="int" name="NSW">    10</i>
  <i type="int" name="ISIF">     2</i>
  <i name="ENCUT">    600.00000000</i>
  <i name="ENAUG">    900.00000000</i>
  <i type="int" name="ISMEAR">    -5</i>
  <i type="logical" name="LWAVE"> F  </i>
  <i type="logical" name="LCHARG"> F  </i>
 </incar>
 <kpoints>
  <generation param="Gamma">
   <v type="int" name="divisions">       2        2        2 </v>
   <v name="usershift">      0.00000000       0.00000000       0.00000000 </v>
   <v name="genvec1">      0.50000000       0.00000000       0.00000000 </v>
   <v name="genvec2">      0.00000000       0.50000000       0.00000000 </v>
   <v name="genvec3">      0.00000000       0.00000000       0.50000000 </v>
   <v name="shift">      0.00000000       0.00000000       0.00000000 </v>
  </generation>
  <varray name="kpointlist" >
   <v>       0.00000000       0.00000000       0.00000000 </v>
   <v>       0.50000000       0.00000000       0.00000000 </v>
   <v>       0.00000000       0.50000000       0.00000000 </v>
   <v>       0.50000000       0.50000000       0.00000000 </v>
   <v>       0.00000000       0.00000000       0.50000000 </v>
   <v>       0.50000000       0.00000000       0.50000000 </v>
   <v>       0.00000000       0.50000000       0.50000000 </v>
   <v>       0.50000000       0.50000000       0.50000000 </v>
  </varray>
  <varray name="weights" >
   <v>       0.12500000 </v>
   <v>       0.12500000 </v>
   <v>       0.12500000 </v>
   <v>       0.12500000 </v>
   <v>       0.12500000 </v>
   <v>       0.12500000 </v>
   <v>       0.12500000 </v>
   <v>       0.12500000 </v>
  </varray>
  <varray name="tetrahedronlist"  type="int" >
   <v type="int" >        2        1        2        4        5 </v>
   <v type="int" >        2        1        3        4        5 </v>
   <v type="int" >        2        3        4        5        7 </v>
   <v type="int" >        2        2        4        5        6 </v>
   <v type="int" >        2        4        5        6        8 </v>
   <v type="int" >        2        4        5        7        8 </v>
   <v type="int" >        2        1        2        3        6 </v>
   <v type="int" >        2        2        3        4        6 </v>
   <v type="int" >        2        3        4        6        8 </v>
   <v type="int" >        2        1        3        5        6 </v>
   <v type="int" >        2        3        5        6        7 </v>
   <v type="int" >        2        3        6        7        8 </v>
   <v type="int" >        2        2        3        4        7 </v>
   <v type="int" >        2        1        2        3        7 </v>
   <v type="int" >        2        1        2        5        7 </v>
   <v type="int" >        2        2        4        7        8 </v>
   <v type="int" >        2        2        6        7        8 </v>
   <v type="int" >        2        2        5        6        7 </v>
   <v type="int" >        2        1        3        4        8 </v>
   <v type="int" >        2        1        2        4        8 </v>
   <v type="int" >        2        1        2        6        8 </v>
   <v type="int" >        2        1        3        7        8 </v>
   <v type="int" >        2        1        5        7        8 </v>
   <v type="int" >        2        1        5        6        8 </v>
  </varray>
  <i name="volumeweight">      0.02083333 </i>
 </kpoints>
 <parameters>
  <separator name="general" >
   <i type="string" name="SYSTEM">La2O2S</i>
   <i type="logical" name="LCOMPAT"> F  </i>
  </separator>
  <separator name="electronic" >
   <i type="string" name="PREC">normal</i>
   <i name="ENMAX">    600.00000000</i>
   <i name="ENAUG">    900.00000000</i>
   <i name="EDIFF">      0.00000100</i>
   <i type="int" name="IALGO">    38</i>
   <i type="int" name="IWAVPR">    11</i>
   <i type="int" name="NBANDS">   300</i>
   <i name="NELECT">    476.00000000</i>
   <i type="int" name="TURBO">     0</i>
   <i type="int" name="IRESTART">     0</i>
   <i type="int" name="NREBOOT">     0</i>
   <i type="int" name="NMIN">     0</i>
   <i name="EREF">      0.00000000</i>
   <separator name="electronic smearing" >
    <i type="int" name="ISMEAR">    -5</i>
    <i name="SIGMA">      0.20000000</i>
    <i name="KSPACING">      0.50000000</i>
    <i type="logical" name="KGAMMA"> T  </i>
   </separator>
   <separator name="electronic projectors" >
    <i type="logical" name="LREAL"> F  </i>
    <v name="ROPT">      0.00000000      0.00000000      0.00000000      0.00000000      0.00000000</v>
    <i type="int" name="LMAXPAW">  -100</i>
    <i type="int" name="LMAXMIX">     2</i>
    <i type="logical" name="NLSPLINE"> F  </i>
   </separator>
   <separator name="electronic startup" >
    <i type="int" name="ISTART">     0</i>
    <i type="int" name="ICHARG">     2</i>
    <i type="int" name="INIWAV">     1</i>
   </separator>
   <separator name="electronic spin" >
    <i type="int" name="ISPIN">     1</i>
    <i type="logical" name="LNONCOLLINEAR"> F  </i>
    <v name="MAGMOM">      1.00000000      1.00000000      1.00000000      1.00000000      1.00000000      1.00000000      1.00000000      1.00000000      1.00000000      1.00000000      1.00000000      1.00000000      1.00000000      1.00000000      1.00000000      1.00000000      1.00000000      1.00000000      1.00000000      1.00000000
      1.00000000      1.00000000      1.00000000      1.00000000      1.00000000      1.00000000      1.00000000      1.00000000      1.00000000      1.00000000      1.00000000      1.00000000      1.00000000      1.00000000      1.00000000      1.00000000      1.00000000      1.00000000      1.00000000      1.00000000
      1.00000000      1.00000000      1.00000000      1.00000000      1.00000000      1.00000000      1.00000000      1.00000000      1.00000000      1.00000000      1.00000000      1.00000000      1.00000000      1.00000000      1.00000000      1.00000000      1.00000000      1.00000000      1.00000000      1.00000000
      1.00000000      1.00000000      1.00000000</v>
    <i name="NUPDOWN">     -1.00000000</i>
    <i type="logical" name="LSORBIT"> F  </i>
    <v name="SAXIS">      0.00000000      0.00000000      1.00000000</v>
    <i type="logical" name="LSPIRAL"> F  </i>
    <v name="QSPIRAL">      0.00000000      0.00000000      0.00000000</v>
    <i type="logical" name="LZEROZ"> F  </i>
   </separator>
   <separator name="electronic exchange-correlation" >
    <i type="logical" name="LASPH"> F  </i>
    <i type="logical" name="LMETAGGA"> F  </i>
   </separator>
   <separator name="electronic convergence" >
    <i type="int" name="NELM">    60</i>
    <i type="int" name="NELMDL">    -5</i>
    <i type="int" name="NELMIN">     4</i>
    <i name="ENINI">    600.00000000</i>
    <separator name="electronic convergence detail" >
     <i type="logical" name="LDIAG"> T  </i>
     <i type="logical" name="LSUBROT"> T  </i>
     <i name="WEIMIN">      0.00100000</i>
     <i name="EBREAK">      0.00000000</i>
     <i name="DEPER">      0.30000000</i>
     <i type="int" name="NRMM">     4</i>
     <i name="TIME">      0.40000000</i>
    </separator>
   </separator>
   <separator name="electronic mixer" >
    <i name="AMIX">      0.40000000</i>
    <i name="BMIX">      1.00000000</i>
    <i name="AMIN">      0.10000000</i>
    <i name="AMIX_MAG">      1.60000000</i>
    <i name="BMIX_MAG">      1.00000000</i>
    <separator name="electronic mixer details" >
     <i type="int" name="IMIX">     4</i>
     <i type="int" name="MAXMIX">   -45</i>
     <i name="WC">    100.00000000</i>
     <i type="int" name="INIMIX">     1</i>
     <i type="int" name="MIXPRE">     1</i>
     <i type="int" name="MREMOVE">     5</i>
    </separator>
   </separator>
   <separator name="electronic dipolcorrection" >
    <i type="logical" name="LDIPOL"> F  </i>
    <i type="logical" name="LMONO"> F  </i>
    <i type="int" name="IDIPOL">     0</i>
    <i name="EPSILON">      1.00000000</i>
    <v name="DIPOL">   -100.00000000   -100.00000000   -100.00000000</v>
    <i name="EFIELD">      0.00000000</i>
   </separator>
  </separator>
  <separator name="grids" >
   <i type="int" name="NGX">    70</i>
   <i type="int" name="NGY">    60</i>
   <i type="int" name="NGZ">    70</i>
   <i type="int" name="NGXF">   140</i>
   <i type="int" name="NGYF">   120</i>
   <i type="int" name="NGZF">   140</i>
   <i type="logical" name="ADDGRID"> F  </i>
  </separator>
  <separator name="ionic" >
   <i type="int" name="NSW">    10</i>
   <i type="int" name="IBRION">     2</i>
   <i type="int" name="ISIF">     2</i>
   <i name="PSTRESS">      0.00000000</i>
   <i name="EDIFFG">     -0.01000000</i>
   <i type="int" name="NFREE">    10</i>
   <i name="POTIM">      0.50000000</i>
   <i name="SMASS">     -3.00000000</i>
   <i name="SCALEE">      1.00000000</i>
  </separator>
  <separator name="ionic md" >
   <i name="TEBEG">      0.00010000</i>
   <i name="TEEND">      0.00010000</i>
   <i type="int" name="NBLOCK">     1</i>
   <i type="int" name="KBLOCK">    10</i>
   <i type="int" name="NPACO">   256</i>
   <i name="APACO">     16.00000000</i>
  </separator>
  <separator name="symmetry" >
   <i type="int" name="ISYM">     2</i>
   <i name="SYMPREC">      0.00001000</i>
  </separator>
  <separator name="dos" >
   <i type="logical" name="LORBIT"> F  </i>
   <v name="RWIGS">     -1.00000000     -1.00000000     -1.00000000     -1.00000000     -1.00000000</v>
   <i type="int" name="NEDOS">   301</i>
   <i name="EMIN">     10.00000000</i>
   <i name="EMAX">    -10.00000000</i>
   <i name="EFERMI">      0.00000000</i>
  </separator>
  <separator name="writing" >
   <i type="int" name="NWRITE">     2</i>
   <i type="logical" name="LWAVE"> F  </i>
   <i type="logical" name="LCHARG"> F  </i>
   <i type="logical" name="LPARD"> F  </i>
   <i type="logical" name="LVTOT"> F  </i>
   <i type="logical" name="LVHAR"> F  </i>
   <i type="logical" name="LELF"> F  </i>
   <i type="logical" name="LOPTICS"> F  </i>
   <v name="STM">      0.00000000      0.00000000      0.00000000      0.00000000      0.00000000      0.00000000      0.00000000</v>
  </separator>
  <separator name="performance" >
   <i type="int" name="NPAR">    20</i>
   <i type="int" name="NSIM">     4</i>
   <i type="int" name="NBLK">    -1</i>
   <i type="logical" name="LPLANE"> T  </i>
   <i type="logical" name="LSCALAPACK"> F  </i>
   <i type="logical" name="LSCAAWARE"> F  </i>
   <i type="logical" name="LSCALU"> F  </i>
   <i type="logical" name="LASYNC"> F  </i>
   <i type="logical" name="LORBITALREAL"> F  </i>
  </separator>
  <separator name="miscellaneous" >
   <i type="int" name="IDIOT">     3</i>
   <i type="logical" name="LMUSIC"> F  </i>
   <v name="POMASS">      7.01000000     24.30500000    208.98000000     32.06600000     16.00000000</v>
   <v name="DARWINR">      0.00000000      0.00000000      0.00000000      0.00000000      0.00000000</v>
   <v name="DARWINV">      1.00000000      1.00000000      1.00000000      1.00000000      1.00000000</v>
   <i type="logical" name="LCORR"> T  </i>
  </separator>
  <i type="logical" name="GGA_COMPAT"> T  </i>
  <i type="logical" name="LBERRY"> F  </i>
  <i type="int" name="ICORELEVEL">     0</i>
  <i type="logical" name="LDAU"> F  </i>
  <i type="int" name="I_CONSTRAINED_M">     0</i>
  <separator name="electronic exchange-correlation" >
   <i type="string" name="GGA">--</i>
   <i type="int" name="VOSKOWN">     0</i>
   <i type="logical" name="LHFCALC"> F  </i>
   <i type="string" name="PRECFOCK"></i>
   <i type="logical" name="LSYMGRAD"> F  </i>
   <i type="logical" name="LHFONE"> F  </i>
   <i type="logical" name="LRHFCALC"> F  </i>
   <i type="logical" name="LTHOMAS"> F  </i>
   <i type="logical" name="LMODELHF"> F  </i>
   <i name="ENCUT4O">     -1.00000000</i>
   <i type="int" name="EXXOEP">     0</i>
   <i type="int" name="FOURORBIT">     0</i>
   <i name="AEXX">      0.00000000</i>
   <i name="HFALPHA">      0.00000000</i>
   <i name="MCALPHA">      0.00000000</i>
   <i name="ALDAX">      1.00000000</i>
   <i name="AGGAX">      1.00000000</i>
   <i name="ALDAC">      1.00000000</i>
   <i name="AGGAC">      1.00000000</i>
   <i type="int" name="NKREDX">     1</i>
   <i type="int" name="NKREDY">     1</i>
   <i type="int" name="NKREDZ">     1</i>
   <i type="logical" name="SHIFTRED"> F  </i>
   <i type="logical" name="ODDONLY"> F  </i>
   <i type="logical" name="EVENONLY"> F  </i>
   <i type="int" name="LMAXFOCK">     0</i>
   <i type="int" name="NMAXFOCKAE">     0</i>
   <i type="logical" name="LFOCKAEDFT"> F  </i>
   <i name="HFSCREEN">      0.00000000</i>
   <i name="HFSCREENC">      0.00000000</i>
   <i type="int" name="NBANDSGWLOW">     0</i>
  </separator>
  <separator name="vdW DFT" >
   <i type="logical" name="LUSE_VDW"> F  </i>
   <i name="Zab_VDW">     -0.84910000</i>
   <i name="PARAM1">      0.12340000</i>
   <i name="PARAM2">      1.00000000</i>
   <i name="PARAM3">      0.00000000</i>
  </separator>
  <separator name="model GW" >
   <i type="int" name="MODEL_GW">     0</i>
   <i name="MODEL_EPS0">     11.39855751</i>
   <i name="MODEL_ALPHA">      1.00000000</i>
  </separator>
  <separator name="linear response parameters" >
   <i type="logical" name="LEPSILON"> F  </i>
   <i type="logical" name="LRPA"> F  </i>
   <i type="logical" name="LNABLA"> F  </i>
   <i type="logical" name="LVEL"> F  </i>
   <i type="int" name="KINTER">     0</i>
   <i name="CSHIFT">      0.10000000</i>
   <i name="OMEGAMAX">     -1.00000000</i>
   <i name="DEG_THRESHOLD">      0.00200000</i>
  </separator>
  <separator name="orbital magnetization" >
   <i type="logical" name="NUCIND"> F  </i>
   <v name="MAGPOS">      0.00000000      0.00000000      0.00000000</v>
   <i type="logical" name="LNICSALL"> T  </i>
   <i type="logical" name="ORBITALMAG"> F  </i>
   <i type="logical" name="LMAGBLOCH"> F  </i>
   <i type="logical" name="LCHIMAG"> F  </i>
   <i type="logical" name="LGAUGE"> T  </i>
   <i type="int" name="MAGATOM">     0</i>
   <v name="MAGDIPOL">      0.00000000      0.00000000      0.00000000</v>
   <v name="AVECCONST">      0.00000000      0.00000000      0.00000000</v>
  </separator>
  <separator name="response functions" >
   <i type="logical" name="LADDER"> F  </i>
   <i type="logical" name="LFXC"> F  </i>
   <i type="logical" name="LHARTREE"> T  </i>
   <i type="int" name="IBSE">     0</i>
   <i type="logical" name="LTCTE"> F  </i>
   <i type="logical" name="LTETE"> F  </i>
   <i type="logical" name="LTRIPLET"> F  </i>
   <i type="logical" name="LFXCEPS"> F  </i>
   <i type="logical" name="L2ORDER"> F  </i>
   <i type="logical" name="LUSEW"> F  </i>
   <i name="ENCUTGW">     -2.00000000</i>
   <i name="ENCUTGWSOFT">     -2.00000000</i>
   <i name="ENCUTLF">     -1.00000000</i>
   <i type="int" name="LMAXMP2">    -1</i>
   <i name="SCISSOR">      0.00000000</i>
   <i type="int" name="NOMEGA">     0</i>
   <i type="int" name="NOMEGAR">     0</i>
   <i type="int" name="NBANDSGW">    -1</i>
   <i type="int" name="NBANDSO">    -1</i>
   <i type="int" name="NBANDSV">    -1</i>
   <i type="int" name="NELM">     1</i>
   <i type="int" name="DIM">     3</i>
   <i type="int" name="ANTIRES">     0</i>
   <i name="OMEGAMAX">    -30.00000000</i>
   <i name="OMEGATL">   -200.00000000</i>
   <i type="int" name="OMEGAGRID">     0</i>
   <i name="CSHIFT">     -0.10000000</i>
   <i type="logical" name="SELFENERGY"> F  </i>
   <i type="logical" name="LSPECTRAL"> F  </i>
   <i type="logical" name="ODDONLYGW"> F  </i>
   <i type="logical" name="EVENONLYGW"> F  </i>
   <i type="int" name="NKREDLFX">     1</i>
   <i type="int" name="NKREDLFY">     1</i>
   <i type="int" name="NKREDLFZ">     1</i>
   <i type="int" name="MAXMEM">  1800</i>
   <i type="int" name="TELESCOPE">     0</i>
  </separator>
 </parameters>
 <atominfo>
  <atoms>      63 </atoms>
  <types>       5 </types>
  <array name="atoms" >
   <dimension dim="1">ion</dimension>
   <field type="string">element</field>
   <field type="int">atomtype</field>
   <set>
    <rc><c>Li</c><c>   1</c></rc>
    <rc><c>Li</c><c>   1</c></rc>
    <rc><c>Li</c><c>   1</c></rc>
    <rc><c>Li</c><c>   1</c></rc>
    <rc><c>Li</c><c>   1</c></rc>
    <rc><c>Li</c><c>   1</c></rc>
    <rc><c>Li</c><c>   1</c></rc>
    <rc><c>Li</c><c>   1</c></rc>
    <rc><c>Li</c><c>   1</c></rc>
    <rc><c>Li</c><c>   1</c></rc>
    <rc><c>Li</c><c>   1</c></rc>
    <rc><c>Li</c><c>   1</c></rc>
    <rc><c>Li</c><c>   1</c></rc>
    <rc><c>Li</c><c>   1</c></rc>
    <rc><c>Mg</c><c>   2</c></rc>
    <rc><c>Bi</c><c>   3</c></rc>
    <rc><c>Bi</c><c>   3</c></rc>
    <rc><c>Bi</c><c>   3</c></rc>
    <rc><c>Bi</c><c>   3</c></rc>
    <rc><c>Bi</c><c>   3</c></rc>
    <rc><c>Bi</c><c>   3</c></rc>
    <rc><c>Bi</c><c>   3</c></rc>
    <rc><c>Bi</c><c>   3</c></rc>
    <rc><c>Bi</c><c>   3</c></rc>
    <rc><c>Bi</c><c>   3</c></rc>
    <rc><c>Bi</c><c>   3</c></rc>
    <rc><c>Bi</c><c>   3</c></rc>
    <rc><c>Bi</c><c>   3</c></rc>
    <rc><c>Bi</c><c>   3</c></rc>
    <rc><c>Bi</c><c>   3</c></rc>
    <rc><c>Bi</c><c>   3</c></rc>
    <rc><c>S </c><c>   4</c></rc>
    <rc><c>S </c><c>   4</c></rc>
    <rc><c>S </c><c>   4</c></rc>
    <rc><c>S </c><c>   4</c></rc>
    <rc><c>S </c><c>   4</c></rc>
    <rc><c>S </c><c>   4</c></rc>
    <rc><c>S </c><c>   4</c></rc>
    <rc><c>S </c><c>   4</c></rc>
    <rc><c>S </c><c>   4</c></rc>
    <rc><c>S </c><c>   4</c></rc>
    <rc><c>S </c><c>   4</c></rc>
    <rc><c>S </c><c>   4</c></rc>
    <rc><c>S </c><c>   4</c></rc>
    <rc><c>S </c><c>   4</c></rc>
    <rc><c>S </c><c>   4</c></rc>
    <rc><c>S </c><c>   4</c></rc>
    <rc><c>O </c><c>   5</c></rc>
    <rc><c>O </c><c>   5</c></rc>
    <rc><c>O </c><c>   5</c></rc>
    <rc><c>O </c><c>   5</c></rc>
    <rc><c>O </c><c>   5</c></rc>
    <rc><c>O </c><c>   5</c></rc>
    <rc><c>O </c><c>   5</c></rc>
    <rc><c>O </c><c>   5</c></rc>
    <rc><c>O </c><c>   5</c></rc>
    <rc><c>O </c><c>   5</c></rc>
    <rc><c>O </c><c>   5</c></rc>
    <rc><c>O </c><c>   5</c></rc>
    <rc><c>O </c><c>   5</c></rc>
    <rc><c>O </c><c>   5</c></rc>
    <rc><c>O </c><c>   5</c></rc>
    <rc><c>O </c><c>   5</c></rc>
   </set>
  </array>
  <array name="atomtypes" >
   <dimension dim="1">type</dimension>
   <field type="int">atomspertype</field>
   <field type="string">element</field>
   <field>mass</field>
   <field>valence</field>
   <field type="string">pseudopotential</field>
   <set>
    <rc><c>  14</c><c>Li</c><c>      7.01000000</c><c>      3.00000000</c><c>  PAW_PBE Li_sv 10Sep2004               </c></rc>
    <rc><c>   1</c><c>Mg</c><c>     24.30500000</c><c>      2.00000000</c><c>  PAW_PBE Mg 13Apr2007                  </c></rc>
    <rc><c>  16</c><c>Bi</c><c>    208.98000000</c><c>     15.00000000</c><c>  PAW_PBE Bi_d 06Sep2000                </c></rc>
    <rc><c>  16</c><c>S </c><c>     32.06600000</c><c>      6.00000000</c><c>  PAW_PBE S 06Sep2000                   </c></rc>
    <rc><c>  16</c><c>O </c><c>     16.00000000</c><c>      6.00000000</c><c>  PAW_PBE O 08Apr2002                   </c></rc>
   </set>
  </array>
 </atominfo>
 <structure name="initialpos" >
  <crystal>
   <varray name="basis" >
    <v>      11.17850000       0.00000000       0.00000000 </v>
    <v>       0.00000000       9.57460000       0.00000000 </v>
    <v>       0.00000000       0.00000000      11.18240000 </v>
   </varray>
   <i name="volume">   1196.84853820 </i>
   <varray name="rec_basis" >
    <v>       0.08945744       0.00000000       0.00000000 </v>
    <v>       0.00000000       0.10444301       0.00000000 </v>
    <v>       0.00000000       0.00000000       0.08942624 </v>
   </varray>
  </crystal>
  <varray name="positions" >
   <v>       0.37539000       0.00017000       0.43687000 </v>
   <v>       0.12461000       0.99983000       0.18687000 </v>
   <v>       0.37461000       0.00017000       0.18687000 </v>
   <v>       0.62539000       0.99983000       0.43687000 </v>
   <v>       0.87539000       0.00017000       0.43687000 </v>
   <v>       0.62461000       0.99983000       0.18687000 </v>
   <v>       0.87461000       0.00017000       0.18687000 </v>
   <v>       0.37539000       0.00017000       0.93687000 </v>
   <v>       0.12461000       0.99983000       0.68687000 </v>
   <v>       0.37461000       0.00017000       0.68687000 </v>
   <v>       0.62539000       0.99983000       0.93687000 </v>
   <v>       0.87539000       0.00017000       0.93687000 </v>
   <v>       0.62461000       0.99983000       0.68687000 </v>
   <v>       0.87461000       0.00017000       0.68687000 </v>
   <v>       0.12539000       0.99983000       0.93687000 </v>
   <v>       0.00013000       0.29519000       0.06282000 </v>
   <v>       0.25013000       0.70481000       0.06282000 </v>
   <v>       0.24987000       0.29519000       0.31282000 </v>
   <v>       0.49987000       0.70481000       0.31282000 </v>
   <v>       0.50013000       0.29519000       0.06282000 </v>
   <v>       0.75013000       0.70481000       0.06282000 </v>
   <v>       0.74987000       0.29519000       0.31282000 </v>
   <v>       0.99987000       0.70481000       0.31282000 </v>
   <v>       0.00013000       0.29519000       0.56282000 </v>
   <v>       0.25013000       0.70481000       0.56282000 </v>
   <v>       0.24987000       0.29519000       0.81282000 </v>
   <v>       0.49987000       0.70481000       0.81282000 </v>
   <v>       0.50013000       0.29519000       0.56282000 </v>
   <v>       0.75013000       0.70481000       0.56282000 </v>
   <v>       0.74987000       0.29519000       0.81282000 </v>
   <v>       0.99987000       0.70481000       0.81282000 </v>
   <v>       0.25005000       0.32677000       0.06286000 </v>
   <v>       0.00005000       0.67323000       0.06286000 </v>
   <v>       0.49995000       0.32677000       0.31286000 </v>
   <v>       0.24995000       0.67323000       0.31286000 </v>
   <v>       0.75005000       0.32677000       0.06286000 </v>
   <v>       0.50005000       0.67323000       0.06286000 </v>
   <v>       0.99995000       0.32677000       0.31286000 </v>
   <v>       0.74995000       0.67323000       0.31286000 </v>
   <v>       0.25005000       0.32677000       0.56286000 </v>
   <v>       0.00005000       0.67323000       0.56286000 </v>
   <v>       0.49995000       0.32677000       0.81286000 </v>
   <v>       0.24995000       0.67323000       0.81286000 </v>
   <v>       0.75005000       0.32677000       0.56286000 </v>
   <v>       0.50005000       0.67323000       0.56286000 </v>
   <v>       0.99995000       0.32677000       0.81286000 </v>
   <v>       0.74995000       0.67323000       0.81286000 </v>
   <v>       0.49987000       0.07798000       0.06246000 </v>
   <v>       0.00013000       0.92202000       0.31246000 </v>
   <v>       0.24987000       0.92202000       0.06246000 </v>
   <v>       0.25013000       0.07798000       0.31246000 </v>
   <v>       0.99987000       0.07798000       0.06246000 </v>
   <v>       0.50013000       0.92202000       0.31246000 </v>
   <v>       0.74987000       0.92202000       0.06246000 </v>
   <v>       0.75013000       0.07798000       0.31246000 </v>
   <v>       0.49987000       0.07798000       0.56246000 </v>
   <v>       0.00013000       0.92202000       0.81246000 </v>
   <v>       0.24987000       0.92202000       0.56246000 </v>
   <v>       0.25013000       0.07798000       0.81246000 </v>
   <v>       0.99987000       0.07798000       0.56246000 </v>
   <v>       0.50013000       0.92202000       0.81246000 </v>
   <v>       0.74987000       0.92202000       0.56246000 </v>
   <v>       0.75013000       0.07798000       0.81246000 </v>
  </varray>
 </structure>
 <calculation>
  <scstep>
   <time name="dav">   38.45   38.48</time>
   <time name="total">   38.59   38.67</time>
   <energy>
    <i name="alphaZ">   1086.17722071 </i>
    <i name="ewald"> -31341.51036352 </i>
    <i name="hartreedc"> -12719.80964269 </i>
    <i name="XCdc">   1542.80648589 </i>
    <i name="pawpsdc">  37012.13516878 </i>
    <i name="pawaedc"> -36680.30965123 </i>
    <i name="eentropy">      0.00000000 </i>
    <i name="bandstr">   1700.24619433 </i>
    <i name="atom">  45556.09114881 </i>
    <i name="e_fr_energy">   6155.82656108 </i>
    <i name="e_wo_entrp">   6155.82656108 </i>
    <i name="e_0_energy">   6155.82656108 </i>
   </energy>
  </scstep>
  <scstep>
   <time name="dav">   39.45   39.48</time>
   <time name="total">   39.46   39.51</time>
   <energy>
    <i name="e_fr_energy">    841.15434535 </i>
    <i name="e_wo_entrp">    841.15434535 </i>
    <i name="e_0_energy">    841.15434535 </i>
   </energy>
  </scstep>
  <scstep>
   <time name="dav">   43.46   43.49</time>
   <time name="total">   43.46   43.51</time>
   <energy>
    <i name="e_fr_energy">   -231.73908278 </i>
    <i name="e_wo_entrp">   -231.73908278 </i>
    <i name="e_0_energy">   -231.73908278 </i>
   </energy>
  </scstep>
  <scstep>
   <time name="dav">   49.70   49.74</time>
   <time name="total">   49.71   49.75</time>
   <energy>
    <i name="e_fr_energy">   -355.71702130 </i>
    <i name="e_wo_entrp">   -355.71702130 </i>
    <i name="e_0_energy">   -355.71702130 </i>
   </energy>
  </scstep>
  <scstep>
   <time name="dav">   62.58   62.63</time>
   <time name="total">   63.06   63.12</time>
   <energy>
    <i name="e_fr_energy">   -366.50817226 </i>
    <i name="e_wo_entrp">   -366.50817226 </i>
    <i name="e_0_energy">   -366.50817226 </i>
   </energy>
  </scstep>
  <scstep>
   <time name="dav">   57.90   57.95</time>
   <time name="total">   58.45   58.51</time>
   <energy>
    <i name="e_fr_energy">   -304.74401452 </i>
    <i name="e_wo_entrp">   -304.74401452 </i>
    <i name="e_0_energy">   -304.74401452 </i>
   </energy>
  </scstep>
  <scstep>
   <time name="dav">   49.51   50.95</time>
   <time name="total">   50.12   51.58</time>
   <energy>
    <i name="e_fr_energy">   -307.63748869 </i>
    <i name="e_wo_entrp">   -307.63748869 </i>
    <i name="e_0_energy">   -307.63748869 </i>
   </energy>
  </scstep>
  <scstep>
   <time name="dav">   51.77   53.08</time>
   <time name="total">   52.42   53.97</time>
   <energy>
    <i name="e_fr_energy">   -306.16776967 </i>
    <i name="e_wo_entrp">   -306.16776967 </i>
    <i name="e_0_energy">   -306.16776967 </i>
   </energy>
  </scstep>
  <scstep>
   <time name="dav">   53.04   53.08</time>
   <time name="total">   53.71   53.75</time>
   <energy>
    <i name="e_fr_energy">   -305.41749269 </i>
    <i name="e_wo_entrp">   -305.41749269 </i>
    <i name="e_0_energy">   -305.41749269 </i>
   </energy>
  </scstep>
  <scstep>
   <time name="dav">   48.92   48.96</time>
   <time name="total">   49.47   49.51</time>
   <energy>
    <i name="e_fr_energy">   -305.38957772 </i>
    <i name="e_wo_entrp">   -305.38957772 </i>
    <i name="e_0_energy">   -305.38957772 </i>
   </energy>
  </scstep>
  <scstep>
   <time name="dav">   50.51   50.55</time>
   <time name="total">   51.11   51.17</time>
   <energy>
    <i name="e_fr_energy">   -305.40252904 </i>
    <i name="e_wo_entrp">   -305.40252904 </i>
    <i name="e_0_energy">   -305.40252904 </i>
   </energy>
  </scstep>
  <scstep>
   <time name="dav">   51.24   51.28</time>
   <time name="total">   51.78   51.84</time>
   <energy>
    <i name="e_fr_energy">   -305.40885453 </i>
    <i name="e_wo_entrp">   -305.40885453 </i>
    <i name="e_0_energy">   -305.40885453 </i>
   </energy>
  </scstep>
  <scstep>
   <time name="dav">   46.31   46.35</time>
   <time name="total">   46.95   47.00</time>
   <energy>
    <i name="e_fr_energy">   -305.40883191 </i>
    <i name="e_wo_entrp">   -305.40883191 </i>
    <i name="e_0_energy">   -305.40883191 </i>
   </energy>
  </scstep>
  <scstep>
   <time name="dav">   46.71   46.74</time>
   <time name="total">   47.36   47.41</time>
   <energy>
    <i name="e_fr_energy">   -305.40911920 </i>
    <i name="e_wo_entrp">   -305.40911920 </i>
    <i name="e_0_energy">   -305.40911920 </i>
   </energy>
  </scstep>
  <scstep>
   <time name="dav">   71.24   74.07</time>
   <time name="total">   71.84   74.70</time>
   <energy>
    <i name="e_fr_energy">   -305.40918684 </i>
    <i name="e_wo_entrp">   -305.40918684 </i>
    <i name="e_0_energy">   -305.40918684 </i>
   </energy>
  </scstep>
  <scstep>
   <time name="dav">   44.82   44.85</time>
   <time name="total">   45.36   45.41</time>
   <energy>
    <i name="e_fr_energy">   -305.40917900 </i>
    <i name="e_wo_entrp">   -305.40917900 </i>
    <i name="e_0_energy">   -305.40917900 </i>
   </energy>
  </scstep>
  <scstep>
   <time name="dav">   41.60   41.64</time>
   <time name="total">   42.21   42.26</time>
   <energy>
    <i name="e_fr_energy">   -305.40918324 </i>
    <i name="e_wo_entrp">   -305.40918324 </i>
    <i name="e_0_energy">   -305.40918324 </i>
   </energy>
  </scstep>
  <scstep>
   <time name="dav">   43.66   43.69</time>
   <time name="total">   44.25   44.31</time>
   <energy>
    <i name="e_fr_energy">   -305.40918511 </i>
    <i name="e_wo_entrp">   -305.40918511 </i>
    <i name="e_0_energy">   -305.40918511 </i>
   </energy>
  </scstep>
  <scstep>
   <time name="dav">   35.72   35.75</time>
   <time name="total">   35.82   35.87</time>
   <energy>
    <i name="alphaZ">   1086.17722071 </i>
    <i name="ewald"> -31341.51036352 </i>
    <i name="hartreedc"> -12954.09186621 </i>
    <i name="XCdc">   1565.12754408 </i>
    <i name="pawpsdc">  44046.06377980 </i>
    <i name="pawaedc"> -43690.59105564 </i>
    <i name="eentropy">      0.00000000 </i>
    <i name="bandstr">  -4572.67559228 </i>
    <i name="atom">  45556.09114881 </i>
    <i name="e_fr_energy">   -305.40918425 </i>
    <i name="e_wo_entrp">   -305.40918425 </i>
    <i name="e_0_energy">   -305.40918425 </i>
   </energy>
  </scstep>
  <structure>
   <crystal>
    <varray name="basis" >
     <v>      11.17850000       0.00000000       0.00000000 </v>
     <v>       0.00000000       9.57460000       0.00000000 </v>
     <v>       0.00000000       0.00000000      11.18240000 </v>
    </varray>
    <i name="volume">   1196.84853820 </i>
    <varray name="rec_basis" >
     <v>       0.08945744       0.00000000       0.00000000 </v>
     <v>       0.00000000       0.10444301       0.00000000 </v>
     <v>       0.00000000       0.00000000       0.08942624 </v>
    </varray>
   </crystal>
   <varray name="positions" >
    <v>       0.37539000       0.00017000       0.43687000 </v>
    <v>       0.12461000       0.99983000       0.18687000 </v>
    <v>       0.37461000       0.00017000       0.18687000 </v>
    <v>       0.62539000       0.99983000       0.43687000 </v>
    <v>       0.87539000       0.00017000       0.43687000 </v>
    <v>       0.62461000       0.99983000       0.18687000 </v>
    <v>       0.87461000       0.00017000       0.18687000 </v>
    <v>       0.37539000       0.00017000       0.93687000 </v>
    <v>       0.12461000       0.99983000       0.68687000 </v>
    <v>       0.37461000       0.00017000       0.68687000 </v>
    <v>       0.62539000       0.99983000       0.93687000 </v>
    <v>       0.87539000       0.00017000       0.93687000 </v>
    <v>       0.62461000       0.99983000       0.68687000 </v>
    <v>       0.87461000       0.00017000       0.68687000 </v>
    <v>       0.12539000       0.99983000       0.93687000 </v>
    <v>       0.00013000       0.29519000       0.06282000 </v>
    <v>       0.25013000       0.70481000       0.06282000 </v>
    <v>       0.24987000       0.29519000       0.31282000 </v>
    <v>       0.49987000       0.70481000       0.31282000 </v>
    <v>       0.50013000       0.29519000       0.06282000 </v>
    <v>       0.75013000       0.70481000       0.06282000 </v>
    <v>       0.74987000       0.29519000       0.31282000 </v>
    <v>       0.99987000       0.70481000       0.31282000 </v>
    <v>       0.00013000       0.29519000       0.56282000 </v>
    <v>       0.25013000       0.70481000       0.56282000 </v>
    <v>       0.24987000       0.29519000       0.81282000 </v>
    <v>       0.49987000       0.70481000       0.81282000 </v>
    <v>       0.50013000       0.29519000       0.56282000 </v>
    <v>       0.75013000       0.70481000       0.56282000 </v>
    <v>       0.74987000       0.29519000       0.81282000 </v>
    <v>       0.99987000       0.70481000       0.81282000 </v>
    <v>       0.25005000       0.32677000       0.06286000 </v>
    <v>       0.00005000       0.67323000       0.06286000 </v>
    <v>       0.49995000       0.32677000       0.31286000 </v>
    <v>       0.24995000       0.67323000       0.31286000 </v>
    <v>       0.75005000       0.32677000       0.06286000 </v>
    <v>       0.50005000       0.67323000       0.06286000 </v>
    <v>       0.99995000       0.32677000       0.31286000 </v>
    <v>       0.74995000       0.67323000       0.31286000 </v>
    <v>       0.25005000       0.32677000       0.56286000 </v>
    <v>       0.00005000       0.67323000       0.56286000 </v>
    <v>       0.49995000       0.32677000       0.81286000 </v>
    <v>       0.24995000       0.67323000       0.81286000 </v>
    <v>       0.75005000       0.32677000       0.56286000 </v>
    <v>       0.50005000       0.67323000       0.56286000 </v>
    <v>       0.99995000       0.32677000       0.81286000 </v>
    <v>       0.74995000       0.67323000       0.81286000 </v>
    <v>       0.49987000       0.07798000       0.06246000 </v>
    <v>       0.00013000       0.92202000       0.31246000 </v>
    <v>       0.24987000       0.92202000       0.06246000 </v>
    <v>       0.25013000       0.07798000       0.31246000 </v>
    <v>       0.99987000       0.07798000       0.06246000 </v>
    <v>       0.50013000       0.92202000       0.31246000 </v>
    <v>       0.74987000       0.92202000       0.06246000 </v>
    <v>       0.75013000       0.07798000       0.31246000 </v>
    <v>       0.49987000       0.07798000       0.56246000 </v>
    <v>       0.00013000       0.92202000       0.81246000 </v>
    <v>       0.24987000       0.92202000       0.56246000 </v>
    <v>       0.25013000       0.07798000       0.81246000 </v>
    <v>       0.99987000       0.07798000       0.56246000 </v>
    <v>       0.50013000       0.92202000       0.81246000 </v>
    <v>       0.74987000       0.92202000       0.56246000 </v>
    <v>       0.75013000       0.07798000       0.81246000 </v>
   </varray>
  </structure>
  <varray name="forces" >
   <v>      -0.49177821      -0.00056846       0.00495628 </v>
   <v>       0.00804095       0.00048027       1.06509212 </v>
   <v>      -0.05935982       0.12937666       0.32843782 </v>
   <v>      -0.00803215       0.00037522       0.00518817 </v>
   <v>       0.47530906      -0.00152908       0.00494720 </v>
   <v>       0.00837413       0.00044295       0.07680797 </v>
   <v>       0.07142413      -0.13007837       0.32509646 </v>
   <v>       0.49796454      -0.00052584       0.00662357 </v>
   <v>       0.00844959       0.00039463      -1.05430840 </v>
   <v>      -0.05928574      -0.13015951      -0.31705855 </v>
   <v>      -0.00803819       0.00042166       0.00613557 </v>
   <v>      -0.51359118       0.00083650       0.00657444 </v>
   <v>       0.00827212       0.00034786      -0.06536932 </v>
   <v>       0.07063318       0.12851965      -0.31361111 </v>
   <v>      -0.02118319       0.00432755       0.03358566 </v>
   <v>      -0.14977084       1.05700078       0.34887634 </v>
   <v>       0.14050144      -1.06433898       0.35083257 </v>
   <v>      -0.14340914      -1.02376587       0.33837647 </v>
   <v>      -0.03264255       0.01208818       0.13552090 </v>
   <v>       0.05761581       0.02346169       0.15299957 </v>
   <v>      -0.06935812      -0.02291859       0.15302929 </v>
   <v>       0.04436043      -0.01182107       0.13479363 </v>
   <v>       0.15809823       1.02072145       0.33752754 </v>
   <v>       0.14089316      -1.00803157      -0.35127231 </v>
   <v>      -0.15448056       1.01456380      -0.35193625 </v>
   <v>       0.15390728       1.07305431      -0.35426598 </v>
   <v>       0.07132320      -0.02391489      -0.16047358 </v>
   <v>      -0.04370049      -0.01209515      -0.14531445 </v>
   <v>       0.03115099       0.01164126      -0.14531814 </v>
   <v>      -0.05869664       0.02360280      -0.15955897 </v>
   <v>      -0.14430762      -1.06995897      -0.35326174 </v>
   <v>      -0.13207249       0.08910792      -0.29827450 </v>
   <v>       0.13154388      -0.08927343      -0.29764969 </v>
   <v>       0.10606753       0.22054496      -0.08112865 </v>
   <v>       0.11267297      -0.18531152      -0.29017047 </v>
   <v>       0.07966511       0.14383832      -0.07476912 </v>
   <v>      -0.08153143      -0.14372315      -0.07490488 </v>
   <v>      -0.11146273       0.18522917      -0.28796623 </v>
   <v>      -0.10457648      -0.22062758      -0.08122137 </v>
   <v>       0.10946695       0.18388152       0.29143574 </v>
   <v>      -0.11153276      -0.18395694       0.29068383 </v>
   <v>      -0.08069589       0.14350083       0.07335932 </v>
   <v>      -0.13269774      -0.08587466       0.29586786 </v>
   <v>      -0.10401710       0.21993874       0.08214312 </v>
   <v>       0.10385937      -0.22037607       0.08223905 </v>
   <v>       0.13359246       0.08677163       0.29345654 </v>
   <v>       0.08193178      -0.14350460       0.07337293 </v>
   <v>      -0.07355503      -0.08104212      -0.09185953 </v>
   <v>      -0.64571481      -0.80621536      -0.81419659 </v>
   <v>      -0.56638977       0.88298502      -0.73116078 </v>
   <v>       0.63073928       0.80870300      -0.81496566 </v>
   <v>       0.58832467      -0.88482655      -0.73915590 </v>
   <v>       0.06859029      -0.03316231      -0.08750162 </v>
   <v>       0.08348021       0.08038711      -0.09138485 </v>
   <v>      -0.07925305       0.03310222      -0.08719578 </v>
   <v>       0.07897919       0.03298347       0.08597610 </v>
   <v>       0.56810611       0.88367765       0.71681198 </v>
   <v>       0.63993294      -0.80351269       0.81904190 </v>
   <v>      -0.57202324      -0.88391680       0.71478889 </v>
   <v>      -0.63201608       0.80083236       0.81862878 </v>
   <v>      -0.08495968       0.08142715       0.08844580 </v>
   <v>      -0.06708510      -0.03226025       0.08552754 </v>
   <v>       0.07394685      -0.08127792       0.08807343 </v>
  </varray>
  <varray name="stress" >
   <v>      -8.12535329       0.02743412       0.01197037 </v>
   <v>       0.02743420     -14.69570390      -0.01709213 </v>
   <v>       0.01197011      -0.01709234      -9.40374353 </v>
  </varray>
  <energy>
   <i name="e_fr_energy">   -322.49992203 </i>
   <i name="e_wo_entrp">   -322.49992203 </i>
   <i name="e_0_energy">      0.00000000 </i>
  </energy>
  <time name="totalsc"> 1023.79 1030.68</time>
 </calculation>
 <calculation>
  <scstep>
   <time name="dav">   39.99   40.02</time>
   <time name="total">   40.53   40.57</time>
   <energy>
    <i name="alphaZ">   1086.17722071 </i>
    <i name="ewald"> -31343.53014220 </i>
    <i name="hartreedc"> -12948.50463036 </i>
    <i name="XCdc">   1565.18409554 </i>
    <i name="pawpsdc">  44046.07169158 </i>
    <i name="pawaedc"> -43690.60013649 </i>
    <i name="eentropy">      0.00000000 </i>
    <i name="bandstr">  -4575.69048856 </i>
    <i name="atom">  45556.09114881 </i>
    <i name="e_fr_energy">   -304.80124097 </i>
    <i name="e_wo_entrp">   -304.80124097 </i>
    <i name="e_0_energy">   -304.80124097 </i>
   </energy>
  </scstep>
  <scstep>
   <time name="dav">   45.53   45.68</time>
   <time name="total">   46.13   46.30</time>
   <energy>
    <i name="e_fr_energy">   -306.09395950 </i>
    <i name="e_wo_entrp">   -306.09395950 </i>
    <i name="e_0_energy">   -306.09395950 </i>
   </energy>
  </scstep>
  <scstep>
   <time name="dav">   68.62   72.06</time>
   <time name="total">   69.30   72.75</time>
   <energy>
    <i name="e_fr_energy">   -306.10092900 </i>
    <i name="e_wo_entrp">   -306.10092900 </i>
    <i name="e_0_energy">   -306.10092900 </i>
   </energy>
  </scstep>
  <scstep>
   <time name="dav">   51.03   52.55</time>
   <time name="total">   51.64   53.23</time>
   <energy>
    <i name="e_fr_energy">   -306.06827931 </i>
    <i name="e_wo_entrp">   -306.06827931 </i>
    <i name="e_0_energy">   -306.06827931 </i>
   </energy>
  </scstep>
  <scstep>
   <time name="dav">   48.81   48.85</time>
   <time name="total">   49.44   49.54</time>
   <energy>
    <i name="e_fr_energy">   -306.05894442 </i>
    <i name="e_wo_entrp">   -306.05894442 </i>
    <i name="e_0_energy">   -306.05894442 </i>
   </energy>
  </scstep>
  <scstep>
   <time name="dav">   47.92   47.96</time>
   <time name="total">   48.52   48.57</time>
   <energy>
    <i name="e_fr_energy">   -306.05930255 </i>
    <i name="e_wo_entrp">   -306.05930255 </i>
    <i name="e_0_energy">   -306.05930255 </i>
   </energy>
  </scstep>
  <scstep>
   <time name="dav">   54.48   54.52</time>
   <time name="total">   55.09   55.14</time>
   <energy>
    <i name="e_fr_energy">   -306.05913433 </i>
    <i name="e_wo_entrp">   -306.05913433 </i>
    <i name="e_0_energy">   -306.05913433 </i>
   </energy>
  </scstep>
  <scstep>
   <time name="dav">   46.67   46.70</time>
   <time name="total">   47.21   47.27</time>
   <energy>
    <i name="e_fr_energy">   -306.05900078 </i>
    <i name="e_wo_entrp">   -306.05900078 </i>
    <i name="e_0_energy">   -306.05900078 </i>
   </energy>
  </scstep>
  <scstep>
   <time name="dav">   54.29   54.33</time>
   <time name="total">   54.83   54.89</time>
   <energy>
    <i name="e_fr_energy">   -306.05902425 </i>
    <i name="e_wo_entrp">   -306.05902425 </i>
    <i name="e_0_energy">   -306.05902425 </i>
   </energy>
  </scstep>
  <scstep>
   <time name="dav">   42.69   42.73</time>
   <time name="total">   43.30   43.35</time>
   <energy>
    <i name="e_fr_energy">   -306.05902371 </i>
    <i name="e_wo_entrp">   -306.05902371 </i>
    <i name="e_0_energy">   -306.05902371 </i>
   </energy>
  </scstep>
  <scstep>
   <time name="dav">   58.66   60.42</time>
   <time name="total">   59.35   61.16</time>
   <energy>
    <i name="e_fr_energy">   -306.05902733 </i>
    <i name="e_wo_entrp">   -306.05902733 </i>
    <i name="e_0_energy">   -306.05902733 </i>
   </energy>
  </scstep>
  <scstep>
   <time name="dav">   42.54   42.57</time>
   <time name="total">   42.61   42.66</time>
   <energy>
    <i name="alphaZ">   1086.17722071 </i>
    <i name="ewald"> -31343.53014220 </i>
    <i name="hartreedc"> -12952.30601521 </i>
    <i name="XCdc">   1565.44422384 </i>
    <i name="pawpsdc">  44074.45858966 </i>
    <i name="pawaedc"> -43719.34096135 </i>
    <i name="eentropy">      0.00000000 </i>
    <i name="bandstr">  -4573.05309176 </i>
    <i name="atom">  45556.09114881 </i>
    <i name="e_fr_energy">   -306.05902749 </i>
    <i name="e_wo_entrp">   -306.05902749 </i>
    <i name="e_0_energy">   -306.05902749 </i>
   </energy>
  </scstep>
  <structure>
   <crystal>
    <varray name="basis" >
     <v>      11.17850000       0.00000000       0.00000000 </v>
     <v>       0.00000000       9.57460000       0.00000000 </v>
     <v>       0.00000000       0.00000000      11.18240000 </v>
    </varray>
    <i name="volume">   1196.84853820 </i>
    <varray name="rec_basis" >
     <v>       0.08945744       0.00000000       0.00000000 </v>
     <v>       0.00000000       0.10444301       0.00000000 </v>
     <v>       0.00000000       0.00000000       0.08942624 </v>
    </varray>
   </crystal>
   <varray name="positions" >
    <v>       0.37326765       0.00016714       0.43689138 </v>
    <v>       0.12464470       0.99983242       0.19146498 </v>
    <v>       0.37435382       0.00082188       0.18828693 </v>
    <v>       0.62535534       0.99983189       0.43689238 </v>
    <v>       0.87744127       0.00016230       0.43689134 </v>
    <v>       0.62464614       0.99983223       0.18720136 </v>
    <v>       0.87491824      -0.00048541       0.18827252 </v>
    <v>       0.37753905       0.00016735       0.93689858 </v>
    <v>       0.12464647       0.99983199       0.68232155 </v>
    <v>       0.37435414      -0.00048582       0.68550216 </v>
    <v>       0.62535531       0.99983212       0.93689647 </v>
    <v>       0.87317351       0.00017421       0.93689836 </v>
    <v>       0.62464570       0.99983175       0.68658799 </v>
    <v>       0.87491483       0.00081756       0.68551703 </v>
    <v>       0.12529858       0.99985180       0.93701489 </v>
    <v>      -0.00051636       0.30051581       0.06432511 </v>
    <v>       0.25073636       0.69944721       0.06433355 </v>
    <v>       0.24925109       0.29003165       0.31427981 </v>
    <v>       0.49972913       0.70487091       0.31340466 </v>
    <v>       0.50037865       0.29530821       0.06348006 </v>
    <v>       0.74983067       0.70469452       0.06348019 </v>
    <v>       0.75006144       0.29513044       0.31340152 </v>
    <v>       0.00055230       0.70995302       0.31427615 </v>
    <v>       0.00073805       0.29011092       0.56130456 </v>
    <v>       0.24946331       0.70992199       0.56130169 </v>
    <v>       0.25053421       0.30059670       0.81129164 </v>
    <v>       0.50017781       0.70468950       0.81212769 </v>
    <v>       0.49994140       0.29512906       0.56219309 </v>
    <v>       0.75026444       0.70486866       0.56219307 </v>
    <v>       0.74961668       0.29530893       0.81213164 </v>
    <v>       0.99924722       0.69941890       0.81129597 </v>
    <v>       0.24948002       0.32721898       0.06157320 </v>
    <v>       0.00061770       0.67278019       0.06157589 </v>
    <v>       0.50040775       0.32788124       0.31251000 </v>
    <v>       0.25043626       0.67229629       0.31160816 </v>
    <v>       0.75039381       0.32749474       0.06253743 </v>
    <v>       0.49969814       0.67250584       0.06253685 </v>
    <v>       0.99946896       0.32770330       0.31161767 </v>
    <v>       0.74949868       0.67211834       0.31250960 </v>
    <v>       0.25052242       0.32769651       0.56411730 </v>
    <v>      -0.00043134       0.67230311       0.56411406 </v>
    <v>       0.49960174       0.32749304       0.81317648 </v>
    <v>       0.24937732       0.67279731       0.81413642 </v>
    <v>       0.74960110       0.32787819       0.56321438 </v>
    <v>       0.50049822       0.67211961       0.56321479 </v>
    <v>       0.00052654       0.32720721       0.81412602 </v>
    <v>       0.75030359       0.67250694       0.81317654 </v>
    <v>       0.49955256       0.07757166       0.06206370 </v>
    <v>      -0.00265669       0.91795780       0.30894743 </v>
    <v>       0.24742565       0.92646902       0.05930566 </v>
    <v>       0.25285206       0.08205474       0.30894411 </v>
    <v>       0.00240901       0.07352171       0.05927116 </v>
    <v>       0.50042601       0.92185291       0.31208250 </v>
    <v>       0.75023027       0.92242504       0.06206575 </v>
    <v>       0.74978797       0.07814679       0.31208382 </v>
    <v>       0.50021085       0.07814619       0.56283091 </v>
    <v>       0.00258176       0.92647251       0.81555244 </v>
    <v>       0.25263174       0.91797141       0.56599348 </v>
    <v>       0.24766134       0.07352629       0.81554371 </v>
    <v>       0.99714243       0.08201508       0.56599169 </v>
    <v>       0.49976334       0.92243028       0.81284157 </v>
    <v>       0.74958048       0.92185745       0.56282898 </v>
    <v>       0.75044913       0.07757047       0.81283996 </v>
   </varray>
  </structure>
  <varray name="forces" >
   <v>      -0.29535227      -0.00224845       0.00446336 </v>
   <v>       0.00888868       0.00186148       0.55677119 </v>
   <v>      -0.05974368       0.06912756       0.09745760 </v>
   <v>      -0.00720387       0.00088055       0.00516589 </v>
   <v>       0.28229613      -0.00015964       0.00431478 </v>
   <v>       0.00757561       0.00112619       0.04445957 </v>
   <v>       0.07266633      -0.07348803       0.09867342 </v>
   <v>       0.20931495       0.00024927       0.00579804 </v>
   <v>       0.00738083       0.00000649      -0.54429913 </v>
   <v>      -0.05888745      -0.07047800      -0.08620388 </v>
   <v>      -0.00817331       0.00091744       0.00559229 </v>
   <v>      -0.22735926      -0.00188991       0.00602345 </v>
   <v>       0.00728104       0.00067771      -0.03352492 </v>
   <v>       0.06881201       0.07016632      -0.08675118 </v>
   <v>      -0.02023344       0.00559679       0.02798528 </v>
   <v>      -0.01499664      -0.25476944       0.05670477 </v>
   <v>       0.00610798       0.25410646       0.05745494 </v>
   <v>      -0.06317143       0.65739360       0.11516859 </v>
   <v>       0.03213030      -0.05363324       0.05364196 </v>
   <v>      -0.01426253      -0.07241789       0.06730867 </v>
   <v>       0.00557594       0.07112115       0.06788308 </v>
   <v>      -0.02225859       0.05379606       0.05341802 </v>
   <v>       0.07119501      -0.65630103       0.11442772 </v>
   <v>       0.06202975       0.64975102      -0.11835879 </v>
   <v>      -0.06985969      -0.65481500      -0.11889171 </v>
   <v>       0.01834669      -0.25300187      -0.06828316 </v>
   <v>      -0.00584084       0.07212981      -0.07595826 </v>
   <v>       0.02169202       0.05384034      -0.06172617 </v>
   <v>      -0.03167217      -0.05320788      -0.06228015 </v>
   <v>       0.01400207      -0.07176629      -0.07562802 </v>
   <v>      -0.00743734       0.25334004      -0.06755814 </v>
   <v>      -0.06529037       0.21051076      -0.12549566 </v>
   <v>       0.06351361      -0.21021311      -0.12545923 </v>
   <v>       0.04822529       0.20035197      -0.03761316 </v>
   <v>       0.06135171      -0.10709902      -0.14900761 </v>
   <v>       0.03099355       0.15367866      -0.02928899 </v>
   <v>      -0.03176794      -0.15413907      -0.02917402 </v>
   <v>      -0.06080842       0.10651756      -0.14803153 </v>
   <v>      -0.04687412      -0.20024391      -0.03773752 </v>
   <v>       0.05996080       0.10621651       0.14819747 </v>
   <v>      -0.06092431      -0.10640239       0.14800128 </v>
   <v>      -0.03037115       0.15398199       0.02876190 </v>
   <v>      -0.06384823      -0.20866074       0.12529967 </v>
   <v>      -0.04736987       0.19998255       0.03761624 </v>
   <v>       0.04683268      -0.19997520       0.03750344 </v>
   <v>       0.06511546       0.20924638       0.12437262 </v>
   <v>       0.03167251      -0.15401098       0.02874721 </v>
   <v>       0.01053078       0.04510366      -0.00861966 </v>
   <v>      -0.51324881       0.81620545      -0.52882308 </v>
   <v>      -0.20982848      -0.50838817      -0.21611729 </v>
   <v>       0.50187941      -0.81680496      -0.52821278 </v>
   <v>       0.23216428       0.50125595      -0.22739142 </v>
   <v>      -0.00566771       0.04654437      -0.00892077 </v>
   <v>      -0.00046232      -0.04316701      -0.00940880 </v>
   <v>      -0.00343763      -0.04642279      -0.00942691 </v>
   <v>       0.00340348      -0.04607001       0.00637853 </v>
   <v>       0.21007395      -0.51303941       0.21487369 </v>
   <v>       0.50585164       0.80978696       0.52181291 </v>
   <v>      -0.21434594       0.51480089       0.21221284 </v>
   <v>      -0.50332217      -0.80181542       0.52118201 </v>
   <v>       0.00315490      -0.04609378       0.00652931 </v>
   <v>       0.00426282       0.04506597       0.00716339 </v>
   <v>      -0.01026225       0.04538477       0.00682681 </v>
  </varray>
  <varray name="stress" >
   <v>      -7.49578166       0.02020617       0.01570313 </v>
   <v>       0.02020627     -11.18211467      -0.01365833 </v>
   <v>       0.01570333      -0.01365775      -8.29155022 </v>
  </varray>
  <energy>
   <i name="e_fr_energy">   -323.15810485 </i>
   <i name="e_wo_entrp">   -323.15810485 </i>
   <i name="e_0_energy">      0.00000000 </i>
  </energy>
  <time name="totalsc">  689.04  696.71</time>
 </calculation>
 <calculation>
  <scstep>
   <time name="dav">   40.64   40.67</time>
   <time name="total">   41.22   41.25</time>
   <energy>
    <i name="alphaZ">   1086.17722071 </i>
    <i name="ewald"> -31343.81106051 </i>
    <i name="hartreedc"> -12952.24170951 </i>
    <i name="XCdc">   1565.43928611 </i>
    <i name="pawpsdc">  44074.31256002 </i>
    <i name="pawaedc"> -43719.19478928 </i>
    <i name="eentropy">      0.00000000 </i>
    <i name="bandstr">  -4572.83200361 </i>
    <i name="atom">  45556.09114881 </i>
    <i name="e_fr_energy">   -306.05934726 </i>
    <i name="e_wo_entrp">   -306.05934726 </i>
    <i name="e_0_energy">   -306.05934726 </i>
   </energy>
  </scstep>
  <scstep>
   <time name="dav">   44.19   44.22</time>
   <time name="total">   44.78   44.86</time>
   <energy>
    <i name="e_fr_energy">   -306.06062115 </i>
    <i name="e_wo_entrp">   -306.06062115 </i>
    <i name="e_0_energy">   -306.06062115 </i>
   </energy>
  </scstep>
  <scstep>
   <time name="dav">   58.68   58.73</time>
   <time name="total">   59.28   59.34</time>
   <energy>
    <i name="e_fr_energy">   -306.06061612 </i>
    <i name="e_wo_entrp">   -306.06061612 </i>
    <i name="e_0_energy">   -306.06061612 </i>
   </energy>
  </scstep>
  <scstep>
   <time name="dav">   42.38   42.42</time>
   <time name="total">   42.98   43.03</time>
   <energy>
    <i name="e_fr_energy">   -306.06057127 </i>
    <i name="e_wo_entrp">   -306.06057127 </i>
    <i name="e_0_energy">   -306.06057127 </i>
   </energy>
  </scstep>
  <scstep>
   <time name="dav">   49.36   49.40</time>
   <time name="total">   49.94   50.04</time>
   <energy>
    <i name="e_fr_energy">   -306.06056360 </i>
    <i name="e_wo_entrp">   -306.06056360 </i>
    <i name="e_0_energy">   -306.06056360 </i>
   </energy>
  </scstep>
  <scstep>
   <time name="dav">   45.80   47.68</time>
   <time name="total">   46.39   48.29</time>
   <energy>
    <i name="e_fr_energy">   -306.06056287 </i>
    <i name="e_wo_entrp">   -306.06056287 </i>
    <i name="e_0_energy">   -306.06056287 </i>
   </energy>
  </scstep>
  <scstep>
   <time name="dav">   37.57   37.60</time>
   <time name="total">   37.70   37.74</time>
   <energy>
    <i name="alphaZ">   1086.17722071 </i>
    <i name="ewald"> -31343.81106051 </i>
    <i name="hartreedc"> -12952.11023845 </i>
    <i name="XCdc">   1565.43092311 </i>
    <i name="pawpsdc">  44072.22640484 </i>
    <i name="pawaedc"> -43717.07623537 </i>
    <i name="eentropy">      0.00000000 </i>
    <i name="bandstr">  -4572.98872582 </i>
    <i name="atom">  45556.09114881 </i>
    <i name="e_fr_energy">   -306.06056267 </i>
    <i name="e_wo_entrp">   -306.06056267 </i>
    <i name="e_0_energy">   -306.06056267 </i>
   </energy>
  </scstep>
  <structure>
   <crystal>
    <varray name="basis" >
     <v>      11.17850000       0.00000000       0.00000000 </v>
     <v>       0.00000000       9.57460000       0.00000000 </v>
     <v>       0.00000000       0.00000000      11.18240000 </v>
    </varray>
    <i name="volume">   1196.84853820 </i>
    <varray name="rec_basis" >
     <v>       0.08945744       0.00000000       0.00000000 </v>
     <v>       0.00000000       0.10444301       0.00000000 </v>
     <v>       0.00000000       0.00000000       0.08942624 </v>
    </varray>
   </crystal>
   <varray name="positions" >
    <v>       0.37334119       0.00016724       0.43689064 </v>
    <v>       0.12464350       0.99983234       0.19130576 </v>
    <v>       0.37436270       0.00079929       0.18823784 </v>
    <v>       0.62535654       0.99983183       0.43689161 </v>
    <v>       0.87737020       0.00016256       0.43689060 </v>
    <v>       0.62464489       0.99983215       0.18718988 </v>
    <v>       0.87490756      -0.00046270       0.18822392 </v>
    <v>       0.37746458       0.00016744       0.93689759 </v>
    <v>       0.12464520       0.99983192       0.68247915 </v>
    <v>       0.37436301      -0.00046310       0.68554955 </v>
    <v>       0.62535651       0.99983205       0.93689555 </v>
    <v>       0.87325031       0.00017407       0.93689738 </v>
    <v>       0.62464446       0.99983169       0.68659776 </v>
    <v>       0.87490427       0.00079512       0.68556391 </v>
    <v>       0.12530175       0.99985105       0.93700987 </v>
    <v>      -0.00049396       0.30033127       0.06427296 </v>
    <v>       0.25071535       0.69963303       0.06428110 </v>
    <v>       0.24927254       0.29021038       0.31422923 </v>
    <v>       0.49973401       0.70486880       0.31338440 </v>
    <v>       0.50037003       0.29530412       0.06345719 </v>
    <v>       0.74984105       0.70469852       0.06345732 </v>
    <v>       0.75005481       0.29513250       0.31338137 </v>
    <v>       0.00052866       0.70977481       0.31422569 </v>
    <v>       0.00071698       0.29028691       0.56135707 </v>
    <v>       0.24948641       0.70974486       0.56135430 </v>
    <v>       0.25051120       0.30040936       0.81134460 </v>
    <v>       0.50016714       0.70469368       0.81215168 </v>
    <v>       0.49994794       0.29513117       0.56221481 </v>
    <v>       0.75025978       0.70486662       0.56221480 </v>
    <v>       0.74962546       0.29530480       0.81215549 </v>
    <v>       0.99926880       0.69960570       0.81134878 </v>
    <v>       0.24949977       0.32720342       0.06161778 </v>
    <v>       0.00059803       0.67279577       0.06162039 </v>
    <v>       0.50039189       0.32784274       0.31252213 </v>
    <v>       0.25041941       0.67232864       0.31165153 </v>
    <v>       0.75038189       0.32746963       0.06254861 </v>
    <v>       0.49971033       0.67253093       0.06254805 </v>
    <v>       0.99948563       0.32767096       0.31166071 </v>
    <v>       0.74951432       0.67215686       0.31252174 </v>
    <v>       0.25050605       0.32766440       0.56407373 </v>
    <v>      -0.00041466       0.67233523       0.56407060 </v>
    <v>       0.49961381       0.32746799       0.81316552 </v>
    <v>       0.24939716       0.67281230       0.81409219 </v>
    <v>       0.74961665       0.32783979       0.56320210 </v>
    <v>       0.50048269       0.67215809       0.56320250 </v>
    <v>       0.00050656       0.32719206       0.81408215 </v>
    <v>       0.75029134       0.67253199       0.81316557 </v>
    <v>       0.49956356       0.07758581       0.06207744 </v>
    <v>      -0.00256013       0.91809855       0.30906914 </v>
    <v>       0.24751035       0.92631486       0.05941495 </v>
    <v>       0.25275774       0.08191355       0.30906593 </v>
    <v>       0.00232104       0.07367619       0.05938166 </v>
    <v>       0.50041576       0.92185870       0.31209558 </v>
    <v>       0.75021779       0.92241100       0.06207941 </v>
    <v>       0.74979982       0.07814101       0.31209686 </v>
    <v>       0.50019904       0.07814043       0.56281806 </v>
    <v>       0.00249680       0.92631823       0.81544529 </v>
    <v>       0.25253604       0.91811170       0.56587104 </v>
    <v>       0.24774688       0.07368061       0.81543686 </v>
    <v>       0.99723694       0.08187527       0.56586932 </v>
    <v>       0.49977605       0.92241606       0.81282835 </v>
    <v>       0.74959051       0.92186309       0.56281619 </v>
    <v>       0.75043807       0.07758466       0.81282680 </v>
   </varray>
  </structure>
  <varray name="forces" >
   <v>      -0.30241710      -0.00219328       0.00446665 </v>
   <v>       0.00888790       0.00182528       0.57463324 </v>
   <v>      -0.06011043       0.07131180       0.10570547 </v>
   <v>      -0.00725422       0.00086162       0.00517597 </v>
   <v>       0.28921254      -0.00020235       0.00432194 </v>
   <v>       0.00760330       0.00110149       0.04567429 </v>
   <v>       0.07301787      -0.07555566       0.10681105 </v>
   <v>       0.21939207       0.00022496       0.00581857 </v>
   <v>       0.00741927       0.00001079      -0.56257791 </v>
   <v>      -0.05928491      -0.07264854      -0.09446107 </v>
   <v>      -0.00818562       0.00089952       0.00562270 </v>
   <v>      -0.23740610      -0.00180308       0.00603106 </v>
   <v>       0.00731465       0.00066478      -0.03468180 </v>
   <v>       0.06924851       0.07229305      -0.09486510 </v>
   <v>      -0.02034401       0.00556766       0.02830197 </v>
   <v>      -0.01983873      -0.21879462       0.06721983 </v>
   <v>       0.01090605       0.21796752       0.06799926 </v>
   <v>      -0.06487163       0.58729675       0.12113349 </v>
   <v>       0.02989711      -0.05106564       0.05637206 </v>
   <v>      -0.01177540      -0.06932538       0.07021564 </v>
   <v>       0.00298311       0.06808371       0.07077276 </v>
   <v>      -0.01995181       0.05123559       0.05613018 </v>
   <v>       0.07316591      -0.58641008       0.12039719 </v>
   <v>       0.06371785       0.58072540      -0.12466468 </v>
   <v>      -0.07175592      -0.58522438      -0.12518576 </v>
   <v>       0.02325743      -0.21678877      -0.07852716 </v>
   <v>      -0.00317503       0.06901227      -0.07884098 </v>
   <v>       0.01943256       0.05127252      -0.06451860 </v>
   <v>      -0.02950717      -0.05067748      -0.06505499 </v>
   <v>       0.01148653      -0.06868255      -0.07848373 </v>
   <v>      -0.01234895       0.21721939      -0.07780314 </v>
   <v>      -0.06752366       0.20652768      -0.13101408 </v>
   <v>       0.06578331      -0.20624200      -0.13095882 </v>
   <v>       0.05012949       0.20090317      -0.03896904 </v>
   <v>       0.06294215      -0.10981998      -0.15373529 </v>
   <v>       0.03263975       0.15322815      -0.03067698 </v>
   <v>      -0.03345096      -0.15367125      -0.03057000 </v>
   <v>      -0.06237827       0.10924965      -0.15271115 </v>
   <v>      -0.04877153      -0.20079937      -0.03909129 </v>
   <v>       0.06149251       0.10891548       0.15298374 </v>
   <v>      -0.06249207      -0.10910043       0.15276592 </v>
   <v>      -0.03207354       0.15351299       0.03011016 </v>
   <v>      -0.06614204      -0.20463557       0.13072422 </v>
   <v>      -0.04923641       0.20052432       0.03899837 </v>
   <v>       0.04871121      -0.20053223       0.03889252 </v>
   <v>       0.06740378       0.20522983       0.12974723 </v>
   <v>       0.03337453      -0.15354297       0.03009666 </v>
   <v>       0.00766151       0.04070637      -0.01131987 </v>
   <v>      -0.51695793       0.74869872      -0.53703998 </v>
   <v>      -0.22352360      -0.46903632      -0.23520454 </v>
   <v>       0.50546620      -0.74911578      -0.53647623 </v>
   <v>       0.24592665       0.46199553      -0.24639372 </v>
   <v>      -0.00313735       0.04367236      -0.01142864 </v>
   <v>       0.00241126      -0.03885421      -0.01206802 </v>
   <v>      -0.00602160      -0.04355876      -0.01190716 </v>
   <v>       0.00598293      -0.04322376       0.00891540 </v>
   <v>       0.22390499      -0.47352431       0.23359693 </v>
   <v>       0.50971580       0.74270071       0.53049760 </v>
   <v>      -0.22814042       0.47525024       0.23092304 </v>
   <v>      -0.50699812      -0.73525410       0.52988040 </v>
   <v>       0.00014253      -0.04164755       0.00917844 </v>
   <v>       0.00182798       0.04227449       0.00966169 </v>
   <v>      -0.00738471       0.04096663       0.00945405 </v>
  </varray>
  <varray name="stress" >
   <v>      -7.55150843       0.02063413       0.01564604 </v>
   <v>       0.02063413     -11.50985807      -0.01392443 </v>
   <v>       0.01564619      -0.01392445      -8.36878400 </v>
  </varray>
  <energy>
   <i name="e_fr_energy">   -323.15934965 </i>
   <i name="e_wo_entrp">   -323.15934965 </i>
   <i name="e_0_energy">      0.00000000 </i>
  </energy>
  <time name="totalsc">  403.35  405.79</time>
 </calculation>
 <calculation>
  <scstep>
   <time name="dav">   39.04   39.07</time>
   <time name="total">   39.64   39.67</time>
   <energy>
    <i name="alphaZ">   1086.17722071 </i>
    <i name="ewald"> -31380.57920391 </i>
    <i name="hartreedc"> -12917.38573130 </i>
    <i name="XCdc">   1565.22027998 </i>
    <i name="pawpsdc">  44072.12360298 </i>
    <i name="pawaedc"> -43716.97373487 </i>
    <i name="eentropy">      0.00000000 </i>
    <i name="bandstr">  -4570.66877948 </i>
    <i name="atom">  45556.09114881 </i>
    <i name="e_fr_energy">   -305.99519708 </i>
    <i name="e_wo_entrp">   -305.99519708 </i>
    <i name="e_0_energy">   -305.99519708 </i>
   </energy>
  </scstep>
  <scstep>
   <time name="dav">   45.56   45.61</time>
   <time name="total">   46.12   46.19</time>
   <energy>
    <i name="e_fr_energy">   -306.36057635 </i>
    <i name="e_wo_entrp">   -306.36057635 </i>
    <i name="e_0_energy">   -306.36057635 </i>
   </energy>
  </scstep>
  <scstep>
   <time name="dav">   60.05   60.09</time>
   <time name="total">   60.64   60.71</time>
   <energy>
    <i name="e_fr_energy">   -306.36187835 </i>
    <i name="e_wo_entrp">   -306.36187835 </i>
    <i name="e_0_energy">   -306.36187835 </i>
   </energy>
  </scstep>
  <scstep>
   <time name="dav">   48.71   48.74</time>
   <time name="total">   49.25   49.30</time>
   <energy>
    <i name="e_fr_energy">   -306.35419866 </i>
    <i name="e_wo_entrp">   -306.35419866 </i>
    <i name="e_0_energy">   -306.35419866 </i>
   </energy>
  </scstep>
  <scstep>
   <time name="dav">   48.52   49.57</time>
   <time name="total">   49.13   50.21</time>
   <energy>
    <i name="e_fr_energy">   -306.35136630 </i>
    <i name="e_wo_entrp">   -306.35136630 </i>
    <i name="e_0_energy">   -306.35136630 </i>
   </energy>
  </scstep>
  <scstep>
   <time name="dav">   50.91   55.18</time>
   <time name="total">   51.45   55.80</time>
   <energy>
    <i name="e_fr_energy">   -306.35164135 </i>
    <i name="e_wo_entrp">   -306.35164135 </i>
    <i name="e_0_energy">   -306.35164135 </i>
   </energy>
  </scstep>
  <scstep>
   <time name="dav">   54.79   54.83</time>
   <time name="total">   55.40   55.46</time>
   <energy>
    <i name="e_fr_energy">   -306.35160770 </i>
    <i name="e_wo_entrp">   -306.35160770 </i>
    <i name="e_0_energy">   -306.35160770 </i>
   </energy>
  </scstep>
  <scstep>
   <time name="dav">   49.18   49.22</time>
   <time name="total">   49.77   49.83</time>
   <energy>
    <i name="e_fr_energy">   -306.35157658 </i>
    <i name="e_wo_entrp">   -306.35157658 </i>
    <i name="e_0_energy">   -306.35157658 </i>
   </energy>
  </scstep>
  <scstep>
   <time name="dav">   47.65   47.69</time>
   <time name="total">   48.24   48.33</time>
   <energy>
    <i name="e_fr_energy">   -306.35157474 </i>
    <i name="e_wo_entrp">   -306.35157474 </i>
    <i name="e_0_energy">   -306.35157474 </i>
   </energy>
  </scstep>
  <scstep>
   <time name="dav">   44.87   44.90</time>
   <time name="total">   45.46   45.54</time>
   <energy>
    <i name="e_fr_energy">   -306.35157650 </i>
    <i name="e_wo_entrp">   -306.35157650 </i>
    <i name="e_0_energy">   -306.35157650 </i>
   </energy>
  </scstep>
  <scstep>
   <time name="dav">   35.34   35.37</time>
   <time name="total">   35.43   35.48</time>
   <energy>
    <i name="alphaZ">   1086.17722071 </i>
    <i name="ewald"> -31380.57920391 </i>
    <i name="hartreedc"> -12916.86209233 </i>
    <i name="XCdc">   1565.20360020 </i>
    <i name="pawpsdc">  44014.10155820 </i>
    <i name="pawaedc"> -43657.94469415 </i>
    <i name="eentropy">      0.00000000 </i>
    <i name="bandstr">  -4572.53911423 </i>
    <i name="atom">  45556.09114881 </i>
    <i name="e_fr_energy">   -306.35157670 </i>
    <i name="e_wo_entrp">   -306.35157670 </i>
    <i name="e_0_energy">   -306.35157670 </i>
   </energy>
  </scstep>
  <structure>
   <crystal>
    <varray name="basis" >
     <v>      11.17850000       0.00000000       0.00000000 </v>
     <v>       0.00000000       9.57460000       0.00000000 </v>
     <v>       0.00000000       0.00000000      11.18240000 </v>
    </varray>
    <i name="volume">   1196.84853820 </i>
    <varray name="rec_basis" >
     <v>       0.08945744       0.00000000       0.00000000 </v>
     <v>       0.00000000       0.10444301       0.00000000 </v>
     <v>       0.00000000       0.00000000       0.08942624 </v>
    </varray>
   </crystal>
   <varray name="positions" >
    <v>       0.37137653       0.00015536       0.43691651 </v>
    <v>       0.12469252       0.99984223       0.19521512 </v>
    <v>       0.37402438       0.00136146       0.18913706 </v>
    <v>       0.62531453       0.99983673       0.43692083 </v>
    <v>       0.87925587       0.00015912       0.43691584 </v>
    <v>       0.62468886       0.99983837       0.18748994 </v>
    <v>       0.87531760      -0.00104723       0.18912334 </v>
    <v>       0.37908182       0.00016773       0.93693151 </v>
    <v>       0.12468849       0.99983260       0.67863609 </v>
    <v>       0.37402833      -0.00103320       0.68471397 </v>
    <v>       0.62531050       0.99983722       0.93692798 </v>
    <v>       0.87153463       0.00016637       0.93693215 </v>
    <v>       0.62468706       0.99983557       0.68636033 </v>
    <v>       0.87529707       0.00136084       0.68473128 </v>
    <v>       0.12518576       0.99988578       0.93717677 </v>
    <v>      -0.00078260       0.30091420       0.06503507 </v>
    <v>       0.25095310       0.69903432       0.06504922 </v>
    <v>       0.24879955       0.29152408       0.31520806 </v>
    <v>       0.49981776       0.70463247       0.31381009 </v>
    <v>       0.50039790       0.29499447       0.06396594 </v>
    <v>       0.74975954       0.70500282       0.06396850 </v>
    <v>       0.75002961       0.29537011       0.31380503 </v>
    <v>       0.00105716       0.70846071       0.31520021 </v>
    <v>       0.00118160       0.29159271       0.56034558 </v>
    <v>       0.24896887       0.70842692       0.56033968 </v>
    <v>       0.25082011       0.30102780       0.81052671 </v>
    <v>       0.50025050       0.70500104       0.81159582 </v>
    <v>       0.49997181       0.29536852       0.56174091 </v>
    <v>       0.75017567       0.70463153       0.56173859 </v>
    <v>       0.74959489       0.29499860       0.81160240 </v>
    <v>       0.99901969       0.69899433       0.81053536 </v>
    <v>       0.24903083       0.32837826       0.06065112 </v>
    <v>       0.00105879       0.67162210       0.06065481 </v>
    <v>       0.50075093       0.32919805       0.31224492 </v>
    <v>       0.25084234       0.67148500       0.31059855 </v>
    <v>       0.75063009       0.32846464       0.06231557 </v>
    <v>       0.49945613       0.67153388       0.06231528 </v>
    <v>       0.99906676       0.32851161       0.31061511 </v>
    <v>       0.74916313       0.67080194       0.31224388 </v>
    <v>       0.25091841       0.32850125       0.56512522 </v>
    <v>      -0.00083411       0.67149734       0.56512014 </v>
    <v>       0.49936665       0.32846389       0.81339421 </v>
    <v>       0.24893329       0.67165207       0.81505434 </v>
    <v>       0.74926423       0.32919224       0.56348081 </v>
    <v>       0.50083265       0.67080490       0.56348089 </v>
    <v>       0.00097706       0.32835669       0.81503683 </v>
    <v>       0.75054576       0.67153593       0.81339423 </v>
    <v>       0.49949640       0.07766086       0.06190410 </v>
    <v>      -0.00565353       0.92056516       0.30566181 </v>
    <v>       0.24578238       0.92536944       0.05741361 </v>
    <v>       0.25578153       0.07944880       0.30565998 </v>
    <v>       0.00417484       0.07458345       0.05732151 </v>
    <v>       0.50049556       0.92202458       0.31192770 </v>
    <v>       0.75034161       0.92234418       0.06190352 </v>
    <v>       0.74966627       0.07797560       0.31192734 </v>
    <v>       0.50033205       0.07797651       0.56297310 </v>
    <v>       0.00422874       0.92535146       0.81742024 </v>
    <v>       0.25559054       0.92055258       0.56925693 </v>
    <v>       0.24599146       0.07465564       0.81739761 </v>
    <v>       0.99420485       0.07946739       0.56925200 </v>
    <v>       0.49966116       0.92233692       0.81298787 </v>
    <v>       0.74950715       0.92202341       0.56297382 </v>
    <v>       0.75050695       0.07766064       0.81298699 </v>
   </varray>
  </structure>
  <varray name="forces" >
   <v>      -0.22901764      -0.00340784       0.00496157 </v>
   <v>       0.00927470       0.00278893       0.37660263 </v>
   <v>      -0.03099476       0.05385144       0.02958878 </v>
   <v>      -0.00652023       0.00151434       0.00491921 </v>
   <v>       0.21803068       0.00005545       0.00395278 </v>
   <v>       0.00661710       0.00168676       0.04891173 </v>
   <v>       0.04502553      -0.06135326       0.03538266 </v>
   <v>       0.08406423       0.00059747       0.00447711 </v>
   <v>       0.00576610      -0.00023307      -0.36133934 </v>
   <v>      -0.02808011      -0.05490115      -0.01758868 </v>
   <v>      -0.00768814       0.00126885       0.00513899 </v>
   <v>      -0.10092099      -0.00357065       0.00524030 </v>
   <v>       0.00614456       0.00110933      -0.03862484 </v>
   <v>       0.03752445       0.05487325      -0.02065127 </v>
   <v>      -0.00740594       0.00405756       0.00894822 </v>
   <v>       0.05771488      -0.30077024      -0.15394749 </v>
   <v>      -0.06238720       0.30168756      -0.15329739 </v>
   <v>       0.05603510      -0.11144578      -0.09641211 </v>
   <v>       0.07883094       0.03774124      -0.00950906 </v>
   <v>      -0.04765714      -0.01078623      -0.00173808 </v>
   <v>       0.04159542       0.01069275      -0.00167156 </v>
   <v>      -0.07249914      -0.03762891      -0.00897663 </v>
   <v>      -0.04964975       0.11186533      -0.09645265 </v>
   <v>      -0.05609966      -0.10289734       0.09001620 </v>
   <v>       0.04918424       0.10635374       0.08981110 </v>
   <v>      -0.05407668      -0.30200475       0.14218521 </v>
   <v>      -0.04239793       0.00972917      -0.00585203 </v>
   <v>       0.07175724      -0.03717147       0.00158796 </v>
   <v>      -0.07818775       0.03678371       0.00146078 </v>
   <v>       0.04744451      -0.00924394      -0.00636105 </v>
   <v>       0.06267254       0.30122234       0.14219650 </v>
   <v>      -0.01441559       0.23724189       0.01646601 </v>
   <v>       0.01219921      -0.23711102       0.01617278 </v>
   <v>      -0.01640336       0.20671759       0.00562306 </v>
   <v>      -0.01052041      -0.10055572       0.02082836 </v>
   <v>      -0.01241453       0.14216701       0.00465226 </v>
   <v>       0.01263060      -0.14290584       0.00485815 </v>
   <v>       0.01102367       0.09973214       0.02010481 </v>
   <v>       0.01773854      -0.20657400       0.00547728 </v>
   <v>      -0.01068069       0.10000305      -0.02299252 </v>
   <v>       0.01021241      -0.09994096      -0.02272417 </v>
   <v>       0.01419587       0.14283721      -0.00473702 </v>
   <v>      -0.01199910      -0.23574312      -0.01541280 </v>
   <v>       0.01612321       0.20625526      -0.00636134 </v>
   <v>      -0.01727896      -0.20613044      -0.00657653 </v>
   <v>       0.01300242       0.23605303      -0.01494514 </v>
   <v>      -0.01290079      -0.14280253      -0.00471368 </v>
   <v>       0.02960431      -0.01176419       0.00490477 </v>
   <v>      -0.35579940      -0.01442716      -0.32211321 </v>
   <v>      -0.02801633      -0.57137890      -0.03891212 </v>
   <v>       0.34177844       0.01613510      -0.31890041 </v>
   <v>       0.03882149       0.56822478      -0.04360496 </v>
   <v>       0.01586291      -0.05941787       0.01169163 </v>
   <v>      -0.02107860       0.01291854       0.00397881 </v>
   <v>      -0.02268087       0.05953477       0.01081196 </v>
   <v>       0.02248836       0.05951356      -0.01396141 </v>
   <v>       0.02857227      -0.57496037       0.04471563 </v>
   <v>       0.34679641      -0.01747422       0.31082447 </v>
   <v>      -0.03411555       0.57592492       0.04569902 </v>
   <v>      -0.34503521       0.01592370       0.31221857 </v>
   <v>       0.02538401       0.01085867      -0.00680704 </v>
   <v>      -0.01781739      -0.05985716      -0.01284863 </v>
   <v>      -0.02937652      -0.01146229      -0.00637614 </v>
  </varray>
  <varray name="stress" >
   <v>      -7.14433101       0.01008818       0.00795974 </v>
   <v>       0.01008806     -19.60685601      -0.00209749 </v>
   <v>       0.00795961      -0.00209810      -7.57929077 </v>
  </varray>
  <energy>
   <i name="e_fr_energy">   -323.46284674 </i>
   <i name="e_wo_entrp">   -323.46284674 </i>
   <i name="e_0_energy">      0.00000000 </i>
  </energy>
  <time name="totalsc">  611.44  617.65</time>
 </calculation>
 <calculation>
  <scstep>
   <time name="dav">   40.97   41.91</time>
   <time name="total">   41.72   42.68</time>
   <energy>
    <i name="alphaZ">   1086.17722071 </i>
    <i name="ewald"> -31404.87146846 </i>
    <i name="hartreedc"> -12893.74107774 </i>
    <i name="XCdc">   1565.07380557 </i>
    <i name="pawpsdc">  44013.79922775 </i>
    <i name="pawaedc"> -43657.64461856 </i>
    <i name="eentropy">      0.00000000 </i>
    <i name="bandstr">  -4571.10343034 </i>
    <i name="atom">  45556.09114881 </i>
    <i name="e_fr_energy">   -306.21919226 </i>
    <i name="e_wo_entrp">   -306.21919226 </i>
    <i name="e_0_energy">   -306.21919226 </i>
   </energy>
  </scstep>
  <scstep>
   <time name="dav">   47.73   49.23</time>
   <time name="total">   48.30   49.91</time>
   <energy>
    <i name="e_fr_energy">   -306.40135919 </i>
    <i name="e_wo_entrp">   -306.40135919 </i>
    <i name="e_0_energy">   -306.40135919 </i>
   </energy>
  </scstep>
  <scstep>
   <time name="dav">   60.19   60.23</time>
   <time name="total">   60.87   60.96</time>
   <energy>
    <i name="e_fr_energy">   -306.40241765 </i>
    <i name="e_wo_entrp">   -306.40241765 </i>
    <i name="e_0_energy">   -306.40241765 </i>
   </energy>
  </scstep>
  <scstep>
   <time name="dav">   46.08   46.11</time>
   <time name="total">   46.67   46.74</time>
   <energy>
    <i name="e_fr_energy">   -306.39840862 </i>
    <i name="e_wo_entrp">   -306.39840862 </i>
    <i name="e_0_energy">   -306.39840862 </i>
   </energy>
  </scstep>
  <scstep>
   <time name="dav">   47.63   47.66</time>
   <time name="total">   48.18   48.23</time>
   <energy>
    <i name="e_fr_energy">   -306.39703812 </i>
    <i name="e_wo_entrp">   -306.39703812 </i>
    <i name="e_0_energy">   -306.39703812 </i>
   </energy>
  </scstep>
  <scstep>
   <time name="dav">   44.95   44.98</time>
   <time name="total">   45.50   45.54</time>
   <energy>
    <i name="e_fr_energy">   -306.39716402 </i>
    <i name="e_wo_entrp">   -306.39716402 </i>
    <i name="e_0_energy">   -306.39716402 </i>
   </energy>
  </scstep>
  <scstep>
   <time name="dav">   52.44   52.48</time>
   <time name="total">   53.06   53.13</time>
   <energy>
[...]
       <r>   10.7550    0.0000 </r>
       <r>   10.8224    0.0000 </r>
      </set>
     </set>
    </set>
   </array>
  </eigenvalues>
  <separator name="orbital magnetization" >
   <v name="MAGDIPOLOUT">      0.00000000      0.00000000      0.00000000</v>
  </separator>
  <dos>
   <i name="efermi">      4.33761463 </i>
   <total>
    <array>
     <dimension dim="1">gridpoints</dimension>
     <dimension dim="2">spin</dimension>
     <field>energy</field>
     <field>total</field>
     <field>integrated</field>
     <set>
      <set comment="spin 1">
       <r>   -42.4869     0.0000     0.0000 </r>
       <r>   -42.2992     0.0000     0.0000 </r>
       <r>   -42.1115     0.0000     0.0000 </r>
       <r>   -41.9239     0.0000     0.0000 </r>
       <r>   -41.7362     0.0000     0.0000 </r>
       <r>   -41.5485     0.0000     0.0000 </r>
       <r>   -41.3608     0.0000     0.0000 </r>
       <r>   -41.1732     0.0000     0.0000 </r>
       <r>   -40.9855     0.0000     0.0000 </r>
       <r>   -40.7978     0.0000     0.0000 </r>
       <r>   -40.6102     0.0000     0.0000 </r>
       <r>   -40.4225     0.0000     0.0000 </r>
       <r>   -40.2348     0.0000     0.0000 </r>
       <r>   -40.0471     0.0000     0.0000 </r>
       <r>   -39.8595     0.0000     4.0000 </r>
       <r>   -39.6718     0.0000    14.0000 </r>
       <r>   -39.4841     0.0000    28.0000 </r>
       <r>   -39.2964     0.0000    28.0000 </r>
       <r>   -39.1088     0.0000    28.0000 </r>
       <r>   -38.9211     0.0000    28.0000 </r>
       <r>   -38.7334     0.0000    28.0000 </r>
       <r>   -38.5457     0.0000    28.0000 </r>
       <r>   -38.3581     0.0000    28.0000 </r>
       <r>   -38.1704     0.0000    28.0000 </r>
       <r>   -37.9827     0.0000    28.0000 </r>
       <r>   -37.7951     0.0000    28.0000 </r>
       <r>   -37.6074     0.0000    28.0000 </r>
       <r>   -37.4197     0.0000    28.0000 </r>
       <r>   -37.2320     0.0000    28.0000 </r>
       <r>   -37.0444     0.0000    28.0000 </r>
       <r>   -36.8567     0.0000    28.0000 </r>
       <r>   -36.6690     0.0000    28.0000 </r>
       <r>   -36.4813     0.0000    28.0000 </r>
       <r>   -36.2937     0.0000    28.0000 </r>
       <r>   -36.1060     0.0000    28.0000 </r>
       <r>   -35.9183     0.0000    28.0000 </r>
       <r>   -35.7306     0.0000    28.0000 </r>
       <r>   -35.5430     0.0000    28.0000 </r>
       <r>   -35.3553     0.0000    28.0000 </r>
       <r>   -35.1676     0.0000    28.0000 </r>
       <r>   -34.9800     0.0000    28.0000 </r>
       <r>   -34.7923     0.0000    28.0000 </r>
       <r>   -34.6046     0.0000    28.0000 </r>
       <r>   -34.4169     0.0000    28.0000 </r>
       <r>   -34.2293     0.0000    28.0000 </r>
       <r>   -34.0416     0.0000    28.0000 </r>
       <r>   -33.8539     0.0000    28.0000 </r>
       <r>   -33.6662     0.0000    28.0000 </r>
       <r>   -33.4786     0.0000    28.0000 </r>
       <r>   -33.2909     0.0000    28.0000 </r>
       <r>   -33.1032     0.0000    28.0000 </r>
       <r>   -32.9155     0.0000    28.0000 </r>
       <r>   -32.7279     0.0000    28.0000 </r>
       <r>   -32.5402     0.0000    28.0000 </r>
       <r>   -32.3525     0.0000    28.0000 </r>
       <r>   -32.1649     0.0000    28.0000 </r>
       <r>   -31.9772     0.0000    28.0000 </r>
       <r>   -31.7895     0.0000    28.0000 </r>
       <r>   -31.6018     0.0000    28.0000 </r>
       <r>   -31.4142     0.0000    28.0000 </r>
       <r>   -31.2265     0.0000    28.0000 </r>
       <r>   -31.0388     0.0000    28.0000 </r>
       <r>   -30.8511     0.0000    28.0000 </r>
       <r>   -30.6635     0.0000    28.0000 </r>
       <r>   -30.4758     0.0000    28.0000 </r>
       <r>   -30.2881     0.0000    28.0000 </r>
       <r>   -30.1004     0.0000    28.0000 </r>
       <r>   -29.9128     0.0000    28.0000 </r>
       <r>   -29.7251     0.0000    28.0000 </r>
       <r>   -29.5374     0.0000    28.0000 </r>
       <r>   -29.3498     0.0000    28.0000 </r>
       <r>   -29.1621     0.0000    28.0000 </r>
       <r>   -28.9744     0.0000    28.0000 </r>
       <r>   -28.7867     0.0000    28.0000 </r>
       <r>   -28.5991     0.0000    28.0000 </r>
       <r>   -28.4114     0.0000    28.0000 </r>
       <r>   -28.2237     0.0000    28.0000 </r>
       <r>   -28.0360     0.0000    28.0000 </r>
       <r>   -27.8484     0.0000    28.0000 </r>
       <r>   -27.6607     0.0000    28.0000 </r>
       <r>   -27.4730     0.0000    28.0000 </r>
       <r>   -27.2853     0.0000    28.0000 </r>
       <r>   -27.0977     0.0000    28.0000 </r>
       <r>   -26.9100     0.0000    28.0000 </r>
       <r>   -26.7223     0.0000    28.0000 </r>
       <r>   -26.5347     0.0000    28.0000 </r>
       <r>   -26.3470     0.0000    28.0000 </r>
       <r>   -26.1593     0.0000    28.0000 </r>
       <r>   -25.9716     0.0000    28.0000 </r>
       <r>   -25.7840     0.0000    28.0000 </r>
       <r>   -25.5963     0.0000    28.0000 </r>
       <r>   -25.4086     0.0000    28.0000 </r>
       <r>   -25.2209     0.0000    28.0000 </r>
       <r>   -25.0333     0.0000    28.0000 </r>
       <r>   -24.8456     0.0000    28.0000 </r>
       <r>   -24.6579     0.0000    28.0000 </r>
       <r>   -24.4702     0.0000    28.0000 </r>
       <r>   -24.2826     0.0000    28.0000 </r>
       <r>   -24.0949     0.0000    28.0000 </r>
       <r>   -23.9072     0.0000    28.0000 </r>
       <r>   -23.7196     0.0000    28.0000 </r>
       <r>   -23.5319     0.0000    28.0000 </r>
       <r>   -23.3442     0.0000    28.0000 </r>
       <r>   -23.1565     0.0000    28.0000 </r>
       <r>   -22.9689     0.0000    28.0000 </r>
       <r>   -22.7812     0.0000    28.0000 </r>
       <r>   -22.5935     0.0000    28.0000 </r>
       <r>   -22.4058     0.0000    28.0000 </r>
       <r>   -22.2182     0.0000    28.0000 </r>
       <r>   -22.0305     0.0000    28.0000 </r>
       <r>   -21.8428     0.0000    28.0000 </r>
       <r>   -21.6551     0.0000    28.0000 </r>
       <r>   -21.4675     0.0000    28.0000 </r>
       <r>   -21.2798     0.0000    28.0000 </r>
       <r>   -21.0921     0.0000    28.0000 </r>
       <r>   -20.9045     0.0000    28.0000 </r>
       <r>   -20.7168     0.0000    28.0000 </r>
       <r>   -20.5291     0.0000    28.0000 </r>
       <r>   -20.3414     0.0000    28.0000 </r>
       <r>   -20.1538     0.0000    28.0000 </r>
       <r>   -19.9661     0.0000    28.0000 </r>
       <r>   -19.7784     0.0000    28.0000 </r>
       <r>   -19.5907     0.0000    28.0000 </r>
       <r>   -19.4031     0.0000    28.0000 </r>
       <r>   -19.2154     0.0000    28.0000 </r>
       <r>   -19.0277     0.0000    28.0000 </r>
       <r>   -18.8400     0.0000    28.0000 </r>
       <r>   -18.6524     0.0000    52.0000 </r>
       <r>   -18.4647     0.0000   156.0000 </r>
       <r>   -18.2770     0.0000   188.0000 </r>
       <r>   -18.0894     0.0000   188.0000 </r>
       <r>   -17.9017     0.0000   188.0000 </r>
       <r>   -17.7140     0.0000   188.0000 </r>
       <r>   -17.5263     0.0000   188.0000 </r>
       <r>   -17.3387     0.0000   188.0000 </r>
       <r>   -17.1510     0.0000   188.0000 </r>
       <r>   -16.9633     0.0000   188.0000 </r>
       <r>   -16.7756     0.0000   188.0000 </r>
       <r>   -16.5880     0.0000   188.0000 </r>
       <r>   -16.4003     0.0000   188.0000 </r>
       <r>   -16.2126     0.0000   188.0000 </r>
       <r>   -16.0249     0.0000   188.0000 </r>
       <r>   -15.8373     0.0000   188.0000 </r>
       <r>   -15.6496     0.0000   188.0000 </r>
       <r>   -15.4619     0.0000   188.0000 </r>
       <r>   -15.2743     0.0000   188.0000 </r>
       <r>   -15.0866     0.0000   188.0000 </r>
       <r>   -14.8989     0.0000   188.0000 </r>
       <r>   -14.7112     0.0000   188.0000 </r>
       <r>   -14.5236     0.0000   188.0000 </r>
       <r>   -14.3359     0.0000   188.0000 </r>
       <r>   -14.1482     0.0000   188.0000 </r>
       <r>   -13.9605     0.0000   188.0000 </r>
       <r>   -13.7729     0.0000   188.0000 </r>
       <r>   -13.5852     0.0000   188.0000 </r>
       <r>   -13.3975     0.0000   188.0000 </r>
       <r>   -13.2098     0.0000   188.0000 </r>
       <r>   -13.0222     0.0000   190.0000 </r>
       <r>   -12.8345     0.0000   192.0000 </r>
       <r>   -12.6468     0.0000   202.0000 </r>
       <r>   -12.4592     0.0000   212.0000 </r>
       <r>   -12.2715     0.0000   220.0000 </r>
       <r>   -12.0838     0.0000   220.0000 </r>
       <r>   -11.8961     0.0000   220.0000 </r>
       <r>   -11.7085     0.0000   220.0000 </r>
       <r>   -11.5208     0.0000   220.0000 </r>
       <r>   -11.3331     0.0000   220.0000 </r>
       <r>   -11.1454     0.0000   220.0000 </r>
       <r>   -10.9578     0.0000   220.0000 </r>
       <r>   -10.7701     0.0000   220.0000 </r>
       <r>   -10.5824     0.0000   220.0000 </r>
       <r>   -10.3947     0.0000   220.0000 </r>
       <r>   -10.2071     0.0000   220.0000 </r>
       <r>   -10.0194     0.0000   220.0000 </r>
       <r>    -9.8317     0.0000   220.0000 </r>
       <r>    -9.6440     0.0000   220.0000 </r>
       <r>    -9.4564     0.0000   220.0000 </r>
       <r>    -9.2687     2.2055   220.0293 </r>
       <r>    -9.0810     8.7931   221.6515 </r>
       <r>    -8.8934     0.0081   224.0000 </r>
       <r>    -8.7057    22.2366   225.6499 </r>
       <r>    -8.5180    11.6139   228.2738 </r>
       <r>    -8.3303    30.9806   232.5372 </r>
       <r>    -8.1427     0.1729   236.0003 </r>
       <r>    -7.9550    42.5620   240.0177 </r>
       <r>    -7.7673    19.3132   244.7906 </r>
       <r>    -7.5796     3.8308   248.0153 </r>
       <r>    -7.3920    11.5454   251.4996 </r>
       <r>    -7.2043     0.0000   252.0000 </r>
       <r>    -7.0166     0.0000   252.0000 </r>
       <r>    -6.8289     0.0000   252.0000 </r>
       <r>    -6.6413     0.0000   252.0000 </r>
       <r>    -6.4536     0.0000   252.0000 </r>
       <r>    -6.2659     0.8754   252.0049 </r>
       <r>    -6.0783    20.6106   254.0133 </r>
       <r>    -5.8906    21.2417   259.2178 </r>
       <r>    -5.7029    30.4565   262.2628 </r>
       <r>    -5.5152    27.3707   267.4340 </r>
       <r>    -5.3276    20.4343   271.7653 </r>
       <r>    -5.1399    11.3291   274.9484 </r>
       <r>    -4.9522     2.9930   276.1265 </r>
       <r>    -4.7645     8.7229   277.3067 </r>
       <r>    -4.5769    11.3230   279.1277 </r>
       <r>    -4.3892     4.7531   280.7615 </r>
       <r>    -4.2015     7.7081   281.9175 </r>
       <r>    -4.0138     5.1322   283.2740 </r>
       <r>    -3.8262     1.4921   283.8289 </r>
       <r>    -3.6385     0.2613   283.9934 </r>
       <r>    -3.4508     0.0000   284.0000 </r>
       <r>    -3.2632     0.0000   284.0000 </r>
       <r>    -3.0755     0.0000   284.0000 </r>
       <r>    -2.8878     0.0000   284.0000 </r>
       <r>    -2.7001     0.0000   284.0000 </r>
       <r>    -2.5125     0.0000   284.0000 </r>
       <r>    -2.3248     0.0000   284.0000 </r>
       <r>    -2.1371     0.0000   284.0000 </r>
       <r>    -1.9494     0.0000   284.0000 </r>
       <r>    -1.7618     0.0000   284.0000 </r>
       <r>    -1.5741     0.0000   284.0000 </r>
       <r>    -1.3864     0.0000   284.0000 </r>
       <r>    -1.1987     2.5136   284.0641 </r>
       <r>    -1.0111     7.5303   285.2776 </r>
       <r>    -0.8234    11.0065   286.7587 </r>
       <r>    -0.6357    11.2158   289.1080 </r>
       <r>    -0.4481     6.8898   290.7681 </r>
       <r>    -0.2604    16.4570   292.4615 </r>
       <r>    -0.0727    26.4386   296.8242 </r>
       <r>     0.1150    39.7258   303.3858 </r>
       <r>     0.3026    34.4037   310.7084 </r>
       <r>     0.4903    43.3185   318.3347 </r>
       <r>     0.6780    37.4124   325.9014 </r>
       <r>     0.8657    27.2841   331.8464 </r>
       <r>     1.0533    45.6864   337.6319 </r>
       <r>     1.2410    47.9964   346.8720 </r>
       <r>     1.4287    51.5062   354.8596 </r>
       <r>     1.6164    47.2802   363.9637 </r>
       <r>     1.8040    56.1588   375.3742 </r>
       <r>     1.9917    69.7319   388.1751 </r>
       <r>     2.1794    40.1495   394.8187 </r>
       <r>     2.3670    34.1553   401.0636 </r>
       <r>     2.5547    89.9029   411.1312 </r>
       <r>     2.7424    60.6821   425.9511 </r>
       <r>     2.9301    97.4785   438.5230 </r>
       <r>     3.1177    68.1254   453.4525 </r>
       <r>     3.3054    22.7836   460.4958 </r>
       <r>     3.4931    36.9077   465.5195 </r>
       <r>     3.6808    14.9599   471.5910 </r>
       <r>     3.8684     9.9351   473.8769 </r>
       <r>     4.0561     5.5681   475.3318 </r>
       <r>     4.2438     1.1968   475.9666 </r>
       <r>     4.4315     0.0000   476.0000 </r>
       <r>     4.6191     0.0000   476.0000 </r>
       <r>     4.8068     0.0000   476.0000 </r>
       <r>     4.9945     0.0000   476.0000 </r>
       <r>     5.1821     0.0000   476.0000 </r>
       <r>     5.3698     3.1719   476.2030 </r>
       <r>     5.5575     7.9542   477.2471 </r>
       <r>     5.7452     9.9217   479.0914 </r>
       <r>     5.9328    23.0231   482.7016 </r>
       <r>     6.1205    13.0644   485.5592 </r>
       <r>     6.3082    12.0248   487.8731 </r>
       <r>     6.4959    13.4175   490.2285 </r>
       <r>     6.6835    15.2476   492.9186 </r>
       <r>     6.8712    17.1874   495.9551 </r>
       <r>     7.0589    20.0764   499.4077 </r>
       <r>     7.2466    30.4710   503.8765 </r>
       <r>     7.4342    53.6643   511.6048 </r>
       <r>     7.6219    23.5500   518.0523 </r>
       <r>     7.8096    34.8009   523.5402 </r>
       <r>     7.9972    42.1964   529.6065 </r>
       <r>     8.1849    33.8596   538.2627 </r>
       <r>     8.3726    17.3169   542.6219 </r>
       <r>     8.5603    17.3136   545.5686 </r>
       <r>     8.7479    37.2854   550.6548 </r>
       <r>     8.9356    59.6817   557.8167 </r>
       <r>     9.1233    18.9372   566.2319 </r>
       <r>     9.3110    17.2184   569.2887 </r>
       <r>     9.4986     5.1036   571.8544 </r>
       <r>     9.6863     1.8873   572.0143 </r>
       <r>     9.8740     9.7402   574.3447 </r>
       <r>    10.0617    10.0612   575.9287 </r>
       <r>    10.2493     6.6509   577.1938 </r>
       <r>    10.4370    28.8427   580.5692 </r>
       <r>    10.6247    22.4860   585.5896 </r>
       <r>    10.8123    45.4662   592.9135 </r>
       <r>    11.0000     5.9066   599.4961 </r>
       <r>    11.1877     0.4200   599.9904 </r>
       <r>    11.3754     0.0000   600.0000 </r>
       <r>    11.5630     0.0000   600.0000 </r>
       <r>    11.7507     0.0000   600.0000 </r>
       <r>    11.9384     0.0000   600.0000 </r>
       <r>    12.1261     0.0000   600.0000 </r>
       <r>    12.3137     0.0000   600.0000 </r>
       <r>    12.5014     0.0000   600.0000 </r>
       <r>    12.6891     0.0000   600.0000 </r>
       <r>    12.8768     0.0000   600.0000 </r>
       <r>    13.0644     0.0000   600.0000 </r>
       <r>    13.2521     0.0000   600.0000 </r>
       <r>    13.4398     0.0000   600.0000 </r>
       <r>    13.6274     0.0000   600.0000 </r>
       <r>    13.8151     0.0000   600.0000 </r>
      </set>
     </set>
    </array>
   </total>
  </dos>
 </calculation>
 <structure name="finalpos" >
  <crystal>
   <varray name="basis" >
    <v>      11.17850000       0.00000000       0.00000000 </v>
    <v>       0.00000000       9.57460000       0.00000000 </v>
    <v>       0.00000000       0.00000000      11.18240000 </v>
   </varray>
   <i name="volume">   1196.84853820 </i>
   <varray name="rec_basis" >
    <v>       0.08945744       0.00000000       0.00000000 </v>
    <v>       0.00000000       0.10444301       0.00000000 </v>
    <v>       0.00000000       0.00000000       0.08942624 </v>
   </varray>
  </crystal>
  <varray name="positions" >
   <v>       0.36465947      -0.00004310       0.43710085 </v>
   <v>       0.12497443       0.99996720       0.20808356 </v>
   <v>       0.37675544       0.00174885       0.18822087 </v>
   <v>       0.62507974       0.99992155       0.43710998 </v>
   <v>       0.88556993       0.00019050       0.43707360 </v>
   <v>       0.62492550       0.99993509       0.18957178 </v>
   <v>       0.87304730      -0.00175923       0.18837989 </v>
   <v>       0.38195162       0.00018308       0.93710669 </v>
   <v>       0.12485021       0.99985053       0.66624408 </v>
   <v>       0.37689149      -0.00150270       0.68607353 </v>
   <v>       0.62505106       0.99991039       0.93713566 </v>
   <v>       0.86812655      -0.00001262       0.93713323 </v>
   <v>       0.62490488       0.99989819       0.68466415 </v>
   <v>       0.87278779       0.00179054       0.68597874 </v>
   <v>       0.12512193       0.99995368       0.93726778 </v>
   <v>       0.00029115       0.30414078       0.06112369 </v>
   <v>       0.24976037       0.69581539       0.06115598 </v>
   <v>       0.25090965       0.29204754       0.31207479 </v>
   <v>       0.50127985       0.70411460       0.31278674 </v>
   <v>       0.49979974       0.29519257       0.06311977 </v>
   <v>       0.75022416       0.70482559       0.06310568 </v>
   <v>       0.74872429       0.29588289       0.31278364 </v>
   <v>      -0.00092314       0.70799155       0.31205603 </v>
   <v>      -0.00097101       0.29226132       0.56320396 </v>
   <v>       0.25093376       0.70778022       0.56318456 </v>
   <v>       0.24982176       0.30427360       0.81412838 </v>
   <v>       0.49978845       0.70477110       0.81217476 </v>
   <v>       0.50128847       0.29590142       0.56245381 </v>
   <v>       0.74870359       0.70408370       0.56246582 </v>
   <v>       0.75022159       0.29523129       0.81217808 </v>
   <v>       0.00021860       0.69574864       0.81413440 </v>
   <v>       0.24913311       0.33836754       0.06214241 </v>
   <v>       0.00090820       0.66163239       0.06214587 </v>
   <v>       0.49968732       0.33846744       0.31247156 </v>
   <v>       0.25007701       0.66828195       0.31235424 </v>
   <v>       0.74953348       0.33456789       0.06229856 </v>
   <v>       0.50053946       0.66540240       0.06230493 </v>
   <v>       0.99986737       0.33168961       0.31234649 </v>
   <v>       0.75026539       0.66153442       0.31246736 </v>
   <v>       0.25014011       0.33168579       0.56330808 </v>
   <v>      -0.00007875       0.66831914       0.56330280 </v>
   <v>       0.50049366       0.33458880       0.81339245 </v>
   <v>       0.24909818       0.66174106       0.81356095 </v>
   <v>       0.75029696       0.33845214       0.56321580 </v>
   <v>       0.49975251       0.66155610       0.56321080 </v>
   <v>       0.00085726       0.33828214       0.81356074 </v>
   <v>       0.74945917       0.66540873       0.81339287 </v>
   <v>       0.49953208       0.07709681       0.06210546 </v>
   <v>      -0.01390285       0.92172977       0.29774304 </v>
   <v>       0.24426226       0.91771388       0.05441387 </v>
   <v>       0.26368322       0.07829746       0.29783496 </v>
   <v>       0.00583502       0.08229827       0.05435079 </v>
   <v>       0.50159498       0.92111826       0.31246819 </v>
   <v>       0.75052848       0.92291306       0.06208968 </v>
   <v>       0.74836533       0.07888205       0.31244826 </v>
   <v>       0.50160464       0.07889685       0.56237553 </v>
   <v>       0.00575352       0.91762972       0.82060315 </v>
   <v>       0.26362620       0.92159517       0.57681381 </v>
   <v>       0.24432094       0.08237162       0.82064291 </v>
   <v>       0.98623238       0.07845998       0.57684880 </v>
   <v>       0.49957425       0.92287279       0.81269651 </v>
   <v>       0.74834002       0.92108782       0.56240355 </v>
   <v>       0.75046051       0.07713480       0.81270111 </v>
  </varray>
 </structure>
</modeling>
