<?xml version="1.0" encoding="ISO-8859-1"?>
<modeling>
 <generator>
  <i name="program" type="string">vasp </i>
  <i name="version" type="string">5.4.4.18Apr17-6-g9f103f2a35  </i>
  <i name="subversion" type="string">(build Jul 31 2017 11:33:29) complex            parallel </i>
  <i name="platform" type="string">LinuxIFC </i>
  <i name="date" type="string">2021 09 21 </i>
  <i name="time" type="string">18:43:09 </i>
 </generator>
 <incar>
  <i type="string" name="SYSTEM"> La2O2S</i>
  <i type="string" name="PREC">normal</i>
  <i type="int" name="NELMIN">     4</i>
  <i type="int" name="IBRION">     2</i>
  <i type="int" name="NFREE">    10</i>
  <i name="EDIFF">      0.00000100</i>
  <i name="EDIFFG">     -0.01000000</i>
  <i type="int" name="NSW">   200</i>
  <i type="int" name="ISIF">     3</i>
  <i name="ENCUT">    600.00000000</i>
  <i name="ENAUG">    900.00000000</i>
  <i type="int" name="ISMEAR">    -5</i>
  <i type="logical" name="LWAVE"> F  </i>
  <i type="logical" name="LCHARG"> F  </i>
  <v type="int" name="KPOINT_BSE">    -1     0     0     0</v>
 </incar>
 <structure name="primitive_cell" >
  <crystal>
   <varray name="basis" >
    <v>      11.17850000       0.00000000       0.00000000 </v>
    <v>       0.00000000       9.57460000       0.00000000 </v>
    <v>       0.00000000       0.00000000      11.18240000 </v>
   </varray>
   <i name="volume">   1196.84853820 </i>
   <varray name="rec_basis" >
    <v>       0.08945744       0.00000000       0.00000000 </v>
    <v>       0.00000000       0.10444301       0.00000000 </v>
    <v>       0.00000000       0.00000000       0.08942624 </v>
   </varray>
  </crystal>
  <varray name="positions" >
   <v>      -0.37461000      -0.00016000       0.43687000 </v>
   <v>      -0.24987000       0.07798000       0.31246000 </v>
   <v>      -0.49987000      -0.07798000       0.31246000 </v>
   <v>      -0.25013000      -0.07798000      -0.43754000 </v>
   <v>       0.49987000       0.07798000      -0.43754000 </v>
   <v>      -0.12461000       0.00017000       0.43687000 </v>
   <v>      -0.37539000      -0.00016000      -0.31313000 </v>
   <v>      -0.25013000       0.29519000       0.31282000 </v>
   <v>       0.49987000      -0.29519000       0.31282000 </v>
   <v>      -0.24987000      -0.29519000      -0.43719000 </v>
   <v>      -0.49987000       0.29519000      -0.43719000 </v>
   <v>      -0.25005000      -0.32677000       0.31286000 </v>
   <v>       0.49995000       0.32677000       0.31286000 </v>
   <v>      -0.24995000       0.32677000      -0.43714000 </v>
   <v>      -0.49995000      -0.32677000      -0.43714000 </v>
   <v>      -0.12539000       0.00017000       0.18687000 </v>
   <v>       0.37461000       0.00017000      -0.31313000 </v>
   <v>       0.37461000       0.00017000       0.18687000 </v>
   <v>      -0.25013000      -0.07798000       0.06246000 </v>
   <v>       0.00013000      -0.07798000       0.31246000 </v>
   <v>      -0.00013000       0.07798000      -0.43754000 </v>
   <v>       0.49987000       0.07798000       0.06246000 </v>
   <v>       0.25013000       0.07798000       0.31246000 </v>
   <v>      -0.24987000       0.07798000      -0.18754000 </v>
   <v>       0.24987000      -0.07798000      -0.43754000 </v>
   <v>      -0.49987000      -0.07798000      -0.18754000 </v>
   <v>      -0.24987000      -0.29519000       0.06281000 </v>
   <v>      -0.00013000      -0.29519000       0.31282000 </v>
   <v>      -0.49987000       0.29519000       0.06281000 </v>
   <v>       0.00013000       0.29519000      -0.43719000 </v>
   <v>       0.24987000       0.29519000       0.31282000 </v>
   <v>       0.25013000      -0.29519000      -0.43719000 </v>
   <v>      -0.25013000       0.29519000      -0.18718000 </v>
   <v>       0.49987000      -0.29519000      -0.18718000 </v>
   <v>      -0.24995000       0.32677000       0.06286000 </v>
   <v>      -0.49995000      -0.32677000       0.06286000 </v>
   <v>      -0.00005000       0.32677000       0.31286000 </v>
   <v>       0.00005000      -0.32677000      -0.43714000 </v>
   <v>       0.24995000      -0.32677000       0.31286000 </v>
   <v>       0.25005000       0.32677000      -0.43714000 </v>
   <v>      -0.25005000      -0.32677000      -0.18714000 </v>
   <v>       0.49995000       0.32677000      -0.18714000 </v>
   <v>      -0.37461000      -0.00016000      -0.06313000 </v>
   <v>      -0.00013000       0.07798000       0.06246000 </v>
   <v>       0.24987000      -0.07798000       0.06246000 </v>
   <v>       0.00013000      -0.07798000      -0.18754000 </v>
   <v>       0.25013000       0.07798000      -0.18754000 </v>
   <v>       0.12461000      -0.00016000       0.18687000 </v>
   <v>       0.12461000      -0.00016000      -0.31313000 </v>
   <v>       0.00013000       0.29519000       0.06281000 </v>
   <v>       0.25013000      -0.29519000       0.06281000 </v>
   <v>      -0.00013000      -0.29519000      -0.18718000 </v>
   <v>       0.24987000       0.29519000      -0.18718000 </v>
   <v>       0.00005000      -0.32677000       0.06286000 </v>
   <v>       0.25005000       0.32677000       0.06286000 </v>
   <v>      -0.00005000       0.32677000      -0.18714000 </v>
   <v>       0.24995000      -0.32677000      -0.18714000 </v>
   <v>       0.12539000      -0.00016000      -0.06313000 </v>
  </varray>
 </structure>
 <varray name="primitive_index" >
  <v type="int" >        1 </v>
  <v type="int" >       49 </v>
  <v type="int" >       50 </v>
  <v type="int" >       56 </v>
  <v type="int" >       51 </v>
  <v type="int" >        7 </v>
  <v type="int" >       10 </v>
  <v type="int" >       17 </v>
  <v type="int" >       14 </v>
  <v type="int" >       24 </v>
  <v type="int" >       23 </v>
  <v type="int" >       34 </v>
  <v type="int" >       29 </v>
  <v type="int" >       39 </v>
  <v type="int" >       40 </v>
  <v type="int" >        8 </v>
  <v type="int" >        3 </v>
  <v type="int" >        6 </v>
  <v type="int" >       48 </v>
  <v type="int" >       46 </v>
  <v type="int" >       55 </v>
  <v type="int" >       43 </v>
  <v type="int" >       45 </v>
  <v type="int" >       57 </v>
  <v type="int" >       52 </v>
  <v type="int" >       58 </v>
  <v type="int" >       16 </v>
  <v type="int" >       18 </v>
  <v type="int" >       15 </v>
  <v type="int" >       19 </v>
  <v type="int" >       13 </v>
  <v type="int" >       20 </v>
  <v type="int" >       25 </v>
  <v type="int" >       22 </v>
  <v type="int" >       31 </v>
  <v type="int" >       32 </v>
  <v type="int" >       33 </v>
  <v type="int" >       36 </v>
  <v type="int" >       30 </v>
  <v type="int" >       35 </v>
  <v type="int" >       42 </v>
  <v type="int" >       37 </v>
  <v type="int" >        4 </v>
  <v type="int" >       47 </v>
  <v type="int" >       44 </v>
  <v type="int" >       54 </v>
  <v type="int" >       53 </v>
  <v type="int" >        5 </v>
  <v type="int" >        9 </v>
  <v type="int" >       11 </v>
  <v type="int" >       12 </v>
  <v type="int" >       26 </v>
  <v type="int" >       21 </v>
  <v type="int" >       28 </v>
  <v type="int" >       27 </v>
  <v type="int" >       41 </v>
  <v type="int" >       38 </v>
  <v type="int" >        2 </v>
 </varray>
 <kpoints>
  <generation param="Gamma">
   <v type="int" name="divisions">       2        2        2 </v>
   <v name="usershift">      0.00000000       0.00000000       0.00000000 </v>
   <v name="genvec1">      0.50000000       0.00000000       0.00000000 </v>
   <v name="genvec2">      0.00000000       0.50000000       0.00000000 </v>
   <v name="genvec3">      0.00000000       0.00000000       0.50000000 </v>
   <v name="shift">      0.00000000       0.00000000       0.00000000 </v>
  </generation>
  <varray name="kpointlist" >
   <v>       0.00000000       0.00000000       0.00000000 </v>
   <v>       0.50000000       0.00000000       0.00000000 </v>
   <v>       0.00000000       0.50000000       0.00000000 </v>
   <v>       0.50000000       0.50000000       0.00000000 </v>
   <v>       0.00000000       0.00000000       0.50000000 </v>
   <v>       0.50000000       0.00000000       0.50000000 </v>
   <v>       0.00000000       0.50000000       0.50000000 </v>
   <v>       0.50000000       0.50000000       0.50000000 </v>
  </varray>
  <varray name="weights" >
   <v>       0.12500000 </v>
   <v>       0.12500000 </v>
   <v>       0.12500000 </v>
   <v>       0.12500000 </v>
   <v>       0.12500000 </v>
   <v>       0.12500000 </v>
   <v>       0.12500000 </v>
   <v>       0.12500000 </v>
  </varray>
  <varray name="tetrahedronlist"  type="int" >
   <v type="int" >        2        1        2        4        5 </v>
   <v type="int" >        2        1        3        4        5 </v>
   <v type="int" >        2        3        4        5        7 </v>
   <v type="int" >        2        2        4        5        6 </v>
   <v type="int" >        2        4        5        6        8 </v>
   <v type="int" >        2        4        5        7        8 </v>
   <v type="int" >        2        1        2        3        6 </v>
   <v type="int" >        2        2        3        4        6 </v>
   <v type="int" >        2        3        4        6        8 </v>
   <v type="int" >        2        1        3        5        6 </v>
   <v type="int" >        2        3        5        6        7 </v>
   <v type="int" >        2        3        6        7        8 </v>
   <v type="int" >        2        2        3        4        7 </v>
   <v type="int" >        2        1        2        3        7 </v>
   <v type="int" >        2        1        2        5        7 </v>
   <v type="int" >        2        2        4        7        8 </v>
   <v type="int" >        2        2        6        7        8 </v>
   <v type="int" >        2        2        5        6        7 </v>
   <v type="int" >        2        1        3        4        8 </v>
   <v type="int" >        2        1        2        4        8 </v>
   <v type="int" >        2        1        2        6        8 </v>
   <v type="int" >        2        1        3        7        8 </v>
   <v type="int" >        2        1        5        7        8 </v>
   <v type="int" >        2        1        5        6        8 </v>
  </varray>
  <i name="volumeweight">      0.02083333 </i>
 </kpoints>
 <parameters>
  <separator name="general" >
   <i type="string" name="SYSTEM">La2O2S</i>
   <i type="logical" name="LCOMPAT"> F  </i>
  </separator>
  <separator name="electronic" >
   <i type="string" name="PREC">normal</i>
   <i name="ENMAX">    600.00000000</i>
   <i name="ENAUG">    900.00000000</i>
   <i name="EDIFF">      0.00000100</i>
   <i type="int" name="IALGO">    38</i>
   <i type="int" name="IWAVPR">    11</i>
   <i type="int" name="NBANDS">   280</i>
   <i name="NELECT">    456.00000000</i>
   <i type="int" name="TURBO">     0</i>
   <i type="int" name="IRESTART">     0</i>
   <i type="int" name="NREBOOT">     0</i>
   <i type="int" name="NMIN">     0</i>
   <i name="EREF">      0.00000000</i>
   <separator name="electronic smearing" >
    <i type="int" name="ISMEAR">    -5</i>
    <i name="SIGMA">      0.20000000</i>
    <i name="KSPACING">      0.50000000</i>
    <i type="logical" name="KGAMMA"> T  </i>
   </separator>
   <separator name="electronic projectors" >
    <i type="logical" name="LREAL"> F  </i>
    <v name="ROPT">      0.00000000      0.00000000      0.00000000      0.00000000      0.00000000</v>
    <i type="int" name="LMAXPAW">  -100</i>
    <i type="int" name="LMAXMIX">     2</i>
    <i type="logical" name="NLSPLINE"> F  </i>
   </separator>
   <separator name="electronic startup" >
    <i type="int" name="ISTART">     0</i>
    <i type="int" name="ICHARG">     2</i>
    <i type="int" name="INIWAV">     1</i>
   </separator>
   <separator name="electronic spin" >
    <i type="int" name="ISPIN">     1</i>
    <i type="logical" name="LNONCOLLINEAR"> F  </i>
    <v name="MAGMOM">      1.00000000      1.00000000      1.00000000      1.00000000      1.00000000      1.00000000      1.00000000      1.00000000      1.00000000      1.00000000      1.00000000      1.00000000      1.00000000      1.00000000      1.00000000      1.00000000      1.00000000      1.00000000      1.00000000      1.00000000
      1.00000000      1.00000000      1.00000000      1.00000000      1.00000000      1.00000000      1.00000000      1.00000000      1.00000000      1.00000000      1.00000000      1.00000000      1.00000000      1.00000000      1.00000000      1.00000000      1.00000000      1.00000000      1.00000000      1.00000000
      1.00000000      1.00000000      1.00000000      1.00000000      1.00000000      1.00000000      1.00000000      1.00000000      1.00000000      1.00000000      1.00000000      1.00000000      1.00000000      1.00000000      1.00000000      1.00000000      1.00000000      1.00000000</v>
    <i name="NUPDOWN">     -1.00000000</i>
    <i type="logical" name="LSORBIT"> F  </i>
    <v name="SAXIS">      0.00000000      0.00000000      1.00000000</v>
    <i type="logical" name="LSPIRAL"> F  </i>
    <v name="QSPIRAL">      0.00000000      0.00000000      0.00000000</v>
    <i type="logical" name="LZEROZ"> F  </i>
   </separator>
   <separator name="electronic exchange-correlation" >
    <i type="logical" name="LASPH"> F  </i>
    <i type="logical" name="LMETAGGA"> F  </i>
   </separator>
   <separator name="electronic convergence" >
    <i type="int" name="NELM">    60</i>
    <i type="int" name="NELMDL">    -5</i>
    <i type="int" name="NELMIN">     4</i>
    <i name="ENINI">    600.00000000</i>
    <separator name="electronic convergence detail" >
     <i type="logical" name="LDIAG"> T  </i>
     <i type="logical" name="LSUBROT"> F  </i>
     <i name="WEIMIN">      0.00100000</i>
     <i name="EBREAK">      0.00000000</i>
     <i name="DEPER">      0.30000000</i>
     <i type="int" name="NRMM">     4</i>
     <i name="TIME">      0.40000000</i>
    </separator>
   </separator>
   <separator name="electronic mixer" >
    <i name="AMIX">      0.40000000</i>
    <i name="BMIX">      1.00000000</i>
    <i name="AMIN">      0.10000000</i>
    <i name="AMIX_MAG">      1.60000000</i>
    <i name="BMIX_MAG">      1.00000000</i>
    <separator name="electronic mixer details" >
     <i type="int" name="IMIX">     4</i>
     <i type="logical" name="MIXFIRST"> F  </i>
     <i type="int" name="MAXMIX">   -45</i>
     <i name="WC">    100.00000000</i>
     <i type="int" name="INIMIX">     1</i>
     <i type="int" name="MIXPRE">     1</i>
     <i type="int" name="MREMOVE">     5</i>
    </separator>
   </separator>
   <separator name="electronic dipolcorrection" >
    <i type="logical" name="LDIPOL"> F  </i>
    <i type="logical" name="LMONO"> F  </i>
    <i type="int" name="IDIPOL">     0</i>
    <i name="EPSILON">      1.00000000</i>
    <v name="DIPOL">   -100.00000000   -100.00000000   -100.00000000</v>
    <i name="EFIELD">      0.00000000</i>
   </separator>
  </separator>
  <separator name="grids" >
   <i type="int" name="NGX">    70</i>
   <i type="int" name="NGY">    60</i>
   <i type="int" name="NGZ">    70</i>
   <i type="int" name="NGXF">   140</i>
   <i type="int" name="NGYF">   120</i>
   <i type="int" name="NGZF">   140</i>
   <i type="logical" name="ADDGRID"> F  </i>
  </separator>
  <separator name="ionic" >
   <i type="int" name="NSW">   200</i>
   <i type="int" name="IBRION">     2</i>
   <i type="int" name="MDALGO">     0</i>
   <i type="int" name="ISIF">     3</i>
   <i name="PSTRESS">      0.00000000</i>
   <i name="EDIFFG">     -0.01000000</i>
   <i type="int" name="NFREE">    10</i>
   <i name="POTIM">      0.50000000</i>
   <i name="SMASS">     -3.00000000</i>
   <i name="SCALEE">      1.00000000</i>
  </separator>
  <separator name="ionic md" >
   <i name="TEBEG">      0.00010000</i>
   <i name="TEEND">      0.00010000</i>
   <i type="int" name="NBLOCK">     1</i>
   <i type="int" name="KBLOCK">   200</i>
   <i type="int" name="NPACO">   256</i>
   <i name="APACO">     16.00000000</i>
  </separator>
  <separator name="symmetry" >
   <i type="int" name="ISYM">     2</i>
   <i name="SYMPREC">      0.00001000</i>
  </separator>
  <separator name="dos" >
   <i type="int" name="LORBIT">     0</i>
   <v name="RWIGS">     -1.00000000     -1.00000000     -1.00000000     -1.00000000     -1.00000000</v>
   <i type="int" name="NEDOS">   301</i>
   <i name="EMIN">     10.00000000</i>
   <i name="EMAX">    -10.00000000</i>
   <i name="EFERMI">      0.00000000</i>
  </separator>
  <separator name="writing" >
   <i type="int" name="NWRITE">     2</i>
   <i type="logical" name="LWAVE"> F  </i>
   <i type="logical" name="LDOWNSAMPLE"> F  </i>
   <i type="logical" name="LCHARG"> F  </i>
   <i type="logical" name="LPARD"> F  </i>
   <i type="logical" name="LVTOT"> F  </i>
   <i type="logical" name="LVHAR"> F  </i>
   <i type="logical" name="LELF"> F  </i>
   <i type="logical" name="LOPTICS"> F  </i>
   <v name="STM">      0.00000000      0.00000000      0.00000000      0.00000000      0.00000000      0.00000000      0.00000000</v>
  </separator>
  <separator name="performance" >
   <i type="int" name="NPAR">    28</i>
   <i type="int" name="NSIM">     4</i>
   <i type="int" name="NBLK">    -1</i>
   <i type="logical" name="LPLANE"> T  </i>
   <i type="logical" name="LSCALAPACK"> T  </i>
   <i type="logical" name="LSCAAWARE"> F  </i>
   <i type="logical" name="LSCALU"> F  </i>
   <i type="logical" name="LASYNC"> F  </i>
   <i type="logical" name="LORBITALREAL"> F  </i>
  </separator>
  <separator name="miscellaneous" >
   <i type="int" name="IDIOT">     3</i>
   <i type="int" name="ISPECIAL">     0</i>
   <i type="logical" name="LMUSIC"> F  </i>
   <v name="POMASS">      7.01000000     24.30500000    208.98000000     32.06600000     16.00000000</v>
   <v name="DARWINR">      0.00000000      0.00000000      0.00000000      0.00000000      0.00000000</v>
   <v name="DARWINV">      1.00000000      1.00000000      1.00000000      1.00000000      1.00000000</v>
   <i type="logical" name="LCORR"> T  </i>
  </separator>
  <i type="logical" name="GGA_COMPAT"> T  </i>
  <i type="logical" name="LBERRY"> F  </i>
  <i type="int" name="ICORELEVEL">     0</i>
  <i type="logical" name="LDAU"> F  </i>
  <i type="int" name="I_CONSTRAINED_M">     0</i>
  <separator name="electronic exchange-correlation" >
   <i type="string" name="GGA">--</i>
   <i type="int" name="VOSKOWN">     0</i>
   <i type="logical" name="LHFCALC"> F  </i>
   <i type="string" name="PRECFOCK"></i>
   <i type="logical" name="LSYMGRAD"> F  </i>
   <i type="logical" name="LHFONE"> F  </i>
   <i type="logical" name="LRHFCALC"> F  </i>
   <i type="logical" name="LTHOMAS"> F  </i>
   <i type="logical" name="LMODELHF"> F  </i>
   <i name="ENCUT4O">     -1.00000000</i>
   <i type="int" name="EXXOEP">     0</i>
   <i type="int" name="FOURORBIT">     0</i>
   <i name="AEXX">      0.00000000</i>
   <i name="HFALPHA">      0.00000000</i>
   <i name="MCALPHA">      0.00000000</i>
   <i name="ALDAX">      1.00000000</i>
   <i name="AGGAX">      1.00000000</i>
   <i name="ALDAC">      1.00000000</i>
   <i name="AGGAC">      1.00000000</i>
   <i type="int" name="NKREDX">     1</i>
   <i type="int" name="NKREDY">     1</i>
   <i type="int" name="NKREDZ">     1</i>
   <i type="logical" name="SHIFTRED"> F  </i>
   <i type="logical" name="ODDONLY"> F  </i>
   <i type="logical" name="EVENONLY"> F  </i>
   <i type="int" name="LMAXFOCK">     0</i>
   <i type="int" name="NMAXFOCKAE">     0</i>
   <i type="logical" name="LFOCKAEDFT"> F  </i>
   <i name="HFSCREEN">      0.00000000</i>
   <i name="HFSCREENC">      0.00000000</i>
   <i type="int" name="NBANDSGWLOW">     0</i>
  </separator>
  <separator name="vdW DFT" >
   <i type="logical" name="LUSE_VDW"> F  </i>
   <i name="Zab_VDW">     -0.84910000</i>
   <i name="PARAM1">      0.12340000</i>
   <i name="PARAM2">      1.00000000</i>
   <i name="PARAM3">      0.00000000</i>
  </separator>
  <separator name="model GW" >
   <i type="int" name="MODEL_GW">     0</i>
   <i name="MODEL_EPS0">     12.38119177</i>
   <i name="MODEL_ALPHA">      1.00000000</i>
  </separator>
  <separator name="linear response parameters" >
   <i type="logical" name="LEPSILON"> F  </i>
   <i type="logical" name="LRPA"> F  </i>
   <i type="logical" name="LNABLA"> F  </i>
   <i type="logical" name="LVEL"> F  </i>
   <i type="int" name="KINTER">     0</i>
   <i name="CSHIFT">      0.10000000</i>
   <i name="OMEGAMAX">     -1.00000000</i>
   <i name="DEG_THRESHOLD">      0.00200000</i>
   <i name="RTIME">     -0.10000000</i>
   <i name="WPLASMAI">      0.00000000</i>
   <v name="DFIELD">      0.00000000      0.00000000      0.00000000</v>
   <v name="WPLASMA">      0.00000000      0.00000000      0.00000000      0.00000000      0.00000000      0.00000000      0.00000000      0.00000000      0.00000000</v>
  </separator>
  <separator name="orbital magnetization" >
   <i type="logical" name="NUCIND"> F  </i>
   <v name="MAGPOS">      0.00000000      0.00000000      0.00000000</v>
   <i type="logical" name="LNICSALL"> T  </i>
   <i type="logical" name="ORBITALMAG"> F  </i>
   <i type="logical" name="LMAGBLOCH"> F  </i>
   <i type="logical" name="LCHIMAG"> F  </i>
   <i type="logical" name="LGAUGE"> T  </i>
   <i type="int" name="MAGATOM">     0</i>
   <v name="MAGDIPOL">      0.00000000      0.00000000      0.00000000</v>
   <v name="AVECCONST">      0.00000000      0.00000000      0.00000000</v>
  </separator>
  <separator name="response functions" >
   <i type="logical" name="LADDER"> F  </i>
   <i type="logical" name="LRPAFORCE"> F  </i>
   <i type="logical" name="LFXC"> F  </i>
   <i type="logical" name="LHARTREE"> T  </i>
   <i type="int" name="IBSE">     0</i>
   <v type="int" name="KPOINT">    -1     0     0     0</v>
   <i type="logical" name="LTCTE"> F  </i>
   <i type="logical" name="LTETE"> F  </i>
   <i type="logical" name="LTRIPLET"> F  </i>
   <i type="logical" name="LFXCEPS"> F  </i>
   <i type="logical" name="LFXHEG"> F  </i>
   <i type="int" name="NATURALO">     2</i>
   <i type="logical" name="L2ORDER"> F  </i>
   <i type="logical" name="LMP2LT"> F  </i>
   <i type="logical" name="LUSEW"> F  </i>
   <i name="ENCUTGW">     -2.00000000</i>
   <i name="ENCUTGWSOFT">     -2.00000000</i>
   <i name="ENCUTLF">     -1.00000000</i>
   <i type="int" name="LMAXMP2">    -1</i>
   <i name="SCISSOR">      0.00000000</i>
   <i type="int" name="NOMEGA">     0</i>
   <i type="int" name="NOMEGAR">     0</i>
   <i type="int" name="NBANDSGW">    -1</i>
   <i type="int" name="NBANDSO">    -1</i>
   <i type="int" name="NBANDSV">    -1</i>
   <i type="int" name="NELM">     1</i>
   <i type="int" name="NELMHF">     1</i>
   <i type="int" name="DIM">     3</i>
   <i type="int" name="ANTIRES">     0</i>
   <i name="OMEGAMAX">    -30.00000000</i>
   <i name="OMEGAMIN">    -30.00000000</i>
   <i name="OMEGATL">   -200.00000000</i>
   <i type="int" name="OMEGAGRID">   140</i>
   <i name="CSHIFT">     -0.10000000</i>
   <i type="logical" name="SELFENERGY"> F  </i>
   <i type="logical" name="LSPECTRAL"> F  </i>
   <i type="logical" name="LSPECTRALGW"> F  </i>
   <i type="logical" name="LSINGLES"> F  </i>
   <i type="logical" name="LFERMIGW"> F  </i>
   <i type="logical" name="ODDONLYGW"> F  </i>
   <i type="logical" name="EVENONLYGW"> F  </i>
   <i type="int" name="NKREDLFX">     1</i>
   <i type="int" name="NKREDLFY">     1</i>
   <i type="int" name="NKREDLFZ">     1</i>
   <i type="int" name="MAXMEM">  2800</i>
   <i type="int" name="TELESCOPE">     0</i>
   <i type="int" name="TAUPAR">     1</i>
   <i type="int" name="OMEGAPAR">    -1</i>
   <i name="LAMBDA">      1.00000000</i>
  </separator>
  <separator name="External order field" >
   <i name="OFIELD_KAPPA">      0.00000000</i>
   <v name="OFIELD_K">      0.00000000      0.00000000      0.00000000</v>
   <i name="OFIELD_Q6_NEAR">      0.00000000</i>
   <i name="OFIELD_Q6_FAR">      0.00000000</i>
   <i name="OFIELD_A">      0.00000000</i>
  </separator>
 </parameters>
 <atominfo>
  <atoms>      58 </atoms>
  <types>       5 </types>
  <array name="atoms" >
   <dimension dim="1">ion</dimension>
   <field type="string">element</field>
   <field type="int">atomtype</field>
   <set>
    <rc><c>Li</c><c>   1</c></rc>
    <rc><c>Li</c><c>   1</c></rc>
    <rc><c>Li</c><c>   1</c></rc>
    <rc><c>Li</c><c>   1</c></rc>
    <rc><c>Mg</c><c>   2</c></rc>
    <rc><c>Mg</c><c>   2</c></rc>
    <rc><c>Mg</c><c>   2</c></rc>
    <rc><c>Mg</c><c>   2</c></rc>
    <rc><c>Mg</c><c>   2</c></rc>
    <rc><c>Mg</c><c>   2</c></rc>
    <rc><c>Bi</c><c>   3</c></rc>
    <rc><c>Bi</c><c>   3</c></rc>
    <rc><c>Bi</c><c>   3</c></rc>
    <rc><c>Bi</c><c>   3</c></rc>
    <rc><c>Bi</c><c>   3</c></rc>
    <rc><c>Bi</c><c>   3</c></rc>
    <rc><c>Bi</c><c>   3</c></rc>
    <rc><c>Bi</c><c>   3</c></rc>
    <rc><c>Bi</c><c>   3</c></rc>
    <rc><c>Bi</c><c>   3</c></rc>
    <rc><c>Bi</c><c>   3</c></rc>
    <rc><c>Bi</c><c>   3</c></rc>
    <rc><c>Bi</c><c>   3</c></rc>
    <rc><c>Bi</c><c>   3</c></rc>
    <rc><c>Bi</c><c>   3</c></rc>
    <rc><c>Bi</c><c>   3</c></rc>
    <rc><c>S </c><c>   4</c></rc>
    <rc><c>S </c><c>   4</c></rc>
    <rc><c>S </c><c>   4</c></rc>
    <rc><c>S </c><c>   4</c></rc>
    <rc><c>S </c><c>   4</c></rc>
    <rc><c>S </c><c>   4</c></rc>
    <rc><c>S </c><c>   4</c></rc>
    <rc><c>S </c><c>   4</c></rc>
    <rc><c>S </c><c>   4</c></rc>
    <rc><c>S </c><c>   4</c></rc>
    <rc><c>S </c><c>   4</c></rc>
    <rc><c>S </c><c>   4</c></rc>
    <rc><c>S </c><c>   4</c></rc>
    <rc><c>S </c><c>   4</c></rc>
    <rc><c>S </c><c>   4</c></rc>
    <rc><c>S </c><c>   4</c></rc>
    <rc><c>O </c><c>   5</c></rc>
    <rc><c>O </c><c>   5</c></rc>
    <rc><c>O </c><c>   5</c></rc>
    <rc><c>O </c><c>   5</c></rc>
    <rc><c>O </c><c>   5</c></rc>
    <rc><c>O </c><c>   5</c></rc>
    <rc><c>O </c><c>   5</c></rc>
    <rc><c>O </c><c>   5</c></rc>
    <rc><c>O </c><c>   5</c></rc>
    <rc><c>O </c><c>   5</c></rc>
    <rc><c>O </c><c>   5</c></rc>
    <rc><c>O </c><c>   5</c></rc>
    <rc><c>O </c><c>   5</c></rc>
    <rc><c>O </c><c>   5</c></rc>
    <rc><c>O </c><c>   5</c></rc>
    <rc><c>O </c><c>   5</c></rc>
   </set>
  </array>
  <array name="atomtypes" >
   <dimension dim="1">type</dimension>
   <field type="int">atomspertype</field>
   <field type="string">element</field>
   <field>mass</field>
   <field>valence</field>
   <field type="string">pseudopotential</field>
   <set>
    <rc><c>   4</c><c>Li</c><c>      7.01000000</c><c>      3.00000000</c><c>  PAW_PBE Li_sv 10Sep2004               </c></rc>
    <rc><c>   6</c><c>Mg</c><c>     24.30500000</c><c>      2.00000000</c><c>  PAW_PBE Mg 13Apr2007                  </c></rc>
    <rc><c>  16</c><c>Bi</c><c>    208.98000000</c><c>     15.00000000</c><c>  PAW_PBE Bi_d 06Sep2000                </c></rc>
    <rc><c>  16</c><c>S </c><c>     32.06600000</c><c>      6.00000000</c><c>  PAW_PBE S 06Sep2000                   </c></rc>
    <rc><c>  16</c><c>O </c><c>     16.00000000</c><c>      6.00000000</c><c>  PAW_PBE O 08Apr2002                   </c></rc>
   </set>
  </array>
 </atominfo>
 <structure name="initialpos" >
  <crystal>
   <varray name="basis" >
    <v>      11.17850000       0.00000000       0.00000000 </v>
    <v>       0.00000000       9.57460000       0.00000000 </v>
    <v>       0.00000000       0.00000000      11.18240000 </v>
   </varray>
   <i name="volume">   1196.84853820 </i>
   <varray name="rec_basis" >
    <v>       0.08945744       0.00000000       0.00000000 </v>
    <v>       0.00000000       0.10444301       0.00000000 </v>
    <v>       0.00000000       0.00000000       0.08942624 </v>
   </varray>
  </crystal>
  <varray name="positions" >
   <v>       0.62539000       0.99984000       0.43687000 </v>
   <v>       0.12539000       0.99984000       0.93687000 </v>
   <v>       0.37461000       0.00017000       0.68687000 </v>
   <v>       0.62539000       0.99984000       0.93687000 </v>
   <v>       0.12461000       0.99984000       0.18687000 </v>
   <v>       0.37461000       0.00017000       0.18687000 </v>
   <v>       0.87539000       0.00017000       0.43687000 </v>
   <v>       0.87461000       0.00017000       0.18687000 </v>
   <v>       0.12461000       0.99984000       0.68687000 </v>
   <v>       0.62461000       0.99984000       0.68687000 </v>
   <v>       0.00013000       0.29519000       0.06281000 </v>
   <v>       0.25013000       0.70481000       0.06281000 </v>
   <v>       0.24987000       0.29519000       0.31282000 </v>
   <v>       0.49987000       0.70481000       0.31282000 </v>
   <v>       0.50013000       0.29519000       0.06281000 </v>
   <v>       0.75013000       0.70481000       0.06281000 </v>
   <v>       0.74987000       0.29519000       0.31282000 </v>
   <v>       0.99987000       0.70481000       0.31282000 </v>
   <v>       0.00013000       0.29519000       0.56281000 </v>
   <v>       0.25013000       0.70481000       0.56281000 </v>
   <v>       0.24987000       0.29519000       0.81282000 </v>
   <v>       0.49987000       0.70481000       0.81282000 </v>
   <v>       0.50013000       0.29519000       0.56281000 </v>
   <v>       0.75013000       0.70481000       0.56281000 </v>
   <v>       0.74987000       0.29519000       0.81282000 </v>
   <v>       0.99987000       0.70481000       0.81282000 </v>
   <v>       0.25005000       0.32677000       0.06286000 </v>
   <v>       0.00005000       0.67323000       0.06286000 </v>
   <v>       0.49995000       0.32677000       0.31286000 </v>
   <v>       0.24995000       0.67323000       0.31286000 </v>
   <v>       0.75005000       0.32677000       0.06286000 </v>
   <v>       0.50005000       0.67323000       0.06286000 </v>
   <v>       0.99995000       0.32677000       0.31286000 </v>
   <v>       0.74995000       0.67323000       0.31286000 </v>
   <v>       0.25005000       0.32677000       0.56286000 </v>
   <v>       0.00005000       0.67323000       0.56286000 </v>
   <v>       0.49995000       0.32677000       0.81286000 </v>
   <v>       0.24995000       0.67323000       0.81286000 </v>
   <v>       0.75005000       0.32677000       0.56286000 </v>
   <v>       0.50005000       0.67323000       0.56286000 </v>
   <v>       0.99995000       0.32677000       0.81286000 </v>
   <v>       0.74995000       0.67323000       0.81286000 </v>
   <v>       0.49987000       0.07798000       0.06246000 </v>
   <v>       0.24987000       0.92202000       0.06246000 </v>
   <v>       0.25013000       0.07798000       0.31246000 </v>
   <v>       0.00013000       0.92202000       0.31246000 </v>
   <v>       0.99987000       0.07798000       0.06246000 </v>
   <v>       0.74987000       0.92202000       0.06246000 </v>
   <v>       0.75013000       0.07798000       0.31246000 </v>
   <v>       0.50013000       0.92202000       0.31246000 </v>
   <v>       0.49987000       0.07798000       0.56246000 </v>
   <v>       0.24987000       0.92202000       0.56246000 </v>
   <v>       0.25013000       0.07798000       0.81246000 </v>
   <v>       0.00013000       0.92202000       0.81246000 </v>
   <v>       0.99987000       0.07798000       0.56246000 </v>
   <v>       0.74987000       0.92202000       0.56246000 </v>
   <v>       0.75013000       0.07798000       0.81246000 </v>
   <v>       0.50013000       0.92202000       0.81246000 </v>
  </varray>
 </structure>
 <calculation>
  <scstep>
   <time name="dav">   60.36   60.94</time>
   <time name="total">   60.44   61.03</time>
   <energy>
    <i name="alphaZ">   1054.17224280 </i>
    <i name="ewald"> -30190.65334433 </i>
    <i name="hartreedc"> -12693.00695375 </i>
    <i name="XCdc">   1173.37868879 </i>
    <i name="pawpsdc">  36541.05238669 </i>
    <i name="pawaedc"> -35795.85877930 </i>
    <i name="eentropy">      0.00000000 </i>
    <i name="bandstr">   1912.15522743 </i>
    <i name="atom">  43643.51795008 </i>
    <i name="e_fr_energy">   5644.75741840 </i>
    <i name="e_wo_entrp">   5644.75741840 </i>
    <i name="e_0_energy">   5644.75741840 </i>
   </energy>
  </scstep>
  <scstep>
   <time name="dav">   61.61   62.11</time>
   <time name="total">   61.62   62.12</time>
   <energy>
    <i name="e_fr_energy">    733.99214272 </i>
    <i name="e_wo_entrp">    733.99214272 </i>
    <i name="e_0_energy">    733.99214272 </i>
   </energy>
  </scstep>
  <scstep>
   <time name="dav">   71.41   71.57</time>
   <time name="total">   71.41   71.57</time>
   <energy>
    <i name="e_fr_energy">   -247.04582491 </i>
    <i name="e_wo_entrp">   -247.04582491 </i>
    <i name="e_0_energy">   -247.04582491 </i>
   </energy>
  </scstep>
  <scstep>
   <time name="dav">   74.12   74.24</time>
   <time name="total">   74.12   74.24</time>
   <energy>
    <i name="e_fr_energy">   -330.97671243 </i>
    <i name="e_wo_entrp">   -330.97671243 </i>
    <i name="e_0_energy">   -330.97671243 </i>
   </energy>
  </scstep>
  <scstep>
   <time name="dav">   93.11   93.22</time>
   <time name="total">   93.84   93.96</time>
   <energy>
    <i name="e_fr_energy">   -336.79591437 </i>
    <i name="e_wo_entrp">   -336.79591437 </i>
    <i name="e_0_energy">   -336.79591437 </i>
   </energy>
  </scstep>
  <scstep>
   <time name="dav">   87.39   87.51</time>
   <time name="total">   88.18   88.31</time>
   <energy>
    <i name="e_fr_energy">   -283.00229042 </i>
    <i name="e_wo_entrp">   -283.00229042 </i>
    <i name="e_0_energy">   -283.00229042 </i>
   </energy>
  </scstep>
  <scstep>
   <time name="dav">   66.03   66.14</time>
   <time name="total">   66.82   66.93</time>
   <energy>
    <i name="e_fr_energy">   -285.00311934 </i>
    <i name="e_wo_entrp">   -285.00311934 </i>
    <i name="e_0_energy">   -285.00311934 </i>
   </energy>
  </scstep>
  <scstep>
   <time name="dav">   72.84   72.88</time>
   <time name="total">   73.63   73.68</time>
   <energy>
    <i name="e_fr_energy">   -284.11790101 </i>
    <i name="e_wo_entrp">   -284.11790101 </i>
    <i name="e_0_energy">   -284.11790101 </i>
   </energy>
  </scstep>
  <scstep>
   <time name="dav">   77.91   78.05</time>
   <time name="total">   78.70   78.84</time>
   <energy>
    <i name="e_fr_energy">   -283.68171669 </i>
    <i name="e_wo_entrp">   -283.68171669 </i>
    <i name="e_0_energy">   -283.68171669 </i>
   </energy>
  </scstep>
  <scstep>
   <time name="dav">   72.08   72.26</time>
   <time name="total">   72.87   73.06</time>
   <energy>
    <i name="e_fr_energy">   -283.70168935 </i>
    <i name="e_wo_entrp">   -283.70168935 </i>
    <i name="e_0_energy">   -283.70168935 </i>
   </energy>
  </scstep>
  <scstep>
   <time name="dav">   88.76   88.89</time>
   <time name="total">   89.55   89.68</time>
   <energy>
    <i name="e_fr_energy">   -283.70545467 </i>
    <i name="e_wo_entrp">   -283.70545467 </i>
    <i name="e_0_energy">   -283.70545467 </i>
   </energy>
  </scstep>
  <scstep>
   <time name="dav">   73.23   73.35</time>
   <time name="total">   74.02   74.14</time>
   <energy>
    <i name="e_fr_energy">   -283.70870094 </i>
    <i name="e_wo_entrp">   -283.70870094 </i>
    <i name="e_0_energy">   -283.70870094 </i>
   </energy>
  </scstep>
  <scstep>
   <time name="dav">   70.39   70.55</time>
   <time name="total">   71.18   71.34</time>
   <energy>
    <i name="e_fr_energy">   -283.70944725 </i>
    <i name="e_wo_entrp">   -283.70944725 </i>
    <i name="e_0_energy">   -283.70944725 </i>
   </energy>
  </scstep>
  <scstep>
   <time name="dav">   75.39   75.82</time>
   <time name="total">   76.19   76.62</time>
   <energy>
    <i name="e_fr_energy">   -283.70967628 </i>
    <i name="e_wo_entrp">   -283.70967628 </i>
    <i name="e_0_energy">   -283.70967628 </i>
   </energy>
  </scstep>
  <scstep>
   <time name="dav">   82.42   82.63</time>
   <time name="total">   83.21   83.42</time>
   <energy>
    <i name="e_fr_energy">   -283.70970420 </i>
    <i name="e_wo_entrp">   -283.70970420 </i>
    <i name="e_0_energy">   -283.70970420 </i>
   </energy>
  </scstep>
  <scstep>
   <time name="dav">   66.89   67.12</time>
   <time name="total">   67.67   67.92</time>
   <energy>
    <i name="e_fr_energy">   -283.70972744 </i>
    <i name="e_wo_entrp">   -283.70972744 </i>
    <i name="e_0_energy">   -283.70972744 </i>
   </energy>
  </scstep>
  <scstep>
   <time name="dav">   72.96   73.43</time>
   <time name="total">   73.76   74.25</time>
   <energy>
    <i name="e_fr_energy">   -283.70972867 </i>
    <i name="e_wo_entrp">   -283.70972867 </i>
    <i name="e_0_energy">   -283.70972867 </i>
   </energy>
  </scstep>
  <scstep>
   <time name="dav">   57.20   57.44</time>
   <time name="total">   57.28   57.51</time>
   <energy>
    <i name="alphaZ">   1054.17224280 </i>
    <i name="ewald"> -30190.65334433 </i>
    <i name="hartreedc"> -12925.27290835 </i>
    <i name="XCdc">   1198.41135042 </i>
    <i name="pawpsdc">  43543.99038370 </i>
    <i name="pawaedc"> -42771.18818412 </i>
    <i name="eentropy">      0.00000000 </i>
    <i name="bandstr">  -3836.68721889 </i>
    <i name="atom">  43643.51795008 </i>
    <i name="e_fr_energy">   -283.70972868 </i>
    <i name="e_wo_entrp">   -283.70972868 </i>
    <i name="e_0_energy">   -283.70972868 </i>
   </energy>
  </scstep>
  <structure>
   <crystal>
    <varray name="basis" >
     <v>      11.17850000       0.00000000       0.00000000 </v>
     <v>       0.00000000       9.57460000       0.00000000 </v>
     <v>       0.00000000       0.00000000      11.18240000 </v>
    </varray>
    <i name="volume">   1196.84853820 </i>
    <varray name="rec_basis" >
     <v>       0.08945744       0.00000000       0.00000000 </v>
     <v>       0.00000000       0.10444301       0.00000000 </v>
     <v>       0.00000000       0.00000000       0.08942624 </v>
    </varray>
   </crystal>
   <varray name="positions" >
    <v>       0.62539000       0.99984000       0.43687000 </v>
    <v>       0.12539000       0.99984000       0.93687000 </v>
    <v>       0.37461000       0.00017000       0.68687000 </v>
    <v>       0.62539000       0.99984000       0.93687000 </v>
    <v>       0.12461000       0.99984000       0.18687000 </v>
    <v>       0.37461000       0.00017000       0.18687000 </v>
    <v>       0.87539000       0.00017000       0.43687000 </v>
    <v>       0.87461000       0.00017000       0.18687000 </v>
    <v>       0.12461000       0.99984000       0.68687000 </v>
    <v>       0.62461000       0.99984000       0.68687000 </v>
    <v>       0.00013000       0.29519000       0.06281000 </v>
    <v>       0.25013000       0.70481000       0.06281000 </v>
    <v>       0.24987000       0.29519000       0.31282000 </v>
    <v>       0.49987000       0.70481000       0.31282000 </v>
    <v>       0.50013000       0.29519000       0.06281000 </v>
    <v>       0.75013000       0.70481000       0.06281000 </v>
    <v>       0.74987000       0.29519000       0.31282000 </v>
    <v>       0.99987000       0.70481000       0.31282000 </v>
    <v>       0.00013000       0.29519000       0.56281000 </v>
    <v>       0.25013000       0.70481000       0.56281000 </v>
    <v>       0.24987000       0.29519000       0.81282000 </v>
    <v>       0.49987000       0.70481000       0.81282000 </v>
    <v>       0.50013000       0.29519000       0.56281000 </v>
    <v>       0.75013000       0.70481000       0.56281000 </v>
    <v>       0.74987000       0.29519000       0.81282000 </v>
    <v>       0.99987000       0.70481000       0.81282000 </v>
    <v>       0.25005000       0.32677000       0.06286000 </v>
    <v>       0.00005000       0.67323000       0.06286000 </v>
    <v>       0.49995000       0.32677000       0.31286000 </v>
    <v>       0.24995000       0.67323000       0.31286000 </v>
    <v>       0.75005000       0.32677000       0.06286000 </v>
    <v>       0.50005000       0.67323000       0.06286000 </v>
    <v>       0.99995000       0.32677000       0.31286000 </v>
    <v>       0.74995000       0.67323000       0.31286000 </v>
    <v>       0.25005000       0.32677000       0.56286000 </v>
    <v>       0.00005000       0.67323000       0.56286000 </v>
    <v>       0.49995000       0.32677000       0.81286000 </v>
    <v>       0.24995000       0.67323000       0.81286000 </v>
    <v>       0.75005000       0.32677000       0.56286000 </v>
    <v>       0.50005000       0.67323000       0.56286000 </v>
    <v>       0.99995000       0.32677000       0.81286000 </v>
    <v>       0.74995000       0.67323000       0.81286000 </v>
    <v>       0.49987000       0.07798000       0.06246000 </v>
    <v>       0.24987000       0.92202000       0.06246000 </v>
    <v>       0.25013000       0.07798000       0.31246000 </v>
    <v>       0.00013000       0.92202000       0.31246000 </v>
    <v>       0.99987000       0.07798000       0.06246000 </v>
    <v>       0.74987000       0.92202000       0.06246000 </v>
    <v>       0.75013000       0.07798000       0.31246000 </v>
    <v>       0.50013000       0.92202000       0.31246000 </v>
    <v>       0.49987000       0.07798000       0.56246000 </v>
    <v>       0.24987000       0.92202000       0.56246000 </v>
    <v>       0.25013000       0.07798000       0.81246000 </v>
    <v>       0.00013000       0.92202000       0.81246000 </v>
    <v>       0.99987000       0.07798000       0.56246000 </v>
    <v>       0.74987000       0.92202000       0.56246000 </v>
    <v>       0.75013000       0.07798000       0.81246000 </v>
    <v>       0.50013000       0.92202000       0.81246000 </v>
   </varray>
  </structure>
  <varray name="forces" >
   <v>      -0.88200619      -0.07200285      -0.59485784 </v>
   <v>      -0.11805509      -0.06562816      -0.38894702 </v>
   <v>      -0.12433562      -0.06559642      -0.12021978 </v>
   <v>       0.11061018       0.06345903       0.59740420 </v>
   <v>       0.53936082       0.22005015       0.56129536 </v>
   <v>       1.82834114       0.10782978       0.19828518 </v>
   <v>       0.52201309       0.21250533       1.74005394 </v>
   <v>      -1.80373769      -0.13485946      -1.79997844 </v>
   <v>      -0.48477321      -0.22865207      -0.47386285 </v>
   <v>       0.51527484       0.22859782       0.51309819 </v>
   <v>      -0.23272156       1.13517472      -0.61969888 </v>
   <v>       0.39023316      -1.08395372      -0.46559818 </v>
   <v>       0.32005317       0.05400624       0.48842935 </v>
   <v>       0.02051876       1.02504331       0.00877025 </v>
   <v>       0.15077349      -1.04579695      -0.17016679 </v>
   <v>      -0.32330311       0.97561278      -0.30174012 </v>
   <v>      -0.62254191       1.14756237      -0.25024688 </v>
   <v>       0.29235213      -2.05279030       0.27149120 </v>
   <v>       0.10349782      -0.05476610       0.32390517 </v>
   <v>       0.20978675       0.98859893      -0.12041563 </v>
   <v>       0.31162085       0.00553098       0.07151251 </v>
   <v>      -0.15498034       0.00152605       0.21326194 </v>
   <v>      -0.30186634       0.03368426      -0.06773643 </v>
   <v>      -0.04390532      -0.98783024       0.41073305 </v>
   <v>       0.18466152      -1.01403290       0.13100261 </v>
   <v>      -0.30999017       0.97586544      -0.00200566 </v>
   <v>      -0.28405438       0.10722429       0.17242214 </v>
   <v>       0.18348642      -0.02955901       0.42326205 </v>
   <v>       0.04341760       0.14408505       0.06526874 </v>
   <v>      -0.33081369      -0.04447225      -0.29820299 </v>
   <v>       0.33071447       0.10634289       0.32189263 </v>
   <v>      -0.23774284      -0.15845578       0.00845021 </v>
   <v>      -0.14524852      -0.04090196      -0.15046288 </v>
   <v>       0.43456689      -0.02620647       0.18167573 </v>
   <v>      -0.10835532       0.13849654      -0.00234391 </v>
   <v>      -0.18698506      -0.07065446      -0.33179544 </v>
   <v>      -0.04899165       0.23452538      -0.16479098 </v>
   <v>      -0.01991238      -0.23218182       0.13831498 </v>
   <v>       0.05681670       0.10611042      -0.28953683 </v>
   <v>       0.24534157      -0.17298347       0.08122402 </v>
   <v>       0.16073541       0.13161597       0.05734312 </v>
   <v>      -0.09587344      -0.15413694      -0.22179859 </v>
   <v>      -0.60029192       0.99015344       0.50225634 </v>
   <v>      -0.84765232       0.81690062       1.54796959 </v>
   <v>      -0.32378041      -0.18733092      -2.19188627 </v>
   <v>      -1.12683865       1.59343486      -1.11674436 </v>
   <v>       0.69387539      -0.96193477       1.80949960 </v>
   <v>       0.73152160      -0.87256546       0.73864795 </v>
   <v>       1.81935361      -0.97060682       0.69549212 </v>
   <v>      -0.41805839      -0.95017958      -0.41001762 </v>
   <v>       1.20127692      -0.02547861       1.00144267 </v>
   <v>      -0.48385208      -0.76762344       1.54794563 </v>
   <v>      -1.07015280       0.06745321      -0.92610648 </v>
   <v>       1.63055354      -0.73776708      -0.35839864 </v>
   <v>      -0.22117900       0.22563554      -0.34906991 </v>
   <v>      -0.46473809       0.66065437      -0.91157144 </v>
   <v>      -1.59848634       0.78432174      -0.58536678 </v>
   <v>       0.98446594      -0.07305345      -1.13878285 </v>
  </varray>
  <varray name="stress" >
   <v>      -3.04053873      -0.82222280      -2.52192051 </v>
   <v>      -0.82222292     -13.28047176      -0.32503539 </v>
   <v>      -2.52192038      -0.32503544      -6.43921723 </v>
  </varray>
  <energy>
   <i name="e_fr_energy">   -295.42058480 </i>
   <i name="e_wo_entrp">   -295.42058480 </i>
   <i name="e_0_energy">      0.00000000 </i>
  </energy>
  <time name="totalsc"> 1454.37 1459.00</time>
 </calculation>
 <calculation>
  <scstep>
   <time name="dav">   60.99   61.10</time>
   <time name="total">   61.85   61.95</time>
   <energy>
    <i name="alphaZ">   1069.23623826 </i>
    <i name="ewald"> -30299.70548712 </i>
    <i name="hartreedc"> -13003.85349713 </i>
    <i name="XCdc">   1206.68767166 </i>
    <i name="pawpsdc">  43543.37133083 </i>
    <i name="pawaedc"> -42770.57351280 </i>
    <i name="eentropy">      0.00000000 </i>
    <i name="bandstr">  -3672.12130473 </i>
    <i name="atom">  43643.51795008 </i>
    <i name="e_fr_energy">   -283.44061095 </i>
    <i name="e_wo_entrp">   -283.44061095 </i>
    <i name="e_0_energy">   -283.44061095 </i>
   </energy>
  </scstep>
  <scstep>
   <time name="dav">   73.16   73.17</time>
   <time name="total">   73.95   73.96</time>
   <energy>
    <i name="e_fr_energy">   -286.28328581 </i>
    <i name="e_wo_entrp">   -286.28328581 </i>
    <i name="e_0_energy">   -286.28328581 </i>
   </energy>
  </scstep>
  <scstep>
   <time name="dav">   90.72   90.74</time>
   <time name="total">   91.51   91.54</time>
   <energy>
    <i name="e_fr_energy">   -286.02151560 </i>
    <i name="e_wo_entrp">   -286.02151560 </i>
    <i name="e_0_energy">   -286.02151560 </i>
   </energy>
  </scstep>
  <scstep>
   <time name="dav">   74.95   74.98</time>
   <time name="total">   75.74   75.77</time>
   <energy>
    <i name="e_fr_energy">   -285.88164875 </i>
    <i name="e_wo_entrp">   -285.88164875 </i>
    <i name="e_0_energy">   -285.88164875 </i>
   </energy>
  </scstep>
  <scstep>
   <time name="dav">   73.20   73.71</time>
   <time name="total">   74.00   74.51</time>
   <energy>
    <i name="e_fr_energy">   -285.88021924 </i>
    <i name="e_wo_entrp">   -285.88021924 </i>
    <i name="e_0_energy">   -285.88021924 </i>
   </energy>
  </scstep>
  <scstep>
   <time name="dav">   80.16   80.81</time>
   <time name="total">   80.95   81.61</time>
   <energy>
    <i name="e_fr_energy">   -285.87884135 </i>
    <i name="e_wo_entrp">   -285.87884135 </i>
    <i name="e_0_energy">   -285.87884135 </i>
   </energy>
  </scstep>
  <scstep>
   <time name="dav">   72.73   72.76</time>
   <time name="total">   73.52   73.56</time>
   <energy>
    <i name="e_fr_energy">   -285.87813767 </i>
    <i name="e_wo_entrp">   -285.87813767 </i>
    <i name="e_0_energy">   -285.87813767 </i>
   </energy>
  </scstep>
  <scstep>
   <time name="dav">   94.46   94.45</time>
   <time name="total">   95.25   95.24</time>
   <energy>
    <i name="e_fr_energy">   -285.87810766 </i>
    <i name="e_wo_entrp">   -285.87810766 </i>
    <i name="e_0_energy">   -285.87810766 </i>
   </energy>
  </scstep>
  <scstep>
   <time name="dav">   68.35   68.34</time>
   <time name="total">   69.14   69.13</time>
   <energy>
    <i name="e_fr_energy">   -285.87813514 </i>
    <i name="e_wo_entrp">   -285.87813514 </i>
    <i name="e_0_energy">   -285.87813514 </i>
   </energy>
  </scstep>
  <scstep>
   <time name="dav">   79.01   79.02</time>
   <time name="total">   79.80   79.81</time>
   <energy>
    <i name="e_fr_energy">   -285.87813490 </i>
    <i name="e_wo_entrp">   -285.87813490 </i>
    <i name="e_0_energy">   -285.87813490 </i>
   </energy>
  </scstep>
  <scstep>
   <time name="dav">   66.15   66.27</time>
   <time name="total">   66.94   67.06</time>
   <energy>
    <i name="e_fr_energy">   -285.87813411 </i>
    <i name="e_wo_entrp">   -285.87813411 </i>
    <i name="e_0_energy">   -285.87813411 </i>
   </energy>
  </scstep>
  <scstep>
   <time name="dav">   65.87   66.05</time>
   <time name="total">   65.95   66.12</time>
   <energy>
    <i name="alphaZ">   1069.23623826 </i>
    <i name="ewald"> -30299.70548712 </i>
    <i name="hartreedc"> -12881.79714134 </i>
    <i name="XCdc">   1201.54533945 </i>
    <i name="pawpsdc">  43897.15684903 </i>
    <i name="pawaedc"> -43127.08358914 </i>
    <i name="eentropy">      0.00000000 </i>
    <i name="bandstr">  -3788.74829276 </i>
    <i name="atom">  43643.51795008 </i>
    <i name="e_fr_energy">   -285.87813354 </i>
    <i name="e_wo_entrp">   -285.87813354 </i>
    <i name="e_0_energy">   -285.87813354 </i>
   </energy>
  </scstep>
  <structure>
   <crystal>
    <varray name="basis" >
     <v>      11.15738136      -0.00571090      -0.01751648 </v>
     <v>      -0.00489150       9.49559293      -0.00193367 </v>
     <v>      -0.01752259      -0.00225838      11.13765960 </v>
    </varray>
    <i name="volume">   1179.98666960 </i>
    <varray name="rec_basis" >
     <v>       0.08962701       0.00004620       0.00014102 </v>
     <v>       0.00005394       0.10531204       0.00002144 </v>
     <v>       0.00014097       0.00001836       0.08978570 </v>
    </varray>
   </crystal>
   <varray name="positions" >
    <v>       0.62158356       0.99947721       0.43430369 </v>
    <v>       0.12488051       0.99950933       0.93519202 </v>
    <v>       0.37407341      -0.00016051       0.68635135 </v>
    <v>       0.62586736       0.00015975       0.93944730 </v>
    <v>       0.12693770       0.00094875       0.18929152 </v>
    <v>       0.38250051       0.00071331       0.18772543 </v>
    <v>       0.87764283       0.00124073       0.44437687 </v>
    <v>       0.86682567      -0.00050950       0.17910461 </v>
    <v>       0.12251788       0.99868791       0.68482568 </v>
    <v>       0.62683375       0.00099181       0.68908359 </v>
    <v>      -0.00087435       0.30090970       0.06013652 </v>
    <v>       0.25181412       0.69934838       0.06080134 </v>
    <v>       0.25125124       0.29546212       0.31492716 </v>
    <v>       0.49995855       0.70997479       0.31285784 </v>
    <v>       0.50078069       0.28992064       0.06207587 </v>
    <v>       0.74873473       0.70972573       0.06150825 </v>
    <v>       0.74718332       0.30097212       0.31174040 </v>
    <v>       0.00113169       0.69446679       0.31399126 </v>
    <v>       0.00057666       0.29491406       0.56420738 </v>
    <v>       0.25103537       0.70979116       0.56229051 </v>
    <v>       0.25121485       0.29521787       0.81312852 </v>
    <v>       0.49920116       0.70481769       0.81374005 </v>
    <v>       0.49882725       0.29535972       0.56251777 </v>
    <v>       0.74994052       0.69983271       0.56458197 </v>
    <v>       0.75066694       0.29008069       0.81338517 </v>
    <v>       0.99853219       0.70972700       0.81281135 </v>
    <v>       0.24882412       0.32731026       0.06360386 </v>
    <v>       0.00084187       0.67308106       0.06468602 </v>
    <v>       0.50013738       0.32749599       0.31314158 </v>
    <v>       0.24852232       0.67300592       0.31157350 </v>
    <v>       0.75147725       0.32730582       0.06424870 </v>
    <v>       0.49902398       0.67243160       0.06289646 </v>
    <v>       0.99932316       0.32656391       0.31221088 </v>
    <v>       0.75182544       0.67309796       0.31364378 </v>
    <v>       0.24958237       0.32746783       0.56284989 </v>
    <v>      -0.00075696       0.67287400       0.56142858 </v>
    <v>       0.49973857       0.32795168       0.81214907 </v>
    <v>       0.24986406       0.67206013       0.81345671 </v>
    <v>       0.75029520       0.32730465       0.56161089 </v>
    <v>       0.50110881       0.67235840       0.56321041 </v>
    <v>       0.00064368       0.32743316       0.81310739 </v>
    <v>       0.74953624       0.67245336       0.81190313 </v>
    <v>       0.49727934       0.08296899       0.06462681 </v>
    <v>       0.24621182       0.92613604       0.06913819 </v>
    <v>       0.24873267       0.07703611       0.30300385 </v>
    <v>      -0.00473306       0.93004869       0.30764219 </v>
    <v>       0.00286453       0.07313319       0.07026647 </v>
    <v>       0.75302700       0.91762348       0.06564664 </v>
    <v>       0.75798172       0.07308949       0.31546046 </v>
    <v>       0.49832580       0.91723242       0.31069112 </v>
    <v>       0.50505431       0.07785162       0.56678038 </v>
    <v>       0.24778186       0.91815225       0.56913808 </v>
    <v>       0.24551158       0.07831987       0.80846463 </v>
    <v>       0.00716692       0.91830268       0.81091381 </v>
    <v>       0.99891547       0.07911689       0.56095406 </v>
    <v>       0.74786435       0.92534878       0.55852734 </v>
    <v>       0.74323147       0.08193189       0.80993463 </v>
    <v>       0.50437862       0.92165191       0.80754711 </v>
   </varray>
  </structure>
  <varray name="forces" >
   <v>      -0.48118459      -0.02181432      -0.45709254 </v>
   <v>      -0.05812672      -0.02702739      -0.04546171 </v>
   <v>      -0.03995067      -0.02825325      -0.06134245 </v>
   <v>       0.03952691       0.02360231       0.44482926 </v>
   <v>      -0.24563410      -0.04208999       0.52983460 </v>
   <v>       0.62023717       0.00676355       0.02596108 </v>
   <v>       0.36221323      -0.03780771       0.45381653 </v>
   <v>      -0.40028284       0.17883695      -0.31460524 </v>
   <v>      -0.40390076      -0.02326706      -0.41612068 </v>
   <v>       0.44050020      -0.02156842      -0.09283888 </v>
   <v>       0.00862638      -0.16082542      -0.13549516 </v>
   <v>       0.07690260       0.10437234      -0.18981230 </v>
   <v>       0.00785316      -0.00305402       0.20684211 </v>
   <v>       0.07290360      -1.30775326       0.09173464 </v>
   <v>       0.00246765       1.33569527      -0.17233769 </v>
   <v>      -0.11066615      -1.23034605      -0.09679072 </v>
   <v>      -0.11320516      -0.17939970      -0.04014841 </v>
   <v>       0.07873573       0.16064607       0.00436510 </v>
   <v>       0.00866574       0.58476579       0.03752410 </v>
   <v>       0.16218805      -0.93301980      -0.18957116 </v>
   <v>       0.20224601       0.28872600       0.12478997 </v>
   <v>      -0.14974956      -0.33260003       0.05101378 </v>
   <v>      -0.11237748       0.21505221       0.01183240 </v>
   <v>      -0.06024665      -0.10770455       0.10437698 </v>
   <v>       0.19373678       1.01744899       0.01653777 </v>
   <v>      -0.22449138      -0.89464714       0.09870475 </v>
   <v>      -0.12258485       0.22987596       0.08817492 </v>
   <v>       0.04383595      -0.18603867       0.15789470 </v>
   <v>      -0.01588905       0.06014135       0.00073663 </v>
   <v>      -0.11284357      -0.11247996      -0.15497664 </v>
   <v>       0.16372357       0.02139962       0.14521615 </v>
   <v>      -0.11189182      -0.06552717       0.02296171 </v>
   <v>      -0.04500846       0.23565472      -0.04259720 </v>
   <v>       0.18329785      -0.18713616       0.05728922 </v>
   <v>      -0.06749118       0.08587475       0.04321251 </v>
   <v>      -0.07668273      -0.05073634      -0.10053070 </v>
   <v>       0.01123595       0.21810892      -0.09541145 </v>
   <v>      -0.01877275      -0.23770783       0.03703005 </v>
   <v>       0.02900827       0.18191096      -0.11699692 </v>
   <v>       0.13352854      -0.17638199       0.05496554 </v>
   <v>       0.09859429       0.08536805      -0.00624221 </v>
   <v>      -0.09414095      -0.08626881      -0.10486059 </v>
   <v>      -0.21641271      -1.23313547       0.27219153 </v>
   <v>      -0.17324988      -0.48760414       0.86886327 </v>
   <v>       0.32809681       0.21989345      -1.21717716 </v>
   <v>      -0.79644917      -0.68507036      -0.58380206 </v>
   <v>       0.30233046       0.56686294       0.78526595 </v>
   <v>      -0.05550036       0.91225606      -0.03966923 </v>
   <v>       0.86934833       0.53549787       0.46319932 </v>
   <v>      -0.21559379       1.21307261      -0.26541689 </v>
   <v>       0.75199781      -0.10210432       0.66421109 </v>
   <v>      -0.31719233       1.00341615       1.20004853 </v>
   <v>      -0.78391791      -0.17945506      -0.75928933 </v>
   <v>       1.21084881       0.96862666      -0.29723641 </v>
   <v>       0.11813225      -0.19554583       0.12905271 </v>
   <v>      -0.47064981      -0.28836337      -0.37698908 </v>
   <v>      -1.14275994      -1.01714037      -0.16462175 </v>
   <v>       0.71606524       0.18800441      -0.65504234 </v>
  </varray>
  <varray name="stress" >
   <v>       7.75402124       1.74484192       2.08278996 </v>
   <v>       1.74484179      11.59476391       1.04569670 </v>
   <v>       2.08278990       1.04569672       9.31181362 </v>
  </varray>
  <energy>
   <i name="e_fr_energy">   -297.70194421 </i>
   <i name="e_wo_entrp">   -297.70194421 </i>
   <i name="e_0_energy">      0.00000000 </i>
  </energy>
  <time name="totalsc"> 1016.50 1018.44</time>
 </calculation>
 <calculation>
  <scstep>
   <time name="dav">   63.64   63.74</time>
   <time name="total">   64.42   64.54</time>
   <energy>
    <i name="alphaZ">   1071.07312052 </i>
    <i name="ewald"> -30310.35988742 </i>
    <i name="hartreedc"> -12893.61989836 </i>
    <i name="XCdc">   1202.58111740 </i>
    <i name="pawpsdc">  43897.50897946 </i>
    <i name="pawaedc"> -43127.43881681 </i>
    <i name="eentropy">      0.00000000 </i>
    <i name="bandstr">  -3769.11280912 </i>
    <i name="atom">  43643.51795008 </i>
    <i name="e_fr_energy">   -285.85024425 </i>
    <i name="e_wo_entrp">   -285.85024425 </i>
    <i name="e_0_energy">   -285.85024425 </i>
   </energy>
  </scstep>
  <scstep>
   <time name="dav">   70.34   70.44</time>
   <time name="total">   71.12   71.23</time>
   <energy>
    <i name="e_fr_energy">   -285.88917855 </i>
    <i name="e_wo_entrp">   -285.88917855 </i>
    <i name="e_0_energy">   -285.88917855 </i>
   </energy>
  </scstep>
  <scstep>
   <time name="dav">   82.78   83.02</time>
   <time name="total">   83.57   83.81</time>
   <energy>
    <i name="e_fr_energy">   -285.88594971 </i>
    <i name="e_wo_entrp">   -285.88594971 </i>
    <i name="e_0_energy">   -285.88594971 </i>
   </energy>
  </scstep>
  <scstep>
   <time name="dav">   72.15   72.30</time>
   <time name="total">   72.94   73.09</time>
   <energy>
    <i name="e_fr_energy">   -285.88392193 </i>
    <i name="e_wo_entrp">   -285.88392193 </i>
    <i name="e_0_energy">   -285.88392193 </i>
   </energy>
  </scstep>
  <scstep>
   <time name="dav">   76.42   76.55</time>
   <time name="total">   77.21   77.35</time>
   <energy>
    <i name="e_fr_energy">   -285.88392025 </i>
    <i name="e_wo_entrp">   -285.88392025 </i>
    <i name="e_0_energy">   -285.88392025 </i>
   </energy>
  </scstep>
  <scstep>
   <time name="dav">   68.86   69.46</time>
   <time name="total">   69.64   70.25</time>
   <energy>
    <i name="e_fr_energy">   -285.88393837 </i>
    <i name="e_wo_entrp">   -285.88393837 </i>
    <i name="e_0_energy">   -285.88393837 </i>
   </energy>
  </scstep>
  <scstep>
   <time name="dav">   73.44   73.57</time>
   <time name="total">   74.22   74.36</time>
   <energy>
    <i name="e_fr_energy">   -285.88393263 </i>
    <i name="e_wo_entrp">   -285.88393263 </i>
    <i name="e_0_energy">   -285.88393263 </i>
   </energy>
  </scstep>
  <scstep>
   <time name="dav">   69.05   69.11</time>
   <time name="total">   69.84   69.90</time>
   <energy>
    <i name="e_fr_energy">   -285.88393716 </i>
    <i name="e_wo_entrp">   -285.88393716 </i>
    <i name="e_0_energy">   -285.88393716 </i>
   </energy>
  </scstep>
  <scstep>
   <time name="dav">   74.89   75.60</time>
   <time name="total">   74.97   75.68</time>
   <energy>
    <i name="alphaZ">   1071.07312052 </i>
    <i name="ewald"> -30310.35988742 </i>
    <i name="hartreedc"> -12878.63484086 </i>
    <i name="XCdc">   1201.94242985 </i>
    <i name="pawpsdc">  43949.03884628 </i>
    <i name="pawaedc"> -43179.44863742 </i>
    <i name="eentropy">      0.00000000 </i>
    <i name="bandstr">  -3783.01291744 </i>
    <i name="atom">  43643.51795008 </i>
    <i name="e_fr_energy">   -285.88393642 </i>
    <i name="e_wo_entrp">   -285.88393642 </i>
    <i name="e_0_energy">   -285.88393642 </i>
   </energy>
  </scstep>
  <structure>
   <crystal>
    <varray name="basis" >
     <v>      11.15483603      -0.00639921      -0.01962766 </v>
     <v>      -0.00548105       9.48607056      -0.00216673 </v>
     <v>      -0.01963451      -0.00253058      11.13226723 </v>
    </varray>
    <i name="volume">   1177.96300144 </i>
    <varray name="rec_basis" >
     <v>       0.08964752       0.00005183       0.00015813 </v>
     <v>       0.00006052       0.10541777       0.00002407 </v>
     <v>       0.00015807       0.00002061       0.08982924 </v>
    </varray>
   </crystal>
   <varray name="positions" >
    <v>       0.62112341       0.99943277       0.43399241 </v>
    <v>       0.12481865       0.99946905       0.93498886 </v>
    <v>       0.37400850      -0.00020074       0.68628848 </v>
    <v>       0.62592551       0.00019871       0.93975927 </v>
    <v>       0.12721930       0.00108373       0.18958501 </v>
    <v>       0.38345351       0.00077994       0.18783046 </v>
    <v>       0.87791636       0.00137124       0.44528573 </v>
    <v>       0.86588417      -0.00059287       0.17816342 </v>
    <v>       0.12226480       0.99854769       0.68457788 </v>
    <v>       0.62710276       0.00113202       0.68935190 </v>
    <v>      -0.00099583       0.30160466       0.05981293 </v>
    <v>       0.25201681       0.69868470       0.06055847 </v>
    <v>       0.25141845       0.29549535       0.31518242 </v>
    <v>       0.49996953       0.71060247       0.31286254 </v>
    <v>       0.50085884       0.28928029       0.06198705 </v>
    <v>       0.74856626       0.71032299       0.06135056 </v>
    <v>       0.74685899       0.30167458       0.31160936 </v>
    <v>       0.00128372       0.69320993       0.31413301 </v>
    <v>       0.00063085       0.29488059       0.56437655 </v>
    <v>       0.25114486       0.71039657       0.56222792 </v>
    <v>       0.25137731       0.29522136       0.81316611 </v>
    <v>       0.49912057       0.70481860       0.81385125 </v>
    <v>       0.49866989       0.29538024       0.56248217 </v>
    <v>       0.74991771       0.69922787       0.56479625 </v>
    <v>       0.75076301       0.28945983       0.81345360 </v>
    <v>       0.99837090       0.71032446       0.81281015 </v>
    <v>       0.24867626       0.32737585       0.06369365 </v>
    <v>       0.00093783       0.67306307       0.06490713 </v>
    <v>       0.50016009       0.32758424       0.31317570 </v>
    <v>       0.24834966       0.67297855       0.31141755 </v>
    <v>       0.75164989       0.32737108       0.06441702 </v>
    <v>       0.49890005       0.67233450       0.06290066 </v>
    <v>       0.99924733       0.32653880       0.31213221 </v>
    <v>       0.75205205       0.67308207       0.31373898 </v>
    <v>       0.24952594       0.32755260       0.56284859 </v>
    <v>      -0.00085470       0.67283064       0.56125520 </v>
    <v>       0.49971297       0.32809525       0.81206302 </v>
    <v>       0.24985374       0.67191797       0.81352888 </v>
    <v>       0.75032460       0.32736961       0.56145980 </v>
    <v>       0.50123669       0.67225257       0.56325300 </v>
    <v>       0.00072753       0.32751381       0.81313747 </v>
    <v>       0.74948606       0.67235892       0.81178724 </v>
    <v>       0.49696719       0.08357517       0.06488863 </v>
    <v>       0.24577157       0.92663619       0.06994571 </v>
    <v>       0.24856209       0.07692103       0.30185928 </v>
    <v>      -0.00532078       0.93102392       0.30705843 </v>
    <v>       0.00322736       0.07254461       0.07121160 </v>
    <v>       0.75340859       0.91708950       0.06603277 </v>
    <v>       0.75893016       0.07249581       0.31582494 </v>
    <v>       0.49810734       0.91665041       0.31047662 </v>
    <v>       0.50568115       0.07783652       0.56730417 </v>
    <v>       0.24753077       0.91768225       0.56994572 </v>
    <v>       0.24495315       0.07836072       0.80798028 </v>
    <v>       0.00801617       0.91785139       0.81072796 </v>
    <v>       0.99879998       0.07925494       0.56077167 </v>
    <v>       0.74762159       0.92575306       0.55805113 </v>
    <v>       0.74239817       0.08241158       0.80962781 </v>
    <v>       0.50489071       0.92160735       0.80695340 </v>
   </varray>
  </structure>
  <varray name="forces" >
   <v>      -0.43345436      -0.01443867      -0.43856748 </v>
   <v>      -0.04859855      -0.02120846      -0.00340775 </v>
   <v>      -0.02911343      -0.02274466      -0.05312484 </v>
   <v>       0.03081525       0.01847267       0.42473725 </v>
   <v>      -0.36576729      -0.08608909       0.51878853 </v>
   <v>       0.46462292      -0.00319412       0.00688012 </v>
   <v>       0.33036627      -0.07622361       0.29515493 </v>
   <v>      -0.19609607       0.25389189      -0.10696839 </v>
   <v>      -0.39616946       0.00612559      -0.41175606 </v>
   <v>       0.42651623      -0.06105414      -0.18168617 </v>
   <v>       0.04054228      -0.28511627      -0.07279011 </v>
   <v>       0.03562021       0.22164393      -0.15149724 </v>
   <v>      -0.02995523      -0.01420024       0.17098388 </v>
   <v>       0.08303736      -1.68380422       0.10660552 </v>
   <v>      -0.00827876       1.72064314      -0.17886681 </v>
   <v>      -0.09319749      -1.57635151      -0.07992988 </v>
   <v>      -0.04817711      -0.30545710      -0.01171508 </v>
   <v>       0.05143682       0.33643266      -0.02961778 </v>
   <v>      -0.00215690       0.66882848       0.00412078 </v>
   <v>       0.16108397      -1.22947540      -0.21043357 </v>
   <v>       0.18856287       0.32267577       0.13180782 </v>
   <v>      -0.14918503      -0.37317936       0.03137145 </v>
   <v>      -0.08953329       0.23538402       0.02184089 </v>
   <v>      -0.06248096      -0.01957962       0.06403827 </v>
   <v>       0.20773465       1.33067089       0.00785814 </v>
   <v>      -0.22625135      -1.18015671       0.11346876 </v>
   <v>      -0.10290603       0.24370505       0.07773259 </v>
   <v>       0.02701493      -0.20272648       0.12424641 </v>
   <v>      -0.02451208       0.04904241      -0.00813744 </v>
   <v>      -0.08489976      -0.11944963      -0.13744623 </v>
   <v>       0.14176049       0.00915725       0.12170575 </v>
   <v>      -0.09465157      -0.05300158       0.02579785 </v>
   <v>      -0.03229938       0.26537757      -0.02903539 </v>
   <v>       0.15199035      -0.20420544       0.04168499 </v>
   <v>      -0.06281194       0.07943021       0.04994255 </v>
   <v>      -0.06278533      -0.04729799      -0.06925322 </v>
   <v>       0.01962422       0.21549300      -0.08693546 </v>
   <v>      -0.01916129      -0.23879780       0.02256395 </v>
   <v>       0.02596697       0.19030564      -0.09525159 </v>
   <v>       0.11945313      -0.17606386       0.05206646 </v>
   <v>       0.09173422       0.07928172      -0.01555688 </v>
   <v>      -0.09468985      -0.07716168      -0.08840025 </v>
   <v>      -0.17205656      -1.59176087       0.24553036 </v>
   <v>      -0.07558217      -0.63035878       0.76736442 </v>
   <v>       0.43556518       0.29158695      -1.07459420 </v>
   <v>      -0.75147622      -0.87691373      -0.51195902 </v>
   <v>       0.24309559       0.72590569       0.64595061 </v>
   <v>      -0.17963996       1.17410208      -0.16207080 </v>
   <v>       0.74586765       0.68790320       0.42964948 </v>
   <v>      -0.18902867       1.56062582      -0.24581463 </v>
   <v>       0.69406686      -0.10716373       0.61991020 </v>
   <v>      -0.29963827       1.27621071       1.16675146 </v>
   <v>      -0.74852162      -0.20713246      -0.73793900 </v>
   <v>       1.16930999       1.22859754      -0.29012890 </v>
   <v>       0.17209923      -0.24466615       0.19737513 </v>
   <v>      -0.47485583      -0.38732216      -0.30663828 </v>
   <v>      -1.08834237      -1.29026562      -0.10516167 </v>
   <v>       0.67838652       0.21506726      -0.59124438 </v>
  </varray>
  <varray name="stress" >
   <v>       9.31176418       2.28219495       2.66924945 </v>
   <v>       2.28219493      16.15344193       1.34377534 </v>
   <v>       2.66924935       1.34377542      11.47980830 </v>
  </varray>
  <energy>
   <i name="e_fr_energy">   -297.72254959 </i>
   <i name="e_wo_entrp">   -297.72254959 </i>
   <i name="e_0_energy">      0.00000000 </i>
  </energy>
  <time name="totalsc">  765.34  768.54</time>
 </calculation>
 <calculation>
  <scstep>
   <time name="dav">   68.93   69.43</time>
   <time name="total">   69.71   70.22</time>
   <energy>
    <i name="alphaZ">   1055.18998048 </i>
    <i name="ewald"> -30270.98682991 </i>
    <i name="hartreedc"> -12706.80842775 </i>
    <i name="XCdc">   1192.94268674 </i>
    <i name="pawpsdc">  43948.90970478 </i>
    <i name="pawaedc"> -43179.31860062 </i>
    <i name="eentropy">      0.00000000 </i>
    <i name="bandstr">  -3968.59991331 </i>
    <i name="atom">  43643.51795008 </i>
    <i name="e_fr_energy">   -285.15344952 </i>
    <i name="e_wo_entrp">   -285.15344952 </i>
    <i name="e_0_energy">   -285.15344952 </i>
   </energy>
  </scstep>
  <scstep>
   <time name="dav">   71.35   71.58</time>
   <time name="total">   72.14   72.38</time>
   <energy>
    <i name="e_fr_energy">   -287.08499882 </i>
    <i name="e_wo_entrp">   -287.08499882 </i>
    <i name="e_0_energy">   -287.08499882 </i>
   </energy>
  </scstep>
  <scstep>
   <time name="dav">   83.43   83.60</time>
   <time name="total">   84.22   84.39</time>
   <energy>
    <i name="e_fr_energy">   -286.94116617 </i>
    <i name="e_wo_entrp">   -286.94116617 </i>
    <i name="e_0_energy">   -286.94116617 </i>
   </energy>
  </scstep>
  <scstep>
   <time name="dav">   80.45   80.86</time>
   <time name="total">   81.23   81.66</time>
   <energy>
    <i name="e_fr_energy">   -286.89015637 </i>
    <i name="e_wo_entrp">   -286.89015637 </i>
    <i name="e_0_energy">   -286.89015637 </i>
   </energy>
  </scstep>
  <scstep>
   <time name="dav">   67.33   67.47</time>
   <time name="total">   68.12   68.26</time>
   <energy>
    <i name="e_fr_energy">   -286.86577477 </i>
    <i name="e_wo_entrp">   -286.86577477 </i>
    <i name="e_0_energy">   -286.86577477 </i>
   </energy>
  </scstep>
  <scstep>
   <time name="dav">   78.23   78.32</time>
   <time name="total">   79.02   79.11</time>
   <energy>
    <i name="e_fr_energy">   -286.86513823 </i>
    <i name="e_wo_entrp">   -286.86513823 </i>
    <i name="e_0_energy">   -286.86513823 </i>
   </energy>
  </scstep>
  <scstep>
   <time name="dav">   72.47   72.77</time>
   <time name="total">   73.26   73.56</time>
   <energy>
    <i name="e_fr_energy">   -286.86509931 </i>
    <i name="e_wo_entrp">   -286.86509931 </i>
    <i name="e_0_energy">   -286.86509931 </i>
   </energy>
  </scstep>
  <scstep>
   <time name="dav">   93.23   93.39</time>
   <time name="total">   94.01   94.18</time>
   <energy>
    <i name="e_fr_energy">   -286.86503845 </i>
    <i name="e_wo_entrp">   -286.86503845 </i>
    <i name="e_0_energy">   -286.86503845 </i>
   </energy>
  </scstep>
  <scstep>
   <time name="dav">   68.40   68.73</time>
   <time name="total">   69.19   69.52</time>
   <energy>
    <i name="e_fr_energy">   -286.86502417 </i>
    <i name="e_wo_entrp">   -286.86502417 </i>
    <i name="e_0_energy">   -286.86502417 </i>
   </energy>
  </scstep>
  <scstep>
   <time name="dav">   76.95   77.37</time>
   <time name="total">   77.74   78.16</time>
   <energy>
    <i name="e_fr_energy">   -286.86503012 </i>
    <i name="e_wo_entrp">   -286.86503012 </i>
    <i name="e_0_energy">   -286.86503012 </i>
   </energy>
  </scstep>
  <scstep>
   <time name="dav">   66.52   66.71</time>
   <time name="total">   67.31   67.50</time>
   <energy>
    <i name="e_fr_energy">   -286.86503202 </i>
    <i name="e_wo_entrp">   -286.86503202 </i>
    <i name="e_0_energy">   -286.86503202 </i>
   </energy>
  </scstep>
  <scstep>
   <time name="dav">   59.54   59.58</time>
   <time name="total">   60.33   60.38</time>
   <energy>
    <i name="e_fr_energy">   -286.86503465 </i>
    <i name="e_wo_entrp">   -286.86503465 </i>
    <i name="e_0_energy">   -286.86503465 </i>
   </energy>
  </scstep>
  <scstep>
   <time name="dav">   44.44   44.69</time>
   <time name="total">   44.51   44.77</time>
   <energy>
    <i name="alphaZ">   1055.18998048 </i>
    <i name="ewald"> -30270.98682991 </i>
    <i name="hartreedc"> -12842.31067044 </i>
    <i name="XCdc">   1199.13250782 </i>
    <i name="pawpsdc">  43445.02289134 </i>
    <i name="pawaedc"> -42669.44731266 </i>
    <i name="eentropy">      0.00000000 </i>
    <i name="bandstr">  -3846.98355206 </i>
    <i name="atom">  43643.51795008 </i>
    <i name="e_fr_energy">   -286.86503535 </i>
    <i name="e_wo_entrp">   -286.86503535 </i>
    <i name="e_0_energy">   -286.86503535 </i>
   </energy>
  </scstep>
  <structure>
   <crystal>
    <varray name="basis" >
     <v>      11.20770943       0.00620838      -0.01116380 </v>
     <v>       0.00525404       9.53687458       0.00469662 </v>
     <v>      -0.01118350       0.00550535      11.18659327 </v>
    </varray>
    <i name="volume">   1195.69416991 </i>
    <varray name="rec_basis" >
     <v>       0.08922441      -0.00004920       0.00008922 </v>
     <v>      -0.00005814       0.10485621      -0.00005166 </v>
     <v>       0.00008907      -0.00004407       0.08939283 </v>
    </varray>
   </crystal>
   <varray name="positions" >
    <v>       0.61699696       0.99914263       0.43055162 </v>
    <v>       0.12430699       0.99916545       0.93400046 </v>
    <v>       0.37356826      -0.00051208       0.68575134 </v>
    <v>       0.62634403       0.00048228       0.94313851 </v>
    <v>       0.12695152       0.00128173       0.19329016 </v>
    <v>       0.39007385       0.00108425       0.18836842 </v>
    <v>       0.88069199       0.00160106       0.45095051 </v>
    <v>       0.86050732       0.00032886       0.17317965 </v>
    <v>       0.11929509       0.99790599       0.68156052 </v>
    <v>       0.63027838       0.00148695       0.68983392 </v>
    <v>      -0.00139926       0.30344921       0.05794036 </v>
    <v>       0.25314391       0.69665934       0.05872377 </v>
    <v>       0.25208778       0.29558081       0.31716347 </v>
    <v>       0.50038654       0.70484044       0.31335720 </v>
    <v>       0.50119908       0.29517362       0.06076958 </v>
    <v>       0.74734231       0.70497405       0.06023831 </v>
    <v>       0.74509215       0.30344894       0.31092901 </v>
    <v>       0.00223977       0.68894064       0.31468112 </v>
    <v>       0.00088260       0.29820372       0.56520566 </v>
    <v>       0.25237780       0.70689395       0.56099447 </v>
    <v>       0.25299209       0.29691945       0.81393303 </v>
    <v>       0.49807339       0.70287895       0.81452139 </v>
    <v>       0.49752075       0.29670420       0.56240800 </v>
    <v>       0.74953227       0.69622797       0.56610598 </v>
    <v>       0.75214636       0.29341641       0.81381918 </v>
    <v>       0.99659470       0.70703979       0.81330495 </v>
    <v>       0.24751395       0.32895911       0.06446792 </v>
    <v>       0.00151752       0.67192133       0.06651745 </v>
    <v>       0.50016041       0.32826240       0.31330289 </v>
    <v>       0.24714555       0.67222479       0.31005981 </v>
    <v>       0.75310538       0.32773209       0.06576449 </v>
    <v>       0.49788758       0.67159295       0.06303434 </v>
    <v>       0.99874163       0.32780048       0.31162656 </v>
    <v>       0.75380997       0.67194300       0.31438102 </v>
    <v>       0.24897820       0.32837229       0.56306357 </v>
    <v>      -0.00160150       0.67237621       0.56011700 </v>
    <v>       0.49967714       0.32990538       0.81126553 </v>
    <v>       0.24971903       0.66999313       0.81397418 </v>
    <v>       0.75057998       0.32867192       0.56031396 </v>
    <v>       0.50237791       0.67082899       0.56368886 </v>
    <v>       0.00153536       0.32831342       0.81321336 </v>
    <v>       0.74882539       0.67150416       0.81083911 </v>
    <v>       0.49470898       0.07818886       0.06722886 </v>
    <v>       0.24333442       0.92574998       0.07721658 </v>
    <v>       0.24966590       0.07788811       0.29161285 </v>
    <v>      -0.01146927       0.93112593       0.30198378 </v>
    <v>       0.00604864       0.07350712       0.07860706 </v>
    <v>       0.75444171       0.92064563       0.06716254 </v>
    <v>       0.76677943       0.07323736       0.31948438 </v>
    <v>       0.49622603       0.92198911       0.30835841 </v>
    <v>       0.51176116       0.07720915       0.57256946 </v>
    <v>       0.24501460       0.92207776       0.57898993 </v>
    <v>       0.23895775       0.07747428       0.80237937 </v>
    <v>       0.01726134       0.92209146       0.80856153 </v>
    <v>       0.99901012       0.07864276       0.56077524 </v>
    <v>       0.74435252       0.92567079       0.55440565 </v>
    <v>       0.73358428       0.07798610       0.80768135 </v>
    <v>       0.51034224       0.92251537       0.80149239 </v>
   </varray>
  </structure>
  <varray name="forces" >
   <v>      -0.26217148      -0.03808300      -0.32027496 </v>
   <v>       0.03720940      -0.01156306       0.06116636 </v>
   <v>       0.00079504      -0.02604907       0.01549933 </v>
   <v>      -0.01189470       0.02921810       0.28192529 </v>
   <v>      -0.74308738      -0.32947800       0.32853905 </v>
   <v>      -0.54146779      -0.03582367      -0.11078914 </v>
   <v>       0.00967504      -0.21391016      -0.37807548 </v>
   <v>       0.78716799       0.56614457       0.92689740 </v>
   <v>      -0.27662024       0.22787817      -0.25126625 </v>
   <v>       0.15938121      -0.30150363      -0.72485161 </v>
   <v>       0.28965742      -0.74065762       0.33455836 </v>
   <v>      -0.24553272       0.82535496       0.11074181 </v>
   <v>      -0.22344467      -0.43735191      -0.19571210 </v>
   <v>       0.03787975       0.67735635       0.04746010 </v>
   <v>      -0.25895143      -0.76311903      -0.05358171 </v>
[...]
       <r>    8.6192    0.0000 </r>
       <r>    8.6730    0.0000 </r>
       <r>    8.7142    0.0000 </r>
       <r>    8.7564    0.0000 </r>
       <r>    8.8066    0.0000 </r>
       <r>    8.9141    0.0000 </r>
       <r>    9.0844    0.0000 </r>
       <r>    9.8091    0.0000 </r>
       <r>   10.0513    0.0000 </r>
       <r>   10.1641    0.0000 </r>
       <r>   10.1840    0.0000 </r>
      </set>
     </set>
    </set>
   </array>
  </eigenvalues>
  <separator name="orbital magnetization" >
   <v name="MAGDIPOLOUT">      0.00000000      0.00000000      0.00000000</v>
  </separator>
  <dos>
   <i name="efermi">      4.08471893 </i>
   <total>
    <array>
     <dimension dim="1">gridpoints</dimension>
     <dimension dim="2">spin</dimension>
     <field>energy</field>
     <field>total</field>
     <field>integrated</field>
     <set>
      <set comment="spin 1">
       <r>   -42.7548     0.0000     0.0000 </r>
       <r>   -42.5698     0.0000     0.0000 </r>
       <r>   -42.3849     0.0000     0.0000 </r>
       <r>   -42.1999     0.0000     0.0000 </r>
       <r>   -42.0150     0.0000     0.0000 </r>
       <r>   -41.8300     0.0000     0.0000 </r>
       <r>   -41.6451     0.0000     0.0000 </r>
       <r>   -41.4601     0.0000     0.0000 </r>
       <r>   -41.2752     0.0000     0.0000 </r>
       <r>   -41.0902     0.0000     0.0000 </r>
       <r>   -40.9053     0.0000     0.0000 </r>
       <r>   -40.7203     0.0000     0.0000 </r>
       <r>   -40.5354     0.0000     0.0000 </r>
       <r>   -40.3504     0.0000     0.0000 </r>
       <r>   -40.1654     0.0000     2.0000 </r>
       <r>   -39.9805     0.0000     4.0000 </r>
       <r>   -39.7955     0.0000     4.0000 </r>
       <r>   -39.6106     0.0000     6.0000 </r>
       <r>   -39.4256     0.0000     8.0000 </r>
       <r>   -39.2407     0.0000     8.0000 </r>
       <r>   -39.0557     0.0000     8.0000 </r>
       <r>   -38.8708     0.0000     8.0000 </r>
       <r>   -38.6858     0.0000     8.0000 </r>
       <r>   -38.5009     0.0000     8.0000 </r>
       <r>   -38.3159     0.0000     8.0000 </r>
       <r>   -38.1310     0.0000     8.0000 </r>
       <r>   -37.9460     0.0000     8.0000 </r>
       <r>   -37.7611     0.0000     8.0000 </r>
       <r>   -37.5761     0.0000     8.0000 </r>
       <r>   -37.3911     0.0000     8.0000 </r>
       <r>   -37.2062     0.0000     8.0000 </r>
       <r>   -37.0212     0.0000     8.0000 </r>
       <r>   -36.8363     0.0000     8.0000 </r>
       <r>   -36.6513     0.0000     8.0000 </r>
       <r>   -36.4664     0.0000     8.0000 </r>
       <r>   -36.2814     0.0000     8.0000 </r>
       <r>   -36.0965     0.0000     8.0000 </r>
       <r>   -35.9115     0.0000     8.0000 </r>
       <r>   -35.7266     0.0000     8.0000 </r>
       <r>   -35.5416     0.0000     8.0000 </r>
       <r>   -35.3567     0.0000     8.0000 </r>
       <r>   -35.1717     0.0000     8.0000 </r>
       <r>   -34.9867     0.0000     8.0000 </r>
       <r>   -34.8018     0.0000     8.0000 </r>
       <r>   -34.6168     0.0000     8.0000 </r>
       <r>   -34.4319     0.0000     8.0000 </r>
       <r>   -34.2469     0.0000     8.0000 </r>
       <r>   -34.0620     0.0000     8.0000 </r>
       <r>   -33.8770     0.0000     8.0000 </r>
       <r>   -33.6921     0.0000     8.0000 </r>
       <r>   -33.5071     0.0000     8.0000 </r>
       <r>   -33.3222     0.0000     8.0000 </r>
       <r>   -33.1372     0.0000     8.0000 </r>
       <r>   -32.9523     0.0000     8.0000 </r>
       <r>   -32.7673     0.0000     8.0000 </r>
       <r>   -32.5823     0.0000     8.0000 </r>
       <r>   -32.3974     0.0000     8.0000 </r>
       <r>   -32.2124     0.0000     8.0000 </r>
       <r>   -32.0275     0.0000     8.0000 </r>
       <r>   -31.8425     0.0000     8.0000 </r>
       <r>   -31.6576     0.0000     8.0000 </r>
       <r>   -31.4726     0.0000     8.0000 </r>
       <r>   -31.2877     0.0000     8.0000 </r>
       <r>   -31.1027     0.0000     8.0000 </r>
       <r>   -30.9178     0.0000     8.0000 </r>
       <r>   -30.7328     0.0000     8.0000 </r>
       <r>   -30.5479     0.0000     8.0000 </r>
       <r>   -30.3629     0.0000     8.0000 </r>
       <r>   -30.1780     0.0000     8.0000 </r>
       <r>   -29.9930     0.0000     8.0000 </r>
       <r>   -29.8080     0.0000     8.0000 </r>
       <r>   -29.6231     0.0000     8.0000 </r>
       <r>   -29.4381     0.0000     8.0000 </r>
       <r>   -29.2532     0.0000     8.0000 </r>
       <r>   -29.0682     0.0000     8.0000 </r>
       <r>   -28.8833     0.0000     8.0000 </r>
       <r>   -28.6983     0.0000     8.0000 </r>
       <r>   -28.5134     0.0000     8.0000 </r>
       <r>   -28.3284     0.0000     8.0000 </r>
       <r>   -28.1435     0.0000     8.0000 </r>
       <r>   -27.9585     0.0000     8.0000 </r>
       <r>   -27.7736     0.0000     8.0000 </r>
       <r>   -27.5886     0.0000     8.0000 </r>
       <r>   -27.4036     0.0000     8.0000 </r>
       <r>   -27.2187     0.0000     8.0000 </r>
       <r>   -27.0337     0.0000     8.0000 </r>
       <r>   -26.8488     0.0000     8.0000 </r>
       <r>   -26.6638     0.0000     8.0000 </r>
       <r>   -26.4789     0.0000     8.0000 </r>
       <r>   -26.2939     0.0000     8.0000 </r>
       <r>   -26.1090     0.0000     8.0000 </r>
       <r>   -25.9240     0.0000     8.0000 </r>
       <r>   -25.7391     0.0000     8.0000 </r>
       <r>   -25.5541     0.0000     8.0000 </r>
       <r>   -25.3692     0.0000     8.0000 </r>
       <r>   -25.1842     0.0000     8.0000 </r>
       <r>   -24.9992     0.0000     8.0000 </r>
       <r>   -24.8143     0.0000     8.0000 </r>
       <r>   -24.6293     0.0000     8.0000 </r>
       <r>   -24.4444     0.0000     8.0000 </r>
       <r>   -24.2594     0.0000     8.0000 </r>
       <r>   -24.0745     0.0000     8.0000 </r>
       <r>   -23.8895     0.0000     8.0000 </r>
       <r>   -23.7046     0.0000     8.0000 </r>
       <r>   -23.5196     0.0000     8.0000 </r>
       <r>   -23.3347     0.0000     8.0000 </r>
       <r>   -23.1497     0.0000     8.0000 </r>
       <r>   -22.9648     0.0000     8.0000 </r>
       <r>   -22.7798     0.0000     8.0000 </r>
       <r>   -22.5948     0.0000     8.0000 </r>
       <r>   -22.4099     0.0000     8.0000 </r>
       <r>   -22.2249     0.0000     8.0000 </r>
       <r>   -22.0400     0.0000     8.0000 </r>
       <r>   -21.8550     0.0000     8.0000 </r>
       <r>   -21.6701     0.0000     8.0000 </r>
       <r>   -21.4851     0.0000     8.0000 </r>
       <r>   -21.3002     0.0000     8.0000 </r>
       <r>   -21.1152     0.0000     8.0000 </r>
       <r>   -20.9303     0.0000     8.0000 </r>
       <r>   -20.7453     0.0000     8.0000 </r>
       <r>   -20.5604     0.0000     8.0000 </r>
       <r>   -20.3754     0.0000     8.0000 </r>
       <r>   -20.1905     0.0000     8.0000 </r>
       <r>   -20.0055     0.0000     8.0000 </r>
       <r>   -19.8205     0.0000     8.0000 </r>
       <r>   -19.6356     0.0000     8.0000 </r>
       <r>   -19.4506     0.0000     8.0000 </r>
       <r>   -19.2657     0.0000     8.0000 </r>
       <r>   -19.0807     0.0000     8.0000 </r>
       <r>   -18.8958     0.0000    32.0000 </r>
       <r>   -18.7108     0.0000   120.0000 </r>
       <r>   -18.5259     0.0000   160.0000 </r>
       <r>   -18.3409     0.0000   168.0000 </r>
       <r>   -18.1560     0.0000   168.0000 </r>
       <r>   -17.9710     0.0000   168.0000 </r>
       <r>   -17.7861     0.0000   168.0000 </r>
       <r>   -17.6011     0.0000   168.0000 </r>
       <r>   -17.4161     0.0000   168.0000 </r>
       <r>   -17.2312     0.0000   168.0000 </r>
       <r>   -17.0462     0.0000   168.0000 </r>
       <r>   -16.8613     0.0000   168.0000 </r>
       <r>   -16.6763     0.0000   168.0000 </r>
       <r>   -16.4914     0.0000   168.0000 </r>
       <r>   -16.3064     0.0000   168.0000 </r>
       <r>   -16.1215     0.0000   168.0000 </r>
       <r>   -15.9365     0.0000   168.0000 </r>
       <r>   -15.7516     0.0000   168.0000 </r>
       <r>   -15.5666     0.0000   168.0000 </r>
       <r>   -15.3817     0.0000   168.0000 </r>
       <r>   -15.1967     0.0000   168.0000 </r>
       <r>   -15.0117     0.0000   168.0000 </r>
       <r>   -14.8268     0.0000   168.0000 </r>
       <r>   -14.6418     0.0000   168.0000 </r>
       <r>   -14.4569     0.0000   168.0000 </r>
       <r>   -14.2719     0.0000   168.0000 </r>
       <r>   -14.0870     0.0000   168.0000 </r>
       <r>   -13.9020     0.0000   168.0000 </r>
       <r>   -13.7171     0.0000   168.0000 </r>
       <r>   -13.5321     0.0000   168.0000 </r>
       <r>   -13.3472     0.0000   170.0000 </r>
       <r>   -13.1622     0.0000   174.0000 </r>
       <r>   -12.9773     0.0000   184.0000 </r>
       <r>   -12.7923     0.0000   192.0000 </r>
       <r>   -12.6074     0.0000   198.0000 </r>
       <r>   -12.4224     0.0000   200.0000 </r>
       <r>   -12.2374     0.0000   200.0000 </r>
       <r>   -12.0525     0.0000   200.0000 </r>
       <r>   -11.8675     0.0000   200.0000 </r>
       <r>   -11.6826     0.0000   200.0000 </r>
       <r>   -11.4976     0.0000   200.0000 </r>
       <r>   -11.3127     0.0000   200.0000 </r>
       <r>   -11.1277     0.0000   200.0000 </r>
       <r>   -10.9428     0.0000   200.0000 </r>
       <r>   -10.7578     0.0000   200.0000 </r>
       <r>   -10.5729     0.0000   200.0000 </r>
       <r>   -10.3879     0.0000   200.0000 </r>
       <r>   -10.2030     0.0000   200.0000 </r>
       <r>   -10.0180     0.0000   200.0000 </r>
       <r>    -9.8330     0.0000   200.0000 </r>
       <r>    -9.6481     0.0000   200.0000 </r>
       <r>    -9.4631    11.2819   200.6773 </r>
       <r>    -9.2782    10.6695   202.2858 </r>
       <r>    -9.0932     2.8458   203.9811 </r>
       <r>    -8.9083    26.7180   206.0386 </r>
       <r>    -8.7233    11.5221   208.1663 </r>
       <r>    -8.5384    23.4532   213.3418 </r>
       <r>    -8.3534     1.4998   215.9872 </r>
       <r>    -8.1685    37.8735   219.8734 </r>
       <r>    -7.9835    25.3816   225.7928 </r>
       <r>    -7.7986    14.5021   228.4096 </r>
       <r>    -7.6136     5.1155   231.9356 </r>
       <r>    -7.4286     0.0000   232.0000 </r>
       <r>    -7.2437     0.0000   232.0000 </r>
       <r>    -7.0587     0.0000   232.0000 </r>
       <r>    -6.8738     0.0000   232.0000 </r>
       <r>    -6.6888     0.0000   232.0000 </r>
       <r>    -6.5039     2.4795   232.0553 </r>
       <r>    -6.3189    27.9023   234.6084 </r>
       <r>    -6.1340    17.1534   239.4804 </r>
       <r>    -5.9490    24.0809   241.9009 </r>
       <r>    -5.7641    19.7418   247.3629 </r>
       <r>    -5.5791    27.3190   251.6823 </r>
       <r>    -5.3942    12.9668   254.9739 </r>
       <r>    -5.2092     1.6474   256.0379 </r>
       <r>    -5.0242    13.1303   257.4372 </r>
       <r>    -4.8393     8.7301   259.7911 </r>
       <r>    -4.6543     4.9462   260.6572 </r>
       <r>    -4.4694     9.1003   261.9111 </r>
       <r>    -4.2844     3.5379   263.3628 </r>
       <r>    -4.0995     1.6861   263.8182 </r>
       <r>    -3.9145     0.2481   263.9925 </r>
       <r>    -3.7296     0.0000   264.0000 </r>
       <r>    -3.5446     0.0000   264.0000 </r>
       <r>    -3.3597     0.0000   264.0000 </r>
       <r>    -3.1747     0.0000   264.0000 </r>
       <r>    -2.9898     0.0000   264.0000 </r>
       <r>    -2.8048     0.0000   264.0000 </r>
       <r>    -2.6199     0.0000   264.0000 </r>
       <r>    -2.4349     0.0000   264.0000 </r>
       <r>    -2.2499     0.0000   264.0000 </r>
       <r>    -2.0650     0.0000   264.0000 </r>
       <r>    -1.8800     0.0000   264.0000 </r>
       <r>    -1.6951     0.0000   264.0000 </r>
       <r>    -1.5101     0.0000   264.0000 </r>
       <r>    -1.3252     9.3220   264.7584 </r>
       <r>    -1.1402     6.4675   266.2431 </r>
       <r>    -0.9553    13.4380   267.8321 </r>
       <r>    -0.7703    11.8753   270.2118 </r>
       <r>    -0.5854    20.5973   272.5928 </r>
       <r>    -0.4004    28.4725   277.5862 </r>
       <r>    -0.2155    46.9673   284.0967 </r>
       <r>    -0.0305    40.1258   291.0804 </r>
       <r>     0.1545    43.3680   298.3433 </r>
       <r>     0.3394    26.6568   305.5430 </r>
       <r>     0.5244    32.9664   311.7572 </r>
       <r>     0.7093    47.1670   319.6477 </r>
       <r>     0.8943    37.5927   327.0394 </r>
       <r>     1.0792    56.5157   335.9727 </r>
       <r>     1.2642    48.6505   344.8232 </r>
       <r>     1.4491    33.5994   352.4170 </r>
       <r>     1.6341    45.2475   359.8434 </r>
       <r>     1.8190    46.2786   368.3406 </r>
       <r>     2.0040    51.5977   377.0893 </r>
       <r>     2.1889    56.1474   386.2190 </r>
       <r>     2.3739    62.8266   397.9503 </r>
       <r>     2.5589    64.9896   408.8775 </r>
       <r>     2.7438    63.5005   421.0331 </r>
       <r>     2.9288    49.5553   433.3743 </r>
       <r>     3.1137    34.4671   440.1494 </r>
       <r>     3.2987    39.2726   447.0990 </r>
       <r>     3.4836    17.8809   451.6888 </r>
       <r>     3.6686    10.8756   454.4263 </r>
       <r>     3.8535     3.6560   455.7684 </r>
       <r>     4.0385     0.0000   456.0000 </r>
       <r>     4.2234     0.0000   456.0000 </r>
       <r>     4.4084     0.0000   456.0000 </r>
       <r>     4.5933     0.0000   456.0000 </r>
       <r>     4.7783     0.0000   456.0000 </r>
       <r>     4.9632     0.0000   456.0000 </r>
       <r>     5.1482     4.1982   456.2822 </r>
       <r>     5.3332     9.9632   457.6430 </r>
       <r>     5.5181     9.6700   459.5586 </r>
       <r>     5.7031    17.8416   462.7077 </r>
       <r>     5.8880    14.5383   466.1732 </r>
       <r>     6.0730    13.3778   468.7197 </r>
       <r>     6.2579    14.0597   471.2269 </r>
       <r>     6.4429    15.8683   473.9916 </r>
       <r>     6.6278    17.9118   477.0982 </r>
       <r>     6.8128    21.5817   480.7274 </r>
       <r>     6.9977    25.3166   485.0570 </r>
       <r>     7.1827    28.2688   490.0880 </r>
       <r>     7.3676    30.4084   495.9784 </r>
       <r>     7.5526    34.6499   502.2519 </r>
       <r>     7.7376    30.6680   507.9756 </r>
       <r>     7.9225    35.4071   514.2766 </r>
       <r>     8.1075    29.7764   520.5216 </r>
       <r>     8.2924    23.1239   525.0199 </r>
       <r>     8.4774    30.8455   530.0917 </r>
       <r>     8.6623    32.4258   535.7356 </r>
       <r>     8.8473    33.2415   542.0271 </r>
       <r>     9.0322    20.5958   546.9838 </r>
       <r>     9.2172    11.5666   550.0575 </r>
       <r>     9.4021    11.5616   551.8751 </r>
       <r>     9.5871    10.0011   553.4199 </r>
       <r>     9.7720    10.1585   555.3743 </r>
       <r>     9.9570    12.7161   557.1945 </r>
       <r>    10.1420     8.2954   559.6802 </r>
       <r>    10.3269     0.0000   560.0000 </r>
       <r>    10.5119     0.0000   560.0000 </r>
       <r>    10.6968     0.0000   560.0000 </r>
       <r>    10.8818     0.0000   560.0000 </r>
       <r>    11.0667     0.0000   560.0000 </r>
       <r>    11.2517     0.0000   560.0000 </r>
       <r>    11.4366     0.0000   560.0000 </r>
       <r>    11.6216     0.0000   560.0000 </r>
       <r>    11.8065     0.0000   560.0000 </r>
       <r>    11.9915     0.0000   560.0000 </r>
       <r>    12.1764     0.0000   560.0000 </r>
       <r>    12.3614     0.0000   560.0000 </r>
       <r>    12.5463     0.0000   560.0000 </r>
       <r>    12.7313     0.0000   560.0000 </r>
      </set>
     </set>
    </array>
   </total>
  </dos>
 </calculation>
 <structure name="finalpos" >
  <crystal>
   <varray name="basis" >
    <v>      11.22749071       0.09476374       0.03369813 </v>
    <v>       0.07882726       9.64846273       0.09715012 </v>
    <v>       0.03351143       0.11506744      11.21564774 </v>
   </varray>
   <i name="volume">   1214.74940410 </i>
   <varray name="rec_basis" >
    <v>       0.08907399      -0.00072512      -0.00025871 </v>
    <v>      -0.00087175       0.10366126      -0.00106091 </v>
    <v>      -0.00026008      -0.00089574       0.08917111 </v>
   </varray>
  </crystal>
  <varray name="positions" >
   <v>       0.51454223       0.02399868       0.41682419 </v>
   <v>       0.15258446      -0.01327673       0.92882247 </v>
   <v>       0.38137068      -0.00412462       0.69513811 </v>
   <v>       0.63064337       0.01359925       0.96343411 </v>
   <v>       0.11822738      -0.00464117       0.20605069 </v>
   <v>       0.37850371      -0.00201833       0.16724510 </v>
   <v>       0.88656885      -0.00138180       0.45584816 </v>
   <v>       0.85819463       0.01093737       0.18166005 </v>
   <v>       0.12299792       0.00257505       0.67826871 </v>
   <v>       0.64072494      -0.00215334       0.68035735 </v>
   <v>      -0.00135743       0.31199328       0.06701179 </v>
   <v>       0.24862978       0.68785254       0.06381620 </v>
   <v>       0.25445905       0.30650433       0.30734934 </v>
   <v>       0.49519734       0.69456818       0.30578346 </v>
   <v>       0.49746058       0.30313378       0.05974154 </v>
   <v>       0.74867229       0.70709291       0.06277377 </v>
   <v>       0.75505017       0.31467622       0.31810268 </v>
   <v>      -0.00364129       0.68142268       0.31254199 </v>
   <v>       0.00285019       0.30861697       0.56671244 </v>
   <v>       0.25614174       0.70074461       0.56789775 </v>
   <v>       0.24934998       0.30178305       0.80878716 </v>
   <v>       0.50438998       0.69081779       0.80456382 </v>
   <v>       0.50190686       0.30899849       0.56707604 </v>
   <v>       0.75276319       0.69335154       0.56557558 </v>
   <v>       0.74643243       0.29676102       0.81624090 </v>
   <v>       0.00844140       0.69869931       0.81351189 </v>
   <v>       0.25344859       0.36052774       0.06576509 </v>
   <v>      -0.00242187       0.65212150       0.06145088 </v>
   <v>       0.50562882       0.29302836       0.31799215 </v>
   <v>       0.24802580       0.64741795       0.30444080 </v>
   <v>       0.75541184       0.32703948       0.06916772 </v>
   <v>       0.49693148       0.66915793       0.05865870 </v>
   <v>       0.00544871       0.36325463       0.31540294 </v>
   <v>       0.74984574       0.65475411       0.30824192 </v>
   <v>       0.25330375       0.34080507       0.56488151 </v>
   <v>      -0.00100945       0.66794598       0.55797486 </v>
   <v>       0.50408298       0.35642127       0.81459863 </v>
   <v>       0.24846857       0.63192580       0.80611258 </v>
   <v>       0.75548152       0.34785859       0.56659591 </v>
   <v>       0.50096991       0.64843302       0.55463811 </v>
   <v>       0.00476264       0.33671284       0.81419310 </v>
   <v>       0.74844463       0.65608906       0.80852638 </v>
   <v>       0.48789028       0.09189884       0.05397662 </v>
   <v>       0.23313830       0.90848551       0.08554383 </v>
   <v>       0.25247762       0.09666168       0.26803656 </v>
   <v>      -0.01955470       0.90879963       0.30246511 </v>
   <v>       0.00198683       0.09684573       0.10317062 </v>
   <v>       0.75009366       0.91831137       0.07361792 </v>
   <v>       0.79730544       0.10291345       0.32750151 </v>
   <v>       0.47324103       0.90490725       0.29617086 </v>
   <v>       0.51598770       0.09298121       0.57807245 </v>
   <v>       0.25641373       0.90768962       0.59737003 </v>
   <v>       0.23702210       0.08844630       0.79465209 </v>
   <v>       0.04733491       0.90370902       0.81426037 </v>
   <v>       0.00506632       0.09047424       0.56151119 </v>
   <v>       0.75683245       0.91203406       0.56054982 </v>
   <v>       0.71059739       0.09096706       0.81668475 </v>
   <v>       0.51545883       0.90057067       0.77549970 </v>
  </varray>
 </structure>
</modeling>
