<?xml version="1.0" encoding="ISO-8859-1"?>
<modeling>
 <generator>
  <i name="program" type="string">vasp </i>
  <i name="version" type="string">5.4.4.18Apr17-6-g9f103f2a35  </i>
  <i name="subversion" type="string">(build Jul 31 2017 11:33:29) complex            parallel </i>
  <i name="platform" type="string">LinuxIFC </i>
  <i name="date" type="string">2021 09 23 </i>
  <i name="time" type="string">19:33:12 </i>
 </generator>
 <incar>
  <i type="string" name="SYSTEM"> La2O2S</i>
  <i type="string" name="PREC">normal</i>
  <i type="int" name="NELMIN">     4</i>
  <i type="int" name="IBRION">     2</i>
  <i type="int" name="NFREE">    10</i>
  <i name="EDIFF">      0.00000100</i>
  <i name="EDIFFG">     -0.01000000</i>
  <i type="int" name="NSW">   200</i>
  <i type="int" name="ISIF">     3</i>
  <i name="ENCUT">    600.00000000</i>
  <i name="ENAUG">    900.00000000</i>
  <i type="int" name="ISMEAR">    -5</i>
  <i type="logical" name="LWAVE"> F  </i>
  <i type="logical" name="LCHARG"> F  </i>
  <v type="int" name="KPOINT_BSE">    -1     0     0     0</v>
 </incar>
 <structure name="primitive_cell" >
  <crystal>
   <varray name="basis" >
    <v>      11.17850000       0.00000000       0.00000000 </v>
    <v>       0.00000000       9.57460000       0.00000000 </v>
    <v>       0.00000000       0.00000000      11.18240000 </v>
   </varray>
   <i name="volume">   1196.84853820 </i>
   <varray name="rec_basis" >
    <v>       0.08945744       0.00000000       0.00000000 </v>
    <v>       0.00000000       0.10444301       0.00000000 </v>
    <v>       0.00000000       0.00000000       0.08942624 </v>
   </varray>
  </crystal>
  <varray name="positions" >
   <v>       0.37539000       0.00017000       0.43687000 </v>
   <v>      -0.49987000      -0.07798000       0.31246000 </v>
   <v>       0.25013000       0.07798000       0.31246000 </v>
   <v>       0.49987000       0.07798000      -0.43754000 </v>
   <v>       0.24987000      -0.07798000      -0.43754000 </v>
   <v>       0.37461000       0.00017000       0.18687000 </v>
   <v>       0.37461000       0.00017000      -0.31313000 </v>
   <v>       0.49987000      -0.29519000       0.31282000 </v>
   <v>       0.24987000       0.29519000       0.31282000 </v>
   <v>      -0.49987000       0.29519000      -0.43719000 </v>
   <v>       0.25013000      -0.29519000      -0.43719000 </v>
   <v>       0.49995000       0.32677000       0.31286000 </v>
   <v>       0.24995000      -0.32677000       0.31286000 </v>
   <v>      -0.49995000      -0.32677000      -0.43714000 </v>
   <v>       0.25005000       0.32677000      -0.43714000 </v>
   <v>      -0.37539000      -0.00016000       0.18687000 </v>
   <v>      -0.37539000      -0.00016000      -0.31313000 </v>
   <v>       0.12461000      -0.00016000       0.18687000 </v>
   <v>       0.12461000      -0.00016000      -0.31313000 </v>
   <v>       0.49987000       0.07798000       0.06246000 </v>
   <v>      -0.24987000       0.07798000       0.31246000 </v>
   <v>      -0.25013000      -0.07798000      -0.43754000 </v>
   <v>       0.24987000      -0.07798000       0.06246000 </v>
   <v>       0.00013000      -0.07798000       0.31246000 </v>
   <v>      -0.49987000      -0.07798000      -0.18754000 </v>
   <v>      -0.00013000       0.07798000      -0.43754000 </v>
   <v>       0.25013000       0.07798000      -0.18754000 </v>
   <v>      -0.49987000       0.29519000       0.06281000 </v>
   <v>      -0.25013000       0.29519000       0.31282000 </v>
   <v>       0.25013000      -0.29519000       0.06281000 </v>
   <v>      -0.24987000      -0.29519000      -0.43719000 </v>
   <v>      -0.00013000      -0.29519000       0.31282000 </v>
   <v>       0.00013000       0.29519000      -0.43719000 </v>
   <v>       0.49987000      -0.29519000      -0.18718000 </v>
   <v>       0.24987000       0.29519000      -0.18718000 </v>
   <v>      -0.49995000      -0.32677000       0.06286000 </v>
   <v>       0.25005000       0.32677000       0.06286000 </v>
   <v>      -0.25005000      -0.32677000       0.31286000 </v>
   <v>      -0.24995000       0.32677000      -0.43714000 </v>
   <v>      -0.00005000       0.32677000       0.31286000 </v>
   <v>       0.00005000      -0.32677000      -0.43714000 </v>
   <v>       0.49995000       0.32677000      -0.18714000 </v>
   <v>       0.24995000      -0.32677000      -0.18714000 </v>
   <v>      -0.12461000       0.00017000       0.43687000 </v>
   <v>       0.37539000       0.00017000      -0.06313000 </v>
   <v>      -0.25013000      -0.07798000       0.06246000 </v>
   <v>      -0.00013000       0.07798000       0.06246000 </v>
   <v>      -0.24987000       0.07798000      -0.18754000 </v>
   <v>       0.00013000      -0.07798000      -0.18754000 </v>
   <v>      -0.12539000       0.00017000       0.18687000 </v>
   <v>      -0.12539000       0.00017000      -0.31313000 </v>
   <v>       0.12539000      -0.00016000      -0.06313000 </v>
   <v>      -0.24987000      -0.29519000       0.06281000 </v>
   <v>       0.00013000       0.29519000       0.06281000 </v>
   <v>      -0.25013000       0.29519000      -0.18718000 </v>
   <v>      -0.00013000      -0.29519000      -0.18718000 </v>
   <v>      -0.24995000       0.32677000       0.06286000 </v>
   <v>       0.00005000      -0.32677000       0.06286000 </v>
   <v>      -0.25005000      -0.32677000      -0.18714000 </v>
   <v>      -0.00005000       0.32677000      -0.18714000 </v>
   <v>      -0.12461000       0.00017000      -0.06313000 </v>
  </varray>
 </structure>
 <varray name="primitive_index" >
  <v type="int" >        1 </v>
  <v type="int" >       53 </v>
  <v type="int" >       48 </v>
  <v type="int" >       54 </v>
  <v type="int" >       55 </v>
  <v type="int" >        3 </v>
  <v type="int" >        7 </v>
  <v type="int" >       17 </v>
  <v type="int" >       16 </v>
  <v type="int" >       26 </v>
  <v type="int" >       23 </v>
  <v type="int" >       32 </v>
  <v type="int" >       33 </v>
  <v type="int" >       43 </v>
  <v type="int" >       38 </v>
  <v type="int" >        4 </v>
  <v type="int" >        9 </v>
  <v type="int" >        2 </v>
  <v type="int" >        6 </v>
  <v type="int" >       46 </v>
  <v type="int" >       52 </v>
  <v type="int" >       59 </v>
  <v type="int" >       47 </v>
  <v type="int" >       49 </v>
  <v type="int" >       61 </v>
  <v type="int" >       58 </v>
  <v type="int" >       56 </v>
  <v type="int" >       18 </v>
  <v type="int" >       20 </v>
  <v type="int" >       15 </v>
  <v type="int" >       27 </v>
  <v type="int" >       21 </v>
  <v type="int" >       22 </v>
  <v type="int" >       25 </v>
  <v type="int" >       24 </v>
  <v type="int" >       35 </v>
  <v type="int" >       30 </v>
  <v type="int" >       37 </v>
  <v type="int" >       42 </v>
  <v type="int" >       36 </v>
  <v type="int" >       39 </v>
  <v type="int" >       40 </v>
  <v type="int" >       41 </v>
  <v type="int" >       11 </v>
  <v type="int" >       13 </v>
  <v type="int" >       51 </v>
  <v type="int" >       50 </v>
  <v type="int" >       60 </v>
  <v type="int" >       57 </v>
  <v type="int" >        5 </v>
  <v type="int" >       10 </v>
  <v type="int" >       12 </v>
  <v type="int" >       19 </v>
  <v type="int" >       14 </v>
  <v type="int" >       28 </v>
  <v type="int" >       29 </v>
  <v type="int" >       34 </v>
  <v type="int" >       31 </v>
  <v type="int" >       45 </v>
  <v type="int" >       44 </v>
  <v type="int" >        8 </v>
 </varray>
 <kpoints>
  <generation param="Gamma">
   <v type="int" name="divisions">       2        2        2 </v>
   <v name="usershift">      0.00000000       0.00000000       0.00000000 </v>
   <v name="genvec1">      0.50000000       0.00000000       0.00000000 </v>
   <v name="genvec2">      0.00000000       0.50000000       0.00000000 </v>
   <v name="genvec3">      0.00000000       0.00000000       0.50000000 </v>
   <v name="shift">      0.00000000       0.00000000       0.00000000 </v>
  </generation>
  <varray name="kpointlist" >
   <v>       0.00000000       0.00000000       0.00000000 </v>
   <v>       0.50000000       0.00000000       0.00000000 </v>
   <v>       0.00000000       0.50000000       0.00000000 </v>
   <v>       0.50000000       0.50000000       0.00000000 </v>
   <v>       0.00000000       0.00000000       0.50000000 </v>
   <v>       0.50000000       0.00000000       0.50000000 </v>
   <v>       0.00000000       0.50000000       0.50000000 </v>
   <v>       0.50000000       0.50000000       0.50000000 </v>
  </varray>
  <varray name="weights" >
   <v>       0.12500000 </v>
   <v>       0.12500000 </v>
   <v>       0.12500000 </v>
   <v>       0.12500000 </v>
   <v>       0.12500000 </v>
   <v>       0.12500000 </v>
   <v>       0.12500000 </v>
   <v>       0.12500000 </v>
  </varray>
  <varray name="tetrahedronlist"  type="int" >
   <v type="int" >        2        1        2        4        5 </v>
   <v type="int" >        2        1        3        4        5 </v>
   <v type="int" >        2        3        4        5        7 </v>
   <v type="int" >        2        2        4        5        6 </v>
   <v type="int" >        2        4        5        6        8 </v>
   <v type="int" >        2        4        5        7        8 </v>
   <v type="int" >        2        1        2        3        6 </v>
   <v type="int" >        2        2        3        4        6 </v>
   <v type="int" >        2        3        4        6        8 </v>
   <v type="int" >        2        1        3        5        6 </v>
   <v type="int" >        2        3        5        6        7 </v>
   <v type="int" >        2        3        6        7        8 </v>
   <v type="int" >        2        2        3        4        7 </v>
   <v type="int" >        2        1        2        3        7 </v>
   <v type="int" >        2        1        2        5        7 </v>
   <v type="int" >        2        2        4        7        8 </v>
   <v type="int" >        2        2        6        7        8 </v>
   <v type="int" >        2        2        5        6        7 </v>
   <v type="int" >        2        1        3        4        8 </v>
   <v type="int" >        2        1        2        4        8 </v>
   <v type="int" >        2        1        2        6        8 </v>
   <v type="int" >        2        1        3        7        8 </v>
   <v type="int" >        2        1        5        7        8 </v>
   <v type="int" >        2        1        5        6        8 </v>
  </varray>
  <i name="volumeweight">      0.02083333 </i>
 </kpoints>
 <parameters>
  <separator name="general" >
   <i type="string" name="SYSTEM">La2O2S</i>
   <i type="logical" name="LCOMPAT"> F  </i>
  </separator>
  <separator name="electronic" >
   <i type="string" name="PREC">normal</i>
   <i name="ENMAX">    600.00000000</i>
   <i name="ENAUG">    900.00000000</i>
   <i name="EDIFF">      0.00000100</i>
   <i type="int" name="IALGO">    38</i>
   <i type="int" name="IWAVPR">    11</i>
   <i type="int" name="NBANDS">   280</i>
   <i name="NELECT">    468.00000000</i>
   <i type="int" name="TURBO">     0</i>
   <i type="int" name="IRESTART">     0</i>
   <i type="int" name="NREBOOT">     0</i>
   <i type="int" name="NMIN">     0</i>
   <i name="EREF">      0.00000000</i>
   <separator name="electronic smearing" >
    <i type="int" name="ISMEAR">    -5</i>
    <i name="SIGMA">      0.20000000</i>
    <i name="KSPACING">      0.50000000</i>
    <i type="logical" name="KGAMMA"> T  </i>
   </separator>
   <separator name="electronic projectors" >
    <i type="logical" name="LREAL"> F  </i>
    <v name="ROPT">      0.00000000      0.00000000      0.00000000      0.00000000      0.00000000</v>
    <i type="int" name="LMAXPAW">  -100</i>
    <i type="int" name="LMAXMIX">     2</i>
    <i type="logical" name="NLSPLINE"> F  </i>
   </separator>
   <separator name="electronic startup" >
    <i type="int" name="ISTART">     0</i>
    <i type="int" name="ICHARG">     2</i>
    <i type="int" name="INIWAV">     1</i>
   </separator>
   <separator name="electronic spin" >
    <i type="int" name="ISPIN">     1</i>
    <i type="logical" name="LNONCOLLINEAR"> F  </i>
    <v name="MAGMOM">      1.00000000      1.00000000      1.00000000      1.00000000      1.00000000      1.00000000      1.00000000      1.00000000      1.00000000      1.00000000      1.00000000      1.00000000      1.00000000      1.00000000      1.00000000      1.00000000      1.00000000      1.00000000      1.00000000      1.00000000
      1.00000000      1.00000000      1.00000000      1.00000000      1.00000000      1.00000000      1.00000000      1.00000000      1.00000000      1.00000000      1.00000000      1.00000000      1.00000000      1.00000000      1.00000000      1.00000000      1.00000000      1.00000000      1.00000000      1.00000000
      1.00000000      1.00000000      1.00000000      1.00000000      1.00000000      1.00000000      1.00000000      1.00000000      1.00000000      1.00000000      1.00000000      1.00000000      1.00000000      1.00000000      1.00000000      1.00000000      1.00000000      1.00000000      1.00000000      1.00000000
      1.00000000</v>
    <i name="NUPDOWN">     -1.00000000</i>
    <i type="logical" name="LSORBIT"> F  </i>
    <v name="SAXIS">      0.00000000      0.00000000      1.00000000</v>
    <i type="logical" name="LSPIRAL"> F  </i>
    <v name="QSPIRAL">      0.00000000      0.00000000      0.00000000</v>
    <i type="logical" name="LZEROZ"> F  </i>
   </separator>
   <separator name="electronic exchange-correlation" >
    <i type="logical" name="LASPH"> F  </i>
    <i type="logical" name="LMETAGGA"> F  </i>
   </separator>
   <separator name="electronic convergence" >
    <i type="int" name="NELM">    60</i>
    <i type="int" name="NELMDL">    -5</i>
    <i type="int" name="NELMIN">     4</i>
    <i name="ENINI">    600.00000000</i>
    <separator name="electronic convergence detail" >
     <i type="logical" name="LDIAG"> T  </i>
     <i type="logical" name="LSUBROT"> F  </i>
     <i name="WEIMIN">      0.00100000</i>
     <i name="EBREAK">      0.00000000</i>
     <i name="DEPER">      0.30000000</i>
     <i type="int" name="NRMM">     4</i>
     <i name="TIME">      0.40000000</i>
    </separator>
   </separator>
   <separator name="electronic mixer" >
    <i name="AMIX">      0.40000000</i>
    <i name="BMIX">      1.00000000</i>
    <i name="AMIN">      0.10000000</i>
    <i name="AMIX_MAG">      1.60000000</i>
    <i name="BMIX_MAG">      1.00000000</i>
    <separator name="electronic mixer details" >
     <i type="int" name="IMIX">     4</i>
     <i type="logical" name="MIXFIRST"> F  </i>
     <i type="int" name="MAXMIX">   -45</i>
     <i name="WC">    100.00000000</i>
     <i type="int" name="INIMIX">     1</i>
     <i type="int" name="MIXPRE">     1</i>
     <i type="int" name="MREMOVE">     5</i>
    </separator>
   </separator>
   <separator name="electronic dipolcorrection" >
    <i type="logical" name="LDIPOL"> F  </i>
    <i type="logical" name="LMONO"> F  </i>
    <i type="int" name="IDIPOL">     0</i>
    <i name="EPSILON">      1.00000000</i>
    <v name="DIPOL">   -100.00000000   -100.00000000   -100.00000000</v>
    <i name="EFIELD">      0.00000000</i>
   </separator>
  </separator>
  <separator name="grids" >
   <i type="int" name="NGX">    70</i>
   <i type="int" name="NGY">    60</i>
   <i type="int" name="NGZ">    70</i>
   <i type="int" name="NGXF">   140</i>
   <i type="int" name="NGYF">   120</i>
   <i type="int" name="NGZF">   140</i>
   <i type="logical" name="ADDGRID"> F  </i>
  </separator>
  <separator name="ionic" >
   <i type="int" name="NSW">   200</i>
   <i type="int" name="IBRION">     2</i>
   <i type="int" name="MDALGO">     0</i>
   <i type="int" name="ISIF">     3</i>
   <i name="PSTRESS">      0.00000000</i>
   <i name="EDIFFG">     -0.01000000</i>
   <i type="int" name="NFREE">    10</i>
   <i name="POTIM">      0.50000000</i>
   <i name="SMASS">     -3.00000000</i>
   <i name="SCALEE">      1.00000000</i>
  </separator>
  <separator name="ionic md" >
   <i name="TEBEG">      0.00010000</i>
   <i name="TEEND">      0.00010000</i>
   <i type="int" name="NBLOCK">     1</i>
   <i type="int" name="KBLOCK">   200</i>
   <i type="int" name="NPACO">   256</i>
   <i name="APACO">     16.00000000</i>
  </separator>
  <separator name="symmetry" >
   <i type="int" name="ISYM">     2</i>
   <i name="SYMPREC">      0.00001000</i>
  </separator>
  <separator name="dos" >
   <i type="int" name="LORBIT">     0</i>
   <v name="RWIGS">     -1.00000000     -1.00000000     -1.00000000     -1.00000000     -1.00000000</v>
   <i type="int" name="NEDOS">   301</i>
   <i name="EMIN">     10.00000000</i>
   <i name="EMAX">    -10.00000000</i>
   <i name="EFERMI">      0.00000000</i>
  </separator>
  <separator name="writing" >
   <i type="int" name="NWRITE">     2</i>
   <i type="logical" name="LWAVE"> F  </i>
   <i type="logical" name="LDOWNSAMPLE"> F  </i>
   <i type="logical" name="LCHARG"> F  </i>
   <i type="logical" name="LPARD"> F  </i>
   <i type="logical" name="LVTOT"> F  </i>
   <i type="logical" name="LVHAR"> F  </i>
   <i type="logical" name="LELF"> F  </i>
   <i type="logical" name="LOPTICS"> F  </i>
   <v name="STM">      0.00000000      0.00000000      0.00000000      0.00000000      0.00000000      0.00000000      0.00000000</v>
  </separator>
  <separator name="performance" >
   <i type="int" name="NPAR">    28</i>
   <i type="int" name="NSIM">     4</i>
   <i type="int" name="NBLK">    -1</i>
   <i type="logical" name="LPLANE"> T  </i>
   <i type="logical" name="LSCALAPACK"> T  </i>
   <i type="logical" name="LSCAAWARE"> F  </i>
   <i type="logical" name="LSCALU"> F  </i>
   <i type="logical" name="LASYNC"> F  </i>
   <i type="logical" name="LORBITALREAL"> F  </i>
  </separator>
  <separator name="miscellaneous" >
   <i type="int" name="IDIOT">     3</i>
   <i type="int" name="ISPECIAL">     0</i>
   <i type="logical" name="LMUSIC"> F  </i>
   <v name="POMASS">      7.01000000     24.30500000    208.98000000     32.06600000     16.00000000</v>
   <v name="DARWINR">      0.00000000      0.00000000      0.00000000      0.00000000      0.00000000</v>
   <v name="DARWINV">      1.00000000      1.00000000      1.00000000      1.00000000      1.00000000</v>
   <i type="logical" name="LCORR"> T  </i>
  </separator>
  <i type="logical" name="GGA_COMPAT"> T  </i>
  <i type="logical" name="LBERRY"> F  </i>
  <i type="int" name="ICORELEVEL">     0</i>
  <i type="logical" name="LDAU"> F  </i>
  <i type="int" name="I_CONSTRAINED_M">     0</i>
  <separator name="electronic exchange-correlation" >
   <i type="string" name="GGA">--</i>
   <i type="int" name="VOSKOWN">     0</i>
   <i type="logical" name="LHFCALC"> F  </i>
   <i type="string" name="PRECFOCK"></i>
   <i type="logical" name="LSYMGRAD"> F  </i>
   <i type="logical" name="LHFONE"> F  </i>
   <i type="logical" name="LRHFCALC"> F  </i>
   <i type="logical" name="LTHOMAS"> F  </i>
   <i type="logical" name="LMODELHF"> F  </i>
   <i name="ENCUT4O">     -1.00000000</i>
   <i type="int" name="EXXOEP">     0</i>
   <i type="int" name="FOURORBIT">     0</i>
   <i name="AEXX">      0.00000000</i>
   <i name="HFALPHA">      0.00000000</i>
   <i name="MCALPHA">      0.00000000</i>
   <i name="ALDAX">      1.00000000</i>
   <i name="AGGAX">      1.00000000</i>
   <i name="ALDAC">      1.00000000</i>
   <i name="AGGAC">      1.00000000</i>
   <i type="int" name="NKREDX">     1</i>
   <i type="int" name="NKREDY">     1</i>
   <i type="int" name="NKREDZ">     1</i>
   <i type="logical" name="SHIFTRED"> F  </i>
   <i type="logical" name="ODDONLY"> F  </i>
   <i type="logical" name="EVENONLY"> F  </i>
   <i type="int" name="LMAXFOCK">     0</i>
   <i type="int" name="NMAXFOCKAE">     0</i>
   <i type="logical" name="LFOCKAEDFT"> F  </i>
   <i name="HFSCREEN">      0.00000000</i>
   <i name="HFSCREENC">      0.00000000</i>
   <i type="int" name="NBANDSGWLOW">     0</i>
  </separator>
  <separator name="vdW DFT" >
   <i type="logical" name="LUSE_VDW"> F  </i>
   <i name="Zab_VDW">     -0.84910000</i>
   <i name="PARAM1">      0.12340000</i>
   <i name="PARAM2">      1.00000000</i>
   <i name="PARAM3">      0.00000000</i>
  </separator>
  <separator name="model GW" >
   <i type="int" name="MODEL_GW">     0</i>
   <i name="MODEL_EPS0">     11.77228070</i>
   <i name="MODEL_ALPHA">      1.00000000</i>
  </separator>
  <separator name="linear response parameters" >
   <i type="logical" name="LEPSILON"> F  </i>
   <i type="logical" name="LRPA"> F  </i>
   <i type="logical" name="LNABLA"> F  </i>
   <i type="logical" name="LVEL"> F  </i>
   <i type="int" name="KINTER">     0</i>
   <i name="CSHIFT">      0.10000000</i>
   <i name="OMEGAMAX">     -1.00000000</i>
   <i name="DEG_THRESHOLD">      0.00200000</i>
   <i name="RTIME">     -0.10000000</i>
   <i name="WPLASMAI">      0.00000000</i>
   <v name="DFIELD">      0.00000000      0.00000000      0.00000000</v>
   <v name="WPLASMA">      0.00000000      0.00000000      0.00000000      0.00000000      0.00000000      0.00000000      0.00000000      0.00000000      0.00000000</v>
  </separator>
  <separator name="orbital magnetization" >
   <i type="logical" name="NUCIND"> F  </i>
   <v name="MAGPOS">      0.00000000      0.00000000      0.00000000</v>
   <i type="logical" name="LNICSALL"> T  </i>
   <i type="logical" name="ORBITALMAG"> F  </i>
   <i type="logical" name="LMAGBLOCH"> F  </i>
   <i type="logical" name="LCHIMAG"> F  </i>
   <i type="logical" name="LGAUGE"> T  </i>
   <i type="int" name="MAGATOM">     0</i>
   <v name="MAGDIPOL">      0.00000000      0.00000000      0.00000000</v>
   <v name="AVECCONST">      0.00000000      0.00000000      0.00000000</v>
  </separator>
  <separator name="response functions" >
   <i type="logical" name="LADDER"> F  </i>
   <i type="logical" name="LRPAFORCE"> F  </i>
   <i type="logical" name="LFXC"> F  </i>
   <i type="logical" name="LHARTREE"> T  </i>
   <i type="int" name="IBSE">     0</i>
   <v type="int" name="KPOINT">    -1     0     0     0</v>
   <i type="logical" name="LTCTE"> F  </i>
   <i type="logical" name="LTETE"> F  </i>
   <i type="logical" name="LTRIPLET"> F  </i>
   <i type="logical" name="LFXCEPS"> F  </i>
   <i type="logical" name="LFXHEG"> F  </i>
   <i type="int" name="NATURALO">     2</i>
   <i type="logical" name="L2ORDER"> F  </i>
   <i type="logical" name="LMP2LT"> F  </i>
   <i type="logical" name="LUSEW"> F  </i>
   <i name="ENCUTGW">     -2.00000000</i>
   <i name="ENCUTGWSOFT">     -2.00000000</i>
   <i name="ENCUTLF">     -1.00000000</i>
   <i type="int" name="LMAXMP2">    -1</i>
   <i name="SCISSOR">      0.00000000</i>
   <i type="int" name="NOMEGA">     0</i>
   <i type="int" name="NOMEGAR">     0</i>
   <i type="int" name="NBANDSGW">    -1</i>
   <i type="int" name="NBANDSO">    -1</i>
   <i type="int" name="NBANDSV">    -1</i>
   <i type="int" name="NELM">     1</i>
   <i type="int" name="NELMHF">     1</i>
   <i type="int" name="DIM">     3</i>
   <i type="int" name="ANTIRES">     0</i>
   <i name="OMEGAMAX">    -30.00000000</i>
   <i name="OMEGAMIN">    -30.00000000</i>
   <i name="OMEGATL">   -200.00000000</i>
   <i type="int" name="OMEGAGRID">   140</i>
   <i name="CSHIFT">     -0.10000000</i>
   <i type="logical" name="SELFENERGY"> F  </i>
   <i type="logical" name="LSPECTRAL"> F  </i>
   <i type="logical" name="LSPECTRALGW"> F  </i>
   <i type="logical" name="LSINGLES"> F  </i>
   <i type="logical" name="LFERMIGW"> F  </i>
   <i type="logical" name="ODDONLYGW"> F  </i>
   <i type="logical" name="EVENONLYGW"> F  </i>
   <i type="int" name="NKREDLFX">     1</i>
   <i type="int" name="NKREDLFY">     1</i>
   <i type="int" name="NKREDLFZ">     1</i>
   <i type="int" name="MAXMEM">  2800</i>
   <i type="int" name="TELESCOPE">     0</i>
   <i type="int" name="TAUPAR">     1</i>
   <i type="int" name="OMEGAPAR">    -1</i>
   <i name="LAMBDA">      1.00000000</i>
  </separator>
  <separator name="External order field" >
   <i name="OFIELD_KAPPA">      0.00000000</i>
   <v name="OFIELD_K">      0.00000000      0.00000000      0.00000000</v>
   <i name="OFIELD_Q6_NEAR">      0.00000000</i>
   <i name="OFIELD_Q6_FAR">      0.00000000</i>
   <i name="OFIELD_A">      0.00000000</i>
  </separator>
 </parameters>
 <atominfo>
  <atoms>      61 </atoms>
  <types>       5 </types>
  <array name="atoms" >
   <dimension dim="1">ion</dimension>
   <field type="string">element</field>
   <field type="int">atomtype</field>
   <set>
    <rc><c>Li</c><c>   1</c></rc>
    <rc><c>Li</c><c>   1</c></rc>
    <rc><c>Li</c><c>   1</c></rc>
    <rc><c>Li</c><c>   1</c></rc>
    <rc><c>Li</c><c>   1</c></rc>
    <rc><c>Li</c><c>   1</c></rc>
    <rc><c>Li</c><c>   1</c></rc>
    <rc><c>Li</c><c>   1</c></rc>
    <rc><c>Li</c><c>   1</c></rc>
    <rc><c>Li</c><c>   1</c></rc>
    <rc><c>Mg</c><c>   2</c></rc>
    <rc><c>Mg</c><c>   2</c></rc>
    <rc><c>Mg</c><c>   2</c></rc>
    <rc><c>Bi</c><c>   3</c></rc>
    <rc><c>Bi</c><c>   3</c></rc>
    <rc><c>Bi</c><c>   3</c></rc>
    <rc><c>Bi</c><c>   3</c></rc>
    <rc><c>Bi</c><c>   3</c></rc>
    <rc><c>Bi</c><c>   3</c></rc>
    <rc><c>Bi</c><c>   3</c></rc>
    <rc><c>Bi</c><c>   3</c></rc>
    <rc><c>Bi</c><c>   3</c></rc>
    <rc><c>Bi</c><c>   3</c></rc>
    <rc><c>Bi</c><c>   3</c></rc>
    <rc><c>Bi</c><c>   3</c></rc>
    <rc><c>Bi</c><c>   3</c></rc>
    <rc><c>Bi</c><c>   3</c></rc>
    <rc><c>Bi</c><c>   3</c></rc>
    <rc><c>Bi</c><c>   3</c></rc>
    <rc><c>S </c><c>   4</c></rc>
    <rc><c>S </c><c>   4</c></rc>
    <rc><c>S </c><c>   4</c></rc>
    <rc><c>S </c><c>   4</c></rc>
    <rc><c>S </c><c>   4</c></rc>
    <rc><c>S </c><c>   4</c></rc>
    <rc><c>S </c><c>   4</c></rc>
    <rc><c>S </c><c>   4</c></rc>
    <rc><c>S </c><c>   4</c></rc>
    <rc><c>S </c><c>   4</c></rc>
    <rc><c>S </c><c>   4</c></rc>
    <rc><c>S </c><c>   4</c></rc>
    <rc><c>S </c><c>   4</c></rc>
    <rc><c>S </c><c>   4</c></rc>
    <rc><c>S </c><c>   4</c></rc>
    <rc><c>S </c><c>   4</c></rc>
    <rc><c>O </c><c>   5</c></rc>
    <rc><c>O </c><c>   5</c></rc>
    <rc><c>O </c><c>   5</c></rc>
    <rc><c>O </c><c>   5</c></rc>
    <rc><c>O </c><c>   5</c></rc>
    <rc><c>O </c><c>   5</c></rc>
    <rc><c>O </c><c>   5</c></rc>
    <rc><c>O </c><c>   5</c></rc>
    <rc><c>O </c><c>   5</c></rc>
    <rc><c>O </c><c>   5</c></rc>
    <rc><c>O </c><c>   5</c></rc>
    <rc><c>O </c><c>   5</c></rc>
    <rc><c>O </c><c>   5</c></rc>
    <rc><c>O </c><c>   5</c></rc>
    <rc><c>O </c><c>   5</c></rc>
    <rc><c>O </c><c>   5</c></rc>
   </set>
  </array>
  <array name="atomtypes" >
   <dimension dim="1">type</dimension>
   <field type="int">atomspertype</field>
   <field type="string">element</field>
   <field>mass</field>
   <field>valence</field>
   <field type="string">pseudopotential</field>
   <set>
    <rc><c>  10</c><c>Li</c><c>      7.01000000</c><c>      3.00000000</c><c>  PAW_PBE Li_sv 10Sep2004               </c></rc>
    <rc><c>   3</c><c>Mg</c><c>     24.30500000</c><c>      2.00000000</c><c>  PAW_PBE Mg 13Apr2007                  </c></rc>
    <rc><c>  16</c><c>Bi</c><c>    208.98000000</c><c>     15.00000000</c><c>  PAW_PBE Bi_d 06Sep2000                </c></rc>
    <rc><c>  16</c><c>S </c><c>     32.06600000</c><c>      6.00000000</c><c>  PAW_PBE S 06Sep2000                   </c></rc>
    <rc><c>  16</c><c>O </c><c>     16.00000000</c><c>      6.00000000</c><c>  PAW_PBE O 08Apr2002                   </c></rc>
   </set>
  </array>
 </atominfo>
 <structure name="initialpos" >
  <crystal>
   <varray name="basis" >
    <v>      11.17850000       0.00000000       0.00000000 </v>
    <v>       0.00000000       9.57460000       0.00000000 </v>
    <v>       0.00000000       0.00000000      11.18240000 </v>
   </varray>
   <i name="volume">   1196.84853820 </i>
   <varray name="rec_basis" >
    <v>       0.08945744       0.00000000       0.00000000 </v>
    <v>       0.00000000       0.10444301       0.00000000 </v>
    <v>       0.00000000       0.00000000       0.08942624 </v>
   </varray>
  </crystal>
  <varray name="positions" >
   <v>       0.37539000       0.00017000       0.43687000 </v>
   <v>       0.12461000       0.99984000       0.18687000 </v>
   <v>       0.37461000       0.00017000       0.18687000 </v>
   <v>       0.62461000       0.99984000       0.18687000 </v>
   <v>       0.87461000       0.00017000       0.18687000 </v>
   <v>       0.12461000       0.99984000       0.68687000 </v>
   <v>       0.37461000       0.00017000       0.68687000 </v>
   <v>       0.87539000       0.00017000       0.93687000 </v>
   <v>       0.62461000       0.99984000       0.68687000 </v>
   <v>       0.87461000       0.00017000       0.68687000 </v>
   <v>       0.87539000       0.00017000       0.43687000 </v>
   <v>       0.12539000       0.99984000       0.93687000 </v>
   <v>       0.37539000       0.00017000       0.93687000 </v>
   <v>       0.00013000       0.29519000       0.06281000 </v>
   <v>       0.25013000       0.70481000       0.06281000 </v>
   <v>       0.24987000       0.29519000       0.31282000 </v>
   <v>       0.49987000       0.70481000       0.31282000 </v>
   <v>       0.50013000       0.29519000       0.06281000 </v>
   <v>       0.75013000       0.70481000       0.06281000 </v>
   <v>       0.74987000       0.29519000       0.31282000 </v>
   <v>       0.99987000       0.70481000       0.31282000 </v>
   <v>       0.00013000       0.29519000       0.56281000 </v>
   <v>       0.25013000       0.70481000       0.56281000 </v>
   <v>       0.24987000       0.29519000       0.81282000 </v>
   <v>       0.49987000       0.70481000       0.81282000 </v>
   <v>       0.50013000       0.29519000       0.56281000 </v>
   <v>       0.75013000       0.70481000       0.56281000 </v>
   <v>       0.74987000       0.29519000       0.81282000 </v>
   <v>       0.99987000       0.70481000       0.81282000 </v>
   <v>       0.25005000       0.32677000       0.06286000 </v>
   <v>       0.00005000       0.67323000       0.06286000 </v>
   <v>       0.49995000       0.32677000       0.31286000 </v>
   <v>       0.24995000       0.67323000       0.31286000 </v>
   <v>       0.75005000       0.32677000       0.06286000 </v>
   <v>       0.50005000       0.67323000       0.06286000 </v>
   <v>       0.99995000       0.32677000       0.31286000 </v>
   <v>       0.74995000       0.67323000       0.31286000 </v>
   <v>       0.25005000       0.32677000       0.56286000 </v>
   <v>       0.00005000       0.67323000       0.56286000 </v>
   <v>       0.49995000       0.32677000       0.81286000 </v>
   <v>       0.24995000       0.67323000       0.81286000 </v>
   <v>       0.75005000       0.32677000       0.56286000 </v>
   <v>       0.50005000       0.67323000       0.56286000 </v>
   <v>       0.99995000       0.32677000       0.81286000 </v>
   <v>       0.74995000       0.67323000       0.81286000 </v>
   <v>       0.49987000       0.07798000       0.06246000 </v>
   <v>       0.24987000       0.92202000       0.06246000 </v>
   <v>       0.25013000       0.07798000       0.31246000 </v>
   <v>       0.00013000       0.92202000       0.31246000 </v>
   <v>       0.99987000       0.07798000       0.06246000 </v>
   <v>       0.74987000       0.92202000       0.06246000 </v>
   <v>       0.75013000       0.07798000       0.31246000 </v>
   <v>       0.50013000       0.92202000       0.31246000 </v>
   <v>       0.49987000       0.07798000       0.56246000 </v>
   <v>       0.24987000       0.92202000       0.56246000 </v>
   <v>       0.25013000       0.07798000       0.81246000 </v>
   <v>       0.00013000       0.92202000       0.81246000 </v>
   <v>       0.99987000       0.07798000       0.56246000 </v>
   <v>       0.74987000       0.92202000       0.56246000 </v>
   <v>       0.75013000       0.07798000       0.81246000 </v>
   <v>       0.50013000       0.92202000       0.81246000 </v>
  </varray>
 </structure>
 <calculation>
  <scstep>
   <time name="dav">   59.41   59.61</time>
   <time name="total">   59.50   59.69</time>
   <energy>
    <i name="alphaZ">   1073.51873187 </i>
    <i name="ewald"> -30896.74490933 </i>
    <i name="hartreedc"> -12692.90078315 </i>
    <i name="XCdc">   1394.99191748 </i>
    <i name="pawpsdc">  36823.70205594 </i>
    <i name="pawaedc"> -36326.52930246 </i>
    <i name="eentropy">      0.00000000 </i>
    <i name="bandstr">   1807.36417865 </i>
    <i name="atom">  44791.06186932 </i>
    <i name="e_fr_energy">   5974.46375832 </i>
    <i name="e_wo_entrp">   5974.46375832 </i>
    <i name="e_0_energy">   5974.46375832 </i>
   </energy>
  </scstep>
  <scstep>
   <time name="dav">   60.25   60.40</time>
   <time name="total">   60.26   60.41</time>
   <energy>
    <i name="e_fr_energy">    798.34334732 </i>
    <i name="e_wo_entrp">    798.34334732 </i>
    <i name="e_0_energy">    798.34334732 </i>
   </energy>
  </scstep>
  <scstep>
   <time name="dav">   69.76   70.61</time>
   <time name="total">   69.76   70.62</time>
   <energy>
    <i name="e_fr_energy">   -245.94794770 </i>
    <i name="e_wo_entrp">   -245.94794770 </i>
    <i name="e_0_energy">   -245.94794770 </i>
   </energy>
  </scstep>
  <scstep>
   <time name="dav">   71.60   71.82</time>
   <time name="total">   71.61   71.82</time>
   <energy>
    <i name="e_fr_energy">   -345.76353107 </i>
    <i name="e_wo_entrp">   -345.76353107 </i>
    <i name="e_0_energy">   -345.76353107 </i>
   </energy>
  </scstep>
  <scstep>
   <time name="dav">   96.10   96.30</time>
   <time name="total">   96.82   97.02</time>
   <energy>
    <i name="e_fr_energy">   -354.57673199 </i>
    <i name="e_wo_entrp">   -354.57673199 </i>
    <i name="e_0_energy">   -354.57673199 </i>
   </energy>
  </scstep>
  <scstep>
   <time name="dav">   85.00   85.21</time>
   <time name="total">   85.78   86.01</time>
   <energy>
    <i name="e_fr_energy">   -295.44080172 </i>
    <i name="e_wo_entrp">   -295.44080172 </i>
    <i name="e_0_energy">   -295.44080172 </i>
   </energy>
  </scstep>
  <scstep>
   <time name="dav">   64.64   64.76</time>
   <time name="total">   65.32   65.56</time>
   <energy>
    <i name="e_fr_energy">   -298.08526599 </i>
    <i name="e_wo_entrp">   -298.08526599 </i>
    <i name="e_0_energy">   -298.08526599 </i>
   </energy>
  </scstep>
  <scstep>
   <time name="dav">   76.07   76.26</time>
   <time name="total">   76.85   77.05</time>
   <energy>
    <i name="e_fr_energy">   -296.77612676 </i>
    <i name="e_wo_entrp">   -296.77612676 </i>
    <i name="e_0_energy">   -296.77612676 </i>
   </energy>
  </scstep>
  <scstep>
   <time name="dav">   81.61   82.06</time>
   <time name="total">   82.40   82.85</time>
   <energy>
    <i name="e_fr_energy">   -296.15207145 </i>
    <i name="e_wo_entrp">   -296.15207145 </i>
    <i name="e_0_energy">   -296.15207145 </i>
   </energy>
  </scstep>
  <scstep>
   <time name="dav">   70.83   71.86</time>
   <time name="total">   71.61   72.65</time>
   <energy>
    <i name="e_fr_energy">   -296.14095872 </i>
    <i name="e_wo_entrp">   -296.14095872 </i>
    <i name="e_0_energy">   -296.14095872 </i>
   </energy>
  </scstep>
  <scstep>
   <time name="dav">   77.19   79.06</time>
   <time name="total">   77.97   79.84</time>
   <energy>
    <i name="e_fr_energy">   -296.15158672 </i>
    <i name="e_wo_entrp">   -296.15158672 </i>
    <i name="e_0_energy">   -296.15158672 </i>
   </energy>
  </scstep>
  <scstep>
   <time name="dav">   84.13   84.52</time>
   <time name="total">   84.92   85.31</time>
   <energy>
    <i name="e_fr_energy">   -296.15598384 </i>
    <i name="e_wo_entrp">   -296.15598384 </i>
    <i name="e_0_energy">   -296.15598384 </i>
   </energy>
  </scstep>
  <scstep>
   <time name="dav">   74.97   75.09</time>
   <time name="total">   75.76   75.88</time>
   <energy>
    <i name="e_fr_energy">   -296.15648470 </i>
    <i name="e_wo_entrp">   -296.15648470 </i>
    <i name="e_0_energy">   -296.15648470 </i>
   </energy>
  </scstep>
  <scstep>
   <time name="dav">   68.38   68.43</time>
   <time name="total">   69.17   69.22</time>
   <energy>
    <i name="e_fr_energy">   -296.15684088 </i>
    <i name="e_wo_entrp">   -296.15684088 </i>
    <i name="e_0_energy">   -296.15684088 </i>
   </energy>
  </scstep>
  <scstep>
   <time name="dav">   81.48   81.61</time>
   <time name="total">   82.27   82.40</time>
   <energy>
    <i name="e_fr_energy">   -296.15687989 </i>
    <i name="e_wo_entrp">   -296.15687989 </i>
    <i name="e_0_energy">   -296.15687989 </i>
   </energy>
  </scstep>
  <scstep>
   <time name="dav">   68.94   69.87</time>
   <time name="total">   69.72   70.66</time>
   <energy>
    <i name="e_fr_energy">   -296.15689839 </i>
    <i name="e_wo_entrp">   -296.15689839 </i>
    <i name="e_0_energy">   -296.15689839 </i>
   </energy>
  </scstep>
  <scstep>
   <time name="dav">   66.49   66.74</time>
   <time name="total">   67.27   67.52</time>
   <energy>
    <i name="e_fr_energy">   -296.15690451 </i>
    <i name="e_wo_entrp">   -296.15690451 </i>
    <i name="e_0_energy">   -296.15690451 </i>
   </energy>
  </scstep>
  <scstep>
   <time name="dav">   61.11   61.13</time>
   <time name="total">   61.18   61.21</time>
   <energy>
    <i name="alphaZ">   1073.51873187 </i>
    <i name="ewald"> -30896.74490933 </i>
    <i name="hartreedc"> -12926.01756900 </i>
    <i name="XCdc">   1418.38004940 </i>
    <i name="pawpsdc">  43845.59762920 </i>
    <i name="pawaedc"> -43323.37162012 </i>
    <i name="eentropy">      0.00000000 </i>
    <i name="bandstr">  -4278.58108646 </i>
    <i name="atom">  44791.06186932 </i>
    <i name="e_fr_energy">   -296.15690512 </i>
    <i name="e_wo_entrp">   -296.15690512 </i>
    <i name="e_0_energy">   -296.15690512 </i>
   </energy>
  </scstep>
  <structure>
   <crystal>
    <varray name="basis" >
     <v>      11.17850000       0.00000000       0.00000000 </v>
     <v>       0.00000000       9.57460000       0.00000000 </v>
     <v>       0.00000000       0.00000000      11.18240000 </v>
    </varray>
    <i name="volume">   1196.84853820 </i>
    <varray name="rec_basis" >
     <v>       0.08945744       0.00000000       0.00000000 </v>
     <v>       0.00000000       0.10444301       0.00000000 </v>
     <v>       0.00000000       0.00000000       0.08942624 </v>
    </varray>
   </crystal>
   <varray name="positions" >
    <v>       0.37539000       0.00017000       0.43687000 </v>
    <v>       0.12461000       0.99984000       0.18687000 </v>
    <v>       0.37461000       0.00017000       0.18687000 </v>
    <v>       0.62461000       0.99984000       0.18687000 </v>
    <v>       0.87461000       0.00017000       0.18687000 </v>
    <v>       0.12461000       0.99984000       0.68687000 </v>
    <v>       0.37461000       0.00017000       0.68687000 </v>
    <v>       0.87539000       0.00017000       0.93687000 </v>
    <v>       0.62461000       0.99984000       0.68687000 </v>
    <v>       0.87461000       0.00017000       0.68687000 </v>
    <v>       0.87539000       0.00017000       0.43687000 </v>
    <v>       0.12539000       0.99984000       0.93687000 </v>
    <v>       0.37539000       0.00017000       0.93687000 </v>
    <v>       0.00013000       0.29519000       0.06281000 </v>
    <v>       0.25013000       0.70481000       0.06281000 </v>
    <v>       0.24987000       0.29519000       0.31282000 </v>
    <v>       0.49987000       0.70481000       0.31282000 </v>
    <v>       0.50013000       0.29519000       0.06281000 </v>
    <v>       0.75013000       0.70481000       0.06281000 </v>
    <v>       0.74987000       0.29519000       0.31282000 </v>
    <v>       0.99987000       0.70481000       0.31282000 </v>
    <v>       0.00013000       0.29519000       0.56281000 </v>
    <v>       0.25013000       0.70481000       0.56281000 </v>
    <v>       0.24987000       0.29519000       0.81282000 </v>
    <v>       0.49987000       0.70481000       0.81282000 </v>
    <v>       0.50013000       0.29519000       0.56281000 </v>
    <v>       0.75013000       0.70481000       0.56281000 </v>
    <v>       0.74987000       0.29519000       0.81282000 </v>
    <v>       0.99987000       0.70481000       0.81282000 </v>
    <v>       0.25005000       0.32677000       0.06286000 </v>
    <v>       0.00005000       0.67323000       0.06286000 </v>
    <v>       0.49995000       0.32677000       0.31286000 </v>
    <v>       0.24995000       0.67323000       0.31286000 </v>
    <v>       0.75005000       0.32677000       0.06286000 </v>
    <v>       0.50005000       0.67323000       0.06286000 </v>
    <v>       0.99995000       0.32677000       0.31286000 </v>
    <v>       0.74995000       0.67323000       0.31286000 </v>
    <v>       0.25005000       0.32677000       0.56286000 </v>
    <v>       0.00005000       0.67323000       0.56286000 </v>
    <v>       0.49995000       0.32677000       0.81286000 </v>
    <v>       0.24995000       0.67323000       0.81286000 </v>
    <v>       0.75005000       0.32677000       0.56286000 </v>
    <v>       0.50005000       0.67323000       0.56286000 </v>
    <v>       0.99995000       0.32677000       0.81286000 </v>
    <v>       0.74995000       0.67323000       0.81286000 </v>
    <v>       0.49987000       0.07798000       0.06246000 </v>
    <v>       0.24987000       0.92202000       0.06246000 </v>
    <v>       0.25013000       0.07798000       0.31246000 </v>
    <v>       0.00013000       0.92202000       0.31246000 </v>
    <v>       0.99987000       0.07798000       0.06246000 </v>
    <v>       0.74987000       0.92202000       0.06246000 </v>
    <v>       0.75013000       0.07798000       0.31246000 </v>
    <v>       0.50013000       0.92202000       0.31246000 </v>
    <v>       0.49987000       0.07798000       0.56246000 </v>
    <v>       0.24987000       0.92202000       0.56246000 </v>
    <v>       0.25013000       0.07798000       0.81246000 </v>
    <v>       0.00013000       0.92202000       0.81246000 </v>
    <v>       0.99987000       0.07798000       0.56246000 </v>
    <v>       0.74987000       0.92202000       0.56246000 </v>
    <v>       0.75013000       0.07798000       0.81246000 </v>
    <v>       0.50013000       0.92202000       0.81246000 </v>
   </varray>
  </structure>
  <varray name="forces" >
   <v>       0.05877603      -0.00178890       0.00466433 </v>
   <v>      -0.00641145       0.12869694       1.09562067 </v>
   <v>       0.33158839       0.13379132       0.81406154 </v>
   <v>       0.01783958      -0.13307041       0.08113567 </v>
   <v>      -0.32203331      -0.13483168      -0.12894357 </v>
   <v>      -0.00618013      -0.12907764      -1.08654133 </v>
   <v>       0.33187390      -0.13689850      -0.80132744 </v>
   <v>      -1.07618127       0.00035087       0.00622859 </v>
   <v>       0.01799120       0.13229814      -0.07071824 </v>
   <v>      -0.32307780       0.13232277       0.14197397 </v>
   <v>      -0.15118915      -0.00773939       0.03023908 </v>
   <v>      -1.03431970       0.00121561       0.03450108 </v>
   <v>       2.15189326      -0.00658857       0.03346651 </v>
   <v>      -0.41668647       1.10616522       0.28123633 </v>
   <v>       0.21842752      -2.09924830       0.52934112 </v>
   <v>       0.10318504      -0.97308320       0.39058261 </v>
   <v>       0.18280150       1.02853107       0.29627416 </v>
   <v>       0.46448714       0.04102388       0.16646631 </v>
   <v>      -0.27769822       0.97653336      -0.02409130 </v>
   <v>      -0.37977804      -0.03935168       0.13101171 </v>
   <v>       0.10970529       0.01138883       0.21974000 </v>
   <v>       0.09143001      -0.00689062      -0.23124802 </v>
   <v>       0.09101813       0.96302507      -0.40497117 </v>
   <v>       0.22507658       2.11967135      -0.53011750 </v>
   <v>       0.48371467      -0.03815302      -0.17314896 </v>
   <v>       0.16851913      -1.01670683      -0.30878616 </v>
   <v>      -0.38715418       0.04344173      -0.14058198 </v>
   <v>      -0.26438259      -0.98399094       0.01525580 </v>
   <v>      -0.41344395      -1.11874896      -0.28681334 </v>
   <v>      -0.15967683      -0.01435108      -0.40303553 </v>
   <v>       0.36178048      -0.05213021      -0.21693801 </v>
   <v>       0.01073973       0.23761146      -0.19758434 </v>
   <v>      -0.15682666      -0.17231734      -0.36010572 </v>
   <v>       0.19126134       0.16569947       0.02993121 </v>
   <v>      -0.40196585      -0.11571870      -0.21371678 </v>
   <v>      -0.06977579       0.13480124      -0.14626539 </v>
   <v>       0.22764536      -0.20606853       0.05478458 </v>
   <v>      -0.15748154       0.16928523       0.36250246 </v>
   <v>      -0.06810400      -0.13567893       0.14965941 </v>
   <v>      -0.40440701       0.11242639       0.21070441 </v>
   <v>      -0.16076582       0.01860213       0.40024567 </v>
   <v>       0.22453554       0.20593964      -0.05659230 </v>
   <v>       0.00820843      -0.23761035       0.19826047 </v>
   <v>       0.36482536       0.04942643       0.21444544 </v>
   <v>       0.19556864      -0.16666081      -0.03152783 </v>
   <v>      -1.43689795      -0.04850930      -0.06898070 </v>
   <v>      -0.16897760       1.71170885      -1.27282427 </v>
   <v>       0.42435028       0.75965294      -0.92295260 </v>
   <v>      -1.03755841      -0.03027873      -0.30271423 </v>
   <v>       0.83855848      -0.96766526      -0.68368182 </v>
   <v>       0.78223290      -0.76492168       0.56339121 </v>
   <v>       1.22153530       0.12985332      -0.13755868 </v>
   <v>      -0.62070324      -0.88052251      -0.74890966 </v>
   <v>      -0.60931175       0.87701935       0.75217072 </v>
   <v>       0.43477182      -0.75175866       0.92787167 </v>
   <v>      -0.18531555      -1.70795574       1.23790063 </v>
   <v>       0.81991834       0.96810339       0.66176970 </v>
   <v>      -1.02907531       0.02604576       0.29606935 </v>
   <v>       1.24261234      -0.12205680       0.12261789 </v>
   <v>       0.77302131       0.76905022      -0.56172292 </v>
   <v>      -1.44451346       0.04669129       0.05827549 </v>
  </varray>
  <varray name="stress" >
   <v>      -8.38704353      -0.08823399       0.03502428 </v>
   <v>      -0.08823394     -13.96073853      -0.42615535 </v>
   <v>       0.03502429      -0.42615541      -6.32257443 </v>
  </varray>
  <energy>
   <i name="e_fr_energy">   -310.72631545 </i>
   <i name="e_wo_entrp">   -310.72631545 </i>
   <i name="e_0_energy">      0.00000000 </i>
  </energy>
  <time name="totalsc"> 1445.09 1452.66</time>
 </calculation>
 <calculation>
  <scstep>
   <time name="dav">   60.94   60.95</time>
   <time name="total">   61.73   61.74</time>
   <energy>
    <i name="alphaZ">   1091.91540093 </i>
    <i name="ewald"> -31055.56733504 </i>
    <i name="hartreedc"> -13005.71847614 </i>
    <i name="XCdc">   1428.38820832 </i>
    <i name="pawpsdc">  43845.65995572 </i>
    <i name="pawaedc"> -43323.43480235 </i>
    <i name="eentropy">      0.00000000 </i>
    <i name="bandstr">  -4067.98260919 </i>
    <i name="atom">  44791.06186932 </i>
    <i name="e_fr_energy">   -295.67778842 </i>
    <i name="e_wo_entrp">   -295.67778842 </i>
    <i name="e_0_energy">   -295.67778842 </i>
   </energy>
  </scstep>
  <scstep>
   <time name="dav">   70.87   70.92</time>
   <time name="total">   71.65   71.70</time>
   <energy>
    <i name="e_fr_energy">   -297.88668399 </i>
    <i name="e_wo_entrp">   -297.88668399 </i>
    <i name="e_0_energy">   -297.88668399 </i>
   </energy>
  </scstep>
  <scstep>
   <time name="dav">   92.73   92.78</time>
   <time name="total">   93.51   93.57</time>
   <energy>
    <i name="e_fr_energy">   -297.65200344 </i>
    <i name="e_wo_entrp">   -297.65200344 </i>
    <i name="e_0_energy">   -297.65200344 </i>
   </energy>
  </scstep>
  <scstep>
   <time name="dav">   77.36   77.61</time>
   <time name="total">   78.15   78.40</time>
   <energy>
    <i name="e_fr_energy">   -297.54207458 </i>
    <i name="e_wo_entrp">   -297.54207458 </i>
    <i name="e_0_energy">   -297.54207458 </i>
   </energy>
  </scstep>
  <scstep>
   <time name="dav">   71.16   71.28</time>
   <time name="total">   71.95   72.07</time>
   <energy>
    <i name="e_fr_energy">   -297.54373020 </i>
    <i name="e_wo_entrp">   -297.54373020 </i>
    <i name="e_0_energy">   -297.54373020 </i>
   </energy>
  </scstep>
  <scstep>
   <time name="dav">   83.74   83.79</time>
   <time name="total">   84.53   84.58</time>
   <energy>
    <i name="e_fr_energy">   -297.54186690 </i>
    <i name="e_wo_entrp">   -297.54186690 </i>
    <i name="e_0_energy">   -297.54186690 </i>
   </energy>
  </scstep>
  <scstep>
   <time name="dav">   79.18   79.44</time>
   <time name="total">   79.97   80.23</time>
   <energy>
    <i name="e_fr_energy">   -297.54083169 </i>
    <i name="e_wo_entrp">   -297.54083169 </i>
    <i name="e_0_energy">   -297.54083169 </i>
   </energy>
  </scstep>
  <scstep>
   <time name="dav">   88.25   88.53</time>
   <time name="total">   89.04   89.32</time>
   <energy>
    <i name="e_fr_energy">   -297.54075736 </i>
    <i name="e_wo_entrp">   -297.54075736 </i>
    <i name="e_0_energy">   -297.54075736 </i>
   </energy>
  </scstep>
  <scstep>
   <time name="dav">   68.39   68.63</time>
   <time name="total">   69.18   69.43</time>
   <energy>
    <i name="e_fr_energy">   -297.54081394 </i>
    <i name="e_wo_entrp">   -297.54081394 </i>
    <i name="e_0_energy">   -297.54081394 </i>
   </energy>
  </scstep>
  <scstep>
   <time name="dav">   86.69   86.80</time>
   <time name="total">   87.48   87.59</time>
   <energy>
    <i name="e_fr_energy">   -297.54081748 </i>
    <i name="e_wo_entrp">   -297.54081748 </i>
    <i name="e_0_energy">   -297.54081748 </i>
   </energy>
  </scstep>
  <scstep>
   <time name="dav">   66.13   66.42</time>
   <time name="total">   66.91   67.21</time>
   <energy>
    <i name="e_fr_energy">   -297.54081636 </i>
    <i name="e_wo_entrp">   -297.54081636 </i>
    <i name="e_0_energy">   -297.54081636 </i>
   </energy>
  </scstep>
  <scstep>
   <time name="dav">   63.58   63.61</time>
   <time name="total">   63.65   63.69</time>
   <energy>
    <i name="alphaZ">   1091.91540093 </i>
    <i name="ewald"> -31055.56733504 </i>
    <i name="hartreedc"> -12852.16470308 </i>
    <i name="XCdc">   1421.44570732 </i>
    <i name="pawpsdc">  44240.68272880 </i>
    <i name="pawaedc"> -43721.57476719 </i>
    <i name="eentropy">      0.00000000 </i>
    <i name="bandstr">  -4213.33971714 </i>
    <i name="atom">  44791.06186932 </i>
    <i name="e_fr_energy">   -297.54081607 </i>
    <i name="e_wo_entrp">   -297.54081607 </i>
    <i name="e_0_energy">   -297.54081607 </i>
   </energy>
  </scstep>
  <structure>
   <crystal>
    <varray name="basis" >
     <v>      11.12311114      -0.00058271       0.00023130 </v>
     <v>      -0.00049910       9.49563057      -0.00241056 </v>
     <v>       0.00023138      -0.00281535      11.14063053 </v>
    </varray>
    <i name="volume">   1176.68394810 </i>
    <varray name="rec_basis" >
     <v>       0.08990290       0.00000472      -0.00000187 </v>
     <v>       0.00000552       0.10531160       0.00002661 </v>
     <v>      -0.00000187       0.00002279       0.08976153 </v>
    </varray>
   </crystal>
   <varray name="positions" >
    <v>       0.37564366       0.00016099       0.43689012 </v>
    <v>       0.12458233       0.00048845       0.19159668 </v>
    <v>       0.37604102       0.00084412       0.19038199 </v>
    <v>       0.62468699       0.99916951       0.18722003 </v>
    <v>       0.87322021      -0.00050936       0.18631372 </v>
    <v>       0.12458333       0.99918963       0.68218249 </v>
    <v>       0.37604226      -0.00051978       0.68341295 </v>
    <v>       0.87074556       0.00017177       0.93689687 </v>
    <v>       0.62468764       0.00050660       0.68656491 </v>
    <v>       0.87321570       0.00083672       0.68748250 </v>
    <v>       0.87473752       0.00013100       0.43700046 </v>
    <v>       0.12092622       0.99984612       0.93701884 </v>
    <v>       0.38467685       0.00013680       0.93701438 </v>
    <v>      -0.00166828       0.30076353       0.06402330 </v>
    <v>       0.25107266       0.69423271       0.06509366 </v>
    <v>       0.25031531       0.29028702       0.31450504 </v>
    <v>       0.50065891       0.70999236       0.31409817 </v>
    <v>       0.50213457       0.29539670       0.06352816 </v>
    <v>       0.74893155       0.70973037       0.06270607 </v>
    <v>       0.74823101       0.29499172       0.31338521 </v>
    <v>       0.00034345       0.70486738       0.31376799 </v>
    <v>       0.00052458       0.29515528       0.56181236 </v>
    <v>       0.25052280       0.70966231       0.56106289 </v>
    <v>       0.25084135       0.30587019       0.81053299 </v>
    <v>       0.50195755       0.70461776       0.81207301 </v>
    <v>       0.50085727       0.29006721       0.56147785 </v>
    <v>       0.74845917       0.70502889       0.56220351 </v>
    <v>       0.74872901       0.29023206       0.81288582 </v>
    <v>       0.99808571       0.69917306       0.81158264 </v>
    <v>       0.24936089       0.32669769       0.06112124 </v>
    <v>       0.00161132       0.67296734       0.06192409 </v>
    <v>       0.49999635       0.32796723       0.31200759 </v>
    <v>       0.24927319       0.67236176       0.31130645 </v>
    <v>       0.75087542       0.32760489       0.06298913 </v>
    <v>       0.49831525       0.67264694       0.06193799 </v>
    <v>       0.99964887       0.32744921       0.31222899 </v>
    <v>       0.75093244       0.67219170       0.31309635 </v>
    <v>       0.24937036       0.32762296       0.56442389 </v>
    <v>      -0.00024391       0.67254637       0.56350565 </v>
    <v>       0.49820472       0.32733647       0.81376901 </v>
    <v>       0.24925619       0.67332373       0.81458672 </v>
    <v>       0.75101902       0.32780765       0.56261585 </v>
    <v>       0.50008542       0.67203277       0.56371533 </v>
    <v>       0.00152446       0.32701904       0.81378515 </v>
    <v>       0.75079401       0.67239026       0.81272398 </v>
    <v>       0.49366883       0.07773558       0.06216241 </v>
    <v>       0.24914075       0.93064463       0.05696883 </v>
    <v>       0.25196135       0.08180759       0.30847824 </v>
    <v>      -0.00434775       0.92186744       0.31115404 </v>
    <v>       0.00348894       0.07310431       0.05951049 </v>
    <v>       0.75324585       0.91816586       0.06489056 </v>
    <v>       0.75540174       0.07863428       0.31186655 </v>
    <v>       0.49745125       0.91758339       0.30922908 </v>
    <v>       0.49724041       0.08239896       0.56570498 </v>
    <v>       0.25174633       0.91823218       0.56646299 </v>
    <v>       0.24933024       0.06937428       0.81780050 </v>
    <v>       0.00366849       0.92689789       0.81531498 </v>
    <v>       0.99542886       0.07811123       0.56373729 </v>
    <v>       0.75523270       0.92140500       0.56298899 </v>
    <v>       0.75346610       0.08185494       0.81003664 </v>
    <v>       0.49389596       0.92225526       0.81271141 </v>
   </varray>
  </structure>
  <varray name="forces" >
   <v>       0.02910363      -0.00133767       0.00385411 </v>
   <v>       0.02224481       0.06653978       0.57328347 </v>
   <v>       0.05787688       0.07290531       0.33736934 </v>
   <v>       0.01094674      -0.06530479       0.05521228 </v>
   <v>      -0.09116486      -0.07258739      -0.14486345 </v>
   <v>       0.01868179      -0.06426360      -0.56000027 </v>
   <v>       0.05793983      -0.07952111      -0.31576512 </v>
   <v>      -0.62494835      -0.00369049       0.00618330 </v>
   <v>       0.01194286       0.06646661      -0.04779964 </v>
   <v>      -0.09461972       0.07208257       0.16372187 </v>
   <v>      -0.01759443      -0.00700072       0.02553953 </v>
   <v>       0.05330242       0.01225628       0.03530380 </v>
   <v>       0.31166734       0.00738642       0.02490864 </v>
   <v>      -0.04599389      -0.07015922       0.07524789 </v>
   <v>       0.04628197       0.12703705       0.07014212 </v>
   <v>      -0.02439881       0.95665001       0.10340986 </v>
   <v>       0.15583968      -1.16384109       0.16799999 </v>
   <v>       0.08894420       0.28984780       0.04963454 </v>
   <v>      -0.10751342      -0.99452670      -0.01725280 </v>
   <v>      -0.16092122       0.42480279       0.11684858 </v>
   <v>       0.04596175      -0.30593492       0.05786889 </v>
   <v>       0.03349036       0.30498410      -0.06618023 </v>
   <v>      -0.02931329      -0.95016048      -0.10516839 </v>
   <v>       0.05851392      -0.12458419      -0.08008805 </v>
   <v>       0.10120988      -0.28992517      -0.06041678 </v>
   <v>       0.14628976       1.16014969      -0.16938381 </v>
   <v>      -0.16818743      -0.42656840      -0.12686451 </v>
   <v>      -0.10360652       0.99445801       0.01425126 </v>
   <v>      -0.03817861       0.06945067      -0.08549766 </v>
   <v>      -0.06023233       0.27683151      -0.14415114 </v>
   <v>       0.12631470      -0.19117264      -0.10018322 </v>
   <v>       0.00397965       0.14318509      -0.11678422 </v>
   <v>      -0.04909147      -0.11541054      -0.15775481 </v>
   <v>       0.08995739       0.09554660       0.02520595 </v>
   <v>      -0.16981746      -0.12163376      -0.11021627 </v>
   <v>      -0.05122637       0.13765194      -0.05840663 </v>
   <v>       0.11442700      -0.18539334       0.04193219 </v>
   <v>      -0.05003262       0.11411020       0.15628741 </v>
   <v>      -0.05136191      -0.13866503       0.05895202 </v>
   <v>      -0.17079950       0.11896530       0.10964346 </v>
   <v>      -0.05872706      -0.27520070       0.14425994 </v>
   <v>       0.11281425       0.18509539      -0.04321578 </v>
   <v>       0.00535729      -0.14279152       0.11592221 </v>
   <v>       0.12686599       0.19116852       0.09961446 </v>
   <v>       0.09122692      -0.09656360      -0.02695544 </v>
   <v>      -0.51480312      -0.03246072       0.39642037 </v>
   <v>       0.10676693      -0.64051225      -0.44771555 </v>
   <v>       0.45416907      -1.09471799      -0.52542312 </v>
   <v>      -0.75784425       0.20967573      -0.18442925 </v>
   <v>       0.08610007       0.42272336      -0.11305652 </v>
   <v>       0.49489377       1.13201903       0.47481023 </v>
   <v>       0.74964697      -0.27613213      -0.20707937 </v>
   <v>      -0.49179843       1.28734388      -0.53598671 </v>
   <v>      -0.48079434      -1.27308752       0.52576761 </v>
   <v>       0.45812688       1.08161018       0.51663566 </v>
   <v>       0.09578818       0.64988338       0.44101118 </v>
   <v>       0.05455072      -0.43990661       0.08943903 </v>
   <v>      -0.75150488      -0.20633681       0.17457701 </v>
   <v>       0.76517152       0.28610500       0.19241220 </v>
   <v>       0.49192142      -1.13497029      -0.48230734 </v>
   <v>      -0.51384222       0.02742920      -0.41072430 </v>
  </varray>
  <varray name="stress" >
   <v>       6.32995270      -0.06632655       0.02013631 </v>
   <v>      -0.06632684      10.71770417       1.17028578 </v>
   <v>       0.02013632       1.17028626       5.80293179 </v>
  </varray>
  <energy>
   <i name="e_fr_energy">   -312.30427207 </i>
   <i name="e_wo_entrp">   -312.30427207 </i>
   <i name="e_0_energy">      0.00000000 </i>
  </energy>
  <time name="totalsc"> 1022.38 1024.28</time>
 </calculation>
 <calculation>
  <scstep>
   <time name="dav">   67.45   68.01</time>
   <time name="total">   68.23   68.80</time>
   <energy>
    <i name="alphaZ">   1091.28983287 </i>
    <i name="ewald"> -31050.88978452 </i>
    <i name="hartreedc"> -12848.88588765 </i>
    <i name="XCdc">   1421.09813697 </i>
    <i name="pawpsdc">  44240.69026935 </i>
    <i name="pawaedc"> -43721.58517572 </i>
    <i name="eentropy">      0.00000000 </i>
    <i name="bandstr">  -4220.32797460 </i>
    <i name="atom">  44791.06186932 </i>
    <i name="e_fr_energy">   -297.54871398 </i>
    <i name="e_wo_entrp">   -297.54871398 </i>
    <i name="e_0_energy">   -297.54871398 </i>
   </energy>
  </scstep>
  <scstep>
   <time name="dav">   67.69   68.10</time>
   <time name="total">   68.47   68.89</time>
   <energy>
    <i name="e_fr_energy">   -297.55073645 </i>
    <i name="e_wo_entrp">   -297.55073645 </i>
    <i name="e_0_energy">   -297.55073645 </i>
   </energy>
  </scstep>
  <scstep>
   <time name="dav">   83.09   83.54</time>
   <time name="total">   83.88   84.33</time>
   <energy>
    <i name="e_fr_energy">   -297.55049782 </i>
    <i name="e_wo_entrp">   -297.55049782 </i>
    <i name="e_0_energy">   -297.55049782 </i>
   </energy>
  </scstep>
  <scstep>
   <time name="dav">   77.77   78.34</time>
   <time name="total">   78.55   79.13</time>
   <energy>
    <i name="e_fr_energy">   -297.55037841 </i>
    <i name="e_wo_entrp">   -297.55037841 </i>
    <i name="e_0_energy">   -297.55037841 </i>
   </energy>
  </scstep>
  <scstep>
   <time name="dav">   77.50   77.55</time>
   <time name="total">   78.29   78.34</time>
   <energy>
    <i name="e_fr_energy">   -297.55037102 </i>
    <i name="e_wo_entrp">   -297.55037102 </i>
    <i name="e_0_energy">   -297.55037102 </i>
   </energy>
  </scstep>
  <scstep>
   <time name="dav">   68.19   68.21</time>
   <time name="total">   69.06   69.08</time>
   <energy>
    <i name="e_fr_energy">   -297.55036557 </i>
    <i name="e_wo_entrp">   -297.55036557 </i>
    <i name="e_0_energy">   -297.55036557 </i>
   </energy>
  </scstep>
  <scstep>
   <time name="dav">   59.78   59.84</time>
   <time name="total">   60.58   60.64</time>
   <energy>
    <i name="e_fr_energy">   -297.55036029 </i>
    <i name="e_wo_entrp">   -297.55036029 </i>
    <i name="e_0_energy">   -297.55036029 </i>
   </energy>
  </scstep>
  <scstep>
   <time name="dav">   58.49   58.59</time>
   <time name="total">   59.36   59.48</time>
   <energy>
    <i name="e_fr_energy">   -297.55035880 </i>
    <i name="e_wo_entrp">   -297.55035880 </i>
    <i name="e_0_energy">   -297.55035880 </i>
   </energy>
  </scstep>
  <scstep>
   <time name="dav">   45.81   45.90</time>
   <time name="total">   45.89   45.98</time>
   <energy>
    <i name="alphaZ">   1091.28983287 </i>
    <i name="ewald"> -31050.88978452 </i>
    <i name="hartreedc"> -12854.11576333 </i>
    <i name="XCdc">   1421.33625697 </i>
    <i name="pawpsdc">  44225.05382087 </i>
    <i name="pawaedc"> -43705.80960818 </i>
    <i name="eentropy">      0.00000000 </i>
    <i name="bandstr">  -4215.47698298 </i>
    <i name="atom">  44791.06186932 </i>
    <i name="e_fr_energy">   -297.55035897 </i>
    <i name="e_wo_entrp">   -297.55035897 </i>
    <i name="e_0_energy">   -297.55035897 </i>
   </energy>
  </scstep>
  <structure>
   <crystal>
    <varray name="basis" >
     <v>      11.12497353      -0.00056311       0.00022353 </v>
     <v>      -0.00048232       9.49828583      -0.00232951 </v>
     <v>       0.00022360      -0.00272069      11.14203498 </v>
    </varray>
    <i name="volume">   1177.35846725 </i>
    <varray name="rec_basis" >
     <v>       0.08988785       0.00000456      -0.00000180 </v>
     <v>       0.00000533       0.10528216       0.00002571 </v>
     <v>      -0.00000180       0.00002201       0.08975022 </v>
    </varray>
   </crystal>
   <varray name="positions" >
    <v>       0.37563509       0.00016129       0.43688944 </v>
    <v>       0.12458327       0.00046642       0.19143715 </v>
    <v>       0.37599267       0.00082123       0.19026346 </v>
    <v>       0.62468439       0.99919224       0.18720822 </v>
    <v>       0.87326718      -0.00048632       0.18633250 </v>
    <v>       0.12458423       0.99921173       0.68234070 </v>
    <v>       0.37599386      -0.00049636       0.68352963 </v>
    <v>       0.87090250       0.00017172       0.93689596 </v>
    <v>       0.62468502       0.00048400       0.68657520 </v>
    <v>       0.87326282       0.00081412       0.68746182 </v>
    <v>       0.87475957       0.00013233       0.43699605 </v>
    <v>       0.12107706       0.99984593       0.93701382 </v>
    <v>       0.38436303       0.00013791       0.93700951 </v>
    <v>      -0.00160752       0.30057456       0.06398231 </v>
    <v>       0.25104082       0.69459129       0.06501667 </v>
    <v>       0.25030027       0.29045323       0.31444820 </v>
    <v>       0.50063224       0.70981665       0.31405500 </v>
    <v>       0.50206683       0.29538968       0.06350392 </v>
    <v>       0.74897204       0.70956355       0.06270954 </v>
    <v>       0.74828639       0.29499844       0.31336613 </v>
    <v>       0.00032745       0.70486543       0.31373600 </v>
    <v>       0.00051125       0.29515647       0.56184603 </v>
    <v>       0.25050952       0.70949781       0.56112182 </v>
    <v>       0.25080851       0.30550812       0.81061010 </v>
    <v>       0.50188701       0.70462428       0.81209822 </v>
    <v>       0.50083270       0.29024091       0.56152285 </v>
    <v>       0.74851563       0.70502147       0.56222397 </v>
    <v>       0.74876758       0.29040015       0.81288363 </v>
    <v>       0.99814602       0.69936419       0.81162444 </v>
    <v>       0.24938417       0.32670016       0.06117992 </v>
    <v>       0.00155856       0.67297625       0.06195568 </v>
    <v>       0.49999478       0.32792665       0.31203635 </v>
    <v>       0.24929606       0.67239121       0.31135888 </v>
    <v>       0.75084753       0.32757659       0.06298476 </v>
    <v>       0.49837387       0.67266672       0.06196911 </v>
    <v>       0.99965905       0.32742619       0.31225028 </v>
    <v>       0.75089924       0.67222690       0.31308838 </v>
    <v>       0.24939333       0.32759403       0.56437111 </v>
    <v>      -0.00023398       0.67256954       0.56348387 </v>
    <v>       0.49826369       0.32731726       0.81373833 </v>
    <v>       0.24927963       0.67332054       0.81452845 </v>
    <v>       0.75098627       0.32777247       0.56262408 </v>
    <v>       0.50008423       0.67207336       0.56368647 </v>
    <v>       0.00147126       0.32701058       0.81375393 </v>
    <v>       0.75076549       0.67241873       0.81272858 </v>
    <v>       0.49387838       0.07774388       0.06217245 </v>
    <v>       0.24916537       0.93035228       0.05715410 </v>
    <v>       0.25189946       0.08167786       0.30861259 </v>
    <v>      -0.00419645       0.92187263       0.31119812 </v>
    <v>       0.00336665       0.07326964       0.05961007 </v>
    <v>       0.75313179       0.91829650       0.06480856 </v>
    <v>       0.75522360       0.07861209       0.31188658 </v>
    <v>       0.49754178       0.91773385       0.30933816 </v>
    <v>       0.49732927       0.08224911       0.56559543 </v>
    <v>       0.25168293       0.91836056       0.56632791 </v>
    <v>       0.24935728       0.06966599       0.81762032 </v>
    <v>       0.00354892       0.92673248       0.81521859 </v>
    <v>       0.99557893       0.07810678       0.56369418 </v>
    <v>       0.75505149       0.92142584       0.56297115 </v>
    <v>       0.75335336       0.08172359       0.81011840 </v>
    <v>       0.49410662       0.92224729       0.81270292 </v>
   </varray>
  </structure>
  <varray name="forces" >
   <v>       0.03009118      -0.00135000       0.00386901 </v>
   <v>       0.02194256       0.06874329       0.59075265 </v>
   <v>       0.06694064       0.07455281       0.35384720 </v>
   <v>       0.01110234      -0.06776113       0.05606897 </v>
   <v>      -0.09942481      -0.07484690      -0.14438773 </v>
   <v>       0.01849369      -0.06658177      -0.57764966 </v>
   <v>       0.06703707      -0.08109506      -0.33259952 </v>
   <v>      -0.64044523      -0.00355597       0.00621010 </v>
   <v>       0.01210173       0.06885275      -0.04860231 </v>
   <v>      -0.10287753       0.07429565       0.16302710 </v>
   <v>      -0.02268809      -0.00704857       0.02576796 </v>
   <v>       0.01351490       0.01192415       0.03538608 </v>
   <v>       0.37880015       0.00695814       0.02524481 </v>
   <v>      -0.05918580      -0.03803381       0.08264843 </v>
   <v>       0.05250275       0.07606875       0.08631159 </v>
   <v>      -0.01948059       0.87564810       0.11074363 </v>
   <v>       0.15538500      -1.07053348       0.17061571 </v>
   <v>       0.10144216       0.28167253       0.05369411 </v>
   <v>      -0.11154862      -0.91163328      -0.01667703 </v>
   <v>      -0.16831588       0.40867397       0.11732948 </v>
   <v>       0.04805370      -0.29479961       0.06331705 </v>
   <v>       0.03536687       0.29404247      -0.07175775 </v>
   <v>      -0.02469511      -0.86992909      -0.11298873 </v>
   <v>       0.06472833      -0.07324556      -0.09600272 </v>
   <v>       0.11391068      -0.28167122      -0.06435415 </v>
   <v>       0.14568341       1.06756360      -0.17242976 </v>
   <v>      -0.17556101      -0.41025184      -0.12732625 </v>
   <v>      -0.10726450       0.91118301       0.01346673 </v>
   <v>      -0.05148612       0.03710988      -0.09274122 </v>
   <v>      -0.06343745       0.26799366      -0.15285068 </v>
   <v>       0.13442195      -0.18691055      -0.10405289 </v>
   <v>       0.00474064       0.14652567      -0.11943306 </v>
   <v>      -0.05294187      -0.11748377      -0.16537364 </v>
   <v>       0.09358238       0.09797974       0.02538097 </v>
   <v>      -0.17833525      -0.12166796      -0.11368970 </v>
   <v>      -0.05196397       0.13758182      -0.06144363 </v>
   <v>       0.11823654      -0.18614150       0.04261070 </v>
   <v>      -0.05386577       0.11613813       0.16403216 </v>
   <v>      -0.05203531      -0.13859262       0.06208027 </v>
   <v>      -0.17937986       0.11897799       0.11302117 </v>
   <v>      -0.06200373      -0.26629790       0.15282965 </v>
   <v>       0.11657938       0.18584450      -0.04392225 </v>
   <v>       0.00599359      -0.14614685       0.11861342 </v>
   <v>       0.13506875       0.18683412       0.10339726 </v>
   <v>       0.09495408      -0.09899977      -0.02713511 </v>
   <v>      -0.54982868      -0.03644815       0.37560212 </v>
   <v>       0.09657431      -0.58312533      -0.47780173 </v>
   <v>       0.45290117      -1.01682988      -0.53694031 </v>
   <v>      -0.76779743       0.20144154      -0.18805995 </v>
   <v>       0.11581405       0.38064324      -0.13698219 </v>
   <v>       0.50320013       1.05224760       0.47745283 </v>
   <v>       0.76600861      -0.26271260      -0.20442189 </v>
   <v>      -0.49492330       1.19537703      -0.54155841 </v>
   <v>      -0.48402162      -1.18200832       0.53193872 </v>
   <v>       0.45718242       1.00470387       0.52867685 </v>
   <v>       0.08533849       0.59251797       0.47009625 </v>
   <v>       0.08465145      -0.39739404       0.11339875 </v>
   <v>      -0.76143572      -0.19840516       0.17834422 </v>
   <v>       0.78177094       0.27268941       0.18972029 </v>
   <v>       0.49989966      -1.05482365      -0.48452029 </v>
   <v>      -0.54907243       0.03153996      -0.38979366 </v>
  </varray>
  <varray name="stress" >
   <v>       5.75847347      -0.06699006       0.02095483 </v>
   <v>      -0.06699006       9.45496285       1.08888817 </v>
   <v>       0.02095474       1.08888797       5.30915125 </v>
  </varray>
  <energy>
   <i name="e_fr_energy">   -312.30696771 </i>
   <i name="e_wo_entrp">   -312.30696771 </i>
   <i name="e_0_energy">      0.00000000 </i>
  </energy>
  <time name="totalsc">  716.67  719.33</time>
 </calculation>
 <calculation>
  <scstep>
   <time name="dav">   61.90   62.03</time>
   <time name="total">   62.68   62.81</time>
   <energy>
    <i name="alphaZ">   1085.13982884 </i>
    <i name="ewald"> -31111.77233814 </i>
    <i name="hartreedc"> -12719.24017633 </i>
    <i name="XCdc">   1417.35745903 </i>
    <i name="pawpsdc">  44225.09310674 </i>
    <i name="pawaedc"> -43705.84938402 </i>
    <i name="eentropy">      0.00000000 </i>
    <i name="bandstr">  -4278.74097393 </i>
    <i name="atom">  44791.06186932 </i>
    <i name="e_fr_energy">   -296.95060849 </i>
    <i name="e_wo_entrp">   -296.95060849 </i>
    <i name="e_0_energy">   -296.95060849 </i>
   </energy>
  </scstep>
  <scstep>
   <time name="dav">   69.29   69.37</time>
   <time name="total">   70.08   70.16</time>
   <energy>
    <i name="e_fr_energy">   -298.20115730 </i>
    <i name="e_wo_entrp">   -298.20115730 </i>
    <i name="e_0_energy">   -298.20115730 </i>
   </energy>
  </scstep>
  <scstep>
   <time name="dav">   91.25   91.35</time>
   <time name="total">   92.04   92.14</time>
   <energy>
    <i name="e_fr_energy">   -298.18955526 </i>
    <i name="e_wo_entrp">   -298.18955526 </i>
    <i name="e_0_energy">   -298.18955526 </i>
   </energy>
  </scstep>
  <scstep>
   <time name="dav">   71.08   71.18</time>
   <time name="total">   71.87   71.97</time>
   <energy>
    <i name="e_fr_energy">   -298.16013398 </i>
    <i name="e_wo_entrp">   -298.16013398 </i>
    <i name="e_0_energy">   -298.16013398 </i>
   </energy>
  </scstep>
  <scstep>
   <time name="dav">   74.86   74.98</time>
   <time name="total">   75.64   75.76</time>
   <energy>
    <i name="e_fr_energy">   -298.14585916 </i>
    <i name="e_wo_entrp">   -298.14585916 </i>
    <i name="e_0_energy">   -298.14585916 </i>
   </energy>
  </scstep>
  <scstep>
   <time name="dav">   75.02   75.03</time>
   <time name="total">   75.81   75.82</time>
   <energy>
    <i name="e_fr_energy">   -298.14619690 </i>
    <i name="e_wo_entrp">   -298.14619690 </i>
    <i name="e_0_energy">   -298.14619690 </i>
   </energy>
  </scstep>
  <scstep>
   <time name="dav">   84.78   85.07</time>
   <time name="total">   85.57   85.86</time>
   <energy>
    <i name="e_fr_energy">   -298.14621918 </i>
    <i name="e_wo_entrp">   -298.14621918 </i>
    <i name="e_0_energy">   -298.14621918 </i>
   </energy>
  </scstep>
  <scstep>
   <time name="dav">   75.43   77.32</time>
   <time name="total">   76.22   78.11</time>
   <energy>
    <i name="e_fr_energy">   -298.14617241 </i>
    <i name="e_wo_entrp">   -298.14617241 </i>
    <i name="e_0_energy">   -298.14617241 </i>
   </energy>
  </scstep>
  <scstep>
   <time name="dav">   78.78   79.67</time>
   <time name="total">   79.57   80.46</time>
   <energy>
    <i name="e_fr_energy">   -298.14617815 </i>
    <i name="e_wo_entrp">   -298.14617815 </i>
    <i name="e_0_energy">   -298.14617815 </i>
   </energy>
  </scstep>
  <scstep>
   <time name="dav">   63.90   64.01</time>
   <time name="total">   64.69   64.82</time>
   <energy>
    <i name="e_fr_energy">   -298.14617880 </i>
    <i name="e_wo_entrp">   -298.14617880 </i>
    <i name="e_0_energy">   -298.14617880 </i>
   </energy>
  </scstep>
  <scstep>
   <time name="dav">   61.65   61.91</time>
   <time name="total">   62.46   62.75</time>
   <energy>
    <i name="e_fr_energy">   -298.14618024 </i>
    <i name="e_wo_entrp">   -298.14618024 </i>
    <i name="e_0_energy">   -298.14618024 </i>
   </energy>
  </scstep>
  <scstep>
   <time name="dav">   60.17   60.19</time>
   <time name="total">   60.96   60.98</time>
   <energy>
    <i name="e_fr_energy">   -298.14618142 </i>
    <i name="e_wo_entrp">   -298.14618142 </i>
    <i name="e_0_energy">   -298.14618142 </i>
   </energy>
  </scstep>
  <scstep>
   <time name="dav">   52.24   52.41</time>
   <time name="total">   52.31   52.48</time>
   <energy>
    <i name="alphaZ">   1085.13982884 </i>
    <i name="ewald"> -31111.77233814 </i>
    <i name="hartreedc"> -12767.80150319 </i>
    <i name="XCdc">   1419.57685935 </i>
    <i name="pawpsdc">  43924.00152798 </i>
    <i name="pawaedc"> -43400.63065924 </i>
    <i name="eentropy">      0.00000000 </i>
    <i name="bandstr">  -4237.72176688 </i>
    <i name="atom">  44791.06186932 </i>
    <i name="e_fr_energy">   -298.14618197 </i>
    <i name="e_wo_entrp">   -298.14618197 </i>
    <i name="e_0_energy">   -298.14618197 </i>
   </energy>
  </scstep>
  <structure>
   <crystal>
    <varray name="basis" >
     <v>      11.14181111      -0.00120649       0.00044229 </v>
     <v>      -0.00103132       9.52149883       0.00276300 </v>
     <v>       0.00044312       0.00325111      11.16097278 </v>
    </varray>
    <i name="volume">   1184.03111822 </i>
    <varray name="rec_basis" >
     <v>       0.08975202       0.00000972      -0.00000357 </v>
     <v>       0.00001137       0.10502549      -0.00003059 </v>
     <v>      -0.00000356      -0.00002600       0.08959793 </v>
    </varray>
   </crystal>
   <varray name="positions" >
    <v>       0.37585783       0.00015118       0.43691346 </v>
    <v>       0.12466756       0.00105332       0.19571138 </v>
    <v>       0.37680641       0.00144651       0.19307335 </v>
    <v>       0.62476045       0.99860352       0.18757760 </v>
    <v>       0.87232862      -0.00111446       0.18550741 </v>
    <v>       0.12465415       0.99863506       0.67813718 </v>
    <v>       0.37680852      -0.00116029       0.68083122 </v>
    <v>       0.86643861       0.00015417       0.93693261 </v>
    <v>       0.62476569       0.00107682       0.68625441 </v>
    <v>       0.87230775       0.00143473       0.68838772 </v>
    <v>       0.87442226       0.00008243       0.43715471 </v>
    <v>       0.11949628       0.99990830       0.93722063 </v>
    <v>       0.38940454       0.00016113       0.93717094 </v>
    <v>      -0.00252267       0.30243589       0.06478313 </v>
    <v>       0.25161291       0.69107925       0.06622463 </v>
    <v>       0.25037996       0.29306510       0.31554299 </v>
    <v>       0.50159102       0.70632523       0.31525677 </v>
    <v>       0.50323986       0.29688705       0.06399851 </v>
    <v>       0.74805141       0.70677678       0.06259913 </v>
    <v>       0.74695968       0.29698726       0.31407845 </v>
    <v>       0.00070820       0.70339952       0.31435566 </v>
    <v>       0.00080854       0.29662693       0.56117185 </v>
    <v>       0.25054729       0.70689612       0.55999461 </v>
    <v>       0.25144415       0.30907237       0.80935921 </v>
    <v>       0.50314410       0.70313237       0.81154716 </v>
    <v>       0.50172741       0.29373939       0.56029344 </v>
    <v>       0.74714588       0.70303211       0.56145357 </v>
    <v>       0.74788673       0.29317070       0.81296628 </v>
    <v>       0.99726904       0.69747472       0.81077142 </v>
    <v>       0.24885799       0.32802513       0.05988517 </v>
    <v>       0.00271081       0.67193638       0.06116471 </v>
    <v>       0.50003229       0.32910663       0.31121034 </v>
    <v>       0.24881950       0.67147830       0.31007773 </v>
    <v>       0.75155372       0.32837851       0.06314143 </v>
    <v>       0.49696875       0.67183782       0.06114189 </v>
    <v>       0.99932471       0.32837031       0.31175482 </v>
    <v>       0.75176919       0.67090549       0.31335802 </v>
    <v>       0.24891178       0.32849447       0.56565030 </v>
    <v>      -0.00056608       0.67161865       0.56398745 </v>
    <v>       0.49685024       0.32812631       0.81455797 </v>
    <v>       0.24875773       0.67201194       0.81581871 </v>
    <v>       0.75184428       0.32909224       0.56234591 </v>
    <v>       0.50012299       0.67089529       0.56451002 </v>
    <v>       0.00263117       0.32804518       0.81453809 </v>
    <v>       0.75148435       0.67160996       0.81256182 </v>
    <v>       0.48923315       0.07747013       0.06367868 </v>
[...]
       <r>    8.8070    0.0000 </r>
       <r>    8.8388    0.0000 </r>
       <r>    8.8674    0.0000 </r>
       <r>    8.8977    0.0000 </r>
       <r>    8.9372    0.0000 </r>
      </set>
     </set>
    </set>
   </array>
  </eigenvalues>
  <separator name="orbital magnetization" >
   <v name="MAGDIPOLOUT">      0.00000000      0.00000000      0.00000000</v>
  </separator>
  <dos>
   <i name="efermi">      4.33845328 </i>
   <total>
    <array>
     <dimension dim="1">gridpoints</dimension>
     <dimension dim="2">spin</dimension>
     <field>energy</field>
     <field>total</field>
     <field>integrated</field>
     <set>
      <set comment="spin 1">
       <r>   -42.6379     0.0000     0.0000 </r>
       <r>   -42.4560     0.0000     0.0000 </r>
       <r>   -42.2741     0.0000     0.0000 </r>
       <r>   -42.0922     0.0000     0.0000 </r>
       <r>   -41.9103     0.0000     0.0000 </r>
       <r>   -41.7284     0.0000     0.0000 </r>
       <r>   -41.5465     0.0000     0.0000 </r>
       <r>   -41.3646     0.0000     0.0000 </r>
       <r>   -41.1827     0.0000     0.0000 </r>
       <r>   -41.0008     0.0000     0.0000 </r>
       <r>   -40.8189     0.0000     0.0000 </r>
       <r>   -40.6370     0.0000     0.0000 </r>
       <r>   -40.4551     0.0000     0.0000 </r>
       <r>   -40.2732     0.0000     0.0000 </r>
       <r>   -40.0913     0.0000     2.0000 </r>
       <r>   -39.9094     0.0000     2.0000 </r>
       <r>   -39.7275     0.0000     6.0000 </r>
       <r>   -39.5456     0.0000    12.0000 </r>
       <r>   -39.3637     0.0000    16.0000 </r>
       <r>   -39.1818     0.0000    16.0000 </r>
       <r>   -38.9999     0.0000    20.0000 </r>
       <r>   -38.8179     0.0000    20.0000 </r>
       <r>   -38.6360     0.0000    20.0000 </r>
       <r>   -38.4541     0.0000    20.0000 </r>
       <r>   -38.2722     0.0000    20.0000 </r>
       <r>   -38.0903     0.0000    20.0000 </r>
       <r>   -37.9084     0.0000    20.0000 </r>
       <r>   -37.7265     0.0000    20.0000 </r>
       <r>   -37.5446     0.0000    20.0000 </r>
       <r>   -37.3627     0.0000    20.0000 </r>
       <r>   -37.1808     0.0000    20.0000 </r>
       <r>   -36.9989     0.0000    20.0000 </r>
       <r>   -36.8170     0.0000    20.0000 </r>
       <r>   -36.6351     0.0000    20.0000 </r>
       <r>   -36.4532     0.0000    20.0000 </r>
       <r>   -36.2713     0.0000    20.0000 </r>
       <r>   -36.0894     0.0000    20.0000 </r>
       <r>   -35.9075     0.0000    20.0000 </r>
       <r>   -35.7256     0.0000    20.0000 </r>
       <r>   -35.5437     0.0000    20.0000 </r>
       <r>   -35.3618     0.0000    20.0000 </r>
       <r>   -35.1799     0.0000    20.0000 </r>
       <r>   -34.9980     0.0000    20.0000 </r>
       <r>   -34.8161     0.0000    20.0000 </r>
       <r>   -34.6342     0.0000    20.0000 </r>
       <r>   -34.4523     0.0000    20.0000 </r>
       <r>   -34.2704     0.0000    20.0000 </r>
       <r>   -34.0885     0.0000    20.0000 </r>
       <r>   -33.9066     0.0000    20.0000 </r>
       <r>   -33.7247     0.0000    20.0000 </r>
       <r>   -33.5428     0.0000    20.0000 </r>
       <r>   -33.3609     0.0000    20.0000 </r>
       <r>   -33.1790     0.0000    20.0000 </r>
       <r>   -32.9971     0.0000    20.0000 </r>
       <r>   -32.8152     0.0000    20.0000 </r>
       <r>   -32.6333     0.0000    20.0000 </r>
       <r>   -32.4514     0.0000    20.0000 </r>
       <r>   -32.2695     0.0000    20.0000 </r>
       <r>   -32.0876     0.0000    20.0000 </r>
       <r>   -31.9056     0.0000    20.0000 </r>
       <r>   -31.7237     0.0000    20.0000 </r>
       <r>   -31.5418     0.0000    20.0000 </r>
       <r>   -31.3599     0.0000    20.0000 </r>
       <r>   -31.1780     0.0000    20.0000 </r>
       <r>   -30.9961     0.0000    20.0000 </r>
       <r>   -30.8142     0.0000    20.0000 </r>
       <r>   -30.6323     0.0000    20.0000 </r>
       <r>   -30.4504     0.0000    20.0000 </r>
       <r>   -30.2685     0.0000    20.0000 </r>
       <r>   -30.0866     0.0000    20.0000 </r>
       <r>   -29.9047     0.0000    20.0000 </r>
       <r>   -29.7228     0.0000    20.0000 </r>
       <r>   -29.5409     0.0000    20.0000 </r>
       <r>   -29.3590     0.0000    20.0000 </r>
       <r>   -29.1771     0.0000    20.0000 </r>
       <r>   -28.9952     0.0000    20.0000 </r>
       <r>   -28.8133     0.0000    20.0000 </r>
       <r>   -28.6314     0.0000    20.0000 </r>
       <r>   -28.4495     0.0000    20.0000 </r>
       <r>   -28.2676     0.0000    20.0000 </r>
       <r>   -28.0857     0.0000    20.0000 </r>
       <r>   -27.9038     0.0000    20.0000 </r>
       <r>   -27.7219     0.0000    20.0000 </r>
       <r>   -27.5400     0.0000    20.0000 </r>
       <r>   -27.3581     0.0000    20.0000 </r>
       <r>   -27.1762     0.0000    20.0000 </r>
       <r>   -26.9943     0.0000    20.0000 </r>
       <r>   -26.8124     0.0000    20.0000 </r>
       <r>   -26.6305     0.0000    20.0000 </r>
       <r>   -26.4486     0.0000    20.0000 </r>
       <r>   -26.2667     0.0000    20.0000 </r>
       <r>   -26.0848     0.0000    20.0000 </r>
       <r>   -25.9029     0.0000    20.0000 </r>
       <r>   -25.7210     0.0000    20.0000 </r>
       <r>   -25.5391     0.0000    20.0000 </r>
       <r>   -25.3572     0.0000    20.0000 </r>
       <r>   -25.1753     0.0000    20.0000 </r>
       <r>   -24.9933     0.0000    20.0000 </r>
       <r>   -24.8114     0.0000    20.0000 </r>
       <r>   -24.6295     0.0000    20.0000 </r>
       <r>   -24.4476     0.0000    20.0000 </r>
       <r>   -24.2657     0.0000    20.0000 </r>
       <r>   -24.0838     0.0000    20.0000 </r>
       <r>   -23.9019     0.0000    20.0000 </r>
       <r>   -23.7200     0.0000    20.0000 </r>
       <r>   -23.5381     0.0000    20.0000 </r>
       <r>   -23.3562     0.0000    20.0000 </r>
       <r>   -23.1743     0.0000    20.0000 </r>
       <r>   -22.9924     0.0000    20.0000 </r>
       <r>   -22.8105     0.0000    20.0000 </r>
       <r>   -22.6286     0.0000    20.0000 </r>
       <r>   -22.4467     0.0000    20.0000 </r>
       <r>   -22.2648     0.0000    20.0000 </r>
       <r>   -22.0829     0.0000    20.0000 </r>
       <r>   -21.9010     0.0000    20.0000 </r>
       <r>   -21.7191     0.0000    20.0000 </r>
       <r>   -21.5372     0.0000    20.0000 </r>
       <r>   -21.3553     0.0000    20.0000 </r>
       <r>   -21.1734     0.0000    20.0000 </r>
       <r>   -20.9915     0.0000    20.0000 </r>
       <r>   -20.8096     0.0000    20.0000 </r>
       <r>   -20.6277     0.0000    20.0000 </r>
       <r>   -20.4458     0.0000    20.0000 </r>
       <r>   -20.2639     0.0000    20.0000 </r>
       <r>   -20.0820     0.0000    20.0000 </r>
       <r>   -19.9001     0.0000    20.0000 </r>
       <r>   -19.7182     0.0000    20.0000 </r>
       <r>   -19.5363     0.0000    20.0000 </r>
       <r>   -19.3544     0.0000    20.0000 </r>
       <r>   -19.1725     0.0000    20.0000 </r>
       <r>   -18.9906     0.0000    20.0000 </r>
       <r>   -18.8087     0.0000    20.0000 </r>
       <r>   -18.6268     0.0000    60.0000 </r>
       <r>   -18.4449     0.0000   152.0000 </r>
       <r>   -18.2629     0.0000   180.0000 </r>
       <r>   -18.0810     0.0000   180.0000 </r>
       <r>   -17.8991     0.0000   180.0000 </r>
       <r>   -17.7172     0.0000   180.0000 </r>
       <r>   -17.5353     0.0000   180.0000 </r>
       <r>   -17.3534     0.0000   180.0000 </r>
       <r>   -17.1715     0.0000   180.0000 </r>
       <r>   -16.9896     0.0000   180.0000 </r>
       <r>   -16.8077     0.0000   180.0000 </r>
       <r>   -16.6258     0.0000   180.0000 </r>
       <r>   -16.4439     0.0000   180.0000 </r>
       <r>   -16.2620     0.0000   180.0000 </r>
       <r>   -16.0801     0.0000   180.0000 </r>
       <r>   -15.8982     0.0000   180.0000 </r>
       <r>   -15.7163     0.0000   180.0000 </r>
       <r>   -15.5344     0.0000   180.0000 </r>
       <r>   -15.3525     0.0000   180.0000 </r>
       <r>   -15.1706     0.0000   180.0000 </r>
       <r>   -14.9887     0.0000   180.0000 </r>
       <r>   -14.8068     0.0000   180.0000 </r>
       <r>   -14.6249     0.0000   180.0000 </r>
       <r>   -14.4430     0.0000   180.0000 </r>
       <r>   -14.2611     0.0000   180.0000 </r>
       <r>   -14.0792     0.0000   180.0000 </r>
       <r>   -13.8973     0.0000   180.0000 </r>
       <r>   -13.7154     0.0000   180.0000 </r>
       <r>   -13.5335     0.0000   180.0000 </r>
       <r>   -13.3516     0.0000   180.0000 </r>
       <r>   -13.1697     0.0000   180.0000 </r>
       <r>   -12.9878     0.0000   184.0000 </r>
       <r>   -12.8059     0.0000   188.0000 </r>
       <r>   -12.6240     0.0000   202.0000 </r>
       <r>   -12.4421     0.0000   210.0000 </r>
       <r>   -12.2602     0.0000   212.0000 </r>
       <r>   -12.0783     0.0000   212.0000 </r>
       <r>   -11.8964     0.0000   212.0000 </r>
       <r>   -11.7145     0.0000   212.0000 </r>
       <r>   -11.5326     0.0000   212.0000 </r>
       <r>   -11.3506     0.0000   212.0000 </r>
       <r>   -11.1687     0.0000   212.0000 </r>
       <r>   -10.9868     0.0000   212.0000 </r>
       <r>   -10.8049     0.0000   212.0000 </r>
       <r>   -10.6230     0.0000   212.0000 </r>
       <r>   -10.4411     0.0000   212.0000 </r>
       <r>   -10.2592     0.0000   212.0000 </r>
       <r>   -10.0773     0.0000   212.0000 </r>
       <r>    -9.8954     0.0000   212.0000 </r>
       <r>    -9.7135     0.0000   212.0000 </r>
       <r>    -9.5316     0.0000   212.0000 </r>
       <r>    -9.3497     1.7873   212.0226 </r>
       <r>    -9.1678    10.1885   213.4811 </r>
       <r>    -8.9859     9.9577   215.5068 </r>
       <r>    -8.8040    10.5479   216.4091 </r>
       <r>    -8.6221     8.9876   219.6742 </r>
       <r>    -8.4402    45.1681   222.6112 </r>
       <r>    -8.2583    12.8563   227.3165 </r>
       <r>    -8.0764    23.7058   228.5314 </r>
       <r>    -7.8945    29.2746   235.1453 </r>
       <r>    -7.7126    12.1518   239.9631 </r>
       <r>    -7.5307    23.9551   242.2809 </r>
       <r>    -7.3488     0.0000   244.0000 </r>
       <r>    -7.1669     0.0000   244.0000 </r>
       <r>    -6.9850     0.0000   244.0000 </r>
       <r>    -6.8031     0.0000   244.0000 </r>
       <r>    -6.6212     0.0000   244.0000 </r>
       <r>    -6.4393     0.0000   244.0000 </r>
       <r>    -6.2574     3.0795   244.0578 </r>
       <r>    -6.0755    26.2946   246.7183 </r>
       <r>    -5.8936     0.6787   252.0038 </r>
       <r>    -5.7117    33.9286   254.6119 </r>
       <r>    -5.5298    27.1798   259.9571 </r>
       <r>    -5.3479    22.6382   264.3480 </r>
       <r>    -5.1660     9.9638   267.0822 </r>
       <r>    -4.9841     2.4815   268.0712 </r>
       <r>    -4.8022    11.0167   269.3321 </r>
       <r>    -4.6203    11.5640   271.5905 </r>
       <r>    -4.4383     4.3548   272.5939 </r>
       <r>    -4.2564     7.2940   273.6530 </r>
       <r>    -4.0745     5.7665   275.1745 </r>
       <r>    -3.8926     1.9140   275.7300 </r>
       <r>    -3.7107     0.6664   275.9646 </r>
       <r>    -3.5288     0.0000   276.0000 </r>
       <r>    -3.3469     0.0000   276.0000 </r>
       <r>    -3.1650     0.0000   276.0000 </r>
       <r>    -2.9831     0.0000   276.0000 </r>
       <r>    -2.8012     0.0000   276.0000 </r>
       <r>    -2.6193     0.0000   276.0000 </r>
       <r>    -2.4374     0.0000   276.0000 </r>
       <r>    -2.2555     0.0000   276.0000 </r>
       <r>    -2.0736     0.0000   276.0000 </r>
       <r>    -1.8917     0.0000   276.0000 </r>
       <r>    -1.7098     0.0000   276.0000 </r>
       <r>    -1.5279     0.0000   276.0000 </r>
       <r>    -1.3460     0.0002   276.0000 </r>
       <r>    -1.1641     7.8617   276.6001 </r>
       <r>    -0.9822     5.5959   278.0066 </r>
       <r>    -0.8003    11.5155   279.3433 </r>
       <r>    -0.6184    10.9954   281.7096 </r>
       <r>    -0.4365     9.1841   283.3646 </r>
       <r>    -0.2546    27.1927   286.5881 </r>
       <r>    -0.0727    25.8487   291.8654 </r>
       <r>     0.1092    43.2913   299.5567 </r>
       <r>     0.2911    30.4870   305.5165 </r>
       <r>     0.4730    32.5121   313.6240 </r>
       <r>     0.6549    25.4221   319.2379 </r>
       <r>     0.8368    27.8155   325.2121 </r>
       <r>     1.0187    43.8405   332.1769 </r>
       <r>     1.2006    42.0464   340.6218 </r>
       <r>     1.3825    37.8856   349.0957 </r>
       <r>     1.5644    43.5737   357.0601 </r>
       <r>     1.7463    45.8904   365.4996 </r>
       <r>     1.9282    44.6385   374.2070 </r>
       <r>     2.1101    42.4918   383.4156 </r>
       <r>     2.2920    48.2400   391.8851 </r>
       <r>     2.4740    65.2541   401.4493 </r>
       <r>     2.6559    55.9506   415.1276 </r>
       <r>     2.8378    72.3274   427.5425 </r>
       <r>     3.0197    24.8414   440.5008 </r>
       <r>     3.2016    45.2344   449.4530 </r>
       <r>     3.3835    25.8688   454.4594 </r>
       <r>     3.5654    43.4365   461.7487 </r>
       <r>     3.7473    13.7407   464.8493 </r>
       <r>     3.9292     8.2703   466.8511 </r>
       <r>     4.1111     2.8087   467.8586 </r>
       <r>     4.2930     0.0000   468.0000 </r>
       <r>     4.4749     0.0000   468.0000 </r>
       <r>     4.6568     0.0000   468.0000 </r>
       <r>     4.8387     0.0000   468.0000 </r>
       <r>     5.0206     0.0000   468.0000 </r>
       <r>     5.2025     0.2087   468.0025 </r>
       <r>     5.3844     4.6310   468.4068 </r>
       <r>     5.5663     9.6389   469.7046 </r>
       <r>     5.7482     8.6800   471.5483 </r>
       <r>     5.9301    19.6658   475.4914 </r>
       <r>     6.1120    13.3056   478.1239 </r>
       <r>     6.2939    12.4458   480.4494 </r>
       <r>     6.4758    13.3716   482.7845 </r>
       <r>     6.6577    14.4855   485.3182 </r>
       <r>     6.8396    15.7387   488.0585 </r>
       <r>     7.0215    18.5811   491.1399 </r>
       <r>     7.2034    21.8998   494.8940 </r>
       <r>     7.3853    27.8971   499.3586 </r>
       <r>     7.5672    39.2493   506.5757 </r>
       <r>     7.7491    33.2071   512.2868 </r>
       <r>     7.9310    36.0840   518.9964 </r>
       <r>     8.1129    35.0137   525.2844 </r>
       <r>     8.2948    27.0029   531.3293 </r>
       <r>     8.4767    20.9152   535.4112 </r>
       <r>     8.6586    30.3299   540.0055 </r>
       <r>     8.8405    46.4189   545.9641 </r>
       <r>     9.0224    31.5170   553.2573 </r>
       <r>     9.2043    16.3657   557.5030 </r>
       <r>     9.3863     7.1523   559.7993 </r>
       <r>     9.5682     0.0000   560.0000 </r>
       <r>     9.7501     0.0000   560.0000 </r>
       <r>     9.9320     0.0000   560.0000 </r>
       <r>    10.1139     0.0000   560.0000 </r>
       <r>    10.2958     0.0000   560.0000 </r>
       <r>    10.4777     0.0000   560.0000 </r>
       <r>    10.6596     0.0000   560.0000 </r>
       <r>    10.8415     0.0000   560.0000 </r>
       <r>    11.0234     0.0000   560.0000 </r>
       <r>    11.2053     0.0000   560.0000 </r>
       <r>    11.3872     0.0000   560.0000 </r>
       <r>    11.5691     0.0000   560.0000 </r>
       <r>    11.7510     0.0000   560.0000 </r>
       <r>    11.9329     0.0000   560.0000 </r>
      </set>
     </set>
    </array>
   </total>
  </dos>
 </calculation>
 <structure name="finalpos" >
  <crystal>
   <varray name="basis" >
    <v>      11.21614383       0.00167738      -0.00186683 </v>
    <v>       0.00141874       9.52876276      -0.01927309 </v>
    <v>      -0.00187058      -0.02118279      11.17977510 </v>
   </varray>
   <i name="volume">   1194.84471021 </i>
   <varray name="rec_basis" >
    <v>       0.08915721      -0.00001324       0.00001489 </v>
    <v>      -0.00001566       0.10494582       0.00019884 </v>
    <v>       0.00001486       0.00018092       0.08944758 </v>
   </varray>
  </crystal>
  <varray name="positions" >
   <v>       0.37987901       0.00006316       0.43762317 </v>
   <v>       0.11994212       0.00959992       0.22412135 </v>
   <v>       0.39793125       0.01625846       0.20257154 </v>
   <v>       0.65818188       0.97191450       0.24667609 </v>
   <v>       0.88438910      -0.00174676       0.17550582 </v>
   <v>       0.12010912       0.99036047       0.65079733 </v>
   <v>       0.39892837      -0.01698894       0.67256640 </v>
   <v>       0.72883049      -0.00627653       0.93338009 </v>
   <v>       0.65886354       0.02877939       0.62686567 </v>
   <v>       0.88481874       0.00109553       0.69829628 </v>
   <v>       0.88938981       0.00018059       0.43697430 </v>
   <v>       0.11395198      -0.00016103       0.93763514 </v>
   <v>       0.37232694      -0.00023910       0.93783820 </v>
   <v>       0.00022754       0.30300344       0.06617452 </v>
   <v>       0.24887868       0.68371990       0.05834529 </v>
   <v>       0.25584326       0.29746614       0.31433222 </v>
   <v>       0.49793464       0.69990454       0.31299004 </v>
   <v>       0.49676592       0.30734334       0.06275122 </v>
   <v>       0.74843529       0.69694245       0.06778707 </v>
   <v>       0.75430887       0.30350177       0.31184938 </v>
   <v>       0.00137392       0.69254842       0.31031871 </v>
   <v>       0.00124603       0.30739470       0.56473578 </v>
   <v>       0.25591623       0.70267374       0.56104149 </v>
   <v>       0.24886724       0.31605698       0.81720556 </v>
   <v>       0.49680747       0.69184532       0.81268047 </v>
   <v>       0.49786520       0.30020525       0.56229498 </v>
   <v>       0.75443421       0.69687371       0.56303965 </v>
   <v>       0.74853233       0.30197593       0.80746800 </v>
   <v>       0.00036663       0.69675192       0.80904481 </v>
   <v>       0.24588590       0.36098358       0.06392154 </v>
   <v>      -0.00218581       0.65849814       0.06186461 </v>
   <v>       0.49975992       0.34036131       0.31170996 </v>
   <v>       0.24812834       0.66768125       0.31221574 </v>
   <v>       0.74861824       0.29961815       0.05835227 </v>
   <v>       0.49754357       0.65792484       0.06274470 </v>
   <v>      -0.00089681       0.34810574       0.31264606 </v>
   <v>       0.74888191       0.65232174       0.31708128 </v>
   <v>       0.24815937       0.33216012       0.56367546 </v>
   <v>      -0.00085819       0.65185181       0.56301826 </v>
   <v>       0.49770283       0.34139889       0.81289923 </v>
   <v>       0.24567851       0.63903557       0.81189407 </v>
   <v>       0.74889622       0.34836489       0.55958085 </v>
   <v>       0.49978436       0.66000797       0.56396989 </v>
   <v>      -0.00235277       0.34148615       0.81372541 </v>
   <v>       0.74821439       0.71106535       0.81860279 </v>
   <v>       0.46535074       0.09470172       0.06147303 </v>
   <v>       0.24346463       0.90367334       0.03299644 </v>
   <v>       0.26652992       0.08329974       0.30055258 </v>
   <v>      -0.01218092       0.91148030       0.30747789 </v>
   <v>       0.02360673       0.08464458       0.07545366 </v>
   <v>       0.74858373       0.91121621       0.08977670 </v>
   <v>       0.78185790       0.08748465       0.31570676 </v>
   <v>       0.50072653       0.91498226       0.30832731 </v>
   <v>       0.50099698       0.08507593       0.56672772 </v>
   <v>       0.26683157       0.91682585       0.57471014 </v>
   <v>       0.24348323       0.09627978       0.84287939 </v>
   <v>       0.02429558       0.91501389       0.79932676 </v>
   <v>       0.98780176       0.08842700       0.56700227 </v>
   <v>       0.78205329       0.91277186       0.55806466 </v>
   <v>       0.74903410       0.08826737       0.78391873 </v>
   <v>       0.46508843       0.90450285       0.81426328 </v>
  </varray>
 </structure>
</modeling>
