<?xml version="1.0" encoding="ISO-8859-1"?>
<modeling>
 <generator>
  <i name="program" type="string">vasp </i>
  <i name="version" type="string">5.4.4.18Apr17-6-g9f103f2a35  </i>
  <i name="subversion" type="string">(build Jul 31 2017 11:33:29) complex            parallel </i>
  <i name="platform" type="string">LinuxIFC </i>
  <i name="date" type="string">2021 09 29 </i>
  <i name="time" type="string">13:06:12 </i>
 </generator>
 <incar>
  <i type="string" name="SYSTEM"> La2O2S</i>
  <i type="string" name="PREC">normal</i>
  <i type="int" name="NELMIN">     4</i>
  <i type="int" name="IBRION">     2</i>
  <i type="int" name="NFREE">    10</i>
  <i name="EDIFF">      0.00000100</i>
  <i name="EDIFFG">     -0.01000000</i>
  <i type="int" name="NSW">     1</i>
  <i type="int" name="ISIF">     2</i>
  <i name="ENCUT">    600.00000000</i>
  <i name="ENAUG">    900.00000000</i>
  <i type="int" name="ISMEAR">    -5</i>
  <i type="logical" name="LWAVE"> F  </i>
  <i type="logical" name="LCHARG"> F  </i>
  <v type="int" name="KPOINT_BSE">    -1     0     0     0</v>
 </incar>
 <structure name="primitive_cell" >
  <crystal>
   <varray name="basis" >
    <v>      11.17850000       0.00000000       0.00000000 </v>
    <v>       0.00000000       9.57460000       0.00000000 </v>
    <v>       0.00000000       0.00000000      11.18240000 </v>
   </varray>
   <i name="volume">   1196.84853820 </i>
   <varray name="rec_basis" >
    <v>       0.08945744       0.00000000       0.00000000 </v>
    <v>       0.00000000       0.10444301       0.00000000 </v>
    <v>       0.00000000       0.00000000       0.08942624 </v>
   </varray>
  </crystal>
  <varray name="positions" >
   <v>       0.37539000       0.00017000       0.43687000 </v>
   <v>      -0.49987000      -0.07798000       0.31246000 </v>
   <v>       0.25013000       0.07798000       0.31246000 </v>
   <v>       0.49987000       0.07798000      -0.43754000 </v>
   <v>       0.24987000      -0.07798000      -0.43754000 </v>
   <v>       0.49987000      -0.29519000       0.31282000 </v>
   <v>       0.24987000       0.29519000       0.31282000 </v>
   <v>      -0.49987000       0.29519000      -0.43719000 </v>
   <v>       0.25013000      -0.29519000      -0.43719000 </v>
   <v>       0.49995000       0.32677000       0.31286000 </v>
   <v>       0.24995000      -0.32677000       0.31286000 </v>
   <v>      -0.49995000      -0.32677000      -0.43714000 </v>
   <v>       0.25005000       0.32677000      -0.43714000 </v>
   <v>      -0.37539000      -0.00016000       0.18687000 </v>
   <v>      -0.37539000      -0.00016000      -0.31313000 </v>
   <v>       0.12461000      -0.00016000       0.18687000 </v>
   <v>       0.12461000      -0.00016000      -0.31313000 </v>
   <v>       0.49987000       0.07798000       0.06246000 </v>
   <v>      -0.24987000       0.07798000       0.31246000 </v>
   <v>      -0.25013000      -0.07798000      -0.43754000 </v>
   <v>       0.24987000      -0.07798000       0.06246000 </v>
   <v>       0.00013000      -0.07798000       0.31246000 </v>
   <v>      -0.49987000      -0.07798000      -0.18754000 </v>
   <v>      -0.00013000       0.07798000      -0.43754000 </v>
   <v>       0.25013000       0.07798000      -0.18754000 </v>
   <v>      -0.49987000       0.29519000       0.06281000 </v>
   <v>      -0.25013000       0.29519000       0.31282000 </v>
   <v>       0.25013000      -0.29519000       0.06281000 </v>
   <v>      -0.24987000      -0.29519000      -0.43719000 </v>
   <v>      -0.00013000      -0.29519000       0.31282000 </v>
   <v>       0.00013000       0.29519000      -0.43719000 </v>
   <v>       0.49987000      -0.29519000      -0.18718000 </v>
   <v>       0.24987000       0.29519000      -0.18718000 </v>
   <v>      -0.49995000      -0.32677000       0.06286000 </v>
   <v>       0.25005000       0.32677000       0.06286000 </v>
   <v>      -0.25005000      -0.32677000       0.31286000 </v>
   <v>      -0.24995000       0.32677000      -0.43714000 </v>
   <v>      -0.00005000       0.32677000       0.31286000 </v>
   <v>       0.00005000      -0.32677000      -0.43714000 </v>
   <v>       0.49995000       0.32677000      -0.18714000 </v>
   <v>       0.24995000      -0.32677000      -0.18714000 </v>
   <v>      -0.12461000       0.00017000       0.43687000 </v>
   <v>       0.37539000       0.00017000      -0.06313000 </v>
   <v>      -0.25013000      -0.07798000       0.06246000 </v>
   <v>      -0.00013000       0.07798000       0.06246000 </v>
   <v>      -0.24987000       0.07798000      -0.18754000 </v>
   <v>       0.00013000      -0.07798000      -0.18754000 </v>
   <v>      -0.12539000       0.00017000       0.18687000 </v>
   <v>      -0.37461000      -0.00016000      -0.06313000 </v>
   <v>      -0.24987000      -0.29519000       0.06281000 </v>
   <v>       0.00013000       0.29519000       0.06281000 </v>
   <v>      -0.25013000       0.29519000      -0.18718000 </v>
   <v>      -0.00013000      -0.29519000      -0.18718000 </v>
   <v>      -0.24995000       0.32677000       0.06286000 </v>
   <v>       0.00005000      -0.32677000       0.06286000 </v>
   <v>      -0.25005000      -0.32677000      -0.18714000 </v>
   <v>      -0.00005000       0.32677000      -0.18714000 </v>
   <v>      -0.12461000       0.00017000      -0.06313000 </v>
  </varray>
 </structure>
 <varray name="primitive_index" >
  <v type="int" >        1 </v>
  <v type="int" >       50 </v>
  <v type="int" >       45 </v>
  <v type="int" >       51 </v>
  <v type="int" >       52 </v>
  <v type="int" >       14 </v>
  <v type="int" >       13 </v>
  <v type="int" >       23 </v>
  <v type="int" >       20 </v>
  <v type="int" >       29 </v>
  <v type="int" >       30 </v>
  <v type="int" >       40 </v>
  <v type="int" >       35 </v>
  <v type="int" >        7 </v>
  <v type="int" >       10 </v>
  <v type="int" >        5 </v>
  <v type="int" >        9 </v>
  <v type="int" >       43 </v>
  <v type="int" >       49 </v>
  <v type="int" >       56 </v>
  <v type="int" >       44 </v>
  <v type="int" >       46 </v>
  <v type="int" >       58 </v>
  <v type="int" >       55 </v>
  <v type="int" >       53 </v>
  <v type="int" >       15 </v>
  <v type="int" >       17 </v>
  <v type="int" >       12 </v>
  <v type="int" >       24 </v>
  <v type="int" >       18 </v>
  <v type="int" >       19 </v>
  <v type="int" >       22 </v>
  <v type="int" >       21 </v>
  <v type="int" >       32 </v>
  <v type="int" >       27 </v>
  <v type="int" >       34 </v>
  <v type="int" >       39 </v>
  <v type="int" >       33 </v>
  <v type="int" >       36 </v>
  <v type="int" >       37 </v>
  <v type="int" >       38 </v>
  <v type="int" >        6 </v>
  <v type="int" >        8 </v>
  <v type="int" >       48 </v>
  <v type="int" >       47 </v>
  <v type="int" >       57 </v>
  <v type="int" >       54 </v>
  <v type="int" >        2 </v>
  <v type="int" >        3 </v>
  <v type="int" >       16 </v>
  <v type="int" >       11 </v>
  <v type="int" >       25 </v>
  <v type="int" >       26 </v>
  <v type="int" >       31 </v>
  <v type="int" >       28 </v>
  <v type="int" >       42 </v>
  <v type="int" >       41 </v>
  <v type="int" >        4 </v>
 </varray>
 <kpoints>
  <generation param="Gamma">
   <v type="int" name="divisions">       2        2        2 </v>
   <v name="usershift">      0.00000000       0.00000000       0.00000000 </v>
   <v name="genvec1">      0.50000000       0.00000000       0.00000000 </v>
   <v name="genvec2">      0.00000000       0.50000000       0.00000000 </v>
   <v name="genvec3">      0.00000000       0.00000000       0.50000000 </v>
   <v name="shift">      0.00000000       0.00000000       0.00000000 </v>
  </generation>
  <varray name="kpointlist" >
   <v>       0.00000000       0.00000000       0.00000000 </v>
   <v>       0.50000000       0.00000000       0.00000000 </v>
   <v>       0.00000000       0.50000000       0.00000000 </v>
   <v>       0.50000000       0.50000000       0.00000000 </v>
   <v>       0.00000000       0.00000000       0.50000000 </v>
   <v>       0.50000000       0.00000000       0.50000000 </v>
   <v>       0.00000000       0.50000000       0.50000000 </v>
   <v>       0.50000000       0.50000000       0.50000000 </v>
  </varray>
  <varray name="weights" >
   <v>       0.12500000 </v>
   <v>       0.12500000 </v>
   <v>       0.12500000 </v>
   <v>       0.12500000 </v>
   <v>       0.12500000 </v>
   <v>       0.12500000 </v>
   <v>       0.12500000 </v>
   <v>       0.12500000 </v>
  </varray>
  <varray name="tetrahedronlist"  type="int" >
   <v type="int" >        2        1        2        4        5 </v>
   <v type="int" >        2        1        3        4        5 </v>
   <v type="int" >        2        3        4        5        7 </v>
   <v type="int" >        2        2        4        5        6 </v>
   <v type="int" >        2        4        5        6        8 </v>
   <v type="int" >        2        4        5        7        8 </v>
   <v type="int" >        2        1        2        3        6 </v>
   <v type="int" >        2        2        3        4        6 </v>
   <v type="int" >        2        3        4        6        8 </v>
   <v type="int" >        2        1        3        5        6 </v>
   <v type="int" >        2        3        5        6        7 </v>
   <v type="int" >        2        3        6        7        8 </v>
   <v type="int" >        2        2        3        4        7 </v>
   <v type="int" >        2        1        2        3        7 </v>
   <v type="int" >        2        1        2        5        7 </v>
   <v type="int" >        2        2        4        7        8 </v>
   <v type="int" >        2        2        6        7        8 </v>
   <v type="int" >        2        2        5        6        7 </v>
   <v type="int" >        2        1        3        4        8 </v>
   <v type="int" >        2        1        2        4        8 </v>
   <v type="int" >        2        1        2        6        8 </v>
   <v type="int" >        2        1        3        7        8 </v>
   <v type="int" >        2        1        5        7        8 </v>
   <v type="int" >        2        1        5        6        8 </v>
  </varray>
  <i name="volumeweight">      0.02083333 </i>
 </kpoints>
 <parameters>
  <separator name="general" >
   <i type="string" name="SYSTEM">La2O2S</i>
   <i type="logical" name="LCOMPAT"> F  </i>
  </separator>
  <separator name="electronic" >
   <i type="string" name="PREC">normal</i>
   <i name="ENMAX">    600.00000000</i>
   <i name="ENAUG">    900.00000000</i>
   <i name="EDIFF">      0.00000100</i>
   <i type="int" name="IALGO">    38</i>
   <i type="int" name="IWAVPR">    11</i>
   <i type="int" name="NBANDS">   280</i>
   <i name="NELECT">    456.00000000</i>
   <i type="int" name="TURBO">     0</i>
   <i type="int" name="IRESTART">     0</i>
   <i type="int" name="NREBOOT">     0</i>
   <i type="int" name="NMIN">     0</i>
   <i name="EREF">      0.00000000</i>
   <separator name="electronic smearing" >
    <i type="int" name="ISMEAR">    -5</i>
    <i name="SIGMA">      0.20000000</i>
    <i name="KSPACING">      0.50000000</i>
    <i type="logical" name="KGAMMA"> T  </i>
   </separator>
   <separator name="electronic projectors" >
    <i type="logical" name="LREAL"> F  </i>
    <v name="ROPT">      0.00000000      0.00000000      0.00000000      0.00000000      0.00000000</v>
    <i type="int" name="LMAXPAW">  -100</i>
    <i type="int" name="LMAXMIX">     2</i>
    <i type="logical" name="NLSPLINE"> F  </i>
   </separator>
   <separator name="electronic startup" >
    <i type="int" name="ISTART">     0</i>
    <i type="int" name="ICHARG">     2</i>
    <i type="int" name="INIWAV">     1</i>
   </separator>
   <separator name="electronic spin" >
    <i type="int" name="ISPIN">     1</i>
    <i type="logical" name="LNONCOLLINEAR"> F  </i>
    <v name="MAGMOM">      1.00000000      1.00000000      1.00000000      1.00000000      1.00000000      1.00000000      1.00000000      1.00000000      1.00000000      1.00000000      1.00000000      1.00000000      1.00000000      1.00000000      1.00000000      1.00000000      1.00000000      1.00000000      1.00000000      1.00000000
      1.00000000      1.00000000      1.00000000      1.00000000      1.00000000      1.00000000      1.00000000      1.00000000      1.00000000      1.00000000      1.00000000      1.00000000      1.00000000      1.00000000      1.00000000      1.00000000      1.00000000      1.00000000      1.00000000      1.00000000
      1.00000000      1.00000000      1.00000000      1.00000000      1.00000000      1.00000000      1.00000000      1.00000000      1.00000000      1.00000000      1.00000000      1.00000000      1.00000000      1.00000000      1.00000000      1.00000000      1.00000000      1.00000000</v>
    <i name="NUPDOWN">     -1.00000000</i>
    <i type="logical" name="LSORBIT"> F  </i>
    <v name="SAXIS">      0.00000000      0.00000000      1.00000000</v>
    <i type="logical" name="LSPIRAL"> F  </i>
    <v name="QSPIRAL">      0.00000000      0.00000000      0.00000000</v>
    <i type="logical" name="LZEROZ"> F  </i>
   </separator>
   <separator name="electronic exchange-correlation" >
    <i type="logical" name="LASPH"> F  </i>
    <i type="logical" name="LMETAGGA"> F  </i>
   </separator>
   <separator name="electronic convergence" >
    <i type="int" name="NELM">    60</i>
    <i type="int" name="NELMDL">    -5</i>
    <i type="int" name="NELMIN">     4</i>
    <i name="ENINI">    600.00000000</i>
    <separator name="electronic convergence detail" >
     <i type="logical" name="LDIAG"> T  </i>
     <i type="logical" name="LSUBROT"> F  </i>
     <i name="WEIMIN">      0.00100000</i>
     <i name="EBREAK">      0.00000000</i>
     <i name="DEPER">      0.30000000</i>
     <i type="int" name="NRMM">     4</i>
     <i name="TIME">      0.40000000</i>
    </separator>
   </separator>
   <separator name="electronic mixer" >
    <i name="AMIX">      0.40000000</i>
    <i name="BMIX">      1.00000000</i>
    <i name="AMIN">      0.10000000</i>
    <i name="AMIX_MAG">      1.60000000</i>
    <i name="BMIX_MAG">      1.00000000</i>
    <separator name="electronic mixer details" >
     <i type="int" name="IMIX">     4</i>
     <i type="logical" name="MIXFIRST"> F  </i>
     <i type="int" name="MAXMIX">   -45</i>
     <i name="WC">    100.00000000</i>
     <i type="int" name="INIMIX">     1</i>
     <i type="int" name="MIXPRE">     1</i>
     <i type="int" name="MREMOVE">     5</i>
    </separator>
   </separator>
   <separator name="electronic dipolcorrection" >
    <i type="logical" name="LDIPOL"> F  </i>
    <i type="logical" name="LMONO"> F  </i>
    <i type="int" name="IDIPOL">     0</i>
    <i name="EPSILON">      1.00000000</i>
    <v name="DIPOL">   -100.00000000   -100.00000000   -100.00000000</v>
    <i name="EFIELD">      0.00000000</i>
   </separator>
  </separator>
  <separator name="grids" >
   <i type="int" name="NGX">    70</i>
   <i type="int" name="NGY">    60</i>
   <i type="int" name="NGZ">    70</i>
   <i type="int" name="NGXF">   140</i>
   <i type="int" name="NGYF">   120</i>
   <i type="int" name="NGZF">   140</i>
   <i type="logical" name="ADDGRID"> F  </i>
  </separator>
  <separator name="ionic" >
   <i type="int" name="NSW">     1</i>
   <i type="int" name="IBRION">     2</i>
   <i type="int" name="MDALGO">     0</i>
   <i type="int" name="ISIF">     2</i>
   <i name="PSTRESS">      0.00000000</i>
   <i name="EDIFFG">     -0.01000000</i>
   <i type="int" name="NFREE">    10</i>
   <i name="POTIM">      0.50000000</i>
   <i name="SMASS">     -3.00000000</i>
   <i name="SCALEE">      1.00000000</i>
  </separator>
  <separator name="ionic md" >
   <i name="TEBEG">      0.00010000</i>
   <i name="TEEND">      0.00010000</i>
   <i type="int" name="NBLOCK">     1</i>
   <i type="int" name="KBLOCK">     1</i>
   <i type="int" name="NPACO">   256</i>
   <i name="APACO">     16.00000000</i>
  </separator>
  <separator name="symmetry" >
   <i type="int" name="ISYM">     2</i>
   <i name="SYMPREC">      0.00001000</i>
  </separator>
  <separator name="dos" >
   <i type="int" name="LORBIT">     0</i>
   <v name="RWIGS">     -1.00000000     -1.00000000     -1.00000000     -1.00000000     -1.00000000</v>
   <i type="int" name="NEDOS">   301</i>
   <i name="EMIN">     10.00000000</i>
   <i name="EMAX">    -10.00000000</i>
   <i name="EFERMI">      0.00000000</i>
  </separator>
  <separator name="writing" >
   <i type="int" name="NWRITE">     2</i>
   <i type="logical" name="LWAVE"> F  </i>
   <i type="logical" name="LDOWNSAMPLE"> F  </i>
   <i type="logical" name="LCHARG"> F  </i>
   <i type="logical" name="LPARD"> F  </i>
   <i type="logical" name="LVTOT"> F  </i>
   <i type="logical" name="LVHAR"> F  </i>
   <i type="logical" name="LELF"> F  </i>
   <i type="logical" name="LOPTICS"> F  </i>
   <v name="STM">      0.00000000      0.00000000      0.00000000      0.00000000      0.00000000      0.00000000      0.00000000</v>
  </separator>
  <separator name="performance" >
   <i type="int" name="NPAR">    28</i>
   <i type="int" name="NSIM">     4</i>
   <i type="int" name="NBLK">    -1</i>
   <i type="logical" name="LPLANE"> T  </i>
   <i type="logical" name="LSCALAPACK"> T  </i>
   <i type="logical" name="LSCAAWARE"> F  </i>
   <i type="logical" name="LSCALU"> F  </i>
   <i type="logical" name="LASYNC"> F  </i>
   <i type="logical" name="LORBITALREAL"> F  </i>
  </separator>
  <separator name="miscellaneous" >
   <i type="int" name="IDIOT">     3</i>
   <i type="int" name="ISPECIAL">     0</i>
   <i type="logical" name="LMUSIC"> F  </i>
   <v name="POMASS">      7.01000000     24.30500000    208.98000000     32.06600000     16.00000000</v>
   <v name="DARWINR">      0.00000000      0.00000000      0.00000000      0.00000000      0.00000000</v>
   <v name="DARWINV">      1.00000000      1.00000000      1.00000000      1.00000000      1.00000000</v>
   <i type="logical" name="LCORR"> T  </i>
  </separator>
  <i type="logical" name="GGA_COMPAT"> T  </i>
  <i type="logical" name="LBERRY"> F  </i>
  <i type="int" name="ICORELEVEL">     0</i>
  <i type="logical" name="LDAU"> F  </i>
  <i type="int" name="I_CONSTRAINED_M">     0</i>
  <separator name="electronic exchange-correlation" >
   <i type="string" name="GGA">--</i>
   <i type="int" name="VOSKOWN">     0</i>
   <i type="logical" name="LHFCALC"> F  </i>
   <i type="string" name="PRECFOCK"></i>
   <i type="logical" name="LSYMGRAD"> F  </i>
   <i type="logical" name="LHFONE"> F  </i>
   <i type="logical" name="LRHFCALC"> F  </i>
   <i type="logical" name="LTHOMAS"> F  </i>
   <i type="logical" name="LMODELHF"> F  </i>
   <i name="ENCUT4O">     -1.00000000</i>
   <i type="int" name="EXXOEP">     0</i>
   <i type="int" name="FOURORBIT">     0</i>
   <i name="AEXX">      0.00000000</i>
   <i name="HFALPHA">      0.00000000</i>
   <i name="MCALPHA">      0.00000000</i>
   <i name="ALDAX">      1.00000000</i>
   <i name="AGGAX">      1.00000000</i>
   <i name="ALDAC">      1.00000000</i>
   <i name="AGGAC">      1.00000000</i>
   <i type="int" name="NKREDX">     1</i>
   <i type="int" name="NKREDY">     1</i>
   <i type="int" name="NKREDZ">     1</i>
   <i type="logical" name="SHIFTRED"> F  </i>
   <i type="logical" name="ODDONLY"> F  </i>
   <i type="logical" name="EVENONLY"> F  </i>
   <i type="int" name="LMAXFOCK">     0</i>
   <i type="int" name="NMAXFOCKAE">     0</i>
   <i type="logical" name="LFOCKAEDFT"> F  </i>
   <i name="HFSCREEN">      0.00000000</i>
   <i name="HFSCREENC">      0.00000000</i>
   <i type="int" name="NBANDSGWLOW">     0</i>
  </separator>
  <separator name="vdW DFT" >
   <i type="logical" name="LUSE_VDW"> F  </i>
   <i name="Zab_VDW">     -0.84910000</i>
   <i name="PARAM1">      0.12340000</i>
   <i name="PARAM2">      1.00000000</i>
   <i name="PARAM3">      0.00000000</i>
  </separator>
  <separator name="model GW" >
   <i type="int" name="MODEL_GW">     0</i>
   <i name="MODEL_EPS0">     12.38119177</i>
   <i name="MODEL_ALPHA">      1.00000000</i>
  </separator>
  <separator name="linear response parameters" >
   <i type="logical" name="LEPSILON"> F  </i>
   <i type="logical" name="LRPA"> F  </i>
   <i type="logical" name="LNABLA"> F  </i>
   <i type="logical" name="LVEL"> F  </i>
   <i type="int" name="KINTER">     0</i>
   <i name="CSHIFT">      0.10000000</i>
   <i name="OMEGAMAX">     -1.00000000</i>
   <i name="DEG_THRESHOLD">      0.00200000</i>
   <i name="RTIME">     -0.10000000</i>
   <i name="WPLASMAI">      0.00000000</i>
   <v name="DFIELD">      0.00000000      0.00000000      0.00000000</v>
   <v name="WPLASMA">      0.00000000      0.00000000      0.00000000      0.00000000      0.00000000      0.00000000      0.00000000      0.00000000      0.00000000</v>
  </separator>
  <separator name="orbital magnetization" >
   <i type="logical" name="NUCIND"> F  </i>
   <v name="MAGPOS">      0.00000000      0.00000000      0.00000000</v>
   <i type="logical" name="LNICSALL"> T  </i>
   <i type="logical" name="ORBITALMAG"> F  </i>
   <i type="logical" name="LMAGBLOCH"> F  </i>
   <i type="logical" name="LCHIMAG"> F  </i>
   <i type="logical" name="LGAUGE"> T  </i>
   <i type="int" name="MAGATOM">     0</i>
   <v name="MAGDIPOL">      0.00000000      0.00000000      0.00000000</v>
   <v name="AVECCONST">      0.00000000      0.00000000      0.00000000</v>
  </separator>
  <separator name="response functions" >
   <i type="logical" name="LADDER"> F  </i>
   <i type="logical" name="LRPAFORCE"> F  </i>
   <i type="logical" name="LFXC"> F  </i>
   <i type="logical" name="LHARTREE"> T  </i>
   <i type="int" name="IBSE">     0</i>
   <v type="int" name="KPOINT">    -1     0     0     0</v>
   <i type="logical" name="LTCTE"> F  </i>
   <i type="logical" name="LTETE"> F  </i>
   <i type="logical" name="LTRIPLET"> F  </i>
   <i type="logical" name="LFXCEPS"> F  </i>
   <i type="logical" name="LFXHEG"> F  </i>
   <i type="int" name="NATURALO">     2</i>
   <i type="logical" name="L2ORDER"> F  </i>
   <i type="logical" name="LMP2LT"> F  </i>
   <i type="logical" name="LUSEW"> F  </i>
   <i name="ENCUTGW">     -2.00000000</i>
   <i name="ENCUTGWSOFT">     -2.00000000</i>
   <i name="ENCUTLF">     -1.00000000</i>
   <i type="int" name="LMAXMP2">    -1</i>
   <i name="SCISSOR">      0.00000000</i>
   <i type="int" name="NOMEGA">     0</i>
   <i type="int" name="NOMEGAR">     0</i>
   <i type="int" name="NBANDSGW">    -1</i>
   <i type="int" name="NBANDSO">    -1</i>
   <i type="int" name="NBANDSV">    -1</i>
   <i type="int" name="NELM">     1</i>
   <i type="int" name="NELMHF">     1</i>
   <i type="int" name="DIM">     3</i>
   <i type="int" name="ANTIRES">     0</i>
   <i name="OMEGAMAX">    -30.00000000</i>
   <i name="OMEGAMIN">    -30.00000000</i>
   <i name="OMEGATL">   -200.00000000</i>
   <i type="int" name="OMEGAGRID">   140</i>
   <i name="CSHIFT">     -0.10000000</i>
   <i type="logical" name="SELFENERGY"> F  </i>
   <i type="logical" name="LSPECTRAL"> F  </i>
   <i type="logical" name="LSPECTRALGW"> F  </i>
   <i type="logical" name="LSINGLES"> F  </i>
   <i type="logical" name="LFERMIGW"> F  </i>
   <i type="logical" name="ODDONLYGW"> F  </i>
   <i type="logical" name="EVENONLYGW"> F  </i>
   <i type="int" name="NKREDLFX">     1</i>
   <i type="int" name="NKREDLFY">     1</i>
   <i type="int" name="NKREDLFZ">     1</i>
   <i type="int" name="MAXMEM">  2800</i>
   <i type="int" name="TELESCOPE">     0</i>
   <i type="int" name="TAUPAR">     1</i>
   <i type="int" name="OMEGAPAR">    -1</i>
   <i name="LAMBDA">      1.00000000</i>
  </separator>
  <separator name="External order field" >
   <i name="OFIELD_KAPPA">      0.00000000</i>
   <v name="OFIELD_K">      0.00000000      0.00000000      0.00000000</v>
   <i name="OFIELD_Q6_NEAR">      0.00000000</i>
   <i name="OFIELD_Q6_FAR">      0.00000000</i>
   <i name="OFIELD_A">      0.00000000</i>
  </separator>
 </parameters>
 <atominfo>
  <atoms>      58 </atoms>
  <types>       5 </types>
  <array name="atoms" >
   <dimension dim="1">ion</dimension>
   <field type="string">element</field>
   <field type="int">atomtype</field>
   <set>
    <rc><c>Li</c><c>   1</c></rc>
    <rc><c>Li</c><c>   1</c></rc>
    <rc><c>Li</c><c>   1</c></rc>
    <rc><c>Li</c><c>   1</c></rc>
    <rc><c>Mg</c><c>   2</c></rc>
    <rc><c>Mg</c><c>   2</c></rc>
    <rc><c>Mg</c><c>   2</c></rc>
    <rc><c>Mg</c><c>   2</c></rc>
    <rc><c>Mg</c><c>   2</c></rc>
    <rc><c>Mg</c><c>   2</c></rc>
    <rc><c>Bi</c><c>   3</c></rc>
    <rc><c>Bi</c><c>   3</c></rc>
    <rc><c>Bi</c><c>   3</c></rc>
    <rc><c>Bi</c><c>   3</c></rc>
    <rc><c>Bi</c><c>   3</c></rc>
    <rc><c>Bi</c><c>   3</c></rc>
    <rc><c>Bi</c><c>   3</c></rc>
    <rc><c>Bi</c><c>   3</c></rc>
    <rc><c>Bi</c><c>   3</c></rc>
    <rc><c>Bi</c><c>   3</c></rc>
    <rc><c>Bi</c><c>   3</c></rc>
    <rc><c>Bi</c><c>   3</c></rc>
    <rc><c>Bi</c><c>   3</c></rc>
    <rc><c>Bi</c><c>   3</c></rc>
    <rc><c>Bi</c><c>   3</c></rc>
    <rc><c>Bi</c><c>   3</c></rc>
    <rc><c>S </c><c>   4</c></rc>
    <rc><c>S </c><c>   4</c></rc>
    <rc><c>S </c><c>   4</c></rc>
    <rc><c>S </c><c>   4</c></rc>
    <rc><c>S </c><c>   4</c></rc>
    <rc><c>S </c><c>   4</c></rc>
    <rc><c>S </c><c>   4</c></rc>
    <rc><c>S </c><c>   4</c></rc>
    <rc><c>S </c><c>   4</c></rc>
    <rc><c>S </c><c>   4</c></rc>
    <rc><c>S </c><c>   4</c></rc>
    <rc><c>S </c><c>   4</c></rc>
    <rc><c>S </c><c>   4</c></rc>
    <rc><c>S </c><c>   4</c></rc>
    <rc><c>S </c><c>   4</c></rc>
    <rc><c>S </c><c>   4</c></rc>
    <rc><c>O </c><c>   5</c></rc>
    <rc><c>O </c><c>   5</c></rc>
    <rc><c>O </c><c>   5</c></rc>
    <rc><c>O </c><c>   5</c></rc>
    <rc><c>O </c><c>   5</c></rc>
    <rc><c>O </c><c>   5</c></rc>
    <rc><c>O </c><c>   5</c></rc>
    <rc><c>O </c><c>   5</c></rc>
    <rc><c>O </c><c>   5</c></rc>
    <rc><c>O </c><c>   5</c></rc>
    <rc><c>O </c><c>   5</c></rc>
    <rc><c>O </c><c>   5</c></rc>
    <rc><c>O </c><c>   5</c></rc>
    <rc><c>O </c><c>   5</c></rc>
    <rc><c>O </c><c>   5</c></rc>
    <rc><c>O </c><c>   5</c></rc>
   </set>
  </array>
  <array name="atomtypes" >
   <dimension dim="1">type</dimension>
   <field type="int">atomspertype</field>
   <field type="string">element</field>
   <field>mass</field>
   <field>valence</field>
   <field type="string">pseudopotential</field>
   <set>
    <rc><c>   4</c><c>Li</c><c>      7.01000000</c><c>      3.00000000</c><c>  PAW_PBE Li_sv 10Sep2004               </c></rc>
    <rc><c>   6</c><c>Mg</c><c>     24.30500000</c><c>      2.00000000</c><c>  PAW_PBE Mg 13Apr2007                  </c></rc>
    <rc><c>  16</c><c>Bi</c><c>    208.98000000</c><c>     15.00000000</c><c>  PAW_PBE Bi_d 06Sep2000                </c></rc>
    <rc><c>  16</c><c>S </c><c>     32.06600000</c><c>      6.00000000</c><c>  PAW_PBE S 06Sep2000                   </c></rc>
    <rc><c>  16</c><c>O </c><c>     16.00000000</c><c>      6.00000000</c><c>  PAW_PBE O 08Apr2002                   </c></rc>
   </set>
  </array>
 </atominfo>
 <structure name="initialpos" >
  <crystal>
   <varray name="basis" >
    <v>      11.17850000       0.00000000       0.00000000 </v>
    <v>       0.00000000       9.57460000       0.00000000 </v>
    <v>       0.00000000       0.00000000      11.18240000 </v>
   </varray>
   <i name="volume">   1196.84853820 </i>
   <varray name="rec_basis" >
    <v>       0.08945744       0.00000000       0.00000000 </v>
    <v>       0.00000000       0.10444301       0.00000000 </v>
    <v>       0.00000000       0.00000000       0.08942624 </v>
   </varray>
  </crystal>
  <varray name="positions" >
   <v>       0.37539000       0.00017000       0.43687000 </v>
   <v>       0.87461000       0.00017000       0.18687000 </v>
   <v>       0.62539000       0.99984000       0.93687000 </v>
   <v>       0.87539000       0.00017000       0.93687000 </v>
   <v>       0.12461000       0.99984000       0.18687000 </v>
   <v>       0.87539000       0.00017000       0.43687000 </v>
   <v>       0.62461000       0.99984000       0.18687000 </v>
   <v>       0.37539000       0.00017000       0.93687000 </v>
   <v>       0.12461000       0.99984000       0.68687000 </v>
   <v>       0.62461000       0.99984000       0.68687000 </v>
   <v>       0.00013000       0.29519000       0.06281000 </v>
   <v>       0.25013000       0.70481000       0.06281000 </v>
   <v>       0.24987000       0.29519000       0.31282000 </v>
   <v>       0.49987000       0.70481000       0.31282000 </v>
   <v>       0.50013000       0.29519000       0.06281000 </v>
   <v>       0.75013000       0.70481000       0.06281000 </v>
   <v>       0.74987000       0.29519000       0.31282000 </v>
   <v>       0.99987000       0.70481000       0.31282000 </v>
   <v>       0.00013000       0.29519000       0.56281000 </v>
   <v>       0.25013000       0.70481000       0.56281000 </v>
   <v>       0.24987000       0.29519000       0.81282000 </v>
   <v>       0.49987000       0.70481000       0.81282000 </v>
   <v>       0.50013000       0.29519000       0.56281000 </v>
   <v>       0.75013000       0.70481000       0.56281000 </v>
   <v>       0.74987000       0.29519000       0.81282000 </v>
   <v>       0.99987000       0.70481000       0.81282000 </v>
   <v>       0.25005000       0.32677000       0.06286000 </v>
   <v>       0.00005000       0.67323000       0.06286000 </v>
   <v>       0.49995000       0.32677000       0.31286000 </v>
   <v>       0.24995000       0.67323000       0.31286000 </v>
   <v>       0.75005000       0.32677000       0.06286000 </v>
   <v>       0.50005000       0.67323000       0.06286000 </v>
   <v>       0.99995000       0.32677000       0.31286000 </v>
   <v>       0.74995000       0.67323000       0.31286000 </v>
   <v>       0.25005000       0.32677000       0.56286000 </v>
   <v>       0.00005000       0.67323000       0.56286000 </v>
   <v>       0.49995000       0.32677000       0.81286000 </v>
   <v>       0.24995000       0.67323000       0.81286000 </v>
   <v>       0.75005000       0.32677000       0.56286000 </v>
   <v>       0.50005000       0.67323000       0.56286000 </v>
   <v>       0.99995000       0.32677000       0.81286000 </v>
   <v>       0.74995000       0.67323000       0.81286000 </v>
   <v>       0.49987000       0.07798000       0.06246000 </v>
   <v>       0.24987000       0.92202000       0.06246000 </v>
   <v>       0.25013000       0.07798000       0.31246000 </v>
   <v>       0.00013000       0.92202000       0.31246000 </v>
   <v>       0.99987000       0.07798000       0.06246000 </v>
   <v>       0.74987000       0.92202000       0.06246000 </v>
   <v>       0.75013000       0.07798000       0.31246000 </v>
   <v>       0.50013000       0.92202000       0.31246000 </v>
   <v>       0.49987000       0.07798000       0.56246000 </v>
   <v>       0.24987000       0.92202000       0.56246000 </v>
   <v>       0.25013000       0.07798000       0.81246000 </v>
   <v>       0.00013000       0.92202000       0.81246000 </v>
   <v>       0.99987000       0.07798000       0.56246000 </v>
   <v>       0.74987000       0.92202000       0.56246000 </v>
   <v>       0.75013000       0.07798000       0.81246000 </v>
   <v>       0.50013000       0.92202000       0.81246000 </v>
  </varray>
 </structure>
 <calculation>
  <scstep>
   <time name="dav">   61.49   61.51</time>
   <time name="total">   61.57   61.60</time>
   <energy>
    <i name="alphaZ">   1054.17224280 </i>
    <i name="ewald"> -30178.92241882 </i>
    <i name="hartreedc"> -12706.15463211 </i>
    <i name="XCdc">   1173.24995165 </i>
    <i name="pawpsdc">  36541.05238669 </i>
    <i name="pawaedc"> -35795.85877930 </i>
    <i name="eentropy">      0.00000000 </i>
    <i name="bandstr">   1916.76396621 </i>
    <i name="atom">  43643.51795008 </i>
    <i name="e_fr_energy">   5647.82066721 </i>
    <i name="e_wo_entrp">   5647.82066721 </i>
    <i name="e_0_energy">   5647.82066721 </i>
   </energy>
  </scstep>
  <scstep>
   <time name="dav">   62.41   62.42</time>
   <time name="total">   62.42   62.43</time>
   <energy>
    <i name="e_fr_energy">    728.82764533 </i>
    <i name="e_wo_entrp">    728.82764533 </i>
    <i name="e_0_energy">    728.82764533 </i>
   </energy>
  </scstep>
  <scstep>
   <time name="dav">   70.96   70.97</time>
   <time name="total">   70.96   70.97</time>
   <energy>
    <i name="e_fr_energy">   -246.60948956 </i>
    <i name="e_wo_entrp">   -246.60948956 </i>
    <i name="e_0_energy">   -246.60948956 </i>
   </energy>
  </scstep>
  <scstep>
   <time name="dav">   73.05   73.08</time>
   <time name="total">   73.05   73.08</time>
   <energy>
    <i name="e_fr_energy">   -332.64503969 </i>
    <i name="e_wo_entrp">   -332.64503969 </i>
    <i name="e_0_energy">   -332.64503969 </i>
   </energy>
  </scstep>
  <scstep>
   <time name="dav">   92.43   92.45</time>
   <time name="total">   93.15   93.17</time>
   <energy>
    <i name="e_fr_energy">   -338.48620175 </i>
    <i name="e_wo_entrp">   -338.48620175 </i>
    <i name="e_0_energy">   -338.48620175 </i>
   </energy>
  </scstep>
  <scstep>
   <time name="dav">   87.27   87.28</time>
   <time name="total">   88.07   88.09</time>
   <energy>
    <i name="e_fr_energy">   -284.35326774 </i>
    <i name="e_wo_entrp">   -284.35326774 </i>
    <i name="e_0_energy">   -284.35326774 </i>
   </energy>
  </scstep>
  <scstep>
   <time name="dav">   66.45   66.47</time>
   <time name="total">   67.25   67.27</time>
   <energy>
    <i name="e_fr_energy">   -286.51157175 </i>
    <i name="e_wo_entrp">   -286.51157175 </i>
    <i name="e_0_energy">   -286.51157175 </i>
   </energy>
  </scstep>
  <scstep>
   <time name="dav">   75.99   75.99</time>
   <time name="total">   76.79   76.79</time>
   <energy>
    <i name="e_fr_energy">   -285.67057616 </i>
    <i name="e_wo_entrp">   -285.67057616 </i>
    <i name="e_0_energy">   -285.67057616 </i>
   </energy>
  </scstep>
  <scstep>
   <time name="dav">   75.05   75.11</time>
   <time name="total">   75.85   75.91</time>
   <energy>
    <i name="e_fr_energy">   -285.27200197 </i>
    <i name="e_wo_entrp">   -285.27200197 </i>
    <i name="e_0_energy">   -285.27200197 </i>
   </energy>
  </scstep>
  <scstep>
   <time name="dav">   77.43   77.47</time>
   <time name="total">   78.23   78.27</time>
   <energy>
    <i name="e_fr_energy">   -285.29364104 </i>
    <i name="e_wo_entrp">   -285.29364104 </i>
    <i name="e_0_energy">   -285.29364104 </i>
   </energy>
  </scstep>
  <scstep>
   <time name="dav">   82.81   82.91</time>
   <time name="total">   83.60   83.71</time>
   <energy>
    <i name="e_fr_energy">   -285.29550215 </i>
    <i name="e_wo_entrp">   -285.29550215 </i>
    <i name="e_0_energy">   -285.29550215 </i>
   </energy>
  </scstep>
  <scstep>
   <time name="dav">   72.07   72.19</time>
   <time name="total">   72.86   72.99</time>
   <energy>
    <i name="e_fr_energy">   -285.29858037 </i>
    <i name="e_wo_entrp">   -285.29858037 </i>
    <i name="e_0_energy">   -285.29858037 </i>
   </energy>
  </scstep>
  <scstep>
   <time name="dav">   71.69   71.83</time>
   <time name="total">   72.49   72.63</time>
   <energy>
    <i name="e_fr_energy">   -285.29970755 </i>
    <i name="e_wo_entrp">   -285.29970755 </i>
    <i name="e_0_energy">   -285.29970755 </i>
   </energy>
  </scstep>
  <scstep>
   <time name="dav">   73.89   74.00</time>
   <time name="total">   74.69   74.80</time>
   <energy>
    <i name="e_fr_energy">   -285.30001122 </i>
    <i name="e_wo_entrp">   -285.30001122 </i>
    <i name="e_0_energy">   -285.30001122 </i>
   </energy>
  </scstep>
  <scstep>
   <time name="dav">   84.55   84.69</time>
   <time name="total">   85.34   85.49</time>
   <energy>
    <i name="e_fr_energy">   -285.30003160 </i>
    <i name="e_wo_entrp">   -285.30003160 </i>
    <i name="e_0_energy">   -285.30003160 </i>
   </energy>
  </scstep>
  <scstep>
   <time name="dav">   64.07   64.17</time>
   <time name="total">   64.87   64.97</time>
   <energy>
    <i name="e_fr_energy">   -285.30004880 </i>
    <i name="e_wo_entrp">   -285.30004880 </i>
    <i name="e_0_energy">   -285.30004880 </i>
   </energy>
  </scstep>
  <scstep>
   <time name="dav">   73.06   73.19</time>
   <time name="total">   73.86   73.99</time>
   <energy>
    <i name="e_fr_energy">   -285.30005190 </i>
    <i name="e_wo_entrp">   -285.30005190 </i>
    <i name="e_0_energy">   -285.30005190 </i>
   </energy>
  </scstep>
  <scstep>
   <time name="dav">   54.69   54.81</time>
   <time name="total">   54.76   54.89</time>
   <energy>
    <i name="alphaZ">   1054.17224280 </i>
    <i name="ewald"> -30178.92241882 </i>
    <i name="hartreedc"> -12947.04800337 </i>
    <i name="XCdc">   1198.71317902 </i>
    <i name="pawpsdc">  43579.62518483 </i>
    <i name="pawaedc"> -42807.26881543 </i>
    <i name="eentropy">      0.00000000 </i>
    <i name="bandstr">  -3828.08937117 </i>
    <i name="atom">  43643.51795008 </i>
    <i name="e_fr_energy">   -285.30005205 </i>
    <i name="e_wo_entrp">   -285.30005205 </i>
    <i name="e_0_energy">   -285.30005205 </i>
   </energy>
  </scstep>
  <structure>
   <crystal>
    <varray name="basis" >
     <v>      11.17850000       0.00000000       0.00000000 </v>
     <v>       0.00000000       9.57460000       0.00000000 </v>
     <v>       0.00000000       0.00000000      11.18240000 </v>
    </varray>
    <i name="volume">   1196.84853820 </i>
    <varray name="rec_basis" >
     <v>       0.08945744       0.00000000       0.00000000 </v>
     <v>       0.00000000       0.10444301       0.00000000 </v>
     <v>       0.00000000       0.00000000       0.08942624 </v>
    </varray>
   </crystal>
   <varray name="positions" >
    <v>       0.37539000       0.00017000       0.43687000 </v>
    <v>       0.87461000       0.00017000       0.18687000 </v>
    <v>       0.62539000       0.99984000       0.93687000 </v>
    <v>       0.87539000       0.00017000       0.93687000 </v>
    <v>       0.12461000       0.99984000       0.18687000 </v>
    <v>       0.87539000       0.00017000       0.43687000 </v>
    <v>       0.62461000       0.99984000       0.18687000 </v>
    <v>       0.37539000       0.00017000       0.93687000 </v>
    <v>       0.12461000       0.99984000       0.68687000 </v>
    <v>       0.62461000       0.99984000       0.68687000 </v>
    <v>       0.00013000       0.29519000       0.06281000 </v>
    <v>       0.25013000       0.70481000       0.06281000 </v>
    <v>       0.24987000       0.29519000       0.31282000 </v>
    <v>       0.49987000       0.70481000       0.31282000 </v>
    <v>       0.50013000       0.29519000       0.06281000 </v>
    <v>       0.75013000       0.70481000       0.06281000 </v>
    <v>       0.74987000       0.29519000       0.31282000 </v>
    <v>       0.99987000       0.70481000       0.31282000 </v>
    <v>       0.00013000       0.29519000       0.56281000 </v>
    <v>       0.25013000       0.70481000       0.56281000 </v>
    <v>       0.24987000       0.29519000       0.81282000 </v>
    <v>       0.49987000       0.70481000       0.81282000 </v>
    <v>       0.50013000       0.29519000       0.56281000 </v>
    <v>       0.75013000       0.70481000       0.56281000 </v>
    <v>       0.74987000       0.29519000       0.81282000 </v>
    <v>       0.99987000       0.70481000       0.81282000 </v>
    <v>       0.25005000       0.32677000       0.06286000 </v>
    <v>       0.00005000       0.67323000       0.06286000 </v>
    <v>       0.49995000       0.32677000       0.31286000 </v>
    <v>       0.24995000       0.67323000       0.31286000 </v>
    <v>       0.75005000       0.32677000       0.06286000 </v>
    <v>       0.50005000       0.67323000       0.06286000 </v>
    <v>       0.99995000       0.32677000       0.31286000 </v>
    <v>       0.74995000       0.67323000       0.31286000 </v>
    <v>       0.25005000       0.32677000       0.56286000 </v>
    <v>       0.00005000       0.67323000       0.56286000 </v>
    <v>       0.49995000       0.32677000       0.81286000 </v>
    <v>       0.24995000       0.67323000       0.81286000 </v>
    <v>       0.75005000       0.32677000       0.56286000 </v>
    <v>       0.50005000       0.67323000       0.56286000 </v>
    <v>       0.99995000       0.32677000       0.81286000 </v>
    <v>       0.74995000       0.67323000       0.81286000 </v>
    <v>       0.49987000       0.07798000       0.06246000 </v>
    <v>       0.24987000       0.92202000       0.06246000 </v>
    <v>       0.25013000       0.07798000       0.31246000 </v>
    <v>       0.00013000       0.92202000       0.31246000 </v>
    <v>       0.99987000       0.07798000       0.06246000 </v>
    <v>       0.74987000       0.92202000       0.06246000 </v>
    <v>       0.75013000       0.07798000       0.31246000 </v>
    <v>       0.50013000       0.92202000       0.31246000 </v>
    <v>       0.49987000       0.07798000       0.56246000 </v>
    <v>       0.24987000       0.92202000       0.56246000 </v>
    <v>       0.25013000       0.07798000       0.81246000 </v>
    <v>       0.00013000       0.92202000       0.81246000 </v>
    <v>       0.99987000       0.07798000       0.56246000 </v>
    <v>       0.74987000       0.92202000       0.56246000 </v>
    <v>       0.75013000       0.07798000       0.81246000 </v>
    <v>       0.50013000       0.92202000       0.81246000 </v>
   </varray>
  </structure>
  <varray name="forces" >
   <v>      -0.04360702      -0.00205327       0.03811679 </v>
   <v>       0.21006827       0.06306596      -0.26470989 </v>
   <v>       0.27586478       0.06444511      -0.20383716 </v>
   <v>       0.53957428       0.00117080      -0.54254989 </v>
   <v>       1.08815142       0.23499428       0.07185135 </v>
   <v>       0.04658763      -0.00919281       1.11816254 </v>
   <v>      -1.03756363      -0.22683479       1.09188007 </v>
   <v>      -1.12169398      -0.00713609      -0.04308732 </v>
   <v>       0.08610106      -0.23020508      -0.02881055 </v>
   <v>      -0.01696533       0.23689247      -1.03007376 </v>
   <v>       0.21725672       0.07444598      -0.30240194 </v>
   <v>      -0.06256139       0.06594862       0.05294736 </v>
   <v>       0.15355991      -1.01405576       0.24595989 </v>
   <v>      -0.27863302       0.97385600       0.28177820 </v>
   <v>      -0.31540749       1.04051803       0.24080548 </v>
   <v>       0.13464949      -1.12546107      -0.14133917 </v>
   <v>      -0.24257900       1.02943829       0.30202610 </v>
   <v>       0.39986982      -1.03308440       0.26226609 </v>
   <v>       0.19465959      -0.06331645       0.09473436 </v>
   <v>       0.10355512       1.02799128      -0.11495168 </v>
   <v>      -0.09865449      -0.07998466      -0.20874950 </v>
   <v>      -0.25888327      -1.04550432      -0.39392964 </v>
   <v>      -0.26343666      -0.99305594      -0.15603314 </v>
   <v>      -0.05659835       0.06592728       0.05596051 </v>
   <v>       0.30207981       0.05549816      -0.22965262 </v>
   <v>       0.07122832       1.01909411      -0.06640442 </v>
   <v>       0.07944470       0.09510365      -0.09523233 </v>
   <v>      -0.15389981      -0.09393304       0.23639949 </v>
   <v>       0.31829347       0.10629330      -0.31750612 </v>
   <v>      -0.23233614      -0.15051641      -0.21927966 </v>
   <v>      -0.12020663       0.06921770       0.11978779 </v>
   <v>       0.19533045      -0.05195385      -0.18415833 </v>
   <v>      -0.27487107       0.09887349      -0.09759108 </v>
   <v>       0.18406289      -0.05421040      -0.19518080 </v>
   <v>      -0.14073479       0.18759954       0.13898871 </v>
   <v>      -0.17644673      -0.13253286      -0.19945351 </v>
   <v>       0.09716531       0.09811090       0.27255191 </v>
   <v>       0.20330763      -0.13297714       0.17571897 </v>
   <v>       0.09141639       0.09467815      -0.08250232 </v>
   <v>       0.21875864      -0.14672044       0.23597466 </v>
   <v>      -0.05264697       0.12870475       0.05154501 </v>
   <v>      -0.23708360      -0.09631448       0.15432519 </v>
   <v>       0.78055769      -0.74649729      -0.76096342 </v>
   <v>       0.10685807      -0.26542868      -0.09614015 </v>
   <v>      -0.65411882       0.95528199      -0.63917202 </v>
   <v>      -0.86029125       0.68520518      -0.68260083 </v>
   <v>      -0.30291802      -0.06838198       1.21725065 </v>
   <v>      -0.55030356       0.93769506       0.55014431 </v>
   <v>       0.73373290      -0.74513287      -0.79417286 </v>
   <v>       0.72399477      -0.87731579      -0.73101973 </v>
   <v>       0.63144222       0.95275050       0.63707483 </v>
   <v>      -0.53574123      -1.02306910       0.54081175 </v>
   <v>       0.17180545       0.32283065       0.16972393 </v>
   <v>       0.37358755      -0.94730199      -0.38070422 </v>
   <v>      -0.17966992       0.32038625      -0.19092898 </v>
   <v>       0.09882380      -0.26507609      -0.10328635 </v>
   <v>      -1.23824623      -0.06879851       0.28973524 </v>
   <v>       0.67431023       0.69002806       0.84990223 </v>
  </varray>
  <varray name="stress" >
   <v>      -9.24083607      -0.55642621       0.64781881 </v>
   <v>      -0.55642619     -12.68679080       0.16004206 </v>
   <v>       0.64781879       0.16004211      -9.83521855 </v>
  </varray>
  <energy>
   <i name="e_fr_energy">   -297.03247828 </i>
   <i name="e_wo_entrp">   -297.03247828 </i>
   <i name="e_0_energy">      0.00000000 </i>
  </energy>
  <time name="totalsc"> 1440.73 1442.10</time>
  <eigenvalues>
   <array>
    <dimension dim="1">band</dimension>
    <dimension dim="2">kpoint</dimension>
    <dimension dim="3">spin</dimension>
    <field>eigene</field>
    <field>occ</field>
    <set>
     <set comment="spin 1">
      <set comment="kpoint 1">
       <r>  -40.5863    1.0000 </r>
       <r>  -40.5859    1.0000 </r>
       <r>  -39.8862    1.0000 </r>
       <r>  -39.0096    1.0000 </r>
       <r>  -19.0605    1.0000 </r>
       <r>  -18.9888    1.0000 </r>
       <r>  -18.9828    1.0000 </r>
       <r>  -18.9787    1.0000 </r>
       <r>  -18.9752    1.0000 </r>
       <r>  -18.9183    1.0000 </r>
       <r>  -18.9110    1.0000 </r>
       <r>  -18.9039    1.0000 </r>
       <r>  -18.9030    1.0000 </r>
       <r>  -18.9002    1.0000 </r>
       <r>  -18.8947    1.0000 </r>
       <r>  -18.8808    1.0000 </r>
       <r>  -18.8744    1.0000 </r>
       <r>  -18.8348    1.0000 </r>
       <r>  -18.8322    1.0000 </r>
       <r>  -18.8270    1.0000 </r>
       <r>  -18.8242    1.0000 </r>
       <r>  -18.8172    1.0000 </r>
       <r>  -18.8097    1.0000 </r>
       <r>  -18.7924    1.0000 </r>
       <r>  -18.7876    1.0000 </r>
       <r>  -18.7792    1.0000 </r>
       <r>  -18.7710    1.0000 </r>
       <r>  -18.7650    1.0000 </r>
       <r>  -18.7573    1.0000 </r>
       <r>  -18.7516    1.0000 </r>
       <r>  -18.7492    1.0000 </r>
       <r>  -18.7339    1.0000 </r>
       <r>  -18.7307    1.0000 </r>
       <r>  -18.7135    1.0000 </r>
       <r>  -18.7103    1.0000 </r>
       <r>  -18.6756    1.0000 </r>
       <r>  -18.6752    1.0000 </r>
       <r>  -18.6601    1.0000 </r>
       <r>  -18.6590    1.0000 </r>
       <r>  -18.6447    1.0000 </r>
       <r>  -18.6432    1.0000 </r>
       <r>  -18.6230    1.0000 </r>
       <r>  -18.6177    1.0000 </r>
       <r>  -18.6153    1.0000 </r>
       <r>  -18.6104    1.0000 </r>
       <r>  -18.6036    1.0000 </r>
       <r>  -18.6022    1.0000 </r>
       <r>  -18.5980    1.0000 </r>
       <r>  -18.5892    1.0000 </r>
       <r>  -18.5852    1.0000 </r>
       <r>  -18.5782    1.0000 </r>
       <r>  -18.5237    1.0000 </r>
       <r>  -18.5228    1.0000 </r>
       <r>  -18.5222    1.0000 </r>
       <r>  -18.5111    1.0000 </r>
       <r>  -18.5059    1.0000 </r>
       <r>  -18.4942    1.0000 </r>
       <r>  -18.4860    1.0000 </r>
       <r>  -18.4855    1.0000 </r>
       <r>  -18.4608    1.0000 </r>
       <r>  -18.4574    1.0000 </r>
       <r>  -18.4521    1.0000 </r>
       <r>  -18.4473    1.0000 </r>
       <r>  -18.4420    1.0000 </r>
       <r>  -18.4415    1.0000 </r>
       <r>  -18.4280    1.0000 </r>
       <r>  -18.4273    1.0000 </r>
       <r>  -18.4213    1.0000 </r>
       <r>  -18.4204    1.0000 </r>
       <r>  -18.3679    1.0000 </r>
       <r>  -18.3666    1.0000 </r>
       <r>  -18.3560    1.0000 </r>
       <r>  -18.3553    1.0000 </r>
       <r>  -18.3290    1.0000 </r>
       <r>  -18.3094    1.0000 </r>
       <r>  -18.3030    1.0000 </r>
       <r>  -18.2833    1.0000 </r>
       <r>  -18.2760    1.0000 </r>
       <r>  -18.2571    1.0000 </r>
       <r>  -18.2470    1.0000 </r>
       <r>  -18.2284    1.0000 </r>
       <r>  -18.2203    1.0000 </r>
       <r>  -18.1664    1.0000 </r>
       <r>  -18.1410    1.0000 </r>
       <r>  -13.7293    1.0000 </r>
       <r>  -13.5882    1.0000 </r>
       <r>  -13.5764    1.0000 </r>
       <r>  -13.4800    1.0000 </r>
       <r>  -13.4652    1.0000 </r>
       <r>  -12.9068    1.0000 </r>
       <r>  -12.8792    1.0000 </r>
       <r>  -12.7400    1.0000 </r>
       <r>  -12.7267    1.0000 </r>
       <r>  -12.6588    1.0000 </r>
       <r>  -12.6024    1.0000 </r>
       <r>  -12.1568    1.0000 </r>
       <r>  -12.0916    1.0000 </r>
       <r>  -12.0438    1.0000 </r>
       <r>  -12.0120    1.0000 </r>
       <r>  -11.9095    1.0000 </r>
       <r>   -9.3938    1.0000 </r>
       <r>   -9.1001    1.0000 </r>
       <r>   -8.6230    1.0000 </r>
       <r>   -8.5597    1.0000 </r>
       <r>   -8.5274    1.0000 </r>
       <r>   -8.4785    1.0000 </r>
       <r>   -8.4014    1.0000 </r>
       <r>   -8.3348    1.0000 </r>
       <r>   -8.3016    1.0000 </r>
       <r>   -8.2646    1.0000 </r>
       <r>   -8.0835    1.0000 </r>
       <r>   -8.0409    1.0000 </r>
       <r>   -8.0376    1.0000 </r>
       <r>   -8.0144    1.0000 </r>
       <r>   -7.4013    1.0000 </r>
       <r>   -7.3978    1.0000 </r>
       <r>   -6.4426    1.0000 </r>
       <r>   -6.4290    1.0000 </r>
       <r>   -6.4138    1.0000 </r>
       <r>   -6.4031    1.0000 </r>
       <r>   -5.6019    1.0000 </r>
       <r>   -5.5640    1.0000 </r>
       <r>   -5.5154    1.0000 </r>
       <r>   -5.3976    1.0000 </r>
       <r>   -5.3373    1.0000 </r>
       <r>   -5.2781    1.0000 </r>
       <r>   -5.2511    1.0000 </r>
       <r>   -5.1424    1.0000 </r>
       <r>   -5.1165    1.0000 </r>
       <r>   -5.0609    1.0000 </r>
       <r>   -3.8470    1.0000 </r>
       <r>   -3.6994    1.0000 </r>
       <r>   -1.5985    1.0000 </r>
       <r>   -1.3414    1.0000 </r>
       <r>   -1.2093    1.0000 </r>
       <r>   -1.0236    1.0000 </r>
       <r>   -0.6993    1.0000 </r>
       <r>   -0.6461    1.0000 </r>
       <r>   -0.6015    1.0000 </r>
       <r>   -0.5112    1.0000 </r>
       <r>   -0.2726    1.0000 </r>
       <r>   -0.2523    1.0000 </r>
       <r>   -0.2244    1.0000 </r>
       <r>   -0.1951    1.0000 </r>
       <r>   -0.1311    1.0000 </r>
       <r>   -0.0619    1.0000 </r>
       <r>    0.0956    1.0000 </r>
       <r>    0.1004    1.0000 </r>
       <r>    0.2104    1.0000 </r>
       <r>    0.3169    1.0000 </r>
       <r>    0.3675    1.0000 </r>
       <r>    0.4405    1.0000 </r>
       <r>    0.5078    1.0000 </r>
       <r>    0.5212    1.0000 </r>
       <r>    0.6024    1.0000 </r>
       <r>    0.6042    1.0000 </r>
       <r>    0.6986    1.0000 </r>
       <r>    0.7031    1.0000 </r>
       <r>    0.7987    1.0000 </r>
       <r>    0.8318    1.0000 </r>
       <r>    0.8795    1.0000 </r>
       <r>    0.9045    1.0000 </r>
       <r>    0.9369    1.0000 </r>
       <r>    0.9630    1.0000 </r>
       <r>    0.9905    1.0000 </r>
       <r>    1.0277    1.0000 </r>
       <r>    1.1170    1.0000 </r>
       <r>    1.1562    1.0000 </r>
       <r>    1.2479    1.0000 </r>
       <r>    1.2858    1.0000 </r>
       <r>    1.3233    1.0000 </r>
       <r>    1.3639    1.0000 </r>
       <r>    1.4098    1.0000 </r>
       <r>    1.4552    1.0000 </r>
       <r>    1.4975    1.0000 </r>
       <r>    1.5771    1.0000 </r>
       <r>    1.5964    1.0000 </r>
       <r>    1.6210    1.0000 </r>
       <r>    1.6308    1.0000 </r>
       <r>    1.7078    1.0000 </r>
       <r>    1.8297    1.0000 </r>
       <r>    1.8347    1.0000 </r>
       <r>    1.8655    1.0000 </r>
       <r>    2.0683    1.0000 </r>
       <r>    2.1011    1.0000 </r>
       <r>    2.1663    1.0000 </r>
       <r>    2.1860    1.0000 </r>
       <r>    2.2246    1.0000 </r>
       <r>    2.3238    1.0000 </r>
       <r>    2.3392    1.0000 </r>
       <r>    2.3968    1.0000 </r>
       <r>    2.4363    1.0000 </r>
       <r>    2.4962    1.0000 </r>
       <r>    2.5218    1.0000 </r>
       <r>    2.5232    1.0000 </r>
       <r>    2.5451    1.0000 </r>
       <r>    2.5567    1.0000 </r>
       <r>    2.6423    1.0000 </r>
       <r>    2.6678    1.0000 </r>
       <r>    2.7293    1.0000 </r>
       <r>    2.7332    1.0000 </r>
       <r>    2.7770    1.0000 </r>
       <r>    2.7957    1.0000 </r>
       <r>    2.8392    1.0000 </r>
       <r>    2.8618    1.0000 </r>
       <r>    2.9447    1.0000 </r>
       <r>    2.9924    1.0000 </r>
       <r>    3.0314    1.0000 </r>
       <r>    3.0579    1.0000 </r>
       <r>    3.0664    1.0000 </r>
       <r>    3.1036    1.0000 </r>
       <r>    3.1283    1.0000 </r>
       <r>    3.1394    1.0000 </r>
       <r>    3.1802    1.0000 </r>
       <r>    3.2133    1.0000 </r>
       <r>    3.2192    1.0000 </r>
       <r>    3.2230    1.0000 </r>
       <r>    3.2409    1.0000 </r>
       <r>    3.2939    1.0000 </r>
       <r>    3.4636    1.0000 </r>
       <r>    3.5101    1.0000 </r>
       <r>    3.6490    1.0000 </r>
       <r>    3.6576    1.0000 </r>
       <r>    3.7852    1.0000 </r>
       <r>    4.1288    1.0000 </r>
       <r>    4.1412    1.0000 </r>
       <r>    4.2020    1.0000 </r>
       <r>    4.2126    1.0000 </r>
       <r>    4.9315    0.0000 </r>
       <r>    4.9449    0.0000 </r>
       <r>    5.1602    0.0000 </r>
       <r>    5.1675    0.0000 </r>
       <r>    5.6559    0.0000 </r>
       <r>    5.6728    0.0000 </r>
       <r>    5.7905    0.0000 </r>
       <r>    5.7976    0.0000 </r>
       <r>    6.0775    0.0000 </r>
       <r>    6.0809    0.0000 </r>
       <r>    6.1114    0.0000 </r>
       <r>    6.1176    0.0000 </r>
       <r>    6.2021    0.0000 </r>
       <r>    6.2064    0.0000 </r>
       <r>    6.2288    0.0000 </r>
       <r>    6.2374    0.0000 </r>
       <r>    6.9254    0.0000 </r>
       <r>    6.9547    0.0000 </r>
       <r>    7.2358    0.0000 </r>
       <r>    7.2446    0.0000 </r>
       <r>    7.6247    0.0000 </r>
       <r>    7.7630    0.0000 </r>
       <r>    7.7731    0.0000 </r>
       <r>    7.8439    0.0000 </r>
       <r>    7.9093    0.0000 </r>
       <r>    8.0064    0.0000 </r>
       <r>    8.0170    0.0000 </r>
       <r>    8.1624    0.0000 </r>
       <r>    8.2437    0.0000 </r>
       <r>    8.6123    0.0000 </r>
       <r>    8.6243    0.0000 </r>
       <r>    8.7502    0.0000 </r>
       <r>    8.7634    0.0000 </r>
       <r>    8.7944    0.0000 </r>
       <r>    8.8695    0.0000 </r>
       <r>    8.8761    0.0000 </r>
       <r>    8.9247    0.0000 </r>
       <r>    8.9993    0.0000 </r>
       <r>    9.0075    0.0000 </r>
       <r>    9.0620    0.0000 </r>
       <r>    9.0710    0.0000 </r>
       <r>    9.1179    0.0000 </r>
       <r>    9.1995    0.0000 </r>
       <r>    9.2223    0.0000 </r>
       <r>    9.3374    0.0000 </r>
       <r>    9.3388    0.0000 </r>
       <r>    9.4593    0.0000 </r>
       <r>    9.4810    0.0000 </r>
       <r>    9.6222    0.0000 </r>
       <r>    9.6740    0.0000 </r>
       <r>    9.7182    0.0000 </r>
       <r>    9.8239    0.0000 </r>
      </set>
      <set comment="kpoint 2">
       <r>  -40.5863    1.0000 </r>
       <r>  -40.5859    1.0000 </r>
       <r>  -39.8862    1.0000 </r>
       <r>  -39.0096    1.0000 </r>
       <r>  -19.0605    1.0000 </r>
       <r>  -18.9888    1.0000 </r>
       <r>  -18.9828    1.0000 </r>
       <r>  -18.9787    1.0000 </r>
       <r>  -18.9752    1.0000 </r>
       <r>  -18.9181    1.0000 </r>
       <r>  -18.9110    1.0000 </r>
       <r>  -18.9040    1.0000 </r>
       <r>  -18.9031    1.0000 </r>
       <r>  -18.9001    1.0000 </r>
       <r>  -18.8947    1.0000 </r>
       <r>  -18.8808    1.0000 </r>
       <r>  -18.8744    1.0000 </r>
       <r>  -18.8348    1.0000 </r>
       <r>  -18.8322    1.0000 </r>
       <r>  -18.8270    1.0000 </r>
       <r>  -18.8241    1.0000 </r>
       <r>  -18.8172    1.0000 </r>
       <r>  -18.8097    1.0000 </r>
       <r>  -18.7924    1.0000 </r>
       <r>  -18.7876    1.0000 </r>
       <r>  -18.7793    1.0000 </r>
       <r>  -18.7709    1.0000 </r>
       <r>  -18.7649    1.0000 </r>
       <r>  -18.7573    1.0000 </r>
       <r>  -18.7516    1.0000 </r>
       <r>  -18.7493    1.0000 </r>
       <r>  -18.7339    1.0000 </r>
       <r>  -18.7308    1.0000 </r>
       <r>  -18.7135    1.0000 </r>
       <r>  -18.7103    1.0000 </r>
       <r>  -18.6756    1.0000 </r>
       <r>  -18.6752    1.0000 </r>
       <r>  -18.6597    1.0000 </r>
       <r>  -18.6592    1.0000 </r>
       <r>  -18.6443    1.0000 </r>
       <r>  -18.6437    1.0000 </r>
       <r>  -18.6230    1.0000 </r>
       <r>  -18.6177    1.0000 </r>
       <r>  -18.6153    1.0000 </r>
       <r>  -18.6104    1.0000 </r>
       <r>  -18.6036    1.0000 </r>
       <r>  -18.6021    1.0000 </r>
       <r>  -18.5980    1.0000 </r>
       <r>  -18.5892    1.0000 </r>
       <r>  -18.5852    1.0000 </r>
       <r>  -18.5783    1.0000 </r>
       <r>  -18.5236    1.0000 </r>
       <r>  -18.5229    1.0000 </r>
       <r>  -18.5222    1.0000 </r>
       <r>  -18.5111    1.0000 </r>
       <r>  -18.5059    1.0000 </r>
       <r>  -18.4942    1.0000 </r>
       <r>  -18.4860    1.0000 </r>
       <r>  -18.4855    1.0000 </r>
       <r>  -18.4608    1.0000 </r>
       <r>  -18.4575    1.0000 </r>
       <r>  -18.4521    1.0000 </r>
       <r>  -18.4472    1.0000 </r>
       <r>  -18.4419    1.0000 </r>
       <r>  -18.4415    1.0000 </r>
       <r>  -18.4281    1.0000 </r>
       <r>  -18.4273    1.0000 </r>
       <r>  -18.4213    1.0000 </r>
       <r>  -18.4204    1.0000 </r>
       <r>  -18.3679    1.0000 </r>
       <r>  -18.3666    1.0000 </r>
       <r>  -18.3560    1.0000 </r>
       <r>  -18.3553    1.0000 </r>
       <r>  -18.3290    1.0000 </r>
       <r>  -18.3094    1.0000 </r>
       <r>  -18.3030    1.0000 </r>
       <r>  -18.2833    1.0000 </r>
       <r>  -18.2760    1.0000 </r>
       <r>  -18.2571    1.0000 </r>
       <r>  -18.2470    1.0000 </r>
       <r>  -18.2284    1.0000 </r>
       <r>  -18.2203    1.0000 </r>
       <r>  -18.1664    1.0000 </r>
       <r>  -18.1410    1.0000 </r>
       <r>  -13.7283    1.0000 </r>
       <r>  -13.5906    1.0000 </r>
       <r>  -13.5756    1.0000 </r>
       <r>  -13.4795    1.0000 </r>
       <r>  -13.4651    1.0000 </r>
       <r>  -12.9083    1.0000 </r>
       <r>  -12.8777    1.0000 </r>
       <r>  -12.7388    1.0000 </r>
       <r>  -12.7275    1.0000 </r>
       <r>  -12.6589    1.0000 </r>
       <r>  -12.6030    1.0000 </r>
       <r>  -12.1567    1.0000 </r>
       <r>  -12.0916    1.0000 </r>
       <r>  -12.0433    1.0000 </r>
       <r>  -12.0122    1.0000 </r>
       <r>  -11.9097    1.0000 </r>
       <r>   -9.2498    1.0000 </r>
       <r>   -9.0921    1.0000 </r>
       <r>   -8.9764    1.0000 </r>
       <r>   -8.8156    1.0000 </r>
       <r>   -8.4460    1.0000 </r>
       <r>   -8.4407    1.0000 </r>
       <r>   -8.3132    1.0000 </r>
       <r>   -8.3001    1.0000 </r>
       <r>   -8.2479    1.0000 </r>
       <r>   -8.2388    1.0000 </r>
       <r>   -8.1098    1.0000 </r>
       <r>   -8.1009    1.0000 </r>
       <r>   -7.7925    1.0000 </r>
       <r>   -7.6842    1.0000 </r>
       <r>   -7.6734    1.0000 </r>
       <r>   -7.5650    1.0000 </r>
       <r>   -6.1093    1.0000 </r>
       <r>   -6.0825    1.0000 </r>
       <r>   -6.0036    1.0000 </r>
       <r>   -5.9398    1.0000 </r>
       <r>   -5.9131    1.0000 </r>
       <r>   -5.8748    1.0000 </r>
       <r>   -5.7335    1.0000 </r>
       <r>   -5.7120    1.0000 </r>
       <r>   -5.6938    1.0000 </r>
       <r>   -5.6014    1.0000 </r>
       <r>   -5.4982    1.0000 </r>
       <r>   -5.4390    1.0000 </r>
       <r>   -4.5409    1.0000 </r>
       <r>   -4.3869    1.0000 </r>
       <r>   -4.3766    1.0000 </r>
       <r>   -4.2134    1.0000 </r>
       <r>   -1.3400    1.0000 </r>
       <r>   -1.1646    1.0000 </r>
       <r>   -0.9622    1.0000 </r>
       <r>   -0.7927    1.0000 </r>
       <r>   -0.6017    1.0000 </r>
       <r>   -0.4515    1.0000 </r>
       <r>   -0.3029    1.0000 </r>
       <r>   -0.1839    1.0000 </r>
       <r>   -0.1026    1.0000 </r>
       <r>   -0.0405    1.0000 </r>
       <r>   -0.0267    1.0000 </r>
       <r>    0.0421    1.0000 </r>
       <r>    0.0781    1.0000 </r>
       <r>    0.1322    1.0000 </r>
       <r>    0.1405    1.0000 </r>
       <r>    0.2440    1.0000 </r>
       <r>    0.3430    1.0000 </r>
       <r>    0.3702    1.0000 </r>
       <r>    0.4230    1.0000 </r>
       <r>    0.4431    1.0000 </r>
       <r>    0.4699    1.0000 </r>
       <r>    0.5182    1.0000 </r>
       <r>    0.5949    1.0000 </r>
       <r>    0.6442    1.0000 </r>
       <r>    0.6525    1.0000 </r>
       <r>    0.6823    1.0000 </r>
       <r>    0.7580    1.0000 </r>
       <r>    0.7795    1.0000 </r>
       <r>    0.8065    1.0000 </r>
       <r>    0.8460    1.0000 </r>
       <r>    0.9646    1.0000 </r>
       <r>    0.9745    1.0000 </r>
       <r>    1.0370    1.0000 </r>
       <r>    1.0947    1.0000 </r>
       <r>    1.1473    1.0000 </r>
       <r>    1.1762    1.0000 </r>
       <r>    1.2064    1.0000 </r>
       <r>    1.2631    1.0000 </r>
       <r>    1.2689    1.0000 </r>
       <r>    1.3384    1.0000 </r>
       <r>    1.3538    1.0000 </r>
       <r>    1.4281    1.0000 </r>
       <r>    1.4479    1.0000 </r>
       <r>    1.4761    1.0000 </r>
       <r>    1.4844    1.0000 </r>
       <r>    1.5705    1.0000 </r>
       <r>    1.5896    1.0000 </r>
       <r>    1.6003    1.0000 </r>
       <r>    1.6752    1.0000 </r>
       <r>    1.7257    1.0000 </r>
       <r>    1.8190    1.0000 </r>
       <r>    1.8771    1.0000 </r>
       <r>    1.9417    1.0000 </r>
       <r>    1.9556    1.0000 </r>
       <r>    1.9982    1.0000 </r>
       <r>    2.0208    1.0000 </r>
       <r>    2.1465    1.0000 </r>
       <r>    2.1721    1.0000 </r>
       <r>    2.2349    1.0000 </r>
       <r>    2.2394    1.0000 </r>
       <r>    2.2833    1.0000 </r>
       <r>    2.3147    1.0000 </r>
       <r>    2.3617    1.0000 </r>
       <r>    2.4151    1.0000 </r>
       <r>    2.4838    1.0000 </r>
       <r>    2.5095    1.0000 </r>
       <r>    2.5247    1.0000 </r>
       <r>    2.6075    1.0000 </r>
       <r>    2.6540    1.0000 </r>
       <r>    2.6631    1.0000 </r>
       <r>    2.6900    1.0000 </r>
       <r>    2.7060    1.0000 </r>
       <r>    2.7592    1.0000 </r>
       <r>    2.7890    1.0000 </r>
       <r>    2.8196    1.0000 </r>
       <r>    2.8715    1.0000 </r>
       <r>    2.9028    1.0000 </r>
       <r>    2.9563    1.0000 </r>
       <r>    2.9978    1.0000 </r>
       <r>    3.0243    1.0000 </r>
       <r>    3.0933    1.0000 </r>
       <r>    3.1035    1.0000 </r>
       <r>    3.1447    1.0000 </r>
       <r>    3.1977    1.0000 </r>
       <r>    3.2827    1.0000 </r>
       <r>    3.3458    1.0000 </r>
       <r>    3.3964    1.0000 </r>
       <r>    3.4253    1.0000 </r>
       <r>    3.4478    1.0000 </r>
       <r>    3.5048    1.0000 </r>
       <r>    3.5619    1.0000 </r>
       <r>    3.6020    1.0000 </r>
       <r>    3.6941    1.0000 </r>
       <r>    3.7089    1.0000 </r>
       <r>    3.8060    1.0000 </r>
       <r>    3.9036    1.0000 </r>
       <r>    5.5032    0.0000 </r>
       <r>    5.5134    0.0000 </r>
       <r>    5.6638    0.0000 </r>
       <r>    5.6722    0.0000 </r>
       <r>    5.7018    0.0000 </r>
       <r>    5.7030    0.0000 </r>
       <r>    5.8607    0.0000 </r>
       <r>    5.8690    0.0000 </r>
       <r>    7.0700    0.0000 </r>
       <r>    7.0847    0.0000 </r>
       <r>    7.1821    0.0000 </r>
       <r>    7.2186    0.0000 </r>
       <r>    7.2535    0.0000 </r>
       <r>    7.2886    0.0000 </r>
       <r>    7.3208    0.0000 </r>
       <r>    7.3713    0.0000 </r>
       <r>    7.3847    0.0000 </r>
       <r>    7.4676    0.0000 </r>
       <r>    7.5457    0.0000 </r>
       <r>    7.5802    0.0000 </r>
       <r>    7.7602    0.0000 </r>
       <r>    7.7685    0.0000 </r>
       <r>    7.7781    0.0000 </r>
       <r>    7.8069    0.0000 </r>
       <r>    7.8269    0.0000 </r>
       <r>    7.8379    0.0000 </r>
       <r>    7.9036    0.0000 </r>
       <r>    7.9130    0.0000 </r>
       <r>    7.9288    0.0000 </r>
       <r>    7.9357    0.0000 </r>
       <r>    8.0519    0.0000 </r>
       <r>    8.1124    0.0000 </r>
       <r>    8.1794    0.0000 </r>
       <r>    8.2698    0.0000 </r>
       <r>    8.3675    0.0000 </r>
       <r>    8.3981    0.0000 </r>
       <r>    8.6424    0.0000 </r>
       <r>    8.7006    0.0000 </r>
       <r>    8.7048    0.0000 </r>
       <r>    8.7179    0.0000 </r>
       <r>    8.7232    0.0000 </r>
       <r>    8.8010    0.0000 </r>
       <r>    8.8849    0.0000 </r>
       <r>    8.9073    0.0000 </r>
       <r>    9.0562    0.0000 </r>
       <r>    9.2067    0.0000 </r>
       <r>    9.2711    0.0000 </r>
       <r>    9.3111    0.0000 </r>
       <r>    9.3980    0.0000 </r>
       <r>    9.5287    0.0000 </r>
       <r>    9.9195    0.0000 </r>
       <r>   10.2609    0.0000 </r>
      </set>
      <set comment="kpoint 3">
       <r>  -40.5863    1.0000 </r>
       <r>  -40.5859    1.0000 </r>
       <r>  -39.8862    1.0000 </r>
       <r>  -39.0096    1.0000 </r>
       <r>  -19.0606    1.0000 </r>
       <r>  -18.9888    1.0000 </r>
       <r>  -18.9827    1.0000 </r>
       <r>  -18.9787    1.0000 </r>
       <r>  -18.9752    1.0000 </r>
       <r>  -18.9183    1.0000 </r>
       <r>  -18.9110    1.0000 </r>
       <r>  -18.9039    1.0000 </r>
       <r>  -18.9030    1.0000 </r>
       <r>  -18.9002    1.0000 </r>
       <r>  -18.8947    1.0000 </r>
       <r>  -18.8808    1.0000 </r>
       <r>  -18.8744    1.0000 </r>
       <r>  -18.8348    1.0000 </r>
       <r>  -18.8322    1.0000 </r>
       <r>  -18.8270    1.0000 </r>
       <r>  -18.8242    1.0000 </r>
       <r>  -18.8172    1.0000 </r>
       <r>  -18.8097    1.0000 </r>
       <r>  -18.7924    1.0000 </r>
       <r>  -18.7876    1.0000 </r>
       <r>  -18.7792    1.0000 </r>
       <r>  -18.7710    1.0000 </r>
       <r>  -18.7650    1.0000 </r>
       <r>  -18.7573    1.0000 </r>
       <r>  -18.7516    1.0000 </r>
       <r>  -18.7492    1.0000 </r>
       <r>  -18.7339    1.0000 </r>
       <r>  -18.7307    1.0000 </r>
       <r>  -18.7135    1.0000 </r>
       <r>  -18.7103    1.0000 </r>
       <r>  -18.6756    1.0000 </r>
       <r>  -18.6751    1.0000 </r>
       <r>  -18.6601    1.0000 </r>
       <r>  -18.6590    1.0000 </r>
       <r>  -18.6447    1.0000 </r>
       <r>  -18.6432    1.0000 </r>
       <r>  -18.6230    1.0000 </r>
       <r>  -18.6177    1.0000 </r>
       <r>  -18.6153    1.0000 </r>
       <r>  -18.6104    1.0000 </r>
       <r>  -18.6036    1.0000 </r>
       <r>  -18.6022    1.0000 </r>
       <r>  -18.5980    1.0000 </r>
       <r>  -18.5892    1.0000 </r>
       <r>  -18.5852    1.0000 </r>
       <r>  -18.5782    1.0000 </r>
       <r>  -18.5237    1.0000 </r>
       <r>  -18.5228    1.0000 </r>
       <r>  -18.5222    1.0000 </r>
       <r>  -18.5111    1.0000 </r>
       <r>  -18.5059    1.0000 </r>
       <r>  -18.4942    1.0000 </r>
       <r>  -18.4860    1.0000 </r>
       <r>  -18.4855    1.0000 </r>
       <r>  -18.4608    1.0000 </r>
       <r>  -18.4574    1.0000 </r>
       <r>  -18.4521    1.0000 </r>
       <r>  -18.4473    1.0000 </r>
       <r>  -18.4420    1.0000 </r>
       <r>  -18.4415    1.0000 </r>
       <r>  -18.4280    1.0000 </r>
       <r>  -18.4273    1.0000 </r>
       <r>  -18.4213    1.0000 </r>
       <r>  -18.4203    1.0000 </r>
       <r>  -18.3678    1.0000 </r>
       <r>  -18.3666    1.0000 </r>
       <r>  -18.3560    1.0000 </r>
       <r>  -18.3553    1.0000 </r>
       <r>  -18.3290    1.0000 </r>
       <r>  -18.3094    1.0000 </r>
       <r>  -18.3030    1.0000 </r>
       <r>  -18.2833    1.0000 </r>
       <r>  -18.2760    1.0000 </r>
       <r>  -18.2571    1.0000 </r>
       <r>  -18.2470    1.0000 </r>
       <r>  -18.2284    1.0000 </r>
       <r>  -18.2203    1.0000 </r>
       <r>  -18.1664    1.0000 </r>
       <r>  -18.1410    1.0000 </r>
       <r>  -13.7290    1.0000 </r>
       <r>  -13.5882    1.0000 </r>
       <r>  -13.5765    1.0000 </r>
       <r>  -13.4802    1.0000 </r>
       <r>  -13.4652    1.0000 </r>
       <r>  -12.9065    1.0000 </r>
       <r>  -12.8791    1.0000 </r>
       <r>  -12.7398    1.0000 </r>
       <r>  -12.7267    1.0000 </r>
       <r>  -12.6595    1.0000 </r>
       <r>  -12.6027    1.0000 </r>
       <r>  -12.1557    1.0000 </r>
       <r>  -12.0923    1.0000 </r>
       <r>  -12.0446    1.0000 </r>
       <r>  -12.0121    1.0000 </r>
       <r>  -11.9106    1.0000 </r>
       <r>   -9.3832    1.0000 </r>
       <r>   -9.1075    1.0000 </r>
       <r>   -8.6418    1.0000 </r>
       <r>   -8.5759    1.0000 </r>
       <r>   -8.5445    1.0000 </r>
       <r>   -8.4956    1.0000 </r>
       <r>   -8.3802    1.0000 </r>
       <r>   -8.3176    1.0000 </r>
       <r>   -8.2819    1.0000 </r>
       <r>   -8.2471    1.0000 </r>
       <r>   -8.0876    1.0000 </r>
       <r>   -8.0441    1.0000 </r>
       <r>   -8.0403    1.0000 </r>
       <r>   -8.0168    1.0000 </r>
       <r>   -7.4040    1.0000 </r>
       <r>   -7.4006    1.0000 </r>
       <r>   -6.4333    1.0000 </r>
       <r>   -6.4177    1.0000 </r>
       <r>   -6.4044    1.0000 </r>
       <r>   -6.3938    1.0000 </r>
       <r>   -5.6096    1.0000 </r>
       <r>   -5.5714    1.0000 </r>
       <r>   -5.5512    1.0000 </r>
       <r>   -5.4150    1.0000 </r>
       <r>   -5.3523    1.0000 </r>
       <r>   -5.2839    1.0000 </r>
       <r>   -5.2347    1.0000 </r>
       <r>   -5.1022    1.0000 </r>
       <r>   -5.0723    1.0000 </r>
       <r>   -5.0160    1.0000 </r>
       <r>   -3.9238    1.0000 </r>
       <r>   -3.6104    1.0000 </r>
       <r>   -1.4579    1.0000 </r>
       <r>   -1.3990    1.0000 </r>
       <r>   -1.2943    1.0000 </r>
       <r>   -1.0873    1.0000 </r>
       <r>   -0.5733    1.0000 </r>
       <r>   -0.5561    1.0000 </r>
       <r>   -0.5136    1.0000 </r>
       <r>   -0.4758    1.0000 </r>
       <r>   -0.4634    1.0000 </r>
       <r>   -0.4258    1.0000 </r>
       <r>   -0.3947    1.0000 </r>
       <r>   -0.3468    1.0000 </r>
       <r>   -0.2453    1.0000 </r>
       <r>   -0.1752    1.0000 </r>
       <r>   -0.1077    1.0000 </r>
       <r>   -0.0728    1.0000 </r>
       <r>    0.0628    1.0000 </r>
       <r>    0.2266    1.0000 </r>
       <r>    0.2671    1.0000 </r>
       <r>    0.3349    1.0000 </r>
       <r>    0.4379    1.0000 </r>
       <r>    0.4984    1.0000 </r>
       <r>    0.5883    1.0000 </r>
       <r>    0.6132    1.0000 </r>
       <r>    0.6427    1.0000 </r>
       <r>    0.6602    1.0000 </r>
       <r>    0.6660    1.0000 </r>
       <r>    0.7860    1.0000 </r>
       <r>    0.8040    1.0000 </r>
       <r>    0.9361    1.0000 </r>
       <r>    0.9630    1.0000 </r>
       <r>    1.0077    1.0000 </r>
       <r>    1.0789    1.0000 </r>
       <r>    1.1534    1.0000 </r>
       <r>    1.1636    1.0000 </r>
       <r>    1.3079    1.0000 </r>
       <r>    1.3278    1.0000 </r>
       <r>    1.3809    1.0000 </r>
       <r>    1.3963    1.0000 </r>
       <r>    1.4388    1.0000 </r>
       <r>    1.4597    1.0000 </r>
       <r>    1.5255    1.0000 </r>
       <r>    1.5627    1.0000 </r>
       <r>    1.6114    1.0000 </r>
       <r>    1.6987    1.0000 </r>
       <r>    1.7177    1.0000 </r>
       <r>    1.7258    1.0000 </r>
       <r>    1.8574    1.0000 </r>
       <r>    1.9185    1.0000 </r>
       <r>    1.9817    1.0000 </r>
       <r>    2.0330    1.0000 </r>
       <r>    2.1520    1.0000 </r>
       <r>    2.2372    1.0000 </r>
       <r>    2.2528    1.0000 </r>
       <r>    2.3247    1.0000 </r>
       <r>    2.3501    1.0000 </r>
       <r>    2.3850    1.0000 </r>
       <r>    2.3900    1.0000 </r>
       <r>    2.4477    1.0000 </r>
       <r>    2.4962    1.0000 </r>
       <r>    2.5066    1.0000 </r>
       <r>    2.5121    1.0000 </r>
       <r>    2.5409    1.0000 </r>
       <r>    2.5490    1.0000 </r>
       <r>    2.5614    1.0000 </r>
       <r>    2.5737    1.0000 </r>
       <r>    2.6072    1.0000 </r>
       <r>    2.6680    1.0000 </r>
       <r>    2.7159    1.0000 </r>
       <r>    2.7943    1.0000 </r>
       <r>    2.8043    1.0000 </r>
       <r>    2.8637    1.0000 </r>
       <r>    2.8839    1.0000 </r>
       <r>    2.9107    1.0000 </r>
       <r>    2.9322    1.0000 </r>
       <r>    2.9679    1.0000 </r>
       <r>    3.0005    1.0000 </r>
       <r>    3.0029    1.0000 </r>
       <r>    3.0604    1.0000 </r>
       <r>    3.1108    1.0000 </r>
       <r>    3.1985    1.0000 </r>
       <r>    3.2293    1.0000 </r>
       <r>    3.2512    1.0000 </r>
       <r>    3.3216    1.0000 </r>
       <r>    3.3887    1.0000 </r>
       <r>    3.4131    1.0000 </r>
       <r>    3.4532    1.0000 </r>
       <r>    3.4884    1.0000 </r>
       <r>    3.5462    1.0000 </r>
       <r>    3.6025    1.0000 </r>
       <r>    3.6162    1.0000 </r>
       <r>    3.7304    1.0000 </r>
       <r>    4.1841    1.0000 </r>
       <r>    4.1908    1.0000 </r>
       <r>    4.2513    1.0000 </r>
       <r>    4.2641    1.0000 </r>
       <r>    5.0159    0.0000 </r>
       <r>    5.0270    0.0000 </r>
       <r>    5.2210    0.0000 </r>
       <r>    5.2291    0.0000 </r>
       <r>    5.6645    0.0000 </r>
       <r>    5.6805    0.0000 </r>
       <r>    5.8003    0.0000 </r>
       <r>    5.8081    0.0000 </r>
       <r>    6.1253    0.0000 </r>
       <r>    6.1279    0.0000 </r>
       <r>    6.1504    0.0000 </r>
       <r>    6.1561    0.0000 </r>
       <r>    6.2227    0.0000 </r>
       <r>    6.2236    0.0000 </r>
       <r>    6.2510    0.0000 </r>
       <r>    6.2592    0.0000 </r>
       <r>    6.6027    0.0000 </r>
       <r>    6.6736    0.0000 </r>
       <r>    6.8440    0.0000 </r>
       <r>    6.8957    0.0000 </r>
       <r>    7.1655    0.0000 </r>
       <r>    7.2020    0.0000 </r>
       <r>    7.2358    0.0000 </r>
       <r>    7.4460    0.0000 </r>
       <r>    7.7613    0.0000 </r>
       <r>    7.7876    0.0000 </r>
       <r>    7.8525    0.0000 </r>
       <r>    7.8843    0.0000 </r>
       <r>    8.0436    0.0000 </r>
       <r>    8.3489    0.0000 </r>
       <r>    8.3547    0.0000 </r>
       <r>    8.3772    0.0000 </r>
       <r>    8.5848    0.0000 </r>
       <r>    8.7406    0.0000 </r>
       <r>    8.8438    0.0000 </r>
       <r>    8.8634    0.0000 </r>
       <r>    8.9176    0.0000 </r>
       <r>    9.0037    0.0000 </r>
       <r>    9.0097    0.0000 </r>
       <r>    9.0272    0.0000 </r>
       <r>    9.0380    0.0000 </r>
       <r>    9.1133    0.0000 </r>
       <r>    9.1379    0.0000 </r>
       <r>    9.1692    0.0000 </r>
       <r>    9.4306    0.0000 </r>
       <r>    9.4396    0.0000 </r>
       <r>    9.5089    0.0000 </r>
       <r>    9.6641    0.0000 </r>
       <r>    9.6922    0.0000 </r>
       <r>    9.6998    0.0000 </r>
       <r>    9.9347    0.0000 </r>
       <r>    9.9514    0.0000 </r>
      </set>
      <set comment="kpoint 4">
       <r>  -40.5863    1.0000 </r>
       <r>  -40.5859    1.0000 </r>
       <r>  -39.8862    1.0000 </r>
       <r>  -39.0096    1.0000 </r>
       <r>  -19.0605    1.0000 </r>
       <r>  -18.9888    1.0000 </r>
       <r>  -18.9827    1.0000 </r>
       <r>  -18.9788    1.0000 </r>
       <r>  -18.9752    1.0000 </r>
       <r>  -18.9181    1.0000 </r>
       <r>  -18.9110    1.0000 </r>
       <r>  -18.9040    1.0000 </r>
       <r>  -18.9031    1.0000 </r>
       <r>  -18.9001    1.0000 </r>
       <r>  -18.8947    1.0000 </r>
       <r>  -18.8808    1.0000 </r>
       <r>  -18.8744    1.0000 </r>
       <r>  -18.8348    1.0000 </r>
       <r>  -18.8322    1.0000 </r>
       <r>  -18.8270    1.0000 </r>
       <r>  -18.8241    1.0000 </r>
       <r>  -18.8172    1.0000 </r>
       <r>  -18.8097    1.0000 </r>
       <r>  -18.7924    1.0000 </r>
       <r>  -18.7876    1.0000 </r>
       <r>  -18.7793    1.0000 </r>
       <r>  -18.7709    1.0000 </r>
       <r>  -18.7649    1.0000 </r>
       <r>  -18.7573    1.0000 </r>
       <r>  -18.7516    1.0000 </r>
       <r>  -18.7493    1.0000 </r>
       <r>  -18.7339    1.0000 </r>
       <r>  -18.7307    1.0000 </r>
       <r>  -18.7135    1.0000 </r>
       <r>  -18.7103    1.0000 </r>
       <r>  -18.6755    1.0000 </r>
       <r>  -18.6752    1.0000 </r>
       <r>  -18.6597    1.0000 </r>
       <r>  -18.6592    1.0000 </r>
       <r>  -18.6443    1.0000 </r>
       <r>  -18.6438    1.0000 </r>
       <r>  -18.6230    1.0000 </r>
       <r>  -18.6177    1.0000 </r>
       <r>  -18.6153    1.0000 </r>
       <r>  -18.6104    1.0000 </r>
       <r>  -18.6036    1.0000 </r>
       <r>  -18.6021    1.0000 </r>
       <r>  -18.5980    1.0000 </r>
       <r>  -18.5892    1.0000 </r>
       <r>  -18.5851    1.0000 </r>
       <r>  -18.5783    1.0000 </r>
       <r>  -18.5236    1.0000 </r>
       <r>  -18.5229    1.0000 </r>
       <r>  -18.5222    1.0000 </r>
       <r>  -18.5111    1.0000 </r>
       <r>  -18.5059    1.0000 </r>
       <r>  -18.4942    1.0000 </r>
       <r>  -18.4860    1.0000 </r>
       <r>  -18.4855    1.0000 </r>
       <r>  -18.4609    1.0000 </r>
       <r>  -18.4575    1.0000 </r>
       <r>  -18.4521    1.0000 </r>
       <r>  -18.4472    1.0000 </r>
       <r>  -18.4419    1.0000 </r>
       <r>  -18.4415    1.0000 </r>
       <r>  -18.4281    1.0000 </r>
       <r>  -18.4273    1.0000 </r>
       <r>  -18.4213    1.0000 </r>
       <r>  -18.4203    1.0000 </r>
       <r>  -18.3678    1.0000 </r>
       <r>  -18.3666    1.0000 </r>
       <r>  -18.3560    1.0000 </r>
       <r>  -18.3553    1.0000 </r>
       <r>  -18.3290    1.0000 </r>
       <r>  -18.3094    1.0000 </r>
       <r>  -18.3030    1.0000 </r>
       <r>  -18.2833    1.0000 </r>
       <r>  -18.2760    1.0000 </r>
       <r>  -18.2571    1.0000 </r>
       <r>  -18.2470    1.0000 </r>
       <r>  -18.2284    1.0000 </r>
       <r>  -18.2203    1.0000 </r>
       <r>  -18.1664    1.0000 </r>
       <r>  -18.1410    1.0000 </r>
       <r>  -13.7280    1.0000 </r>
       <r>  -13.5905    1.0000 </r>
       <r>  -13.5757    1.0000 </r>
       <r>  -13.4796    1.0000 </r>
       <r>  -13.4652    1.0000 </r>
       <r>  -12.9081    1.0000 </r>
       <r>  -12.8775    1.0000 </r>
       <r>  -12.7386    1.0000 </r>
       <r>  -12.7276    1.0000 </r>
       <r>  -12.6594    1.0000 </r>
       <r>  -12.6033    1.0000 </r>
       <r>  -12.1558    1.0000 </r>
       <r>  -12.0922    1.0000 </r>
       <r>  -12.0441    1.0000 </r>
[...]
       <r>    8.7714    0.0000 </r>
       <r>    8.8086    0.0000 </r>
       <r>    8.8179    0.0000 </r>
       <r>    8.8683    0.0000 </r>
       <r>    8.8837    0.0000 </r>
       <r>    8.9344    0.0000 </r>
       <r>    8.9724    0.0000 </r>
       <r>    9.4241    0.0000 </r>
       <r>    9.6403    0.0000 </r>
       <r>    9.9789    0.0000 </r>
       <r>   10.0788    0.0000 </r>
      </set>
     </set>
    </set>
   </array>
  </eigenvalues>
  <separator name="orbital magnetization" >
   <v name="MAGDIPOLOUT">      0.00000000      0.00000000      0.00000000</v>
  </separator>
  <dos>
   <i name="efermi">      4.30201330 </i>
   <total>
    <array>
     <dimension dim="1">gridpoints</dimension>
     <dimension dim="2">spin</dimension>
     <field>energy</field>
     <field>total</field>
     <field>integrated</field>
     <set>
      <set comment="spin 1">
       <r>   -43.1303     0.0000     0.0000 </r>
       <r>   -42.9437     0.0000     0.0000 </r>
       <r>   -42.7572     0.0000     0.0000 </r>
       <r>   -42.5706     0.0000     0.0000 </r>
       <r>   -42.3841     0.0000     0.0000 </r>
       <r>   -42.1975     0.0000     0.0000 </r>
       <r>   -42.0110     0.0000     0.0000 </r>
       <r>   -41.8244     0.0000     0.0000 </r>
       <r>   -41.6378     0.0000     0.0000 </r>
       <r>   -41.4513     0.0000     0.0000 </r>
       <r>   -41.2647     0.0000     0.0000 </r>
       <r>   -41.0782     0.0000     0.0000 </r>
       <r>   -40.8916     0.0000     0.0000 </r>
       <r>   -40.7051     0.0000     0.0000 </r>
       <r>   -40.5185     0.0000     4.0000 </r>
       <r>   -40.3319     0.0000     4.0000 </r>
       <r>   -40.1454     0.0000     4.0000 </r>
       <r>   -39.9588     0.0000     4.0000 </r>
       <r>   -39.7723     0.0000     6.0000 </r>
       <r>   -39.5857     0.0000     6.0000 </r>
       <r>   -39.3991     0.0000     6.0000 </r>
       <r>   -39.2126     0.0000     6.0000 </r>
       <r>   -39.0260     0.0000     6.0000 </r>
       <r>   -38.8395     0.0000     8.0000 </r>
       <r>   -38.6529     0.0000     8.0000 </r>
       <r>   -38.4664     0.0000     8.0000 </r>
       <r>   -38.2798     0.0000     8.0000 </r>
       <r>   -38.0932     0.0000     8.0000 </r>
       <r>   -37.9067     0.0000     8.0000 </r>
       <r>   -37.7201     0.0000     8.0000 </r>
       <r>   -37.5336     0.0000     8.0000 </r>
       <r>   -37.3470     0.0000     8.0000 </r>
       <r>   -37.1605     0.0000     8.0000 </r>
       <r>   -36.9739     0.0000     8.0000 </r>
       <r>   -36.7873     0.0000     8.0000 </r>
       <r>   -36.6008     0.0000     8.0000 </r>
       <r>   -36.4142     0.0000     8.0000 </r>
       <r>   -36.2277     0.0000     8.0000 </r>
       <r>   -36.0411     0.0000     8.0000 </r>
       <r>   -35.8545     0.0000     8.0000 </r>
       <r>   -35.6680     0.0000     8.0000 </r>
       <r>   -35.4814     0.0000     8.0000 </r>
       <r>   -35.2949     0.0000     8.0000 </r>
       <r>   -35.1083     0.0000     8.0000 </r>
       <r>   -34.9218     0.0000     8.0000 </r>
       <r>   -34.7352     0.0000     8.0000 </r>
       <r>   -34.5486     0.0000     8.0000 </r>
       <r>   -34.3621     0.0000     8.0000 </r>
       <r>   -34.1755     0.0000     8.0000 </r>
       <r>   -33.9890     0.0000     8.0000 </r>
       <r>   -33.8024     0.0000     8.0000 </r>
       <r>   -33.6159     0.0000     8.0000 </r>
       <r>   -33.4293     0.0000     8.0000 </r>
       <r>   -33.2427     0.0000     8.0000 </r>
       <r>   -33.0562     0.0000     8.0000 </r>
       <r>   -32.8696     0.0000     8.0000 </r>
       <r>   -32.6831     0.0000     8.0000 </r>
       <r>   -32.4965     0.0000     8.0000 </r>
       <r>   -32.3100     0.0000     8.0000 </r>
       <r>   -32.1234     0.0000     8.0000 </r>
       <r>   -31.9368     0.0000     8.0000 </r>
       <r>   -31.7503     0.0000     8.0000 </r>
       <r>   -31.5637     0.0000     8.0000 </r>
       <r>   -31.3772     0.0000     8.0000 </r>
       <r>   -31.1906     0.0000     8.0000 </r>
       <r>   -31.0040     0.0000     8.0000 </r>
       <r>   -30.8175     0.0000     8.0000 </r>
       <r>   -30.6309     0.0000     8.0000 </r>
       <r>   -30.4444     0.0000     8.0000 </r>
       <r>   -30.2578     0.0000     8.0000 </r>
       <r>   -30.0713     0.0000     8.0000 </r>
       <r>   -29.8847     0.0000     8.0000 </r>
       <r>   -29.6981     0.0000     8.0000 </r>
       <r>   -29.5116     0.0000     8.0000 </r>
       <r>   -29.3250     0.0000     8.0000 </r>
       <r>   -29.1385     0.0000     8.0000 </r>
       <r>   -28.9519     0.0000     8.0000 </r>
       <r>   -28.7654     0.0000     8.0000 </r>
       <r>   -28.5788     0.0000     8.0000 </r>
       <r>   -28.3922     0.0000     8.0000 </r>
       <r>   -28.2057     0.0000     8.0000 </r>
       <r>   -28.0191     0.0000     8.0000 </r>
       <r>   -27.8326     0.0000     8.0000 </r>
       <r>   -27.6460     0.0000     8.0000 </r>
       <r>   -27.4594     0.0000     8.0000 </r>
       <r>   -27.2729     0.0000     8.0000 </r>
       <r>   -27.0863     0.0000     8.0000 </r>
       <r>   -26.8998     0.0000     8.0000 </r>
       <r>   -26.7132     0.0000     8.0000 </r>
       <r>   -26.5267     0.0000     8.0000 </r>
       <r>   -26.3401     0.0000     8.0000 </r>
       <r>   -26.1535     0.0000     8.0000 </r>
       <r>   -25.9670     0.0000     8.0000 </r>
       <r>   -25.7804     0.0000     8.0000 </r>
       <r>   -25.5939     0.0000     8.0000 </r>
       <r>   -25.4073     0.0000     8.0000 </r>
       <r>   -25.2208     0.0000     8.0000 </r>
       <r>   -25.0342     0.0000     8.0000 </r>
       <r>   -24.8476     0.0000     8.0000 </r>
       <r>   -24.6611     0.0000     8.0000 </r>
       <r>   -24.4745     0.0000     8.0000 </r>
       <r>   -24.2880     0.0000     8.0000 </r>
       <r>   -24.1014     0.0000     8.0000 </r>
       <r>   -23.9149     0.0000     8.0000 </r>
       <r>   -23.7283     0.0000     8.0000 </r>
       <r>   -23.5417     0.0000     8.0000 </r>
       <r>   -23.3552     0.0000     8.0000 </r>
       <r>   -23.1686     0.0000     8.0000 </r>
       <r>   -22.9821     0.0000     8.0000 </r>
       <r>   -22.7955     0.0000     8.0000 </r>
       <r>   -22.6089     0.0000     8.0000 </r>
       <r>   -22.4224     0.0000     8.0000 </r>
       <r>   -22.2358     0.0000     8.0000 </r>
       <r>   -22.0493     0.0000     8.0000 </r>
       <r>   -21.8627     0.0000     8.0000 </r>
       <r>   -21.6762     0.0000     8.0000 </r>
       <r>   -21.4896     0.0000     8.0000 </r>
       <r>   -21.3030     0.0000     8.0000 </r>
       <r>   -21.1165     0.0000     8.0000 </r>
       <r>   -20.9299     0.0000     8.0000 </r>
       <r>   -20.7434     0.0000     8.0000 </r>
       <r>   -20.5568     0.0000     8.0000 </r>
       <r>   -20.3703     0.0000     8.0000 </r>
       <r>   -20.1837     0.0000     8.0000 </r>
       <r>   -19.9971     0.0000     8.0000 </r>
       <r>   -19.8106     0.0000     8.0000 </r>
       <r>   -19.6240     0.0000     8.0000 </r>
       <r>   -19.4375     0.0000     8.0000 </r>
       <r>   -19.2509     0.0000     8.0000 </r>
       <r>   -19.0643     0.0000     8.0000 </r>
       <r>   -18.8778     0.0000    32.0000 </r>
       <r>   -18.6912     0.0000    70.0000 </r>
       <r>   -18.5047     0.0000   112.0000 </r>
       <r>   -18.3181     0.0000   148.0000 </r>
       <r>   -18.1316     0.0000   168.0000 </r>
       <r>   -17.9450     0.0000   168.0000 </r>
       <r>   -17.7584     0.0000   168.0000 </r>
       <r>   -17.5719     0.0000   168.0000 </r>
       <r>   -17.3853     0.0000   168.0000 </r>
       <r>   -17.1988     0.0000   168.0000 </r>
       <r>   -17.0122     0.0000   168.0000 </r>
       <r>   -16.8257     0.0000   168.0000 </r>
       <r>   -16.6391     0.0000   168.0000 </r>
       <r>   -16.4525     0.0000   168.0000 </r>
       <r>   -16.2660     0.0000   168.0000 </r>
       <r>   -16.0794     0.0000   168.0000 </r>
       <r>   -15.8929     0.0000   168.0000 </r>
       <r>   -15.7063     0.0000   168.0000 </r>
       <r>   -15.5198     0.0000   168.0000 </r>
       <r>   -15.3332     0.0000   168.0000 </r>
       <r>   -15.1466     0.0000   168.0000 </r>
       <r>   -14.9601     0.0000   168.0000 </r>
       <r>   -14.7735     0.0000   168.0000 </r>
       <r>   -14.5870     0.0000   168.0000 </r>
       <r>   -14.4004     0.0000   168.0000 </r>
       <r>   -14.2138     0.0000   168.0000 </r>
       <r>   -14.0273     0.0000   168.0000 </r>
       <r>   -13.8407     0.0000   168.0000 </r>
       <r>   -13.6542     0.0000   170.0000 </r>
       <r>   -13.4676     0.0000   176.0000 </r>
       <r>   -13.2811     0.0000   178.0000 </r>
       <r>   -13.0945     0.0000   178.0000 </r>
       <r>   -12.9079   932.0848   179.3925 </r>
       <r>   -12.7214     0.0000   186.0000 </r>
       <r>   -12.5348     0.0000   190.0000 </r>
       <r>   -12.3483     0.0000   190.0000 </r>
       <r>   -12.1617     0.0000   190.0000 </r>
       <r>   -11.9752     0.0000   198.0000 </r>
       <r>   -11.7886     0.0000   200.0000 </r>
       <r>   -11.6020     0.0000   200.0000 </r>
       <r>   -11.4155     0.0000   200.0000 </r>
       <r>   -11.2289     0.0000   200.0000 </r>
       <r>   -11.0424     0.0000   200.0000 </r>
       <r>   -10.8558     0.0000   200.0000 </r>
       <r>   -10.6692     0.0000   200.0000 </r>
       <r>   -10.4827     0.0000   200.0000 </r>
       <r>   -10.2961     0.0000   200.0000 </r>
       <r>   -10.1096     0.0000   200.0000 </r>
       <r>    -9.9230     0.0000   200.0000 </r>
       <r>    -9.7365     0.0000   200.0000 </r>
       <r>    -9.5499     0.0000   200.0000 </r>
       <r>    -9.3633     2.6728   200.0341 </r>
       <r>    -9.1768     6.5826   201.8090 </r>
       <r>    -8.9902     0.2025   203.9997 </r>
       <r>    -8.8037    15.5549   206.3268 </r>
       <r>    -8.6171    13.5921   208.7177 </r>
       <r>    -8.4306    13.6737   213.1071 </r>
       <r>    -8.2440    35.3628   216.6199 </r>
       <r>    -8.0574    30.5212   220.8383 </r>
       <r>    -7.8709    18.2461   224.7552 </r>
       <r>    -7.6843     0.0362   228.0000 </r>
       <r>    -7.4978    13.0435   231.3644 </r>
       <r>    -7.3112     0.0000   232.0000 </r>
       <r>    -7.1247     0.0000   232.0000 </r>
       <r>    -6.9381     0.0000   232.0000 </r>
       <r>    -6.7515     0.0000   232.0000 </r>
       <r>    -6.5650     0.0000   232.0000 </r>
       <r>    -6.3784     5.8214   232.1418 </r>
       <r>    -6.1919    26.4901   235.3969 </r>
       <r>    -6.0053    13.2640   239.4316 </r>
       <r>    -5.8187    16.0285   242.4034 </r>
       <r>    -5.6322    20.5881   247.1974 </r>
       <r>    -5.4456    18.1196   250.3237 </r>
       <r>    -5.2591    16.2068   254.1646 </r>
       <r>    -5.0725     3.4511   255.9323 </r>
       <r>    -4.8860     7.9271   256.8385 </r>
       <r>    -4.6994     9.2995   258.4209 </r>
       <r>    -4.5128     7.7765   260.1519 </r>
       <r>    -4.3263     6.8452   261.5494 </r>
       <r>    -4.1397     6.0741   262.8100 </r>
       <r>    -3.9532     2.8650   263.6431 </r>
       <r>    -3.7666     0.8285   263.9513 </r>
       <r>    -3.5801     0.0000   264.0000 </r>
       <r>    -3.3935     0.0000   264.0000 </r>
       <r>    -3.2069     0.0000   264.0000 </r>
       <r>    -3.0204     0.0000   264.0000 </r>
       <r>    -2.8338     0.0000   264.0000 </r>
       <r>    -2.6473     0.0000   264.0000 </r>
       <r>    -2.4607     0.0000   264.0000 </r>
       <r>    -2.2741     0.0000   264.0000 </r>
       <r>    -2.0876     0.0000   264.0000 </r>
       <r>    -1.9010     0.0000   264.0000 </r>
       <r>    -1.7145     0.0000   264.0000 </r>
       <r>    -1.5279     0.4647   264.0109 </r>
       <r>    -1.3414     5.9243   264.4999 </r>
       <r>    -1.1548    12.0347   266.2819 </r>
       <r>    -0.9682    13.9197   268.5860 </r>
       <r>    -0.7817     7.8002   270.6859 </r>
       <r>    -0.5951    14.3996   272.0702 </r>
       <r>    -0.4086    23.0842   275.9402 </r>
       <r>    -0.2220    36.3208   281.0682 </r>
       <r>    -0.0355    27.6550   288.0280 </r>
       <r>     0.1511    36.9428   294.7970 </r>
       <r>     0.3377    30.6614   300.6374 </r>
       <r>     0.5242    24.0247   307.8236 </r>
       <r>     0.7108    31.3993   315.5785 </r>
       <r>     0.8973    36.2215   323.0310 </r>
       <r>     1.0839    40.5676   330.4609 </r>
       <r>     1.2704    85.5221   338.4789 </r>
       <r>     1.4570    37.3272   347.9089 </r>
       <r>     1.6436    48.5510   358.1902 </r>
       <r>     1.8301    33.8573   363.4918 </r>
       <r>     2.0167    48.7593   370.2086 </r>
       <r>     2.2032    42.5525   378.2599 </r>
       <r>     2.3898    52.5425   387.3810 </r>
       <r>     2.5764    55.0993   397.8447 </r>
       <r>     2.7629    50.0960   408.2956 </r>
       <r>     2.9495    64.5937   418.9756 </r>
       <r>     3.1360    40.7188   429.2069 </r>
       <r>     3.3226    36.5778   436.3914 </r>
       <r>     3.5091    37.4505   443.5422 </r>
       <r>     3.6957    25.3844   448.7242 </r>
       <r>     3.8823    23.8463   452.6059 </r>
       <r>     4.0688     8.3973   455.3877 </r>
       <r>     4.2554     0.0165   456.0000 </r>
       <r>     4.4419     0.0000   456.0000 </r>
       <r>     4.6285     0.0000   456.0000 </r>
       <r>     4.8150     0.0000   456.0000 </r>
       <r>     5.0016     0.2586   456.0056 </r>
       <r>     5.1882     2.2761   456.2342 </r>
       <r>     5.3747     6.5092   457.0419 </r>
       <r>     5.5613     8.6305   458.6039 </r>
       <r>     5.7478    12.3068   461.3863 </r>
       <r>     5.9344    14.2251   464.7143 </r>
       <r>     6.1210    11.7426   467.1216 </r>
       <r>     6.3075    12.9497   469.3715 </r>
       <r>     6.4941    15.4022   472.0171 </r>
       <r>     6.6806    17.8076   475.1149 </r>
       <r>     6.8672    20.7500   478.6991 </r>
       <r>     7.0537    25.4091   482.9885 </r>
       <r>     7.2403    32.8916   488.2683 </r>
       <r>     7.4269    30.7019   494.4622 </r>
       <r>     7.6134    27.9054   499.7903 </r>
       <r>     7.8000    53.4287   507.5388 </r>
       <r>     7.9865    33.2246   515.5673 </r>
       <r>     8.1731    19.8386   520.3999 </r>
       <r>     8.3596    20.9716   524.0102 </r>
       <r>     8.5462    24.6927   528.2297 </r>
       <r>     8.7328    45.0238   533.3885 </r>
       <r>     8.9193    33.4287   541.4617 </r>
       <r>     9.1059    18.5243   546.1455 </r>
       <r>     9.2924    16.2932   549.4103 </r>
       <r>     9.4790    15.5823   552.5540 </r>
       <r>     9.6655     7.9398   555.0803 </r>
       <r>     9.8521     7.1389   556.4030 </r>
       <r>    10.0387    10.2920   558.2049 </r>
       <r>    10.2252     6.6023   559.7610 </r>
       <r>    10.4118     0.0000   560.0000 </r>
       <r>    10.5983     0.0000   560.0000 </r>
       <r>    10.7849     0.0000   560.0000 </r>
       <r>    10.9715     0.0000   560.0000 </r>
       <r>    11.1580     0.0000   560.0000 </r>
       <r>    11.3446     0.0000   560.0000 </r>
       <r>    11.5311     0.0000   560.0000 </r>
       <r>    11.7177     0.0000   560.0000 </r>
       <r>    11.9042     0.0000   560.0000 </r>
       <r>    12.0908     0.0000   560.0000 </r>
       <r>    12.2774     0.0000   560.0000 </r>
       <r>    12.4639     0.0000   560.0000 </r>
       <r>    12.6505     0.0000   560.0000 </r>
       <r>    12.8370     0.0000   560.0000 </r>
      </set>
     </set>
    </array>
   </total>
  </dos>
 </calculation>
 <structure name="finalpos" >
  <crystal>
   <varray name="basis" >
    <v>      11.17850000       0.00000000       0.00000000 </v>
    <v>       0.00000000       9.57460000       0.00000000 </v>
    <v>       0.00000000       0.00000000      11.18240000 </v>
   </varray>
   <i name="volume">   1196.84853820 </i>
   <varray name="rec_basis" >
    <v>       0.08945744       0.00000000       0.00000000 </v>
    <v>       0.00000000       0.10444301       0.00000000 </v>
    <v>       0.00000000       0.00000000       0.08942624 </v>
   </varray>
  </crystal>
  <varray name="positions" >
   <v>       0.37539000       0.00017000       0.43687000 </v>
   <v>       0.87461000       0.00017000       0.18687000 </v>
   <v>       0.62539000       0.99984000       0.93687000 </v>
   <v>       0.87539000       0.00017000       0.93687000 </v>
   <v>       0.12461000       0.99984000       0.18687000 </v>
   <v>       0.87539000       0.00017000       0.43687000 </v>
   <v>       0.62461000       0.99984000       0.18687000 </v>
   <v>       0.37539000       0.00017000       0.93687000 </v>
   <v>       0.12461000       0.99984000       0.68687000 </v>
   <v>       0.62461000       0.99984000       0.68687000 </v>
   <v>       0.00013000       0.29519000       0.06281000 </v>
   <v>       0.25013000       0.70481000       0.06281000 </v>
   <v>       0.24987000       0.29519000       0.31282000 </v>
   <v>       0.49987000       0.70481000       0.31282000 </v>
   <v>       0.50013000       0.29519000       0.06281000 </v>
   <v>       0.75013000       0.70481000       0.06281000 </v>
   <v>       0.74987000       0.29519000       0.31282000 </v>
   <v>       0.99987000       0.70481000       0.31282000 </v>
   <v>       0.00013000       0.29519000       0.56281000 </v>
   <v>       0.25013000       0.70481000       0.56281000 </v>
   <v>       0.24987000       0.29519000       0.81282000 </v>
   <v>       0.49987000       0.70481000       0.81282000 </v>
   <v>       0.50013000       0.29519000       0.56281000 </v>
   <v>       0.75013000       0.70481000       0.56281000 </v>
   <v>       0.74987000       0.29519000       0.81282000 </v>
   <v>       0.99987000       0.70481000       0.81282000 </v>
   <v>       0.25005000       0.32677000       0.06286000 </v>
   <v>       0.00005000       0.67323000       0.06286000 </v>
   <v>       0.49995000       0.32677000       0.31286000 </v>
   <v>       0.24995000       0.67323000       0.31286000 </v>
   <v>       0.75005000       0.32677000       0.06286000 </v>
   <v>       0.50005000       0.67323000       0.06286000 </v>
   <v>       0.99995000       0.32677000       0.31286000 </v>
   <v>       0.74995000       0.67323000       0.31286000 </v>
   <v>       0.25005000       0.32677000       0.56286000 </v>
   <v>       0.00005000       0.67323000       0.56286000 </v>
   <v>       0.49995000       0.32677000       0.81286000 </v>
   <v>       0.24995000       0.67323000       0.81286000 </v>
   <v>       0.75005000       0.32677000       0.56286000 </v>
   <v>       0.50005000       0.67323000       0.56286000 </v>
   <v>       0.99995000       0.32677000       0.81286000 </v>
   <v>       0.74995000       0.67323000       0.81286000 </v>
   <v>       0.49987000       0.07798000       0.06246000 </v>
   <v>       0.24987000       0.92202000       0.06246000 </v>
   <v>       0.25013000       0.07798000       0.31246000 </v>
   <v>       0.00013000       0.92202000       0.31246000 </v>
   <v>       0.99987000       0.07798000       0.06246000 </v>
   <v>       0.74987000       0.92202000       0.06246000 </v>
   <v>       0.75013000       0.07798000       0.31246000 </v>
   <v>       0.50013000       0.92202000       0.31246000 </v>
   <v>       0.49987000       0.07798000       0.56246000 </v>
   <v>       0.24987000       0.92202000       0.56246000 </v>
   <v>       0.25013000       0.07798000       0.81246000 </v>
   <v>       0.00013000       0.92202000       0.81246000 </v>
   <v>       0.99987000       0.07798000       0.56246000 </v>
   <v>       0.74987000       0.92202000       0.56246000 </v>
   <v>       0.75013000       0.07798000       0.81246000 </v>
   <v>       0.50013000       0.92202000       0.81246000 </v>
  </varray>
 </structure>
</modeling>
