<?xml version="1.0" encoding="ISO-8859-1"?>
<modeling>
 <generator>
  <i name="program" type="string">vasp </i>
  <i name="version" type="string">5.4.4.18Apr17-6-g9f103f2a35  </i>
  <i name="subversion" type="string">(build Jul 31 2017 11:33:29) complex            parallel </i>
  <i name="platform" type="string">LinuxIFC </i>
  <i name="date" type="string">2021 09 20 </i>
  <i name="time" type="string">19:41:23 </i>
 </generator>
 <incar>
  <i type="string" name="SYSTEM"> La2O2S</i>
  <i type="string" name="PREC">normal</i>
  <i type="int" name="NELMIN">     4</i>
  <i type="int" name="IBRION">     2</i>
  <i type="int" name="NFREE">    10</i>
  <i name="EDIFF">      0.00000100</i>
  <i name="EDIFFG">     -0.01000000</i>
  <i type="int" name="NSW">   200</i>
  <i type="int" name="ISIF">     3</i>
  <i name="ENCUT">    600.00000000</i>
  <i name="ENAUG">    900.00000000</i>
  <i type="int" name="ISMEAR">    -5</i>
  <i type="logical" name="LWAVE"> F  </i>
  <i type="logical" name="LCHARG"> F  </i>
  <v type="int" name="KPOINT_BSE">    -1     0     0     0</v>
 </incar>
 <structure name="primitive_cell" >
  <crystal>
   <varray name="basis" >
    <v>      11.17850000       0.00000000       0.00000000 </v>
    <v>       0.00000000       9.57460000       0.00000000 </v>
    <v>       0.00000000       0.00000000      11.18240000 </v>
   </varray>
   <i name="volume">   1196.84853820 </i>
   <varray name="rec_basis" >
    <v>       0.08945744       0.00000000       0.00000000 </v>
    <v>       0.00000000       0.10444301       0.00000000 </v>
    <v>       0.00000000       0.00000000       0.08942624 </v>
   </varray>
  </crystal>
  <varray name="positions" >
   <v>       0.12461000      -0.00016000       0.18687000 </v>
   <v>      -0.00013000       0.07798000       0.06246000 </v>
   <v>       0.24987000      -0.07798000       0.06246000 </v>
   <v>       0.00013000      -0.07798000       0.31246000 </v>
   <v>       0.25013000       0.07798000       0.31246000 </v>
   <v>       0.37461000       0.00017000       0.18687000 </v>
   <v>       0.12539000      -0.00016000      -0.06313000 </v>
   <v>       0.00013000       0.29519000       0.06281000 </v>
   <v>       0.25013000      -0.29519000       0.06281000 </v>
   <v>      -0.00013000      -0.29519000       0.31282000 </v>
   <v>       0.24987000       0.29519000       0.31282000 </v>
   <v>       0.00005000      -0.32677000       0.06286000 </v>
   <v>       0.25005000       0.32677000       0.06286000 </v>
   <v>      -0.00005000       0.32677000       0.31286000 </v>
   <v>       0.24995000      -0.32677000       0.31286000 </v>
   <v>      -0.12461000       0.00017000       0.43687000 </v>
   <v>      -0.12461000       0.00017000      -0.06313000 </v>
   <v>       0.37539000       0.00017000      -0.06313000 </v>
   <v>       0.00013000      -0.07798000      -0.18754000 </v>
   <v>      -0.25013000      -0.07798000       0.06246000 </v>
   <v>      -0.24987000       0.07798000       0.31246000 </v>
   <v>       0.25013000       0.07798000      -0.18754000 </v>
   <v>       0.49987000       0.07798000       0.06246000 </v>
   <v>      -0.00013000       0.07798000      -0.43754000 </v>
   <v>      -0.49987000      -0.07798000       0.31246000 </v>
   <v>       0.24987000      -0.07798000      -0.43754000 </v>
   <v>      -0.00013000      -0.29519000      -0.18718000 </v>
   <v>      -0.24987000      -0.29519000       0.06281000 </v>
   <v>       0.24987000       0.29519000      -0.18718000 </v>
   <v>      -0.25013000       0.29519000       0.31282000 </v>
   <v>      -0.49987000       0.29519000       0.06281000 </v>
   <v>       0.49987000      -0.29519000       0.31282000 </v>
   <v>       0.00013000       0.29519000      -0.43719000 </v>
   <v>       0.25013000      -0.29519000      -0.43719000 </v>
   <v>      -0.00005000       0.32677000      -0.18714000 </v>
   <v>       0.24995000      -0.32677000      -0.18714000 </v>
   <v>      -0.24995000       0.32677000       0.06286000 </v>
   <v>      -0.25005000      -0.32677000       0.31286000 </v>
   <v>      -0.49995000      -0.32677000       0.06286000 </v>
   <v>       0.49995000       0.32677000       0.31286000 </v>
   <v>       0.00005000      -0.32677000      -0.43714000 </v>
   <v>       0.25005000       0.32677000      -0.43714000 </v>
   <v>      -0.37539000      -0.00016000       0.18687000 </v>
   <v>       0.12461000      -0.00016000      -0.31313000 </v>
   <v>      -0.24987000       0.07798000      -0.18754000 </v>
   <v>      -0.49987000      -0.07798000      -0.18754000 </v>
   <v>      -0.25013000      -0.07798000      -0.43754000 </v>
   <v>       0.49987000       0.07798000      -0.43754000 </v>
   <v>      -0.37461000      -0.00016000      -0.06313000 </v>
   <v>      -0.37461000      -0.00016000       0.43687000 </v>
   <v>      -0.12539000       0.00017000      -0.31313000 </v>
   <v>      -0.25013000       0.29519000      -0.18718000 </v>
   <v>       0.49987000      -0.29519000      -0.18718000 </v>
   <v>      -0.24987000      -0.29519000      -0.43719000 </v>
   <v>      -0.49987000       0.29519000      -0.43719000 </v>
   <v>      -0.25005000      -0.32677000      -0.18714000 </v>
   <v>       0.49995000       0.32677000      -0.18714000 </v>
   <v>      -0.24995000       0.32677000      -0.43714000 </v>
   <v>      -0.49995000      -0.32677000      -0.43714000 </v>
   <v>      -0.37539000      -0.00016000      -0.31313000 </v>
  </varray>
 </structure>
 <varray name="primitive_index" >
  <v type="int" >        1 </v>
  <v type="int" >       49 </v>
  <v type="int" >       46 </v>
  <v type="int" >       48 </v>
  <v type="int" >       47 </v>
  <v type="int" >        2 </v>
  <v type="int" >        4 </v>
  <v type="int" >       13 </v>
  <v type="int" >       14 </v>
  <v type="int" >       20 </v>
  <v type="int" >       15 </v>
  <v type="int" >       30 </v>
  <v type="int" >       29 </v>
  <v type="int" >       35 </v>
  <v type="int" >       32 </v>
  <v type="int" >       10 </v>
  <v type="int" >       11 </v>
  <v type="int" >        5 </v>
  <v type="int" >       56 </v>
  <v type="int" >       50 </v>
  <v type="int" >       51 </v>
  <v type="int" >       55 </v>
  <v type="int" >       45 </v>
  <v type="int" >       57 </v>
  <v type="int" >       52 </v>
  <v type="int" >       54 </v>
  <v type="int" >       28 </v>
  <v type="int" >       18 </v>
  <v type="int" >       23 </v>
  <v type="int" >       19 </v>
  <v type="int" >       17 </v>
  <v type="int" >       16 </v>
  <v type="int" >       21 </v>
  <v type="int" >       22 </v>
  <v type="int" >       43 </v>
  <v type="int" >       40 </v>
  <v type="int" >       33 </v>
  <v type="int" >       36 </v>
  <v type="int" >       34 </v>
  <v type="int" >       31 </v>
  <v type="int" >       38 </v>
  <v type="int" >       37 </v>
  <v type="int" >        3 </v>
  <v type="int" >        6 </v>
  <v type="int" >       59 </v>
  <v type="int" >       60 </v>
  <v type="int" >       58 </v>
  <v type="int" >       53 </v>
  <v type="int" >        7 </v>
  <v type="int" >        9 </v>
  <v type="int" >       12 </v>
  <v type="int" >       27 </v>
  <v type="int" >       24 </v>
  <v type="int" >       26 </v>
  <v type="int" >       25 </v>
  <v type="int" >       44 </v>
  <v type="int" >       39 </v>
  <v type="int" >       41 </v>
  <v type="int" >       42 </v>
  <v type="int" >        8 </v>
 </varray>
 <kpoints>
  <generation param="Gamma">
   <v type="int" name="divisions">       2        2        2 </v>
   <v name="usershift">      0.00000000       0.00000000       0.00000000 </v>
   <v name="genvec1">      0.50000000       0.00000000       0.00000000 </v>
   <v name="genvec2">      0.00000000       0.50000000       0.00000000 </v>
   <v name="genvec3">      0.00000000       0.00000000       0.50000000 </v>
   <v name="shift">      0.00000000       0.00000000       0.00000000 </v>
  </generation>
  <varray name="kpointlist" >
   <v>       0.00000000       0.00000000       0.00000000 </v>
   <v>       0.50000000       0.00000000       0.00000000 </v>
   <v>       0.00000000       0.50000000       0.00000000 </v>
   <v>       0.50000000       0.50000000       0.00000000 </v>
   <v>       0.00000000       0.00000000       0.50000000 </v>
   <v>       0.50000000       0.00000000       0.50000000 </v>
   <v>       0.00000000       0.50000000       0.50000000 </v>
   <v>       0.50000000       0.50000000       0.50000000 </v>
  </varray>
  <varray name="weights" >
   <v>       0.12500000 </v>
   <v>       0.12500000 </v>
   <v>       0.12500000 </v>
   <v>       0.12500000 </v>
   <v>       0.12500000 </v>
   <v>       0.12500000 </v>
   <v>       0.12500000 </v>
   <v>       0.12500000 </v>
  </varray>
  <varray name="tetrahedronlist"  type="int" >
   <v type="int" >        2        1        2        4        5 </v>
   <v type="int" >        2        1        3        4        5 </v>
   <v type="int" >        2        3        4        5        7 </v>
   <v type="int" >        2        2        4        5        6 </v>
   <v type="int" >        2        4        5        6        8 </v>
   <v type="int" >        2        4        5        7        8 </v>
   <v type="int" >        2        1        2        3        6 </v>
   <v type="int" >        2        2        3        4        6 </v>
   <v type="int" >        2        3        4        6        8 </v>
   <v type="int" >        2        1        3        5        6 </v>
   <v type="int" >        2        3        5        6        7 </v>
   <v type="int" >        2        3        6        7        8 </v>
   <v type="int" >        2        2        3        4        7 </v>
   <v type="int" >        2        1        2        3        7 </v>
   <v type="int" >        2        1        2        5        7 </v>
   <v type="int" >        2        2        4        7        8 </v>
   <v type="int" >        2        2        6        7        8 </v>
   <v type="int" >        2        2        5        6        7 </v>
   <v type="int" >        2        1        3        4        8 </v>
   <v type="int" >        2        1        2        4        8 </v>
   <v type="int" >        2        1        2        6        8 </v>
   <v type="int" >        2        1        3        7        8 </v>
   <v type="int" >        2        1        5        7        8 </v>
   <v type="int" >        2        1        5        6        8 </v>
  </varray>
  <i name="volumeweight">      0.02083333 </i>
 </kpoints>
 <parameters>
  <separator name="general" >
   <i type="string" name="SYSTEM">La2O2S</i>
   <i type="logical" name="LCOMPAT"> F  </i>
  </separator>
  <separator name="electronic" >
   <i type="string" name="PREC">normal</i>
   <i name="ENMAX">    600.00000000</i>
   <i name="ENAUG">    900.00000000</i>
   <i name="EDIFF">      0.00000100</i>
   <i type="int" name="IALGO">    38</i>
   <i type="int" name="IWAVPR">    11</i>
   <i type="int" name="NBANDS">   280</i>
   <i name="NELECT">    464.00000000</i>
   <i type="int" name="TURBO">     0</i>
   <i type="int" name="IRESTART">     0</i>
   <i type="int" name="NREBOOT">     0</i>
   <i type="int" name="NMIN">     0</i>
   <i name="EREF">      0.00000000</i>
   <separator name="electronic smearing" >
    <i type="int" name="ISMEAR">    -5</i>
    <i name="SIGMA">      0.20000000</i>
    <i name="KSPACING">      0.50000000</i>
    <i type="logical" name="KGAMMA"> T  </i>
   </separator>
   <separator name="electronic projectors" >
    <i type="logical" name="LREAL"> F  </i>
    <v name="ROPT">      0.00000000      0.00000000      0.00000000      0.00000000      0.00000000</v>
    <i type="int" name="LMAXPAW">  -100</i>
    <i type="int" name="LMAXMIX">     2</i>
    <i type="logical" name="NLSPLINE"> F  </i>
   </separator>
   <separator name="electronic startup" >
    <i type="int" name="ISTART">     0</i>
    <i type="int" name="ICHARG">     2</i>
    <i type="int" name="INIWAV">     1</i>
   </separator>
   <separator name="electronic spin" >
    <i type="int" name="ISPIN">     1</i>
    <i type="logical" name="LNONCOLLINEAR"> F  </i>
    <v name="MAGMOM">      1.00000000      1.00000000      1.00000000      1.00000000      1.00000000      1.00000000      1.00000000      1.00000000      1.00000000      1.00000000      1.00000000      1.00000000      1.00000000      1.00000000      1.00000000      1.00000000      1.00000000      1.00000000      1.00000000      1.00000000
      1.00000000      1.00000000      1.00000000      1.00000000      1.00000000      1.00000000      1.00000000      1.00000000      1.00000000      1.00000000      1.00000000      1.00000000      1.00000000      1.00000000      1.00000000      1.00000000      1.00000000      1.00000000      1.00000000      1.00000000
      1.00000000      1.00000000      1.00000000      1.00000000      1.00000000      1.00000000      1.00000000      1.00000000      1.00000000      1.00000000      1.00000000      1.00000000      1.00000000      1.00000000      1.00000000      1.00000000      1.00000000      1.00000000      1.00000000      1.00000000
</v>
    <i name="NUPDOWN">     -1.00000000</i>
    <i type="logical" name="LSORBIT"> F  </i>
    <v name="SAXIS">      0.00000000      0.00000000      1.00000000</v>
    <i type="logical" name="LSPIRAL"> F  </i>
    <v name="QSPIRAL">      0.00000000      0.00000000      0.00000000</v>
    <i type="logical" name="LZEROZ"> F  </i>
   </separator>
   <separator name="electronic exchange-correlation" >
    <i type="logical" name="LASPH"> F  </i>
    <i type="logical" name="LMETAGGA"> F  </i>
   </separator>
   <separator name="electronic convergence" >
    <i type="int" name="NELM">    60</i>
    <i type="int" name="NELMDL">    -5</i>
    <i type="int" name="NELMIN">     4</i>
    <i name="ENINI">    600.00000000</i>
    <separator name="electronic convergence detail" >
     <i type="logical" name="LDIAG"> T  </i>
     <i type="logical" name="LSUBROT"> F  </i>
     <i name="WEIMIN">      0.00100000</i>
     <i name="EBREAK">      0.00000000</i>
     <i name="DEPER">      0.30000000</i>
     <i type="int" name="NRMM">     4</i>
     <i name="TIME">      0.40000000</i>
    </separator>
   </separator>
   <separator name="electronic mixer" >
    <i name="AMIX">      0.40000000</i>
    <i name="BMIX">      1.00000000</i>
    <i name="AMIN">      0.10000000</i>
    <i name="AMIX_MAG">      1.60000000</i>
    <i name="BMIX_MAG">      1.00000000</i>
    <separator name="electronic mixer details" >
     <i type="int" name="IMIX">     4</i>
     <i type="logical" name="MIXFIRST"> F  </i>
     <i type="int" name="MAXMIX">   -45</i>
     <i name="WC">    100.00000000</i>
     <i type="int" name="INIMIX">     1</i>
     <i type="int" name="MIXPRE">     1</i>
     <i type="int" name="MREMOVE">     5</i>
    </separator>
   </separator>
   <separator name="electronic dipolcorrection" >
    <i type="logical" name="LDIPOL"> F  </i>
    <i type="logical" name="LMONO"> F  </i>
    <i type="int" name="IDIPOL">     0</i>
    <i name="EPSILON">      1.00000000</i>
    <v name="DIPOL">   -100.00000000   -100.00000000   -100.00000000</v>
    <i name="EFIELD">      0.00000000</i>
   </separator>
  </separator>
  <separator name="grids" >
   <i type="int" name="NGX">    70</i>
   <i type="int" name="NGY">    60</i>
   <i type="int" name="NGZ">    70</i>
   <i type="int" name="NGXF">   140</i>
   <i type="int" name="NGYF">   120</i>
   <i type="int" name="NGZF">   140</i>
   <i type="logical" name="ADDGRID"> F  </i>
  </separator>
  <separator name="ionic" >
   <i type="int" name="NSW">   200</i>
   <i type="int" name="IBRION">     2</i>
   <i type="int" name="MDALGO">     0</i>
   <i type="int" name="ISIF">     3</i>
   <i name="PSTRESS">      0.00000000</i>
   <i name="EDIFFG">     -0.01000000</i>
   <i type="int" name="NFREE">    10</i>
   <i name="POTIM">      0.50000000</i>
   <i name="SMASS">     -3.00000000</i>
   <i name="SCALEE">      1.00000000</i>
  </separator>
  <separator name="ionic md" >
   <i name="TEBEG">      0.00010000</i>
   <i name="TEEND">      0.00010000</i>
   <i type="int" name="NBLOCK">     1</i>
   <i type="int" name="KBLOCK">   200</i>
   <i type="int" name="NPACO">   256</i>
   <i name="APACO">     16.00000000</i>
  </separator>
  <separator name="symmetry" >
   <i type="int" name="ISYM">     2</i>
   <i name="SYMPREC">      0.00001000</i>
  </separator>
  <separator name="dos" >
   <i type="int" name="LORBIT">     0</i>
   <v name="RWIGS">     -1.00000000     -1.00000000     -1.00000000     -1.00000000     -1.00000000</v>
   <i type="int" name="NEDOS">   301</i>
   <i name="EMIN">     10.00000000</i>
   <i name="EMAX">    -10.00000000</i>
   <i name="EFERMI">      0.00000000</i>
  </separator>
  <separator name="writing" >
   <i type="int" name="NWRITE">     2</i>
   <i type="logical" name="LWAVE"> F  </i>
   <i type="logical" name="LDOWNSAMPLE"> F  </i>
   <i type="logical" name="LCHARG"> F  </i>
   <i type="logical" name="LPARD"> F  </i>
   <i type="logical" name="LVTOT"> F  </i>
   <i type="logical" name="LVHAR"> F  </i>
   <i type="logical" name="LELF"> F  </i>
   <i type="logical" name="LOPTICS"> F  </i>
   <v name="STM">      0.00000000      0.00000000      0.00000000      0.00000000      0.00000000      0.00000000      0.00000000</v>
  </separator>
  <separator name="performance" >
   <i type="int" name="NPAR">    28</i>
   <i type="int" name="NSIM">     4</i>
   <i type="int" name="NBLK">    -1</i>
   <i type="logical" name="LPLANE"> T  </i>
   <i type="logical" name="LSCALAPACK"> T  </i>
   <i type="logical" name="LSCAAWARE"> F  </i>
   <i type="logical" name="LSCALU"> F  </i>
   <i type="logical" name="LASYNC"> F  </i>
   <i type="logical" name="LORBITALREAL"> F  </i>
  </separator>
  <separator name="miscellaneous" >
   <i type="int" name="IDIOT">     3</i>
   <i type="int" name="ISPECIAL">     0</i>
   <i type="logical" name="LMUSIC"> F  </i>
   <v name="POMASS">      7.01000000     24.30500000    208.98000000     32.06600000     16.00000000</v>
   <v name="DARWINR">      0.00000000      0.00000000      0.00000000      0.00000000      0.00000000</v>
   <v name="DARWINV">      1.00000000      1.00000000      1.00000000      1.00000000      1.00000000</v>
   <i type="logical" name="LCORR"> T  </i>
  </separator>
  <i type="logical" name="GGA_COMPAT"> T  </i>
  <i type="logical" name="LBERRY"> F  </i>
  <i type="int" name="ICORELEVEL">     0</i>
  <i type="logical" name="LDAU"> F  </i>
  <i type="int" name="I_CONSTRAINED_M">     0</i>
  <separator name="electronic exchange-correlation" >
   <i type="string" name="GGA">--</i>
   <i type="int" name="VOSKOWN">     0</i>
   <i type="logical" name="LHFCALC"> F  </i>
   <i type="string" name="PRECFOCK"></i>
   <i type="logical" name="LSYMGRAD"> F  </i>
   <i type="logical" name="LHFONE"> F  </i>
   <i type="logical" name="LRHFCALC"> F  </i>
   <i type="logical" name="LTHOMAS"> F  </i>
   <i type="logical" name="LMODELHF"> F  </i>
   <i name="ENCUT4O">     -1.00000000</i>
   <i type="int" name="EXXOEP">     0</i>
   <i type="int" name="FOURORBIT">     0</i>
   <i name="AEXX">      0.00000000</i>
   <i name="HFALPHA">      0.00000000</i>
   <i name="MCALPHA">      0.00000000</i>
   <i name="ALDAX">      1.00000000</i>
   <i name="AGGAX">      1.00000000</i>
   <i name="ALDAC">      1.00000000</i>
   <i name="AGGAC">      1.00000000</i>
   <i type="int" name="NKREDX">     1</i>
   <i type="int" name="NKREDY">     1</i>
   <i type="int" name="NKREDZ">     1</i>
   <i type="logical" name="SHIFTRED"> F  </i>
   <i type="logical" name="ODDONLY"> F  </i>
   <i type="logical" name="EVENONLY"> F  </i>
   <i type="int" name="LMAXFOCK">     0</i>
   <i type="int" name="NMAXFOCKAE">     0</i>
   <i type="logical" name="LFOCKAEDFT"> F  </i>
   <i name="HFSCREEN">      0.00000000</i>
   <i name="HFSCREENC">      0.00000000</i>
   <i type="int" name="NBANDSGWLOW">     0</i>
  </separator>
  <separator name="vdW DFT" >
   <i type="logical" name="LUSE_VDW"> F  </i>
   <i name="Zab_VDW">     -0.84910000</i>
   <i name="PARAM1">      0.12340000</i>
   <i name="PARAM2">      1.00000000</i>
   <i name="PARAM3">      0.00000000</i>
  </separator>
  <separator name="model GW" >
   <i type="int" name="MODEL_GW">     0</i>
   <i name="MODEL_EPS0">     11.96848538</i>
   <i name="MODEL_ALPHA">      1.00000000</i>
  </separator>
  <separator name="linear response parameters" >
   <i type="logical" name="LEPSILON"> F  </i>
   <i type="logical" name="LRPA"> F  </i>
   <i type="logical" name="LNABLA"> F  </i>
   <i type="logical" name="LVEL"> F  </i>
   <i type="int" name="KINTER">     0</i>
   <i name="CSHIFT">      0.10000000</i>
   <i name="OMEGAMAX">     -1.00000000</i>
   <i name="DEG_THRESHOLD">      0.00200000</i>
   <i name="RTIME">     -0.10000000</i>
   <i name="WPLASMAI">      0.00000000</i>
   <v name="DFIELD">      0.00000000      0.00000000      0.00000000</v>
   <v name="WPLASMA">      0.00000000      0.00000000      0.00000000      0.00000000      0.00000000      0.00000000      0.00000000      0.00000000      0.00000000</v>
  </separator>
  <separator name="orbital magnetization" >
   <i type="logical" name="NUCIND"> F  </i>
   <v name="MAGPOS">      0.00000000      0.00000000      0.00000000</v>
   <i type="logical" name="LNICSALL"> T  </i>
   <i type="logical" name="ORBITALMAG"> F  </i>
   <i type="logical" name="LMAGBLOCH"> F  </i>
   <i type="logical" name="LCHIMAG"> F  </i>
   <i type="logical" name="LGAUGE"> T  </i>
   <i type="int" name="MAGATOM">     0</i>
   <v name="MAGDIPOL">      0.00000000      0.00000000      0.00000000</v>
   <v name="AVECCONST">      0.00000000      0.00000000      0.00000000</v>
  </separator>
  <separator name="response functions" >
   <i type="logical" name="LADDER"> F  </i>
   <i type="logical" name="LRPAFORCE"> F  </i>
   <i type="logical" name="LFXC"> F  </i>
   <i type="logical" name="LHARTREE"> T  </i>
   <i type="int" name="IBSE">     0</i>
   <v type="int" name="KPOINT">    -1     0     0     0</v>
   <i type="logical" name="LTCTE"> F  </i>
   <i type="logical" name="LTETE"> F  </i>
   <i type="logical" name="LTRIPLET"> F  </i>
   <i type="logical" name="LFXCEPS"> F  </i>
   <i type="logical" name="LFXHEG"> F  </i>
   <i type="int" name="NATURALO">     2</i>
   <i type="logical" name="L2ORDER"> F  </i>
   <i type="logical" name="LMP2LT"> F  </i>
   <i type="logical" name="LUSEW"> F  </i>
   <i name="ENCUTGW">     -2.00000000</i>
   <i name="ENCUTGWSOFT">     -2.00000000</i>
   <i name="ENCUTLF">     -1.00000000</i>
   <i type="int" name="LMAXMP2">    -1</i>
   <i name="SCISSOR">      0.00000000</i>
   <i type="int" name="NOMEGA">     0</i>
   <i type="int" name="NOMEGAR">     0</i>
   <i type="int" name="NBANDSGW">    -1</i>
   <i type="int" name="NBANDSO">    -1</i>
   <i type="int" name="NBANDSV">    -1</i>
   <i type="int" name="NELM">     1</i>
   <i type="int" name="NELMHF">     1</i>
   <i type="int" name="DIM">     3</i>
   <i type="int" name="ANTIRES">     0</i>
   <i name="OMEGAMAX">    -30.00000000</i>
   <i name="OMEGAMIN">    -30.00000000</i>
   <i name="OMEGATL">   -200.00000000</i>
   <i type="int" name="OMEGAGRID">   140</i>
   <i name="CSHIFT">     -0.10000000</i>
   <i type="logical" name="SELFENERGY"> F  </i>
   <i type="logical" name="LSPECTRAL"> F  </i>
   <i type="logical" name="LSPECTRALGW"> F  </i>
   <i type="logical" name="LSINGLES"> F  </i>
   <i type="logical" name="LFERMIGW"> F  </i>
   <i type="logical" name="ODDONLYGW"> F  </i>
   <i type="logical" name="EVENONLYGW"> F  </i>
   <i type="int" name="NKREDLFX">     1</i>
   <i type="int" name="NKREDLFY">     1</i>
   <i type="int" name="NKREDLFZ">     1</i>
   <i type="int" name="MAXMEM">  2800</i>
   <i type="int" name="TELESCOPE">     0</i>
   <i type="int" name="TAUPAR">     1</i>
   <i type="int" name="OMEGAPAR">    -1</i>
   <i name="LAMBDA">      1.00000000</i>
  </separator>
  <separator name="External order field" >
   <i name="OFIELD_KAPPA">      0.00000000</i>
   <v name="OFIELD_K">      0.00000000      0.00000000      0.00000000</v>
   <i name="OFIELD_Q6_NEAR">      0.00000000</i>
   <i name="OFIELD_Q6_FAR">      0.00000000</i>
   <i name="OFIELD_A">      0.00000000</i>
  </separator>
 </parameters>
 <atominfo>
  <atoms>      60 </atoms>
  <types>       5 </types>
  <array name="atoms" >
   <dimension dim="1">ion</dimension>
   <field type="string">element</field>
   <field type="int">atomtype</field>
   <set>
    <rc><c>Li</c><c>   1</c></rc>
    <rc><c>Li</c><c>   1</c></rc>
    <rc><c>Li</c><c>   1</c></rc>
    <rc><c>Li</c><c>   1</c></rc>
    <rc><c>Li</c><c>   1</c></rc>
    <rc><c>Li</c><c>   1</c></rc>
    <rc><c>Li</c><c>   1</c></rc>
    <rc><c>Li</c><c>   1</c></rc>
    <rc><c>Mg</c><c>   2</c></rc>
    <rc><c>Mg</c><c>   2</c></rc>
    <rc><c>Mg</c><c>   2</c></rc>
    <rc><c>Mg</c><c>   2</c></rc>
    <rc><c>Bi</c><c>   3</c></rc>
    <rc><c>Bi</c><c>   3</c></rc>
    <rc><c>Bi</c><c>   3</c></rc>
    <rc><c>Bi</c><c>   3</c></rc>
    <rc><c>Bi</c><c>   3</c></rc>
    <rc><c>Bi</c><c>   3</c></rc>
    <rc><c>Bi</c><c>   3</c></rc>
    <rc><c>Bi</c><c>   3</c></rc>
    <rc><c>Bi</c><c>   3</c></rc>
    <rc><c>Bi</c><c>   3</c></rc>
    <rc><c>Bi</c><c>   3</c></rc>
    <rc><c>Bi</c><c>   3</c></rc>
    <rc><c>Bi</c><c>   3</c></rc>
    <rc><c>Bi</c><c>   3</c></rc>
    <rc><c>Bi</c><c>   3</c></rc>
    <rc><c>Bi</c><c>   3</c></rc>
    <rc><c>S </c><c>   4</c></rc>
    <rc><c>S </c><c>   4</c></rc>
    <rc><c>S </c><c>   4</c></rc>
    <rc><c>S </c><c>   4</c></rc>
    <rc><c>S </c><c>   4</c></rc>
    <rc><c>S </c><c>   4</c></rc>
    <rc><c>S </c><c>   4</c></rc>
    <rc><c>S </c><c>   4</c></rc>
    <rc><c>S </c><c>   4</c></rc>
    <rc><c>S </c><c>   4</c></rc>
    <rc><c>S </c><c>   4</c></rc>
    <rc><c>S </c><c>   4</c></rc>
    <rc><c>S </c><c>   4</c></rc>
    <rc><c>S </c><c>   4</c></rc>
    <rc><c>S </c><c>   4</c></rc>
    <rc><c>S </c><c>   4</c></rc>
    <rc><c>O </c><c>   5</c></rc>
    <rc><c>O </c><c>   5</c></rc>
    <rc><c>O </c><c>   5</c></rc>
    <rc><c>O </c><c>   5</c></rc>
    <rc><c>O </c><c>   5</c></rc>
    <rc><c>O </c><c>   5</c></rc>
    <rc><c>O </c><c>   5</c></rc>
    <rc><c>O </c><c>   5</c></rc>
    <rc><c>O </c><c>   5</c></rc>
    <rc><c>O </c><c>   5</c></rc>
    <rc><c>O </c><c>   5</c></rc>
    <rc><c>O </c><c>   5</c></rc>
    <rc><c>O </c><c>   5</c></rc>
    <rc><c>O </c><c>   5</c></rc>
    <rc><c>O </c><c>   5</c></rc>
    <rc><c>O </c><c>   5</c></rc>
   </set>
  </array>
  <array name="atomtypes" >
   <dimension dim="1">type</dimension>
   <field type="int">atomspertype</field>
   <field type="string">element</field>
   <field>mass</field>
   <field>valence</field>
   <field type="string">pseudopotential</field>
   <set>
    <rc><c>   8</c><c>Li</c><c>      7.01000000</c><c>      3.00000000</c><c>  PAW_PBE Li_sv 10Sep2004               </c></rc>
    <rc><c>   4</c><c>Mg</c><c>     24.30500000</c><c>      2.00000000</c><c>  PAW_PBE Mg 13Apr2007                  </c></rc>
    <rc><c>  16</c><c>Bi</c><c>    208.98000000</c><c>     15.00000000</c><c>  PAW_PBE Bi_d 06Sep2000                </c></rc>
    <rc><c>  16</c><c>S </c><c>     32.06600000</c><c>      6.00000000</c><c>  PAW_PBE S 06Sep2000                   </c></rc>
    <rc><c>  16</c><c>O </c><c>     16.00000000</c><c>      6.00000000</c><c>  PAW_PBE O 08Apr2002                   </c></rc>
   </set>
  </array>
 </atominfo>
 <structure name="initialpos" >
  <crystal>
   <varray name="basis" >
    <v>      11.17850000       0.00000000       0.00000000 </v>
    <v>       0.00000000       9.57460000       0.00000000 </v>
    <v>       0.00000000       0.00000000      11.18240000 </v>
   </varray>
   <i name="volume">   1196.84853820 </i>
   <varray name="rec_basis" >
    <v>       0.08945744       0.00000000       0.00000000 </v>
    <v>       0.00000000       0.10444301       0.00000000 </v>
    <v>       0.00000000       0.00000000       0.08942624 </v>
   </varray>
  </crystal>
  <varray name="positions" >
   <v>       0.12461000       0.99984000       0.18687000 </v>
   <v>       0.37461000       0.00017000       0.18687000 </v>
   <v>       0.62461000       0.99984000       0.18687000 </v>
   <v>       0.12539000       0.99984000       0.93687000 </v>
   <v>       0.37539000       0.00017000       0.93687000 </v>
   <v>       0.12461000       0.99984000       0.68687000 </v>
   <v>       0.62539000       0.99984000       0.93687000 </v>
   <v>       0.62461000       0.99984000       0.68687000 </v>
   <v>       0.62539000       0.99984000       0.43687000 </v>
   <v>       0.87539000       0.00017000       0.43687000 </v>
   <v>       0.87539000       0.00017000       0.93687000 </v>
   <v>       0.87461000       0.00017000       0.68687000 </v>
   <v>       0.00013000       0.29519000       0.06281000 </v>
   <v>       0.25013000       0.70481000       0.06281000 </v>
   <v>       0.24987000       0.29519000       0.31282000 </v>
   <v>       0.49987000       0.70481000       0.31282000 </v>
   <v>       0.50013000       0.29519000       0.06281000 </v>
   <v>       0.75013000       0.70481000       0.06281000 </v>
   <v>       0.74987000       0.29519000       0.31282000 </v>
   <v>       0.99987000       0.70481000       0.31282000 </v>
   <v>       0.00013000       0.29519000       0.56281000 </v>
   <v>       0.25013000       0.70481000       0.56281000 </v>
   <v>       0.24987000       0.29519000       0.81282000 </v>
   <v>       0.49987000       0.70481000       0.81282000 </v>
   <v>       0.50013000       0.29519000       0.56281000 </v>
   <v>       0.75013000       0.70481000       0.56281000 </v>
   <v>       0.74987000       0.29519000       0.81282000 </v>
   <v>       0.99987000       0.70481000       0.81282000 </v>
   <v>       0.25005000       0.32677000       0.06286000 </v>
   <v>       0.00005000       0.67323000       0.06286000 </v>
   <v>       0.49995000       0.32677000       0.31286000 </v>
   <v>       0.24995000       0.67323000       0.31286000 </v>
   <v>       0.75005000       0.32677000       0.06286000 </v>
   <v>       0.50005000       0.67323000       0.06286000 </v>
   <v>       0.99995000       0.32677000       0.31286000 </v>
   <v>       0.74995000       0.67323000       0.31286000 </v>
   <v>       0.25005000       0.32677000       0.56286000 </v>
   <v>       0.00005000       0.67323000       0.56286000 </v>
   <v>       0.49995000       0.32677000       0.81286000 </v>
   <v>       0.24995000       0.67323000       0.81286000 </v>
   <v>       0.75005000       0.32677000       0.56286000 </v>
   <v>       0.50005000       0.67323000       0.56286000 </v>
   <v>       0.99995000       0.32677000       0.81286000 </v>
   <v>       0.74995000       0.67323000       0.81286000 </v>
   <v>       0.49987000       0.07798000       0.06246000 </v>
   <v>       0.24987000       0.92202000       0.06246000 </v>
   <v>       0.25013000       0.07798000       0.31246000 </v>
   <v>       0.00013000       0.92202000       0.31246000 </v>
   <v>       0.99987000       0.07798000       0.06246000 </v>
   <v>       0.74987000       0.92202000       0.06246000 </v>
   <v>       0.75013000       0.07798000       0.31246000 </v>
   <v>       0.50013000       0.92202000       0.31246000 </v>
   <v>       0.49987000       0.07798000       0.56246000 </v>
   <v>       0.24987000       0.92202000       0.56246000 </v>
   <v>       0.25013000       0.07798000       0.81246000 </v>
   <v>       0.00013000       0.92202000       0.81246000 </v>
   <v>       0.99987000       0.07798000       0.56246000 </v>
   <v>       0.74987000       0.92202000       0.56246000 </v>
   <v>       0.75013000       0.07798000       0.81246000 </v>
   <v>       0.50013000       0.92202000       0.81246000 </v>
  </varray>
 </structure>
 <calculation>
  <scstep>
   <time name="dav">   59.92   60.15</time>
   <time name="total">   60.00   60.23</time>
   <energy>
    <i name="alphaZ">   1067.11773629 </i>
    <i name="ewald"> -30634.61015424 </i>
    <i name="hartreedc"> -12717.00373867 </i>
    <i name="XCdc">   1321.22568113 </i>
    <i name="pawpsdc">  36729.48549953 </i>
    <i name="pawaedc"> -36149.63912807 </i>
    <i name="eentropy">      0.00000000 </i>
    <i name="bandstr">   1838.45220336 </i>
    <i name="atom">  44408.54722957 </i>
    <i name="e_fr_energy">   5863.57532889 </i>
    <i name="e_wo_entrp">   5863.57532889 </i>
    <i name="e_0_energy">   5863.57532889 </i>
   </energy>
  </scstep>
  <scstep>
   <time name="dav">   60.64   60.86</time>
   <time name="total">   60.65   60.87</time>
   <energy>
    <i name="e_fr_energy">    778.87368902 </i>
    <i name="e_wo_entrp">    778.87368902 </i>
    <i name="e_0_energy">    778.87368902 </i>
   </energy>
  </scstep>
  <scstep>
   <time name="dav">   69.60   69.86</time>
   <time name="total">   69.61   69.86</time>
   <energy>
    <i name="e_fr_energy">   -242.65238145 </i>
    <i name="e_wo_entrp">   -242.65238145 </i>
    <i name="e_0_energy">   -242.65238145 </i>
   </energy>
  </scstep>
  <scstep>
   <time name="dav">   70.77   71.05</time>
   <time name="total">   70.77   71.06</time>
   <energy>
    <i name="e_fr_energy">   -339.28860736 </i>
    <i name="e_wo_entrp">   -339.28860736 </i>
    <i name="e_0_energy">   -339.28860736 </i>
   </energy>
  </scstep>
  <scstep>
   <time name="dav">   96.16   96.55</time>
   <time name="total">   96.90   97.29</time>
   <energy>
    <i name="e_fr_energy">   -347.31863467 </i>
    <i name="e_wo_entrp">   -347.31863467 </i>
    <i name="e_0_energy">   -347.31863467 </i>
   </energy>
  </scstep>
  <scstep>
   <time name="dav">   83.61   83.89</time>
   <time name="total">   84.42   84.70</time>
   <energy>
    <i name="e_fr_energy">   -289.69051343 </i>
    <i name="e_wo_entrp">   -289.69051343 </i>
    <i name="e_0_energy">   -289.69051343 </i>
   </energy>
  </scstep>
  <scstep>
   <time name="dav">   64.71   64.91</time>
   <time name="total">   65.51   65.72</time>
   <energy>
    <i name="e_fr_energy">   -291.98835170 </i>
    <i name="e_wo_entrp">   -291.98835170 </i>
    <i name="e_0_energy">   -291.98835170 </i>
   </energy>
  </scstep>
  <scstep>
   <time name="dav">   85.92   86.22</time>
   <time name="total">   86.73   87.03</time>
   <energy>
    <i name="e_fr_energy">   -290.58290166 </i>
    <i name="e_wo_entrp">   -290.58290166 </i>
    <i name="e_0_energy">   -290.58290166 </i>
   </energy>
  </scstep>
  <scstep>
   <time name="dav">   68.20   68.42</time>
   <time name="total">   69.00   69.23</time>
   <energy>
    <i name="e_fr_energy">   -289.77322889 </i>
    <i name="e_wo_entrp">   -289.77322889 </i>
    <i name="e_0_energy">   -289.77322889 </i>
   </energy>
  </scstep>
  <scstep>
   <time name="dav">   80.08   80.33</time>
   <time name="total">   80.88   81.14</time>
   <energy>
    <i name="e_fr_energy">   -289.73947267 </i>
    <i name="e_wo_entrp">   -289.73947267 </i>
    <i name="e_0_energy">   -289.73947267 </i>
   </energy>
  </scstep>
  <scstep>
   <time name="dav">   64.85   64.88</time>
   <time name="total">   65.66   65.69</time>
   <energy>
    <i name="e_fr_energy">   -289.73808821 </i>
    <i name="e_wo_entrp">   -289.73808821 </i>
    <i name="e_0_energy">   -289.73808821 </i>
   </energy>
  </scstep>
  <scstep>
   <time name="dav">   90.31   90.33</time>
   <time name="total">   91.12   91.15</time>
   <energy>
    <i name="e_fr_energy">   -289.73977964 </i>
    <i name="e_wo_entrp">   -289.73977964 </i>
    <i name="e_0_energy">   -289.73977964 </i>
   </energy>
  </scstep>
  <scstep>
   <time name="dav">   71.33   71.34</time>
   <time name="total">   72.14   72.16</time>
   <energy>
    <i name="e_fr_energy">   -289.74205393 </i>
    <i name="e_wo_entrp">   -289.74205393 </i>
    <i name="e_0_energy">   -289.74205393 </i>
   </energy>
  </scstep>
  <scstep>
   <time name="dav">   73.90   73.91</time>
   <time name="total">   74.72   74.72</time>
   <energy>
    <i name="e_fr_energy">   -289.74264121 </i>
    <i name="e_wo_entrp">   -289.74264121 </i>
    <i name="e_0_energy">   -289.74264121 </i>
   </energy>
  </scstep>
  <scstep>
   <time name="dav">   69.25   69.28</time>
   <time name="total">   70.06   70.09</time>
   <energy>
    <i name="e_fr_energy">   -289.74269244 </i>
    <i name="e_wo_entrp">   -289.74269244 </i>
    <i name="e_0_energy">   -289.74269244 </i>
   </energy>
  </scstep>
  <scstep>
   <time name="dav">   81.56   81.60</time>
   <time name="total">   82.37   82.41</time>
   <energy>
    <i name="e_fr_energy">   -289.74275636 </i>
    <i name="e_wo_entrp">   -289.74275636 </i>
    <i name="e_0_energy">   -289.74275636 </i>
   </energy>
  </scstep>
  <scstep>
   <time name="dav">   77.26   77.29</time>
   <time name="total">   78.07   78.10</time>
   <energy>
    <i name="e_fr_energy">   -289.74276823 </i>
    <i name="e_wo_entrp">   -289.74276823 </i>
    <i name="e_0_energy">   -289.74276823 </i>
   </energy>
  </scstep>
  <scstep>
   <time name="dav">   68.50   68.51</time>
   <time name="total">   69.31   69.32</time>
   <energy>
    <i name="e_fr_energy">   -289.74277104 </i>
    <i name="e_wo_entrp">   -289.74277104 </i>
    <i name="e_0_energy">   -289.74277104 </i>
   </energy>
  </scstep>
  <scstep>
   <time name="dav">   60.42   60.44</time>
   <time name="total">   61.24   61.25</time>
   <energy>
    <i name="e_fr_energy">   -289.74277233 </i>
    <i name="e_wo_entrp">   -289.74277233 </i>
    <i name="e_0_energy">   -289.74277233 </i>
   </energy>
  </scstep>
  <scstep>
   <time name="dav">   53.81   53.82</time>
   <time name="total">   53.88   53.89</time>
   <energy>
    <i name="alphaZ">   1067.11773629 </i>
    <i name="ewald"> -30634.61015424 </i>
    <i name="hartreedc"> -12945.02328071 </i>
    <i name="XCdc">   1344.77155813 </i>
    <i name="pawpsdc">  43755.40593881 </i>
    <i name="pawaedc"> -43150.34159631 </i>
    <i name="eentropy">      0.00000000 </i>
    <i name="bandstr">  -4135.61020464 </i>
    <i name="atom">  44408.54722957 </i>
    <i name="e_fr_energy">   -289.74277309 </i>
    <i name="e_wo_entrp">   -289.74277309 </i>
    <i name="e_0_energy">   -289.74277309 </i>
   </energy>
  </scstep>
  <structure>
   <crystal>
    <varray name="basis" >
     <v>      11.17850000       0.00000000       0.00000000 </v>
     <v>       0.00000000       9.57460000       0.00000000 </v>
     <v>       0.00000000       0.00000000      11.18240000 </v>
    </varray>
    <i name="volume">   1196.84853820 </i>
    <varray name="rec_basis" >
     <v>       0.08945744       0.00000000       0.00000000 </v>
     <v>       0.00000000       0.10444301       0.00000000 </v>
     <v>       0.00000000       0.00000000       0.08942624 </v>
    </varray>
   </crystal>
   <varray name="positions" >
    <v>       0.12461000       0.99984000       0.18687000 </v>
    <v>       0.37461000       0.00017000       0.18687000 </v>
    <v>       0.62461000       0.99984000       0.18687000 </v>
    <v>       0.12539000       0.99984000       0.93687000 </v>
    <v>       0.37539000       0.00017000       0.93687000 </v>
    <v>       0.12461000       0.99984000       0.68687000 </v>
    <v>       0.62539000       0.99984000       0.93687000 </v>
    <v>       0.62461000       0.99984000       0.68687000 </v>
    <v>       0.62539000       0.99984000       0.43687000 </v>
    <v>       0.87539000       0.00017000       0.43687000 </v>
    <v>       0.87539000       0.00017000       0.93687000 </v>
    <v>       0.87461000       0.00017000       0.68687000 </v>
    <v>       0.00013000       0.29519000       0.06281000 </v>
    <v>       0.25013000       0.70481000       0.06281000 </v>
    <v>       0.24987000       0.29519000       0.31282000 </v>
    <v>       0.49987000       0.70481000       0.31282000 </v>
    <v>       0.50013000       0.29519000       0.06281000 </v>
    <v>       0.75013000       0.70481000       0.06281000 </v>
    <v>       0.74987000       0.29519000       0.31282000 </v>
    <v>       0.99987000       0.70481000       0.31282000 </v>
    <v>       0.00013000       0.29519000       0.56281000 </v>
    <v>       0.25013000       0.70481000       0.56281000 </v>
    <v>       0.24987000       0.29519000       0.81282000 </v>
    <v>       0.49987000       0.70481000       0.81282000 </v>
    <v>       0.50013000       0.29519000       0.56281000 </v>
    <v>       0.75013000       0.70481000       0.56281000 </v>
    <v>       0.74987000       0.29519000       0.81282000 </v>
    <v>       0.99987000       0.70481000       0.81282000 </v>
    <v>       0.25005000       0.32677000       0.06286000 </v>
    <v>       0.00005000       0.67323000       0.06286000 </v>
    <v>       0.49995000       0.32677000       0.31286000 </v>
    <v>       0.24995000       0.67323000       0.31286000 </v>
    <v>       0.75005000       0.32677000       0.06286000 </v>
    <v>       0.50005000       0.67323000       0.06286000 </v>
    <v>       0.99995000       0.32677000       0.31286000 </v>
    <v>       0.74995000       0.67323000       0.31286000 </v>
    <v>       0.25005000       0.32677000       0.56286000 </v>
    <v>       0.00005000       0.67323000       0.56286000 </v>
    <v>       0.49995000       0.32677000       0.81286000 </v>
    <v>       0.24995000       0.67323000       0.81286000 </v>
    <v>       0.75005000       0.32677000       0.56286000 </v>
    <v>       0.50005000       0.67323000       0.56286000 </v>
    <v>       0.99995000       0.32677000       0.81286000 </v>
    <v>       0.74995000       0.67323000       0.81286000 </v>
    <v>       0.49987000       0.07798000       0.06246000 </v>
    <v>       0.24987000       0.92202000       0.06246000 </v>
    <v>       0.25013000       0.07798000       0.31246000 </v>
    <v>       0.00013000       0.92202000       0.31246000 </v>
    <v>       0.99987000       0.07798000       0.06246000 </v>
    <v>       0.74987000       0.92202000       0.06246000 </v>
    <v>       0.75013000       0.07798000       0.31246000 </v>
    <v>       0.50013000       0.92202000       0.31246000 </v>
    <v>       0.49987000       0.07798000       0.56246000 </v>
    <v>       0.24987000       0.92202000       0.56246000 </v>
    <v>       0.25013000       0.07798000       0.81246000 </v>
    <v>       0.00013000       0.92202000       0.81246000 </v>
    <v>       0.99987000       0.07798000       0.56246000 </v>
    <v>       0.74987000       0.92202000       0.56246000 </v>
    <v>       0.75013000       0.07798000       0.81246000 </v>
    <v>       0.50013000       0.92202000       0.81246000 </v>
   </varray>
  </structure>
  <varray name="forces" >
   <v>      -0.03753172       0.04121746       0.65289345 </v>
   <v>      -0.29081271       0.10591053       0.58249280 </v>
   <v>       0.04516455      -0.06855027      -0.29590885 </v>
   <v>       0.71844952       0.18645991       0.15178051 </v>
   <v>      -0.08120922      -0.00846603      -0.44173583 </v>
   <v>       1.43632365      -0.02706621      -0.61429062 </v>
   <v>      -0.71253593      -0.20280172       0.15551603 </v>
   <v>      -1.47427567       0.04333395       0.30529577 </v>
   <v>      -2.44896172       0.31579610      -0.27240755 </v>
   <v>       2.07177904      -0.03519207      -2.06239908 </v>
   <v>       0.09448892      -0.02100937       2.14738281 </v>
   <v>       0.52864573       0.17649711      -0.05770682 </v>
   <v>       0.41450722       0.04883900       0.46086979 </v>
   <v>       0.14082646      -0.03944129       0.17054152 </v>
   <v>       0.09473348      -1.93129531       0.30979328 </v>
   <v>      -0.76186951      -0.02842279       0.07518015 </v>
   <v>      -0.43947451       0.01288375       0.07159166 </v>
   <v>      -0.13085884      -0.10334133       0.34252843 </v>
   <v>       0.00755001       1.16306166      -0.44879545 </v>
   <v>       0.65826503       0.93983881      -0.11279650 </v>
   <v>       1.08242901       1.24989654      -0.43427974 </v>
   <v>       0.29127720       2.62305419      -0.26795307 </v>
   <v>       0.38741486      -0.92799809      -0.21895124 </v>
   <v>      -0.63305725       0.92973620      -0.14226972 </v>
   <v>      -0.96854844      -0.88626535      -0.01947570 </v>
   <v>      -0.39488343      -3.09577593      -0.10501972 </v>
   <v>      -0.53535858       2.17477554       0.18650423 </v>
   <v>       0.82699920      -2.14557756       0.05808900 </v>
   <v>      -0.08991313       0.30330182      -0.19237507 </v>
   <v>      -0.23847302      -0.07716262      -0.38992398 </v>
   <v>       0.57346552       0.17941392      -0.05331251 </v>
   <v>       0.02448388      -0.23860561      -0.35269410 </v>
   <v>       0.08828747       0.01870996      -0.23058427 </v>
   <v>       0.22952604      -0.23392436       0.03000324 </v>
   <v>      -0.52654944       0.08982112       0.16381138 </v>
   <v>      -0.04283796      -0.00026761       0.29877483 </v>
   <v>      -0.32140568       0.18876776       0.19389189 </v>
   <v>      -0.76646654       0.04034099       0.33467504 </v>
   <v>       0.51597649       0.15537656       0.09294241 </v>
   <v>      -0.37894531      -0.21313517       0.32666795 </v>
   <v>       0.27099726      -0.09175040       0.11018774 </v>
   <v>       0.80697807      -0.07095309      -0.06906756 </v>
   <v>      -0.53076887      -0.02351996      -0.09324058 </v>
   <v>       0.36875005       0.08799260      -0.17737380 </v>
   <v>       0.25482656       0.02944417      -0.01349401 </v>
   <v>      -0.07887909      -0.07972929      -0.14980496 </v>
   <v>      -0.01466672       1.62776582      -1.22707488 </v>
   <v>      -0.89057252      -0.82141382       0.65842696 </v>
   <v>      -0.12635863      -0.09322193      -1.45378238 </v>
   <v>      -0.01017287       0.20639753      -1.33714272 </v>
   <v>      -0.51906742      -1.01432466       1.80397773 </v>
   <v>       1.49203087      -0.02530494      -0.14183269 </v>
   <v>       2.20517749       0.51929465      -0.43609814 </v>
   <v>      -0.71693945      -2.20952305       0.62598599 </v>
   <v>      -0.90008586       0.76601869       0.71295815 </v>
   <v>      -1.41752859       1.76101796      -0.13911804 </v>
   <v>      -2.11159243      -1.15402439       0.85627246 </v>
   <v>       0.70593754       2.40763094      -0.24248153 </v>
   <v>       1.22202127      -1.83912770      -0.28922883 </v>
   <v>       1.03328866      -0.68540332       0.60358478 </v>
  </varray>
  <varray name="stress" >
   <v>      -4.34498022       0.07135621       2.51086208 </v>
   <v>       0.07135612     -12.31673075      -0.51558595 </v>
   <v>       2.51086207      -0.51558603      -1.07077372 </v>
  </varray>
  <energy>
   <i name="e_fr_energy">   -303.29027019 </i>
   <i name="e_wo_entrp">   -303.29027019 </i>
   <i name="e_0_energy">      0.00000000 </i>
  </energy>
  <time name="totalsc"> 1581.20 1584.09</time>
 </calculation>
 <calculation>
  <scstep>
   <time name="dav">   64.37   64.58</time>
   <time name="total">   65.17   65.38</time>
   <energy>
    <i name="alphaZ">   1078.58015789 </i>
    <i name="ewald"> -30729.50526773 </i>
    <i name="hartreedc"> -12990.28467649 </i>
    <i name="XCdc">   1351.13089865 </i>
    <i name="pawpsdc">  43755.34693855 </i>
    <i name="pawaedc"> -43150.28148934 </i>
    <i name="eentropy">      0.00000000 </i>
    <i name="bandstr">  -4012.14138116 </i>
    <i name="atom">  44408.54722957 </i>
    <i name="e_fr_energy">   -288.60759006 </i>
    <i name="e_wo_entrp">   -288.60759006 </i>
    <i name="e_0_energy">   -288.60759006 </i>
   </energy>
  </scstep>
  <scstep>
   <time name="dav">   67.14   67.23</time>
   <time name="total">   67.94   68.03</time>
   <energy>
    <i name="e_fr_energy">   -292.73914058 </i>
    <i name="e_wo_entrp">   -292.73914058 </i>
    <i name="e_0_energy">   -292.73914058 </i>
   </energy>
  </scstep>
  <scstep>
   <time name="dav">   85.25   85.27</time>
   <time name="total">   86.05   86.08</time>
   <energy>
    <i name="e_fr_energy">   -292.55625736 </i>
    <i name="e_wo_entrp">   -292.55625736 </i>
    <i name="e_0_energy">   -292.55625736 </i>
   </energy>
  </scstep>
  <scstep>
   <time name="dav">   74.22   74.23</time>
   <time name="total">   75.03   75.04</time>
   <energy>
    <i name="e_fr_energy">   -292.40921620 </i>
    <i name="e_wo_entrp">   -292.40921620 </i>
    <i name="e_0_energy">   -292.40921620 </i>
   </energy>
  </scstep>
  <scstep>
   <time name="dav">   78.82   78.84</time>
   <time name="total">   79.62   79.64</time>
   <energy>
    <i name="e_fr_energy">   -292.37583009 </i>
    <i name="e_wo_entrp">   -292.37583009 </i>
    <i name="e_0_energy">   -292.37583009 </i>
   </energy>
  </scstep>
  <scstep>
   <time name="dav">   76.79   76.79</time>
   <time name="total">   77.59   77.60</time>
   <energy>
    <i name="e_fr_energy">   -292.37252683 </i>
    <i name="e_wo_entrp">   -292.37252683 </i>
    <i name="e_0_energy">   -292.37252683 </i>
   </energy>
  </scstep>
  <scstep>
   <time name="dav">   80.59   80.61</time>
   <time name="total">   81.39   81.41</time>
   <energy>
    <i name="e_fr_energy">   -292.37162692 </i>
    <i name="e_wo_entrp">   -292.37162692 </i>
    <i name="e_0_energy">   -292.37162692 </i>
   </energy>
  </scstep>
  <scstep>
   <time name="dav">   75.05   75.06</time>
   <time name="total">   75.86   75.86</time>
   <energy>
    <i name="e_fr_energy">   -292.37093294 </i>
    <i name="e_wo_entrp">   -292.37093294 </i>
    <i name="e_0_energy">   -292.37093294 </i>
   </energy>
  </scstep>
  <scstep>
   <time name="dav">   80.29   80.30</time>
   <time name="total">   81.10   81.11</time>
   <energy>
    <i name="e_fr_energy">   -292.37097874 </i>
    <i name="e_wo_entrp">   -292.37097874 </i>
    <i name="e_0_energy">   -292.37097874 </i>
   </energy>
  </scstep>
  <scstep>
   <time name="dav">   71.24   71.25</time>
   <time name="total">   72.04   72.06</time>
   <energy>
    <i name="e_fr_energy">   -292.37098776 </i>
    <i name="e_wo_entrp">   -292.37098776 </i>
    <i name="e_0_energy">   -292.37098776 </i>
   </energy>
  </scstep>
  <scstep>
   <time name="dav">   75.05   75.06</time>
   <time name="total">   75.85   75.87</time>
   <energy>
    <i name="e_fr_energy">   -292.37099440 </i>
    <i name="e_wo_entrp">   -292.37099440 </i>
    <i name="e_0_energy">   -292.37099440 </i>
   </energy>
  </scstep>
  <scstep>
   <time name="dav">   81.24   81.24</time>
   <time name="total">   82.04   82.05</time>
   <energy>
    <i name="e_fr_energy">   -292.37099504 </i>
    <i name="e_wo_entrp">   -292.37099504 </i>
    <i name="e_0_energy">   -292.37099504 </i>
   </energy>
  </scstep>
  <scstep>
   <time name="dav">   57.99   58.01</time>
   <time name="total">   58.06   58.08</time>
   <energy>
    <i name="alphaZ">   1078.58015789 </i>
    <i name="ewald"> -30729.50526773 </i>
    <i name="hartreedc"> -12903.10304172 </i>
    <i name="XCdc">   1347.55410767 </i>
    <i name="pawpsdc">  44080.78287127 </i>
    <i name="pawaedc"> -43478.73422067 </i>
    <i name="eentropy">      0.00000000 </i>
    <i name="bandstr">  -4096.49283134 </i>
    <i name="atom">  44408.54722957 </i>
    <i name="e_fr_energy">   -292.37099506 </i>
    <i name="e_wo_entrp">   -292.37099506 </i>
    <i name="e_0_energy">   -292.37099506 </i>
   </energy>
  </scstep>
  <structure>
   <crystal>
    <varray name="basis" >
     <v>      11.14932708       0.00047910       0.01685835 </v>
     <v>       0.00041036       9.50376879      -0.00296504 </v>
     <v>       0.01686423      -0.00346294      11.17520814 </v>
    </varray>
    <i name="volume">   1184.12924010 </i>
    <varray name="rec_basis" >
     <v>       0.08969172      -0.00000391      -0.00013535 </v>
     <v>      -0.00000457       0.10522143       0.00003261 </v>
     <v>      -0.00013531       0.00002792       0.08948400 </v>
    </varray>
   </crystal>
   <varray name="positions" >
    <v>       0.12444803       0.00004768       0.18968669 </v>
    <v>       0.37335495       0.00070364       0.18938297 </v>
    <v>       0.62480492       0.99949460       0.18559340 </v>
    <v>       0.12849059       0.00077950       0.93752481 </v>
    <v>       0.37503953       0.00012734       0.93496428 </v>
    <v>       0.13080869       0.99970362       0.68421985 </v>
    <v>       0.62231493       0.99881816       0.93754092 </v>
    <v>       0.61824752       0.00005834       0.68818709 </v>
    <v>       0.61482110       0.00143117       0.43569479 </v>
    <v>       0.88433110      -0.00000732       0.42797248 </v>
    <v>       0.87579778       0.00006414       0.94613415 </v>
    <v>       0.87689146       0.00105930       0.68662104 </v>
    <v>       0.00191887       0.29543608       0.06479827 </v>
    <v>       0.25073776       0.70461127       0.06354574 </v>
    <v>       0.25027884       0.28545896       0.31415650 </v>
    <v>       0.49658203       0.70466679       0.31314434 </v>
    <v>       0.49823338       0.29525492       0.06311886 </v>
    <v>       0.74956526       0.70428930       0.06428772 </v>
    <v>       0.74990258       0.30105021       0.31088382 </v>
    <v>       0.00271085       0.70954548       0.31233338 </v>
    <v>       0.00480140       0.30148774       0.56093645 </v>
    <v>       0.25138705       0.71802654       0.56165401 </v>
    <v>       0.25154195       0.29051418       0.81187541 </v>
    <v>       0.49713794       0.70949458       0.81220623 </v>
    <v>       0.49595007       0.29072446       0.56272598 </v>
    <v>       0.74842582       0.68921160       0.56235693 </v>
    <v>       0.74755957       0.30614784       0.81362461 </v>
    <v>       0.00343905       0.69399928       0.81307061 </v>
    <v>       0.24966197       0.32829822       0.06203006 </v>
    <v>      -0.00097917       0.67284121       0.06117781 </v>
    <v>       0.50242488       0.32767400       0.31263000 </v>
    <v>       0.25005566       0.67202776       0.31133842 </v>
    <v>       0.75043102       0.32686427       0.06186522 </v>
    <v>       0.50104056       0.67205135       0.06298944 </v>
    <v>       0.99767759       0.32722257       0.31356671 </v>
    <v>       0.74976513       0.67322865       0.31414896 </v>
    <v>       0.24866292       0.32772113       0.56369648 </v>
    <v>      -0.00325781       0.67343326       0.56430384 </v>
    <v>       0.50217678       0.32755288       0.81326097 </v>
    <v>       0.24831460       0.67215610       0.81426930 </v>
    <v>       0.75121953       0.32630771       0.56333537 </v>
    <v>       0.50353265       0.67287250       0.56256203 </v>
    <v>       0.99765938       0.32665149       0.81245775 </v>
    <v>       0.75154140       0.67367336       0.81209478 </v>
    <v>       0.50096975       0.07812836       0.06240178 </v>
    <v>       0.24952958       0.92161828       0.06181372 </v>
    <v>       0.25006670       0.08618167       0.30716620 </v>
    <v>      -0.00371341       0.91788122       0.31530056 </v>
    <v>       0.99932468       0.07751029       0.05618815 </v>
    <v>       0.74982610       0.92305996       0.05669135 </v>
    <v>       0.74788988       0.07286922       0.32024265 </v>
    <v>       0.50656910       0.92189250       0.31184811 </v>
    <v>       0.50938681       0.08059652       0.56057860 </v>
    <v>       0.24677593       0.91088708       0.56516060 </v>
    <v>       0.24624553       0.08183967       0.81553581 </v>
    <v>      -0.00598758       0.93089308       0.81185982 </v>
    <v>       0.99075708       0.07216532       0.56615410 </v>
    <v>       0.75291659       0.93415111       0.56141390 </v>
    <v>       0.75540383       0.06871336       0.81121222 </v>
    <v>       0.50458933       0.91856652       0.81506396 </v>
   </varray>
  </structure>
  <varray name="forces" >
   <v>      -0.09794290       0.01500602       0.40694798 </v>
   <v>      -0.13609361       0.03957616       0.40365186 </v>
   <v>       0.20922697      -0.03445978      -0.17271176 </v>
   <v>       0.30185766       0.09339428      -0.01129264 </v>
   <v>      -0.05923986      -0.00757590      -0.26665234 </v>
   <v>       0.77013366       0.00262844      -0.42414602 </v>
   <v>      -0.27365224      -0.11381474      -0.01731685 </v>
   <v>      -0.58708519       0.01707840       0.13595458 </v>
   <v>      -0.29399430       0.04053236       0.09242137 </v>
   <v>       0.19688572       0.25971961      -0.32860957 </v>
   <v>      -0.07098782      -0.03191826       0.43569557 </v>
   <v>      -0.29374788      -0.06707843       0.10035752 </v>
   <v>       0.20643326       0.19061869       0.06470647 </v>
   <v>       0.06717843      -0.38909514       0.04469735 </v>
   <v>       0.08358481       2.40595514       0.26535205 </v>
   <v>      -0.29081441      -0.34104947       0.01994124 </v>
   <v>      -0.20562243       0.29718687       0.04312117 </v>
   <v>      -0.07258445      -0.09920215       0.10631965 </v>
   <v>      -0.05172446      -0.23388074      -0.02506744 </v>
   <v>       0.29436023      -1.10284382      -0.01988970 </v>
   <v>       0.27044457      -0.23501727      -0.04988383 </v>
   <v>       0.23905391      -3.83418326      -0.24397826 </v>
   <v>       0.09681169       0.90500276      -0.05840071 </v>
   <v>      -0.21279070      -0.79629418      -0.09535512 </v>
   <v>      -0.36073992       0.53405520       0.01518864 </v>
   <v>      -0.09349264       0.02328633      -0.02025576 </v>
   <v>      -0.08187238      -0.18184524      -0.07103829 </v>
   <v>       0.23650428       0.11353608      -0.04101673 </v>
   <v>      -0.06090229       0.26200907      -0.08471319 </v>
   <v>      -0.11543388      -0.08253624      -0.16930617 </v>
   <v>       0.28518487       0.15244857       0.00376332 </v>
   <v>       0.00520902      -0.10631496      -0.25904726 </v>
   <v>       0.04969120       0.05991566      -0.11425374 </v>
   <v>       0.11095968      -0.19797034       0.03962598 </v>
   <v>      -0.23135342       0.00842144       0.09413544 </v>
   <v>      -0.01145308      -0.16284002       0.10550036 </v>
   <v>      -0.18668717       0.04047571       0.10928584 </v>
   <v>      -0.32216762      -0.17307522       0.11422826 </v>
   <v>       0.23252797       0.09262592       0.04317109 </v>
   <v>      -0.19023150      -0.15788806       0.19047746 </v>
   <v>       0.07550437       0.34661584       0.03689808 </v>
   <v>       0.41482067      -0.05978434      -0.06687433 </v>
   <v>      -0.19661150       0.25503716      -0.03218033 </v>
   <v>       0.11778473      -0.24326159      -0.02337790 </v>
   <v>       0.03458937      -0.24507944       0.00362706 </v>
   <v>      -0.00365678       0.30554074      -0.00325762 </v>
   <v>      -0.02846547      -2.69386554      -1.14276619 </v>
   <v>       0.05724097       0.75069782      -0.15262901 </v>
   <v>       0.37487455       0.04995535      -0.52662777 </v>
   <v>      -0.33911138      -0.07751868      -0.57970515 </v>
   <v>      -0.45235248       0.56422592       0.83463629 </v>
   <v>       0.57472179       0.06066347      -0.45989212 </v>
   <v>       1.04587921      -0.46799669      -0.00924290 </v>
   <v>      -0.65724159       4.27532836       0.61223222 </v>
   <v>      -0.52557946      -1.00807067       0.52964781 </v>
   <v>      -0.38322181      -0.67299442       0.20706672 </v>
   <v>      -0.58481946       0.74983999       0.09414880 </v>
   <v>       0.17763297      -0.73559657      -0.42557884 </v>
   <v>       0.41061462       0.70255138       0.21364321 </v>
   <v>       0.53196293       0.93912239       0.52862413 </v>
  </varray>
  <varray name="stress" >
   <v>       8.08112438      -0.49186736      -1.77303395 </v>
   <v>      -0.49186736      13.85889910       1.92862133 </v>
   <v>      -1.77303391       1.92862092       5.27856317 </v>
  </varray>
  <energy>
   <i name="e_fr_energy">   -306.03378304 </i>
   <i name="e_wo_entrp">   -306.03378304 </i>
   <i name="e_0_energy">      0.00000000 </i>
  </energy>
  <time name="totalsc"> 1084.14 1084.64</time>
 </calculation>
 <calculation>
  <scstep>
   <time name="dav">   65.14   65.17</time>
   <time name="total">   65.94   65.96</time>
   <energy>
    <i name="alphaZ">   1077.13567510 </i>
    <i name="ewald"> -30722.49363433 </i>
    <i name="hartreedc"> -12893.28651667 </i>
    <i name="XCdc">   1346.69056592 </i>
    <i name="pawpsdc">  44080.80487298 </i>
    <i name="pawaedc"> -43478.75629668 </i>
    <i name="eentropy">      0.00000000 </i>
    <i name="bandstr">  -4111.02462862 </i>
    <i name="atom">  44408.54722957 </i>
    <i name="e_fr_energy">   -292.38273272 </i>
    <i name="e_wo_entrp">   -292.38273272 </i>
    <i name="e_0_energy">   -292.38273272 </i>
   </energy>
  </scstep>
  <scstep>
   <time name="dav">   71.30   71.31</time>
   <time name="total">   72.10   72.11</time>
   <energy>
    <i name="e_fr_energy">   -292.45604369 </i>
    <i name="e_wo_entrp">   -292.45604369 </i>
    <i name="e_0_energy">   -292.45604369 </i>
   </energy>
  </scstep>
  <scstep>
   <time name="dav">   80.89   80.90</time>
   <time name="total">   81.70   81.71</time>
   <energy>
    <i name="e_fr_energy">   -292.45269188 </i>
    <i name="e_wo_entrp">   -292.45269188 </i>
    <i name="e_0_energy">   -292.45269188 </i>
   </energy>
  </scstep>
  <scstep>
   <time name="dav">   68.96   68.99</time>
   <time name="total">   69.76   69.79</time>
   <energy>
    <i name="e_fr_energy">   -292.44933175 </i>
    <i name="e_wo_entrp">   -292.44933175 </i>
    <i name="e_0_energy">   -292.44933175 </i>
   </energy>
  </scstep>
  <scstep>
   <time name="dav">   77.43   77.46</time>
   <time name="total">   78.23   78.26</time>
   <energy>
    <i name="e_fr_energy">   -292.44879673 </i>
    <i name="e_wo_entrp">   -292.44879673 </i>
    <i name="e_0_energy">   -292.44879673 </i>
   </energy>
  </scstep>
  <scstep>
   <time name="dav">   74.78   74.79</time>
   <time name="total">   75.58   75.59</time>
   <energy>
    <i name="e_fr_energy">   -292.44874743 </i>
    <i name="e_wo_entrp">   -292.44874743 </i>
    <i name="e_0_energy">   -292.44874743 </i>
   </energy>
  </scstep>
  <scstep>
   <time name="dav">   80.68   80.70</time>
   <time name="total">   81.48   81.50</time>
   <energy>
    <i name="e_fr_energy">   -292.44872886 </i>
    <i name="e_wo_entrp">   -292.44872886 </i>
    <i name="e_0_energy">   -292.44872886 </i>
   </energy>
  </scstep>
  <scstep>
   <time name="dav">   68.42   68.43</time>
   <time name="total">   69.22   69.23</time>
   <energy>
    <i name="e_fr_energy">   -292.44871638 </i>
    <i name="e_wo_entrp">   -292.44871638 </i>
    <i name="e_0_energy">   -292.44871638 </i>
   </energy>
  </scstep>
  <scstep>
   <time name="dav">   82.74   82.76</time>
   <time name="total">   83.54   83.56</time>
   <energy>
    <i name="e_fr_energy">   -292.44871526 </i>
    <i name="e_wo_entrp">   -292.44871526 </i>
    <i name="e_0_energy">   -292.44871526 </i>
   </energy>
  </scstep>
  <scstep>
   <time name="dav">   57.77   57.78</time>
   <time name="total">   58.57   58.59</time>
   <energy>
    <i name="e_fr_energy">   -292.44871640 </i>
    <i name="e_wo_entrp">   -292.44871640 </i>
    <i name="e_0_energy">   -292.44871640 </i>
   </energy>
  </scstep>
  <scstep>
   <time name="dav">   48.56   48.57</time>
   <time name="total">   48.63   48.64</time>
   <energy>
    <i name="alphaZ">   1077.13567510 </i>
    <i name="ewald"> -30722.49363433 </i>
    <i name="hartreedc"> -12904.50344417 </i>
    <i name="XCdc">   1347.16005740 </i>
    <i name="pawpsdc">  44022.61659256 </i>
    <i name="pawaedc"> -43419.89768144 </i>
    <i name="eentropy">      0.00000000 </i>
    <i name="bandstr">  -4101.01351164 </i>
    <i name="atom">  44408.54722957 </i>
    <i name="e_fr_energy">   -292.44871695 </i>
    <i name="e_wo_entrp">   -292.44871695 </i>
    <i name="e_0_energy">   -292.44871695 </i>
   </energy>
  </scstep>
  <structure>
   <crystal>
    <varray name="basis" >
     <v>      11.15297625       0.00041917       0.01474957 </v>
     <v>       0.00035903       9.51262891      -0.00259415 </v>
     <v>       0.01475472      -0.00302977      11.17610775 </v>
    </varray>
    <i name="volume">   1185.71720563 </i>
    <varray name="rec_basis" >
     <v>       0.08966232      -0.00000342      -0.00011837 </v>
     <v>      -0.00000399       0.10512342       0.00002850 </v>
     <v>      -0.00011833       0.00002441       0.08947675 </v>
    </varray>
   </crystal>
   <varray name="positions" >
    <v>       0.12446887       0.00002138       0.18933409 </v>
    <v>       0.37351283       0.00063627       0.18906817 </v>
    <v>       0.62478023       0.99953819       0.18575324 </v>
    <v>       0.12810185       0.00066109       0.93744340 </v>
    <v>       0.37508312       0.00013280       0.93520275 </v>
    <v>       0.13003078       0.99972097       0.68455274 </v>
    <v>       0.62270072       0.99894688       0.93745640 </v>
    <v>       0.61904572       0.00003073       0.68802102 </v>
    <v>       0.61614639       0.00123064       0.43583984 </v>
    <v>       0.88320807       0.00001549       0.42908787 </v>
    <v>       0.87574839       0.00007706       0.94497465 </v>
    <v>       0.87660528       0.00094726       0.68665261 </v>
    <v>       0.00169490       0.29540499       0.06454973 </v>
    <v>       0.25066168       0.70463628       0.06345377 </v>
    <v>       0.25022777       0.28668521       0.31398961 </v>
    <v>       0.49699445       0.70468480       0.31310312 </v>
    <v>       0.49847130       0.29524671       0.06307984 </v>
    <v>       0.74963636       0.70435485       0.06410267 </v>
    <v>       0.74989816       0.30031180       0.31112598 </v>
    <v>       0.00235449       0.70894875       0.31239467 </v>
    <v>       0.00421521       0.30069421       0.56117163 </v>
    <v>       0.25122924       0.71636105       0.56179850 </v>
    <v>       0.25133206       0.29110348       0.81199412 </v>
    <v>       0.49748049       0.70890424       0.81228238 </v>
    <v>       0.49647426       0.29128718       0.56273585 </v>
    <v>       0.74863939       0.69117732       0.56241384 </v>
    <v>       0.74784954       0.30476688       0.81352309 </v>
    <v>       0.00299143       0.69536165       0.81304027 </v>
    <v>       0.24971048       0.32810567       0.06213382 </v>
    <v>      -0.00085042       0.67289027       0.06138818 </v>
    <v>       0.50211446       0.32756010       0.31265923 </v>
    <v>       0.25004212       0.67217934       0.31152894 </v>
    <v>       0.75038305       0.32685244       0.06198981 </v>
    <v>       0.50091635       0.67219988       0.06297346 </v>
    <v>       0.99796272       0.32716549       0.31347781 </v>
    <v>       0.74978856       0.67322876       0.31398759 </v>
    <v>       0.24883704       0.32760122       0.56359149 </v>
    <v>      -0.00284269       0.67340756       0.56412249 </v>
    <v>       0.50189759       0.32745422       0.81321117 </v>
    <v>       0.24851997       0.67229135       0.81409262 </v>
    <v>       0.75107294       0.32636595       0.56327610 </v>
    <v>       0.50309581       0.67291758       0.56260000 </v>
    <v>       0.99794658       0.32666643       0.81250767 </v>
    <v>       0.75134167       0.67361753       0.81219085 </v>
    <v>       0.50083181       0.07810967       0.06240927 </v>
    <v>       0.24957215       0.92166893       0.06189456 </v>
    <v>       0.25007368       0.08514834       0.30782853 </v>
    <v>      -0.00323087       0.91840263       0.31494442 </v>
    <v>       0.99939188       0.07756977       0.05697310 </v>
    <v>       0.74983052       0.92292916       0.05741336 </v>
    <v>       0.74817227       0.07351291       0.31926825 </v>
    <v>       0.50576143       0.92190864       0.31192592 </v>
    <v>       0.50819291       0.08026693       0.56081581 </v>
    <v>       0.24716443       0.91228991       0.56482236 </v>
    <v>       0.24673330       0.08135311       0.81514996 </v>
    <v>      -0.00522041       0.92977488       0.81193349 </v>
    <v>       0.99190065       0.07289786       0.56569018 </v>
    <v>       0.75253436       0.93262241       0.56154501 </v>
    <v>       0.75474213       0.06988123       0.81136971 </v>
    <v>       0.50403054       0.91900164       0.81473899 </v>
   </varray>
  </structure>
  <varray name="forces" >
   <v>      -0.09020651       0.02016552       0.43977610 </v>
   <v>      -0.15790487       0.05054249       0.42897728 </v>
   <v>       0.18816955      -0.03875529      -0.18714079 </v>
   <v>       0.35466621       0.10548778       0.00625753 </v>
   <v>      -0.06249661      -0.00763640      -0.28965973 </v>
   <v>       0.85615873      -0.00706144      -0.45274068 </v>
   <v>      -0.32948511      -0.12476021       0.00183477 </v>
   <v>      -0.69828506       0.02003389       0.15464596 </v>
   <v>      -0.57782143       0.07805859       0.06706445 </v>
   <v>       0.45333294       0.18511412      -0.57580376 </v>
   <v>      -0.04751912      -0.02795410       0.66766967 </v>
   <v>      -0.16755427      -0.02635289       0.06730778 </v>
   <v>       0.23438868       0.17339748       0.11313861 </v>
   <v>       0.07644290      -0.34179433       0.06134953 </v>
   <v>       0.08379831       1.62498875       0.24567329 </v>
   <v>      -0.35325084      -0.30151311       0.02650678 </v>
   <v>      -0.23639597       0.25919362       0.04718574 </v>
   <v>      -0.08055857      -0.09952941       0.13475943 </v>
   <v>      -0.04308068      -0.08823887      -0.07831817 </v>
   <v>       0.33571954      -0.79130870      -0.02657299 </v>
   <v>       0.38139418      -0.08934391      -0.10107230 </v>
   <v>       0.21330954      -2.52973608      -0.22128299 </v>
   <v>       0.12610642       0.62557865      -0.07545911 </v>
   <v>      -0.25980022      -0.53584092      -0.09778215 </v>
   <v>      -0.42792149       0.33233299       0.00855281 </v>
   <v>      -0.13445415      -0.21079015      -0.03210770 </v>
   <v>      -0.14216616       0.02057464      -0.04001450 </v>
   <v>       0.31742177      -0.08074719      -0.02798532 </v>
   <v>      -0.06465718       0.26887112      -0.09852553 </v>
   <v>      -0.13137871      -0.08269671      -0.19843265 </v>
   <v>       0.32482688       0.15782983      -0.00428204 </v>
   <v>       0.00871431      -0.12631220      -0.27352054 </v>
   <v>       0.05414816       0.05565203      -0.12973100 </v>
   <v>       0.12699610      -0.20262884       0.03854173 </v>
   <v>      -0.27135818       0.02077331       0.10336337 </v>
   <v>      -0.01585959      -0.14414415       0.13192757 </v>
   <v>      -0.20719539       0.06095904       0.11993801 </v>
   <v>      -0.38400768      -0.15134666       0.14203137 </v>
   <v>       0.27253555       0.10156899       0.04974839 </v>
   <v>      -0.21792472      -0.16766986       0.20983826 </v>
   <v>       0.09868719       0.29727592       0.04515434 </v>
   <v>       0.47412774      -0.06474245      -0.06726134 </v>
   <v>      -0.23959560       0.22302597      -0.03874638 </v>
   <v>       0.14882131      -0.20587565      -0.04284494 </v>
   <v>       0.06281673      -0.20925665       0.00103839 </v>
   <v>      -0.01298724       0.25319831      -0.02241988 </v>
   <v>      -0.02461956      -1.92241588      -1.13081317 </v>
   <v>      -0.09034373       0.52964194      -0.02046310 </v>
   <v>       0.29527189       0.02014102      -0.65580642 </v>
   <v>      -0.28345648      -0.03389213      -0.68594294 </v>
   <v>      -0.46298083       0.39444495       0.96112189 </v>
   <v>       0.70437488       0.06098342      -0.40498909 </v>
   <v>       1.20309949      -0.34029782      -0.08626454 </v>
   <v>      -0.63505483       2.97848287       0.59036467 </v>
   <v>      -0.56763867      -0.73761887       0.55173474 </v>
   <v>      -0.52889792      -0.44673608       0.15360553 </v>
   <v>      -0.81193032       0.53599085       0.22279878 </v>
   <v>       0.24964933      -0.48169509      -0.40721572 </v>
   <v>       0.52412112       0.46951799       0.14474192 </v>
   <v>       0.58968823       0.69486597       0.53655077 </v>
  </varray>
  <varray name="stress" >
   <v>       6.14786449      -0.31816052      -1.19560679 </v>
   <v>      -0.31816038       7.71022618       1.39422039 </v>
   <v>      -1.19560700       1.39422047       4.16086490 </v>
  </varray>
  <energy>
   <i name="e_fr_energy">   -306.09598640 </i>
   <i name="e_wo_entrp">   -306.09598640 </i>
   <i name="e_0_energy">      0.00000000 </i>
  </energy>
  <time name="totalsc">  891.04  891.33</time>
 </calculation>
 <calculation>
  <scstep>
   <time name="dav">   66.26   66.32</time>
   <time name="total">   67.05   67.12</time>
   <energy>
    <i name="alphaZ">   1069.49419639 </i>
    <i name="ewald"> -30768.70917269 </i>
    <i name="hartreedc"> -12763.43682357 </i>
    <i name="XCdc">   1342.31968544 </i>
    <i name="pawpsdc">  44022.75181468 </i>
    <i name="pawaedc"> -43420.03168652 </i>
    <i name="eentropy">      0.00000000 </i>
    <i name="bandstr">  -4182.37949861 </i>
    <i name="atom">  44408.54722957 </i>
    <i name="e_fr_energy">   -291.44425531 </i>
    <i name="e_wo_entrp">   -291.44425531 </i>
    <i name="e_0_energy">   -291.44425531 </i>
   </energy>
  </scstep>
  <scstep>
   <time name="dav">   67.24   67.25</time>
   <time name="total">   68.05   68.06</time>
   <energy>
    <i name="e_fr_energy">   -293.25800860 </i>
    <i name="e_wo_entrp">   -293.25800860 </i>
    <i name="e_0_energy">   -293.25800860 </i>
   </energy>
  </scstep>
  <scstep>
   <time name="dav">   82.68   82.71</time>
   <time name="total">   83.48   83.51</time>
   <energy>
    <i name="e_fr_energy">   -293.22409735 </i>
    <i name="e_wo_entrp">   -293.22409735 </i>
    <i name="e_0_energy">   -293.22409735 </i>
   </energy>
  </scstep>
  <scstep>
   <time name="dav">   77.40   77.42</time>
   <time name="total">   78.20   78.23</time>
   <energy>
    <i name="e_fr_energy">   -293.19152742 </i>
    <i name="e_wo_entrp">   -293.19152742 </i>
    <i name="e_0_energy">   -293.19152742 </i>
   </energy>
  </scstep>
  <scstep>
   <time name="dav">   70.16   70.19</time>
   <time name="total">   70.96   70.99</time>
   <energy>
    <i name="e_fr_energy">   -293.16727606 </i>
    <i name="e_wo_entrp">   -293.16727606 </i>
    <i name="e_0_energy">   -293.16727606 </i>
   </energy>
  </scstep>
  <scstep>
   <time name="dav">   76.01   76.01</time>
   <time name="total">   76.81   76.82</time>
   <energy>
    <i name="e_fr_energy">   -293.16387627 </i>
    <i name="e_wo_entrp">   -293.16387627 </i>
    <i name="e_0_energy">   -293.16387627 </i>
   </energy>
  </scstep>
  <scstep>
   <time name="dav">   70.46   70.47</time>
   <time name="total">   71.26   71.27</time>
   <energy>
    <i name="e_fr_energy">   -293.16418572 </i>
    <i name="e_wo_entrp">   -293.16418572 </i>
    <i name="e_0_energy">   -293.16418572 </i>
   </energy>
  </scstep>
  <scstep>
   <time name="dav">   85.35   85.37</time>
   <time name="total">   86.15   86.17</time>
   <energy>
    <i name="e_fr_energy">   -293.16405840 </i>
    <i name="e_wo_entrp">   -293.16405840 </i>
    <i name="e_0_energy">   -293.16405840 </i>
   </energy>
  </scstep>
  <scstep>
   <time name="dav">   70.42   70.44</time>
   <time name="total">   71.22   71.24</time>
   <energy>
    <i name="e_fr_energy">   -293.16400244 </i>
    <i name="e_wo_entrp">   -293.16400244 </i>
    <i name="e_0_energy">   -293.16400244 </i>
   </energy>
  </scstep>
  <scstep>
   <time name="dav">   76.87   76.88</time>
   <time name="total">   77.68   77.68</time>
   <energy>
    <i name="e_fr_energy">   -293.16400920 </i>
    <i name="e_wo_entrp">   -293.16400920 </i>
    <i name="e_0_energy">   -293.16400920 </i>
   </energy>
  </scstep>
  <scstep>
   <time name="dav">   68.97   68.98</time>
   <time name="total">   69.77   69.79</time>
   <energy>
    <i name="e_fr_energy">   -293.16401166 </i>
    <i name="e_wo_entrp">   -293.16401166 </i>
    <i name="e_0_energy">   -293.16401166 </i>
   </energy>
  </scstep>
  <scstep>
   <time name="dav">   65.83   65.85</time>
   <time name="total">   66.63   66.65</time>
   <energy>
    <i name="e_fr_energy">   -293.16401393 </i>
    <i name="e_wo_entrp">   -293.16401393 </i>
    <i name="e_0_energy">   -293.16401393 </i>
   </energy>
  </scstep>
  <scstep>
   <time name="dav">   60.36   60.37</time>
   <time name="total">   61.16   61.18</time>
   <energy>
    <i name="e_fr_energy">   -293.16401591 </i>
    <i name="e_wo_entrp">   -293.16401591 </i>
    <i name="e_0_energy">   -293.16401591 </i>
   </energy>
  </scstep>
  <scstep>
   <time name="dav">   44.53   44.54</time>
   <time name="total">   44.60   44.61</time>
   <energy>
    <i name="alphaZ">   1069.49419639 </i>
    <i name="ewald"> -30768.70917269 </i>
    <i name="hartreedc"> -12825.44617882 </i>
    <i name="XCdc">   1345.23626119 </i>
    <i name="pawpsdc">  43692.36199807 </i>
    <i name="pawaedc"> -43084.84079687 </i>
    <i name="eentropy">      0.00000000 </i>
    <i name="bandstr">  -4129.80755299 </i>
    <i name="atom">  44408.54722957 </i>
    <i name="e_fr_energy">   -293.16401616 </i>
    <i name="e_wo_entrp">   -293.16401616 </i>
    <i name="e_0_energy">   -293.16401616 </i>
   </energy>
  </scstep>
  <structure>
   <crystal>
    <varray name="basis" >
     <v>      11.18366561      -0.00147885       0.01229754 </v>
     <v>      -0.00126800       9.53320794       0.00417481 </v>
     <v>       0.01230571       0.00492064      11.20083698 </v>
    </varray>
    <i name="volume">   1194.18909151 </i>
    <varray name="rec_basis" >
     <v>       0.08941623       0.00001194      -0.00009824 </v>
     <v>       0.00001392       0.10489651      -0.00004610 </v>
     <v>      -0.00009818      -0.00003911       0.08927917 </v>
    </varray>
   </crystal>
   <varray name="positions" >
    <v>       0.12403414       0.00018724       0.19206541 </v>
    <v>       0.37245073       0.00105474       0.19166006 </v>
    <v>       0.62563637       0.99923761       0.18456566 </v>
    <v>       0.13056750       0.00147787       0.93767122 </v>
    <v>       0.37471229       0.00008108       0.93338886 </v>
    <v>       0.13558478       0.99964208       0.68181214 </v>
    <v>       0.62034867       0.99800907       0.93767658 </v>
    <v>       0.61410848       0.00019895       0.68908985 </v>
    <v>       0.61040241       0.00211684       0.43576276 </v>
    <v>       0.88792461       0.00087321       0.42387912 </v>
    <v>       0.87566805      -0.00009260       0.95067859 </v>
    <v>       0.87661228       0.00109647       0.68685814 </v>
    <v>       0.00324168       0.29633997       0.06564515 </v>
    <v>       0.25117365       0.70288395       0.06394072 </v>
    <v>       0.25070703       0.29166265       0.31544157 </v>
    <v>       0.49447558       0.70314913       0.31331897 </v>
    <v>       0.49688042       0.29654887       0.06337731 </v>
    <v>       0.74911856       0.70369945       0.06513196 </v>
    <v>       0.74972786       0.30171670       0.31019211 </v>
    <v>       0.00465972       0.70652396       0.31212722 </v>
    <v>       0.00728673       0.30223097       0.56015730 </v>
    <v>       0.25252418       0.70800528       0.56050245 </v>
    <v>       0.25238784       0.29272714       0.81138045 </v>
    <v>       0.49553075       0.70772670       0.81168142 </v>
    <v>       0.49336158       0.29152733       0.56274977 </v>
    <v>       0.74753964       0.68523343       0.56213725 </v>
    <v>       0.74652678       0.30831205       0.81360860 </v>
    <v>       0.00544710       0.69156515       0.81299666 </v>
    <v>       0.24931721       0.32991514       0.06146085 </v>
[...]
       <r>    8.5730    0.0000 </r>
       <r>    8.5930    0.0000 </r>
       <r>    8.6146    0.0000 </r>
       <r>    8.7195    0.0000 </r>
       <r>    8.7538    0.0000 </r>
       <r>    8.8575    0.0000 </r>
       <r>    8.9462    0.0000 </r>
      </set>
     </set>
    </set>
   </array>
  </eigenvalues>
  <separator name="orbital magnetization" >
   <v name="MAGDIPOLOUT">      0.00000000      0.00000000      0.00000000</v>
  </separator>
  <dos>
   <i name="efermi">      4.14641065 </i>
   <total>
    <array>
     <dimension dim="1">gridpoints</dimension>
     <dimension dim="2">spin</dimension>
     <field>energy</field>
     <field>total</field>
     <field>integrated</field>
     <set>
      <set comment="spin 1">
       <r>   -42.4680     0.0000     0.0000 </r>
       <r>   -42.2861     0.0000     0.0000 </r>
       <r>   -42.1042     0.0000     0.0000 </r>
       <r>   -41.9223     0.0000     0.0000 </r>
       <r>   -41.7404     0.0000     0.0000 </r>
       <r>   -41.5585     0.0000     0.0000 </r>
       <r>   -41.3766     0.0000     0.0000 </r>
       <r>   -41.1947     0.0000     0.0000 </r>
       <r>   -41.0127     0.0000     0.0000 </r>
       <r>   -40.8308     0.0000     0.0000 </r>
       <r>   -40.6489     0.0000     0.0000 </r>
       <r>   -40.4670     0.0000     0.0000 </r>
       <r>   -40.2851     0.0000     0.0000 </r>
       <r>   -40.1032     0.0000     0.0000 </r>
       <r>   -39.9213     0.0000     4.0000 </r>
       <r>   -39.7394     0.0000     6.0000 </r>
       <r>   -39.5575     0.0000     8.0000 </r>
       <r>   -39.3756     0.0000    12.0000 </r>
       <r>   -39.1936     0.0000    16.0000 </r>
       <r>   -39.0117     0.0000    16.0000 </r>
       <r>   -38.8298     0.0000    16.0000 </r>
       <r>   -38.6479     0.0000    16.0000 </r>
       <r>   -38.4660     0.0000    16.0000 </r>
       <r>   -38.2841     0.0000    16.0000 </r>
       <r>   -38.1022     0.0000    16.0000 </r>
       <r>   -37.9203     0.0000    16.0000 </r>
       <r>   -37.7384     0.0000    16.0000 </r>
       <r>   -37.5565     0.0000    16.0000 </r>
       <r>   -37.3745     0.0000    16.0000 </r>
       <r>   -37.1926     0.0000    16.0000 </r>
       <r>   -37.0107     0.0000    16.0000 </r>
       <r>   -36.8288     0.0000    16.0000 </r>
       <r>   -36.6469     0.0000    16.0000 </r>
       <r>   -36.4650     0.0000    16.0000 </r>
       <r>   -36.2831     0.0000    16.0000 </r>
       <r>   -36.1012     0.0000    16.0000 </r>
       <r>   -35.9193     0.0000    16.0000 </r>
       <r>   -35.7374     0.0000    16.0000 </r>
       <r>   -35.5554     0.0000    16.0000 </r>
       <r>   -35.3735     0.0000    16.0000 </r>
       <r>   -35.1916     0.0000    16.0000 </r>
       <r>   -35.0097     0.0000    16.0000 </r>
       <r>   -34.8278     0.0000    16.0000 </r>
       <r>   -34.6459     0.0000    16.0000 </r>
       <r>   -34.4640     0.0000    16.0000 </r>
       <r>   -34.2821     0.0000    16.0000 </r>
       <r>   -34.1002     0.0000    16.0000 </r>
       <r>   -33.9183     0.0000    16.0000 </r>
       <r>   -33.7363     0.0000    16.0000 </r>
       <r>   -33.5544     0.0000    16.0000 </r>
       <r>   -33.3725     0.0000    16.0000 </r>
       <r>   -33.1906     0.0000    16.0000 </r>
       <r>   -33.0087     0.0000    16.0000 </r>
       <r>   -32.8268     0.0000    16.0000 </r>
       <r>   -32.6449     0.0000    16.0000 </r>
       <r>   -32.4630     0.0000    16.0000 </r>
       <r>   -32.2811     0.0000    16.0000 </r>
       <r>   -32.0992     0.0000    16.0000 </r>
       <r>   -31.9172     0.0000    16.0000 </r>
       <r>   -31.7353     0.0000    16.0000 </r>
       <r>   -31.5534     0.0000    16.0000 </r>
       <r>   -31.3715     0.0000    16.0000 </r>
       <r>   -31.1896     0.0000    16.0000 </r>
       <r>   -31.0077     0.0000    16.0000 </r>
       <r>   -30.8258     0.0000    16.0000 </r>
       <r>   -30.6439     0.0000    16.0000 </r>
       <r>   -30.4620     0.0000    16.0000 </r>
       <r>   -30.2801     0.0000    16.0000 </r>
       <r>   -30.0981     0.0000    16.0000 </r>
       <r>   -29.9162     0.0000    16.0000 </r>
       <r>   -29.7343     0.0000    16.0000 </r>
       <r>   -29.5524     0.0000    16.0000 </r>
       <r>   -29.3705     0.0000    16.0000 </r>
       <r>   -29.1886     0.0000    16.0000 </r>
       <r>   -29.0067     0.0000    16.0000 </r>
       <r>   -28.8248     0.0000    16.0000 </r>
       <r>   -28.6429     0.0000    16.0000 </r>
       <r>   -28.4610     0.0000    16.0000 </r>
       <r>   -28.2790     0.0000    16.0000 </r>
       <r>   -28.0971     0.0000    16.0000 </r>
       <r>   -27.9152     0.0000    16.0000 </r>
       <r>   -27.7333     0.0000    16.0000 </r>
       <r>   -27.5514     0.0000    16.0000 </r>
       <r>   -27.3695     0.0000    16.0000 </r>
       <r>   -27.1876     0.0000    16.0000 </r>
       <r>   -27.0057     0.0000    16.0000 </r>
       <r>   -26.8238     0.0000    16.0000 </r>
       <r>   -26.6419     0.0000    16.0000 </r>
       <r>   -26.4599     0.0000    16.0000 </r>
       <r>   -26.2780     0.0000    16.0000 </r>
       <r>   -26.0961     0.0000    16.0000 </r>
       <r>   -25.9142     0.0000    16.0000 </r>
       <r>   -25.7323     0.0000    16.0000 </r>
       <r>   -25.5504     0.0000    16.0000 </r>
       <r>   -25.3685     0.0000    16.0000 </r>
       <r>   -25.1866     0.0000    16.0000 </r>
       <r>   -25.0047     0.0000    16.0000 </r>
       <r>   -24.8228     0.0000    16.0000 </r>
       <r>   -24.6408     0.0000    16.0000 </r>
       <r>   -24.4589     0.0000    16.0000 </r>
       <r>   -24.2770     0.0000    16.0000 </r>
       <r>   -24.0951     0.0000    16.0000 </r>
       <r>   -23.9132     0.0000    16.0000 </r>
       <r>   -23.7313     0.0000    16.0000 </r>
       <r>   -23.5494     0.0000    16.0000 </r>
       <r>   -23.3675     0.0000    16.0000 </r>
       <r>   -23.1856     0.0000    16.0000 </r>
       <r>   -23.0037     0.0000    16.0000 </r>
       <r>   -22.8217     0.0000    16.0000 </r>
       <r>   -22.6398     0.0000    16.0000 </r>
       <r>   -22.4579     0.0000    16.0000 </r>
       <r>   -22.2760     0.0000    16.0000 </r>
       <r>   -22.0941     0.0000    16.0000 </r>
       <r>   -21.9122     0.0000    16.0000 </r>
       <r>   -21.7303     0.0000    16.0000 </r>
       <r>   -21.5484     0.0000    16.0000 </r>
       <r>   -21.3665     0.0000    16.0000 </r>
       <r>   -21.1846     0.0000    16.0000 </r>
       <r>   -21.0026     0.0000    16.0000 </r>
       <r>   -20.8207     0.0000    16.0000 </r>
       <r>   -20.6388     0.0000    16.0000 </r>
       <r>   -20.4569     0.0000    16.0000 </r>
       <r>   -20.2750     0.0000    16.0000 </r>
       <r>   -20.0931     0.0000    16.0000 </r>
       <r>   -19.9112     0.0000    16.0000 </r>
       <r>   -19.7293     0.0000    16.0000 </r>
       <r>   -19.5474     0.0000    16.0000 </r>
       <r>   -19.3655     0.0000    16.0000 </r>
       <r>   -19.1835     0.0000    16.0000 </r>
       <r>   -19.0016     0.0000    16.0000 </r>
       <r>   -18.8197     0.0000    42.0000 </r>
       <r>   -18.6378     0.0000   122.0000 </r>
       <r>   -18.4559     0.0000   160.0000 </r>
       <r>   -18.2740     0.0000   172.0000 </r>
       <r>   -18.0921     0.0000   176.0000 </r>
       <r>   -17.9102     0.0000   176.0000 </r>
       <r>   -17.7283     0.0000   176.0000 </r>
       <r>   -17.5464     0.0000   176.0000 </r>
       <r>   -17.3644     0.0000   176.0000 </r>
       <r>   -17.1825     0.0000   176.0000 </r>
       <r>   -17.0006     0.0000   176.0000 </r>
       <r>   -16.8187     0.0000   176.0000 </r>
       <r>   -16.6368     0.0000   176.0000 </r>
       <r>   -16.4549     0.0000   176.0000 </r>
       <r>   -16.2730     0.0000   176.0000 </r>
       <r>   -16.0911     0.0000   176.0000 </r>
       <r>   -15.9092     0.0000   176.0000 </r>
       <r>   -15.7273     0.0000   176.0000 </r>
       <r>   -15.5453     0.0000   176.0000 </r>
       <r>   -15.3634     0.0000   176.0000 </r>
       <r>   -15.1815     0.0000   176.0000 </r>
       <r>   -14.9996     0.0000   176.0000 </r>
       <r>   -14.8177     0.0000   176.0000 </r>
       <r>   -14.6358     0.0000   176.0000 </r>
       <r>   -14.4539     0.0000   176.0000 </r>
       <r>   -14.2720     0.0000   176.0000 </r>
       <r>   -14.0901     0.0000   176.0000 </r>
       <r>   -13.9082     0.0000   176.0000 </r>
       <r>   -13.7262     0.0000   176.0000 </r>
       <r>   -13.5443     0.0000   176.0000 </r>
       <r>   -13.3624     0.0000   178.0000 </r>
       <r>   -13.1805     0.0000   180.0000 </r>
       <r>   -12.9986   416.6124   185.2545 </r>
       <r>   -12.8167     0.0000   198.0000 </r>
       <r>   -12.6348     0.0000   200.0000 </r>
       <r>   -12.4529     0.0000   204.0000 </r>
       <r>   -12.2710     0.0000   206.0000 </r>
       <r>   -12.0891     0.0000   208.0000 </r>
       <r>   -11.9071     0.0000   208.0000 </r>
       <r>   -11.7252     0.0000   208.0000 </r>
       <r>   -11.5433     0.0000   208.0000 </r>
       <r>   -11.3614     0.0000   208.0000 </r>
       <r>   -11.1795     0.0000   208.0000 </r>
       <r>   -10.9976     0.0000   208.0000 </r>
       <r>   -10.8157     0.0000   208.0000 </r>
       <r>   -10.6338     0.0000   208.0000 </r>
       <r>   -10.4519     0.0000   208.0000 </r>
       <r>   -10.2700     0.0000   208.0000 </r>
       <r>   -10.0880     0.0000   208.0000 </r>
       <r>    -9.9061     0.0000   208.0000 </r>
       <r>    -9.7242     0.0000   208.0000 </r>
       <r>    -9.5423     0.0000   208.0000 </r>
       <r>    -9.3604    11.7060   209.0235 </r>
       <r>    -9.1785     8.8632   210.3517 </r>
       <r>    -8.9966     2.0086   211.9779 </r>
       <r>    -8.8147    25.7005   213.4265 </r>
       <r>    -8.6328    24.2253   216.6127 </r>
       <r>    -8.4509    19.7648   220.7970 </r>
       <r>    -8.2689     0.0000   224.0000 </r>
       <r>    -8.0870    42.0897   227.5553 </r>
       <r>    -7.9051    25.3168   233.6836 </r>
       <r>    -7.7232    13.9268   236.3772 </r>
       <r>    -7.5413     5.3864   239.8953 </r>
       <r>    -7.3594     0.0000   240.0000 </r>
       <r>    -7.1775     0.0000   240.0000 </r>
       <r>    -6.9956     0.0000   240.0000 </r>
       <r>    -6.8137     0.0000   240.0000 </r>
       <r>    -6.6318     0.0000   240.0000 </r>
       <r>    -6.4498     0.0000   240.0000 </r>
       <r>    -6.2679    26.6107   241.8958 </r>
       <r>    -6.0860    19.1875   247.0236 </r>
       <r>    -5.9041    29.2727   249.4176 </r>
       <r>    -5.7222    24.3881   254.4082 </r>
       <r>    -5.5403    23.5975   258.1721 </r>
       <r>    -5.3584    16.2692   261.7696 </r>
       <r>    -5.1765     4.7066   263.7846 </r>
       <r>    -4.9946     9.9975   264.5850 </r>
       <r>    -4.8127    10.4469   266.9022 </r>
       <r>    -4.6307     5.6356   268.2953 </r>
       <r>    -4.4488     7.0712   269.3121 </r>
       <r>    -4.2669     7.7809   270.8881 </r>
       <r>    -4.0850     2.3022   271.6473 </r>
       <r>    -3.9031     0.9209   271.9402 </r>
       <r>    -3.7212     0.0000   272.0000 </r>
       <r>    -3.5393     0.0000   272.0000 </r>
       <r>    -3.3574     0.0000   272.0000 </r>
       <r>    -3.1755     0.0000   272.0000 </r>
       <r>    -2.9936     0.0000   272.0000 </r>
       <r>    -2.8116     0.0000   272.0000 </r>
       <r>    -2.6297     0.0000   272.0000 </r>
       <r>    -2.4478     0.0000   272.0000 </r>
       <r>    -2.2659     0.0000   272.0000 </r>
       <r>    -2.0840     0.0000   272.0000 </r>
       <r>    -1.9021     0.0000   272.0000 </r>
       <r>    -1.7202     0.0000   272.0000 </r>
       <r>    -1.5383     0.0000   272.0000 </r>
       <r>    -1.3564     3.1829   272.0980 </r>
       <r>    -1.1745     8.2321   273.3538 </r>
       <r>    -0.9925     7.0510   274.6856 </r>
       <r>    -0.8106    14.5763   276.8321 </r>
       <r>    -0.6287     8.9893   279.0477 </r>
       <r>    -0.4468    27.5208   282.0548 </r>
       <r>    -0.2649    29.2352   287.2980 </r>
       <r>    -0.0830    38.6177   293.7249 </r>
       <r>     0.0989    30.4563   300.1068 </r>
       <r>     0.2808    50.3949   307.5277 </r>
       <r>     0.4627    29.1162   314.2450 </r>
       <r>     0.6446    35.6242   320.0890 </r>
       <r>     0.8266    36.9403   327.0666 </r>
       <r>     1.0085    37.5961   335.4190 </r>
       <r>     1.1904    38.2549   342.9897 </r>
       <r>     1.3723    49.8583   351.3350 </r>
       <r>     1.5542    48.8116   360.4589 </r>
       <r>     1.7361    51.9149   368.2593 </r>
       <r>     1.9180    43.8771   376.6299 </r>
       <r>     2.0999    44.3160   385.5219 </r>
       <r>     2.2818    55.3210   394.6534 </r>
       <r>     2.4637    64.2377   407.2247 </r>
       <r>     2.6457    61.4194   417.9697 </r>
       <r>     2.8276    69.9412   429.7206 </r>
       <r>     3.0095    50.9284   439.4151 </r>
       <r>     3.1914    33.3907   447.0396 </r>
       <r>     3.3733    40.7113   454.0018 </r>
       <r>     3.5552    24.0575   458.6539 </r>
       <r>     3.7371    13.5605   462.1864 </r>
       <r>     3.9190     3.9127   463.7750 </r>
       <r>     4.1009     0.0000   464.0000 </r>
       <r>     4.2828     0.0000   464.0000 </r>
       <r>     4.4648     0.0000   464.0000 </r>
       <r>     4.6467     0.0000   464.0000 </r>
       <r>     4.8286     0.0000   464.0000 </r>
       <r>     5.0105     0.0000   464.0000 </r>
       <r>     5.1924     3.0652   464.1470 </r>
       <r>     5.3743     9.6012   465.3083 </r>
       <r>     5.5562    10.4409   467.2681 </r>
       <r>     5.7381    18.1429   470.3409 </r>
       <r>     5.9200    14.6713   473.7450 </r>
       <r>     6.1019    13.4732   476.2676 </r>
       <r>     6.2839    13.8367   478.7257 </r>
       <r>     6.4658    15.1371   481.3579 </r>
       <r>     6.6477    17.0193   484.2738 </r>
       <r>     6.8296    19.8458   487.6019 </r>
       <r>     7.0115    21.0266   491.4008 </r>
       <r>     7.1934    25.2785   495.5724 </r>
       <r>     7.3753    34.8915   501.7375 </r>
       <r>     7.5572    34.1591   507.8274 </r>
       <r>     7.7391    31.4717   513.6096 </r>
       <r>     7.9210    29.6410   519.2512 </r>
       <r>     8.1030    26.5766   524.1762 </r>
       <r>     8.2849    28.7748   529.0475 </r>
       <r>     8.4668    34.3047   534.8674 </r>
       <r>     8.6487    39.4410   541.4747 </r>
       <r>     8.8306    29.9672   547.6927 </r>
       <r>     9.0125    23.1794   552.4704 </r>
       <r>     9.1944    15.9451   555.9693 </r>
       <r>     9.3763    13.9463   558.2952 </r>
       <r>     9.5582     5.6665   559.8751 </r>
       <r>     9.7401     0.0000   560.0000 </r>
       <r>     9.9221     0.0000   560.0000 </r>
       <r>    10.1040     0.0000   560.0000 </r>
       <r>    10.2859     0.0000   560.0000 </r>
       <r>    10.4678     0.0000   560.0000 </r>
       <r>    10.6497     0.0000   560.0000 </r>
       <r>    10.8316     0.0000   560.0000 </r>
       <r>    11.0135     0.0000   560.0000 </r>
       <r>    11.1954     0.0000   560.0000 </r>
       <r>    11.3773     0.0000   560.0000 </r>
       <r>    11.5592     0.0000   560.0000 </r>
       <r>    11.7412     0.0000   560.0000 </r>
       <r>    11.9231     0.0000   560.0000 </r>
       <r>    12.1050     0.0000   560.0000 </r>
      </set>
     </set>
    </array>
   </total>
  </dos>
 </calculation>
 <structure name="finalpos" >
  <crystal>
   <varray name="basis" >
    <v>      11.23277965       0.08860110      -0.01056817 </v>
    <v>       0.07588043       9.57847279       0.00474001 </v>
    <v>      -0.01008726       0.00855955      11.22585747 </v>
   </varray>
   <i name="volume">   1207.74531129 </i>
   <varray name="rec_basis" >
    <v>       0.08903080      -0.00070534       0.00008054 </v>
    <v>      -0.00082361       0.10440734      -0.00008035 </v>
    <v>       0.00008416      -0.00004475       0.08908016 </v>
   </varray>
  </crystal>
  <varray name="positions" >
   <v>       0.15790844      -0.03899246       0.26278101 </v>
   <v>       0.40801975       0.01180095       0.20820956 </v>
   <v>       0.64922198       0.00009110       0.18693851 </v>
   <v>       0.14573459       0.02101741       0.96563654 </v>
   <v>       0.37024205       0.00043765       0.95052693 </v>
   <v>       0.22560430       0.02372398       0.67665227 </v>
   <v>       0.60289219       0.98660969       0.96217026 </v>
   <v>       0.57375343       0.04604953       0.73326207 </v>
   <v>       0.62102743      -0.00872373       0.44520164 </v>
   <v>       0.88880541       0.00977970       0.41503739 </v>
   <v>       0.86424727      -0.00019969       0.93960446 </v>
   <v>       0.85444165      -0.00169620       0.67779222 </v>
   <v>      -0.00329902       0.30299982       0.05778221 </v>
   <v>       0.25052924       0.69779040       0.05555682 </v>
   <v>       0.24946620       0.29260667       0.31330239 </v>
   <v>       0.50227402       0.69982917       0.30779784 </v>
   <v>       0.49504440       0.30288064       0.06556002 </v>
   <v>       0.74840677       0.69326926       0.05375028 </v>
   <v>       0.74546364       0.30940650       0.31375310 </v>
   <v>       0.00242112       0.68935212       0.30715713 </v>
   <v>      -0.00182556       0.31073607       0.55915248 </v>
   <v>       0.24799174       0.69501614       0.55640124 </v>
   <v>       0.24725046       0.30502921       0.81807995 </v>
   <v>       0.49311564       0.71096595       0.81211156 </v>
   <v>       0.49580269       0.30656274       0.56299253 </v>
   <v>       0.74983730       0.67999999       0.55272213 </v>
   <v>       0.74750914       0.31790158       0.81093078 </v>
   <v>      -0.00600109       0.68739208       0.80481424 </v>
   <v>       0.24461473       0.35203551       0.06311459 </v>
   <v>      -0.00519233       0.66513804       0.05076110 </v>
   <v>       0.49769198       0.35393457       0.31204521 </v>
   <v>       0.24778820       0.67552175       0.30404224 </v>
   <v>       0.74596561       0.33686323       0.05696644 </v>
   <v>       0.50038553       0.64723018       0.05482262 </v>
   <v>       0.99309664       0.28444929       0.30958217 </v>
   <v>       0.74872310       0.64266734       0.30627285 </v>
   <v>       0.24445603       0.26675632       0.56742449 </v>
   <v>      -0.00200267       0.63954428       0.55179565 </v>
   <v>       0.49905706       0.32874750       0.81021227 </v>
   <v>       0.24751414       0.66113178       0.80819511 </v>
   <v>       0.74213717       0.36835762       0.55721003 </v>
   <v>       0.50695363       0.71536017       0.55331918 </v>
   <v>       0.99445944       0.35485830       0.80625050 </v>
   <v>       0.74384245       0.64391572       0.80777672 </v>
   <v>       0.50471414       0.08613316       0.07522889 </v>
   <v>       0.25778069       0.91173430       0.06052098 </v>
   <v>       0.27525187       0.08951760       0.28344641 </v>
   <v>       0.00003783       0.90226960       0.31629345 </v>
   <v>      -0.00447222       0.09469358       0.01846222 </v>
   <v>       0.74005425       0.91277794       0.04282434 </v>
   <v>       0.73818861       0.08897618       0.33489220 </v>
   <v>       0.53633257       0.91396689       0.30105512 </v>
   <v>       0.54407030       0.10018119       0.57166773 </v>
   <v>       0.22063378       0.89676733       0.56164846 </v>
   <v>       0.24580810       0.09178059       0.83918385 </v>
   <v>      -0.05426403       0.90086836       0.80480374 </v>
   <v>       0.94731592       0.10205992       0.56220117 </v>
   <v>       0.76930348       0.90760025       0.53536829 </v>
   <v>       0.75287235       0.09066597       0.80690281 </v>
   <v>       0.50099648       0.92158927       0.84263162 </v>
  </varray>
 </structure>
</modeling>
