<?xml version="1.0" encoding="ISO-8859-1"?>
<modeling>
 <generator>
  <i name="program" type="string">vasp </i>
  <i name="version" type="string">5.4.4.18Apr17-6-g9f103f2a35  </i>
  <i name="subversion" type="string">(build Jul 31 2017 11:33:29) complex            parallel </i>
  <i name="platform" type="string">LinuxIFC </i>
  <i name="date" type="string">2021 09 29 </i>
  <i name="time" type="string">08:36:47 </i>
 </generator>
 <incar>
  <i type="string" name="SYSTEM"> La2O2S</i>
  <i type="string" name="PREC">normal</i>
  <i type="int" name="NELMIN">     4</i>
  <i type="int" name="IBRION">     2</i>
  <i type="int" name="NFREE">    10</i>
  <i name="EDIFF">      0.00000100</i>
  <i name="EDIFFG">     -0.01000000</i>
  <i type="int" name="NSW">     1</i>
  <i type="int" name="ISIF">     2</i>
  <i name="ENCUT">    600.00000000</i>
  <i name="ENAUG">    900.00000000</i>
  <i type="int" name="ISMEAR">    -5</i>
  <i type="logical" name="LWAVE"> F  </i>
  <i type="logical" name="LCHARG"> F  </i>
  <v type="int" name="KPOINT_BSE">    -1     0     0     0</v>
 </incar>
 <structure name="primitive_cell" >
  <crystal>
   <varray name="basis" >
    <v>      11.17850000       0.00000000       0.00000000 </v>
    <v>       0.00000000       9.57460000       0.00000000 </v>
    <v>       0.00000000       0.00000000      11.18240000 </v>
   </varray>
   <i name="volume">   1196.84853820 </i>
   <varray name="rec_basis" >
    <v>       0.08945744       0.00000000       0.00000000 </v>
    <v>       0.00000000       0.10444301       0.00000000 </v>
    <v>       0.00000000       0.00000000       0.08942624 </v>
   </varray>
  </crystal>
  <varray name="positions" >
   <v>       0.12461000      -0.00016000       0.18687000 </v>
   <v>      -0.00013000       0.07798000       0.06246000 </v>
   <v>       0.24987000      -0.07798000       0.06246000 </v>
   <v>       0.00013000      -0.07798000       0.31246000 </v>
   <v>       0.25013000       0.07798000       0.31246000 </v>
   <v>      -0.12539000       0.00017000       0.18687000 </v>
   <v>       0.37461000       0.00017000       0.18687000 </v>
   <v>       0.00013000       0.29519000       0.06281000 </v>
   <v>       0.25013000      -0.29519000       0.06281000 </v>
   <v>      -0.00013000      -0.29519000       0.31282000 </v>
   <v>       0.24987000       0.29519000       0.31282000 </v>
   <v>       0.00005000      -0.32677000       0.06286000 </v>
   <v>       0.25005000       0.32677000       0.06286000 </v>
   <v>      -0.00005000       0.32677000       0.31286000 </v>
   <v>       0.24995000      -0.32677000       0.31286000 </v>
   <v>      -0.12461000       0.00017000       0.43687000 </v>
   <v>      -0.12461000       0.00017000      -0.06313000 </v>
   <v>       0.00013000      -0.07798000      -0.18754000 </v>
   <v>      -0.25013000      -0.07798000       0.06246000 </v>
   <v>      -0.24987000       0.07798000       0.31246000 </v>
   <v>       0.25013000       0.07798000      -0.18754000 </v>
   <v>       0.49987000       0.07798000       0.06246000 </v>
   <v>      -0.00013000       0.07798000      -0.43754000 </v>
   <v>      -0.49987000      -0.07798000       0.31246000 </v>
   <v>       0.24987000      -0.07798000      -0.43754000 </v>
   <v>      -0.00013000      -0.29519000      -0.18718000 </v>
   <v>      -0.24987000      -0.29519000       0.06281000 </v>
   <v>       0.24987000       0.29519000      -0.18718000 </v>
   <v>      -0.25013000       0.29519000       0.31282000 </v>
   <v>      -0.49987000       0.29519000       0.06281000 </v>
   <v>       0.49987000      -0.29519000       0.31282000 </v>
   <v>       0.00013000       0.29519000      -0.43719000 </v>
   <v>       0.25013000      -0.29519000      -0.43719000 </v>
   <v>      -0.00005000       0.32677000      -0.18714000 </v>
   <v>       0.24995000      -0.32677000      -0.18714000 </v>
   <v>      -0.24995000       0.32677000       0.06286000 </v>
   <v>      -0.25005000      -0.32677000       0.31286000 </v>
   <v>      -0.49995000      -0.32677000       0.06286000 </v>
   <v>       0.49995000       0.32677000       0.31286000 </v>
   <v>       0.00005000      -0.32677000      -0.43714000 </v>
   <v>       0.25005000       0.32677000      -0.43714000 </v>
   <v>       0.12461000      -0.00016000      -0.31313000 </v>
   <v>      -0.24987000       0.07798000      -0.18754000 </v>
   <v>      -0.49987000      -0.07798000      -0.18754000 </v>
   <v>      -0.25013000      -0.07798000      -0.43754000 </v>
   <v>       0.49987000       0.07798000      -0.43754000 </v>
   <v>      -0.37461000      -0.00016000       0.43687000 </v>
   <v>      -0.37461000      -0.00016000      -0.06313000 </v>
   <v>       0.37461000       0.00017000      -0.31313000 </v>
   <v>      -0.25013000       0.29519000      -0.18718000 </v>
   <v>       0.49987000      -0.29519000      -0.18718000 </v>
   <v>      -0.24987000      -0.29519000      -0.43719000 </v>
   <v>      -0.49987000       0.29519000      -0.43719000 </v>
   <v>      -0.25005000      -0.32677000      -0.18714000 </v>
   <v>       0.49995000       0.32677000      -0.18714000 </v>
   <v>      -0.24995000       0.32677000      -0.43714000 </v>
   <v>      -0.49995000      -0.32677000      -0.43714000 </v>
  </varray>
 </structure>
 <varray name="primitive_index" >
  <v type="int" >        1 </v>
  <v type="int" >       46 </v>
  <v type="int" >       43 </v>
  <v type="int" >       45 </v>
  <v type="int" >       44 </v>
  <v type="int" >        2 </v>
  <v type="int" >        3 </v>
  <v type="int" >       10 </v>
  <v type="int" >       11 </v>
  <v type="int" >       17 </v>
  <v type="int" >       12 </v>
  <v type="int" >       27 </v>
  <v type="int" >       26 </v>
  <v type="int" >       32 </v>
  <v type="int" >       29 </v>
  <v type="int" >        5 </v>
  <v type="int" >        9 </v>
  <v type="int" >       53 </v>
  <v type="int" >       47 </v>
  <v type="int" >       48 </v>
  <v type="int" >       52 </v>
  <v type="int" >       42 </v>
  <v type="int" >       54 </v>
  <v type="int" >       49 </v>
  <v type="int" >       51 </v>
  <v type="int" >       25 </v>
  <v type="int" >       15 </v>
  <v type="int" >       20 </v>
  <v type="int" >       16 </v>
  <v type="int" >       14 </v>
  <v type="int" >       13 </v>
  <v type="int" >       18 </v>
  <v type="int" >       19 </v>
  <v type="int" >       40 </v>
  <v type="int" >       37 </v>
  <v type="int" >       30 </v>
  <v type="int" >       33 </v>
  <v type="int" >       31 </v>
  <v type="int" >       28 </v>
  <v type="int" >       35 </v>
  <v type="int" >       34 </v>
  <v type="int" >        6 </v>
  <v type="int" >       56 </v>
  <v type="int" >       57 </v>
  <v type="int" >       55 </v>
  <v type="int" >       50 </v>
  <v type="int" >        4 </v>
  <v type="int" >        8 </v>
  <v type="int" >        7 </v>
  <v type="int" >       24 </v>
  <v type="int" >       21 </v>
  <v type="int" >       23 </v>
  <v type="int" >       22 </v>
  <v type="int" >       41 </v>
  <v type="int" >       36 </v>
  <v type="int" >       38 </v>
  <v type="int" >       39 </v>
 </varray>
 <kpoints>
  <generation param="Gamma">
   <v type="int" name="divisions">       2        2        2 </v>
   <v name="usershift">      0.00000000       0.00000000       0.00000000 </v>
   <v name="genvec1">      0.50000000       0.00000000       0.00000000 </v>
   <v name="genvec2">      0.00000000       0.50000000       0.00000000 </v>
   <v name="genvec3">      0.00000000       0.00000000       0.50000000 </v>
   <v name="shift">      0.00000000       0.00000000       0.00000000 </v>
  </generation>
  <varray name="kpointlist" >
   <v>       0.00000000       0.00000000       0.00000000 </v>
   <v>       0.50000000       0.00000000       0.00000000 </v>
   <v>       0.00000000       0.50000000       0.00000000 </v>
   <v>       0.50000000       0.50000000       0.00000000 </v>
   <v>       0.00000000       0.00000000       0.50000000 </v>
   <v>       0.50000000       0.00000000       0.50000000 </v>
   <v>       0.00000000       0.50000000       0.50000000 </v>
   <v>       0.50000000       0.50000000       0.50000000 </v>
  </varray>
  <varray name="weights" >
   <v>       0.12500000 </v>
   <v>       0.12500000 </v>
   <v>       0.12500000 </v>
   <v>       0.12500000 </v>
   <v>       0.12500000 </v>
   <v>       0.12500000 </v>
   <v>       0.12500000 </v>
   <v>       0.12500000 </v>
  </varray>
  <varray name="tetrahedronlist"  type="int" >
   <v type="int" >        2        1        2        4        5 </v>
   <v type="int" >        2        1        3        4        5 </v>
   <v type="int" >        2        3        4        5        7 </v>
   <v type="int" >        2        2        4        5        6 </v>
   <v type="int" >        2        4        5        6        8 </v>
   <v type="int" >        2        4        5        7        8 </v>
   <v type="int" >        2        1        2        3        6 </v>
   <v type="int" >        2        2        3        4        6 </v>
   <v type="int" >        2        3        4        6        8 </v>
   <v type="int" >        2        1        3        5        6 </v>
   <v type="int" >        2        3        5        6        7 </v>
   <v type="int" >        2        3        6        7        8 </v>
   <v type="int" >        2        2        3        4        7 </v>
   <v type="int" >        2        1        2        3        7 </v>
   <v type="int" >        2        1        2        5        7 </v>
   <v type="int" >        2        2        4        7        8 </v>
   <v type="int" >        2        2        6        7        8 </v>
   <v type="int" >        2        2        5        6        7 </v>
   <v type="int" >        2        1        3        4        8 </v>
   <v type="int" >        2        1        2        4        8 </v>
   <v type="int" >        2        1        2        6        8 </v>
   <v type="int" >        2        1        3        7        8 </v>
   <v type="int" >        2        1        5        7        8 </v>
   <v type="int" >        2        1        5        6        8 </v>
  </varray>
  <i name="volumeweight">      0.02083333 </i>
 </kpoints>
 <parameters>
  <separator name="general" >
   <i type="string" name="SYSTEM">La2O2S</i>
   <i type="logical" name="LCOMPAT"> F  </i>
  </separator>
  <separator name="electronic" >
   <i type="string" name="PREC">normal</i>
   <i name="ENMAX">    600.00000000</i>
   <i name="ENAUG">    900.00000000</i>
   <i name="EDIFF">      0.00000100</i>
   <i type="int" name="IALGO">    38</i>
   <i type="int" name="IWAVPR">    11</i>
   <i type="int" name="NBANDS">   280</i>
   <i name="NELECT">    452.00000000</i>
   <i type="int" name="TURBO">     0</i>
   <i type="int" name="IRESTART">     0</i>
   <i type="int" name="NREBOOT">     0</i>
   <i type="int" name="NMIN">     0</i>
   <i name="EREF">      0.00000000</i>
   <separator name="electronic smearing" >
    <i type="int" name="ISMEAR">    -5</i>
    <i name="SIGMA">      0.20000000</i>
    <i name="KSPACING">      0.50000000</i>
    <i type="logical" name="KGAMMA"> T  </i>
   </separator>
   <separator name="electronic projectors" >
    <i type="logical" name="LREAL"> F  </i>
    <v name="ROPT">      0.00000000      0.00000000      0.00000000      0.00000000      0.00000000</v>
    <i type="int" name="LMAXPAW">  -100</i>
    <i type="int" name="LMAXMIX">     2</i>
    <i type="logical" name="NLSPLINE"> F  </i>
   </separator>
   <separator name="electronic startup" >
    <i type="int" name="ISTART">     0</i>
    <i type="int" name="ICHARG">     2</i>
    <i type="int" name="INIWAV">     1</i>
   </separator>
   <separator name="electronic spin" >
    <i type="int" name="ISPIN">     1</i>
    <i type="logical" name="LNONCOLLINEAR"> F  </i>
    <v name="MAGMOM">      1.00000000      1.00000000      1.00000000      1.00000000      1.00000000      1.00000000      1.00000000      1.00000000      1.00000000      1.00000000      1.00000000      1.00000000      1.00000000      1.00000000      1.00000000      1.00000000      1.00000000      1.00000000      1.00000000      1.00000000
      1.00000000      1.00000000      1.00000000      1.00000000      1.00000000      1.00000000      1.00000000      1.00000000      1.00000000      1.00000000      1.00000000      1.00000000      1.00000000      1.00000000      1.00000000      1.00000000      1.00000000      1.00000000      1.00000000      1.00000000
      1.00000000      1.00000000      1.00000000      1.00000000      1.00000000      1.00000000      1.00000000      1.00000000      1.00000000      1.00000000      1.00000000      1.00000000      1.00000000      1.00000000      1.00000000      1.00000000      1.00000000</v>
    <i name="NUPDOWN">     -1.00000000</i>
    <i type="logical" name="LSORBIT"> F  </i>
    <v name="SAXIS">      0.00000000      0.00000000      1.00000000</v>
    <i type="logical" name="LSPIRAL"> F  </i>
    <v name="QSPIRAL">      0.00000000      0.00000000      0.00000000</v>
    <i type="logical" name="LZEROZ"> F  </i>
   </separator>
   <separator name="electronic exchange-correlation" >
    <i type="logical" name="LASPH"> F  </i>
    <i type="logical" name="LMETAGGA"> F  </i>
   </separator>
   <separator name="electronic convergence" >
    <i type="int" name="NELM">    60</i>
    <i type="int" name="NELMDL">    -5</i>
    <i type="int" name="NELMIN">     4</i>
    <i name="ENINI">    600.00000000</i>
    <separator name="electronic convergence detail" >
     <i type="logical" name="LDIAG"> T  </i>
     <i type="logical" name="LSUBROT"> F  </i>
     <i name="WEIMIN">      0.00100000</i>
     <i name="EBREAK">      0.00000000</i>
     <i name="DEPER">      0.30000000</i>
     <i type="int" name="NRMM">     4</i>
     <i name="TIME">      0.40000000</i>
    </separator>
   </separator>
   <separator name="electronic mixer" >
    <i name="AMIX">      0.40000000</i>
    <i name="BMIX">      1.00000000</i>
    <i name="AMIN">      0.10000000</i>
    <i name="AMIX_MAG">      1.60000000</i>
    <i name="BMIX_MAG">      1.00000000</i>
    <separator name="electronic mixer details" >
     <i type="int" name="IMIX">     4</i>
     <i type="logical" name="MIXFIRST"> F  </i>
     <i type="int" name="MAXMIX">   -45</i>
     <i name="WC">    100.00000000</i>
     <i type="int" name="INIMIX">     1</i>
     <i type="int" name="MIXPRE">     1</i>
     <i type="int" name="MREMOVE">     5</i>
    </separator>
   </separator>
   <separator name="electronic dipolcorrection" >
    <i type="logical" name="LDIPOL"> F  </i>
    <i type="logical" name="LMONO"> F  </i>
    <i type="int" name="IDIPOL">     0</i>
    <i name="EPSILON">      1.00000000</i>
    <v name="DIPOL">   -100.00000000   -100.00000000   -100.00000000</v>
    <i name="EFIELD">      0.00000000</i>
   </separator>
  </separator>
  <separator name="grids" >
   <i type="int" name="NGX">    70</i>
   <i type="int" name="NGY">    60</i>
   <i type="int" name="NGZ">    70</i>
   <i type="int" name="NGXF">   140</i>
   <i type="int" name="NGYF">   120</i>
   <i type="int" name="NGZF">   140</i>
   <i type="logical" name="ADDGRID"> F  </i>
  </separator>
  <separator name="ionic" >
   <i type="int" name="NSW">     1</i>
   <i type="int" name="IBRION">     2</i>
   <i type="int" name="MDALGO">     0</i>
   <i type="int" name="ISIF">     2</i>
   <i name="PSTRESS">      0.00000000</i>
   <i name="EDIFFG">     -0.01000000</i>
   <i type="int" name="NFREE">    10</i>
   <i name="POTIM">      0.50000000</i>
   <i name="SMASS">     -3.00000000</i>
   <i name="SCALEE">      1.00000000</i>
  </separator>
  <separator name="ionic md" >
   <i name="TEBEG">      0.00010000</i>
   <i name="TEEND">      0.00010000</i>
   <i type="int" name="NBLOCK">     1</i>
   <i type="int" name="KBLOCK">     1</i>
   <i type="int" name="NPACO">   256</i>
   <i name="APACO">     16.00000000</i>
  </separator>
  <separator name="symmetry" >
   <i type="int" name="ISYM">     2</i>
   <i name="SYMPREC">      0.00001000</i>
  </separator>
  <separator name="dos" >
   <i type="int" name="LORBIT">     0</i>
   <v name="RWIGS">     -1.00000000     -1.00000000     -1.00000000     -1.00000000     -1.00000000</v>
   <i type="int" name="NEDOS">   301</i>
   <i name="EMIN">     10.00000000</i>
   <i name="EMAX">    -10.00000000</i>
   <i name="EFERMI">      0.00000000</i>
  </separator>
  <separator name="writing" >
   <i type="int" name="NWRITE">     2</i>
   <i type="logical" name="LWAVE"> F  </i>
   <i type="logical" name="LDOWNSAMPLE"> F  </i>
   <i type="logical" name="LCHARG"> F  </i>
   <i type="logical" name="LPARD"> F  </i>
   <i type="logical" name="LVTOT"> F  </i>
   <i type="logical" name="LVHAR"> F  </i>
   <i type="logical" name="LELF"> F  </i>
   <i type="logical" name="LOPTICS"> F  </i>
   <v name="STM">      0.00000000      0.00000000      0.00000000      0.00000000      0.00000000      0.00000000      0.00000000</v>
  </separator>
  <separator name="performance" >
   <i type="int" name="NPAR">    28</i>
   <i type="int" name="NSIM">     4</i>
   <i type="int" name="NBLK">    -1</i>
   <i type="logical" name="LPLANE"> T  </i>
   <i type="logical" name="LSCALAPACK"> T  </i>
   <i type="logical" name="LSCAAWARE"> F  </i>
   <i type="logical" name="LSCALU"> F  </i>
   <i type="logical" name="LASYNC"> F  </i>
   <i type="logical" name="LORBITALREAL"> F  </i>
  </separator>
  <separator name="miscellaneous" >
   <i type="int" name="IDIOT">     3</i>
   <i type="int" name="ISPECIAL">     0</i>
   <i type="logical" name="LMUSIC"> F  </i>
   <v name="POMASS">      7.01000000     24.30500000    208.98000000     32.06600000     16.00000000</v>
   <v name="DARWINR">      0.00000000      0.00000000      0.00000000      0.00000000      0.00000000</v>
   <v name="DARWINV">      1.00000000      1.00000000      1.00000000      1.00000000      1.00000000</v>
   <i type="logical" name="LCORR"> T  </i>
  </separator>
  <i type="logical" name="GGA_COMPAT"> T  </i>
  <i type="logical" name="LBERRY"> F  </i>
  <i type="int" name="ICORELEVEL">     0</i>
  <i type="logical" name="LDAU"> F  </i>
  <i type="int" name="I_CONSTRAINED_M">     0</i>
  <separator name="electronic exchange-correlation" >
   <i type="string" name="GGA">--</i>
   <i type="int" name="VOSKOWN">     0</i>
   <i type="logical" name="LHFCALC"> F  </i>
   <i type="string" name="PRECFOCK"></i>
   <i type="logical" name="LSYMGRAD"> F  </i>
   <i type="logical" name="LHFONE"> F  </i>
   <i type="logical" name="LRHFCALC"> F  </i>
   <i type="logical" name="LTHOMAS"> F  </i>
   <i type="logical" name="LMODELHF"> F  </i>
   <i name="ENCUT4O">     -1.00000000</i>
   <i type="int" name="EXXOEP">     0</i>
   <i type="int" name="FOURORBIT">     0</i>
   <i name="AEXX">      0.00000000</i>
   <i name="HFALPHA">      0.00000000</i>
   <i name="MCALPHA">      0.00000000</i>
   <i name="ALDAX">      1.00000000</i>
   <i name="AGGAX">      1.00000000</i>
   <i name="ALDAC">      1.00000000</i>
   <i name="AGGAC">      1.00000000</i>
   <i type="int" name="NKREDX">     1</i>
   <i type="int" name="NKREDY">     1</i>
   <i type="int" name="NKREDZ">     1</i>
   <i type="logical" name="SHIFTRED"> F  </i>
   <i type="logical" name="ODDONLY"> F  </i>
   <i type="logical" name="EVENONLY"> F  </i>
   <i type="int" name="LMAXFOCK">     0</i>
   <i type="int" name="NMAXFOCKAE">     0</i>
   <i type="logical" name="LFOCKAEDFT"> F  </i>
   <i name="HFSCREEN">      0.00000000</i>
   <i name="HFSCREENC">      0.00000000</i>
   <i type="int" name="NBANDSGWLOW">     0</i>
  </separator>
  <separator name="vdW DFT" >
   <i type="logical" name="LUSE_VDW"> F  </i>
   <i name="Zab_VDW">     -0.84910000</i>
   <i name="PARAM1">      0.12340000</i>
   <i name="PARAM2">      1.00000000</i>
   <i name="PARAM3">      0.00000000</i>
  </separator>
  <separator name="model GW" >
   <i type="int" name="MODEL_GW">     0</i>
   <i name="MODEL_EPS0">     12.59840567</i>
   <i name="MODEL_ALPHA">      1.00000000</i>
  </separator>
  <separator name="linear response parameters" >
   <i type="logical" name="LEPSILON"> F  </i>
   <i type="logical" name="LRPA"> F  </i>
   <i type="logical" name="LNABLA"> F  </i>
   <i type="logical" name="LVEL"> F  </i>
   <i type="int" name="KINTER">     0</i>
   <i name="CSHIFT">      0.10000000</i>
   <i name="OMEGAMAX">     -1.00000000</i>
   <i name="DEG_THRESHOLD">      0.00200000</i>
   <i name="RTIME">     -0.10000000</i>
   <i name="WPLASMAI">      0.00000000</i>
   <v name="DFIELD">      0.00000000      0.00000000      0.00000000</v>
   <v name="WPLASMA">      0.00000000      0.00000000      0.00000000      0.00000000      0.00000000      0.00000000      0.00000000      0.00000000      0.00000000</v>
  </separator>
  <separator name="orbital magnetization" >
   <i type="logical" name="NUCIND"> F  </i>
   <v name="MAGPOS">      0.00000000      0.00000000      0.00000000</v>
   <i type="logical" name="LNICSALL"> T  </i>
   <i type="logical" name="ORBITALMAG"> F  </i>
   <i type="logical" name="LMAGBLOCH"> F  </i>
   <i type="logical" name="LCHIMAG"> F  </i>
   <i type="logical" name="LGAUGE"> T  </i>
   <i type="int" name="MAGATOM">     0</i>
   <v name="MAGDIPOL">      0.00000000      0.00000000      0.00000000</v>
   <v name="AVECCONST">      0.00000000      0.00000000      0.00000000</v>
  </separator>
  <separator name="response functions" >
   <i type="logical" name="LADDER"> F  </i>
   <i type="logical" name="LRPAFORCE"> F  </i>
   <i type="logical" name="LFXC"> F  </i>
   <i type="logical" name="LHARTREE"> T  </i>
   <i type="int" name="IBSE">     0</i>
   <v type="int" name="KPOINT">    -1     0     0     0</v>
   <i type="logical" name="LTCTE"> F  </i>
   <i type="logical" name="LTETE"> F  </i>
   <i type="logical" name="LTRIPLET"> F  </i>
   <i type="logical" name="LFXCEPS"> F  </i>
   <i type="logical" name="LFXHEG"> F  </i>
   <i type="int" name="NATURALO">     2</i>
   <i type="logical" name="L2ORDER"> F  </i>
   <i type="logical" name="LMP2LT"> F  </i>
   <i type="logical" name="LUSEW"> F  </i>
   <i name="ENCUTGW">     -2.00000000</i>
   <i name="ENCUTGWSOFT">     -2.00000000</i>
   <i name="ENCUTLF">     -1.00000000</i>
   <i type="int" name="LMAXMP2">    -1</i>
   <i name="SCISSOR">      0.00000000</i>
   <i type="int" name="NOMEGA">     0</i>
   <i type="int" name="NOMEGAR">     0</i>
   <i type="int" name="NBANDSGW">    -1</i>
   <i type="int" name="NBANDSO">    -1</i>
   <i type="int" name="NBANDSV">    -1</i>
   <i type="int" name="NELM">     1</i>
   <i type="int" name="NELMHF">     1</i>
   <i type="int" name="DIM">     3</i>
   <i type="int" name="ANTIRES">     0</i>
   <i name="OMEGAMAX">    -30.00000000</i>
   <i name="OMEGAMIN">    -30.00000000</i>
   <i name="OMEGATL">   -200.00000000</i>
   <i type="int" name="OMEGAGRID">   140</i>
   <i name="CSHIFT">     -0.10000000</i>
   <i type="logical" name="SELFENERGY"> F  </i>
   <i type="logical" name="LSPECTRAL"> F  </i>
   <i type="logical" name="LSPECTRALGW"> F  </i>
   <i type="logical" name="LSINGLES"> F  </i>
   <i type="logical" name="LFERMIGW"> F  </i>
   <i type="logical" name="ODDONLYGW"> F  </i>
   <i type="logical" name="EVENONLYGW"> F  </i>
   <i type="int" name="NKREDLFX">     1</i>
   <i type="int" name="NKREDLFY">     1</i>
   <i type="int" name="NKREDLFZ">     1</i>
   <i type="int" name="MAXMEM">  2800</i>
   <i type="int" name="TELESCOPE">     0</i>
   <i type="int" name="TAUPAR">     1</i>
   <i type="int" name="OMEGAPAR">    -1</i>
   <i name="LAMBDA">      1.00000000</i>
  </separator>
  <separator name="External order field" >
   <i name="OFIELD_KAPPA">      0.00000000</i>
   <v name="OFIELD_K">      0.00000000      0.00000000      0.00000000</v>
   <i name="OFIELD_Q6_NEAR">      0.00000000</i>
   <i name="OFIELD_Q6_FAR">      0.00000000</i>
   <i name="OFIELD_A">      0.00000000</i>
  </separator>
 </parameters>
 <atominfo>
  <atoms>      57 </atoms>
  <types>       5 </types>
  <array name="atoms" >
   <dimension dim="1">ion</dimension>
   <field type="string">element</field>
   <field type="int">atomtype</field>
   <set>
    <rc><c>Li</c><c>   1</c></rc>
    <rc><c>Li</c><c>   1</c></rc>
    <rc><c>Mg</c><c>   2</c></rc>
    <rc><c>Mg</c><c>   2</c></rc>
    <rc><c>Mg</c><c>   2</c></rc>
    <rc><c>Mg</c><c>   2</c></rc>
    <rc><c>Mg</c><c>   2</c></rc>
    <rc><c>Mg</c><c>   2</c></rc>
    <rc><c>Mg</c><c>   2</c></rc>
    <rc><c>Bi</c><c>   3</c></rc>
    <rc><c>Bi</c><c>   3</c></rc>
    <rc><c>Bi</c><c>   3</c></rc>
    <rc><c>Bi</c><c>   3</c></rc>
    <rc><c>Bi</c><c>   3</c></rc>
    <rc><c>Bi</c><c>   3</c></rc>
    <rc><c>Bi</c><c>   3</c></rc>
    <rc><c>Bi</c><c>   3</c></rc>
    <rc><c>Bi</c><c>   3</c></rc>
    <rc><c>Bi</c><c>   3</c></rc>
    <rc><c>Bi</c><c>   3</c></rc>
    <rc><c>Bi</c><c>   3</c></rc>
    <rc><c>Bi</c><c>   3</c></rc>
    <rc><c>Bi</c><c>   3</c></rc>
    <rc><c>Bi</c><c>   3</c></rc>
    <rc><c>Bi</c><c>   3</c></rc>
    <rc><c>S </c><c>   4</c></rc>
    <rc><c>S </c><c>   4</c></rc>
    <rc><c>S </c><c>   4</c></rc>
    <rc><c>S </c><c>   4</c></rc>
    <rc><c>S </c><c>   4</c></rc>
    <rc><c>S </c><c>   4</c></rc>
    <rc><c>S </c><c>   4</c></rc>
    <rc><c>S </c><c>   4</c></rc>
    <rc><c>S </c><c>   4</c></rc>
    <rc><c>S </c><c>   4</c></rc>
    <rc><c>S </c><c>   4</c></rc>
    <rc><c>S </c><c>   4</c></rc>
    <rc><c>S </c><c>   4</c></rc>
    <rc><c>S </c><c>   4</c></rc>
    <rc><c>S </c><c>   4</c></rc>
    <rc><c>S </c><c>   4</c></rc>
    <rc><c>O </c><c>   5</c></rc>
    <rc><c>O </c><c>   5</c></rc>
    <rc><c>O </c><c>   5</c></rc>
    <rc><c>O </c><c>   5</c></rc>
    <rc><c>O </c><c>   5</c></rc>
    <rc><c>O </c><c>   5</c></rc>
    <rc><c>O </c><c>   5</c></rc>
    <rc><c>O </c><c>   5</c></rc>
    <rc><c>O </c><c>   5</c></rc>
    <rc><c>O </c><c>   5</c></rc>
    <rc><c>O </c><c>   5</c></rc>
    <rc><c>O </c><c>   5</c></rc>
    <rc><c>O </c><c>   5</c></rc>
    <rc><c>O </c><c>   5</c></rc>
    <rc><c>O </c><c>   5</c></rc>
    <rc><c>O </c><c>   5</c></rc>
   </set>
  </array>
  <array name="atomtypes" >
   <dimension dim="1">type</dimension>
   <field type="int">atomspertype</field>
   <field type="string">element</field>
   <field>mass</field>
   <field>valence</field>
   <field type="string">pseudopotential</field>
   <set>
    <rc><c>   2</c><c>Li</c><c>      7.01000000</c><c>      3.00000000</c><c>  PAW_PBE Li_sv 10Sep2004               </c></rc>
    <rc><c>   7</c><c>Mg</c><c>     24.30500000</c><c>      2.00000000</c><c>  PAW_PBE Mg 13Apr2007                  </c></rc>
    <rc><c>  16</c><c>Bi</c><c>    208.98000000</c><c>     15.00000000</c><c>  PAW_PBE Bi_d 06Sep2000                </c></rc>
    <rc><c>  16</c><c>S </c><c>     32.06600000</c><c>      6.00000000</c><c>  PAW_PBE S 06Sep2000                   </c></rc>
    <rc><c>  16</c><c>O </c><c>     16.00000000</c><c>      6.00000000</c><c>  PAW_PBE O 08Apr2002                   </c></rc>
   </set>
  </array>
 </atominfo>
 <structure name="initialpos" >
  <crystal>
   <varray name="basis" >
    <v>      11.17850000       0.00000000       0.00000000 </v>
    <v>       0.00000000       9.57460000       0.00000000 </v>
    <v>       0.00000000       0.00000000      11.18240000 </v>
   </varray>
   <i name="volume">   1196.84853820 </i>
   <varray name="rec_basis" >
    <v>       0.08945744       0.00000000       0.00000000 </v>
    <v>       0.00000000       0.10444301       0.00000000 </v>
    <v>       0.00000000       0.00000000       0.08942624 </v>
   </varray>
  </crystal>
  <varray name="positions" >
   <v>       0.12461000       0.99984000       0.18687000 </v>
   <v>       0.87461000       0.00017000       0.18687000 </v>
   <v>       0.37461000       0.00017000       0.18687000 </v>
   <v>       0.62539000       0.99984000       0.43687000 </v>
   <v>       0.87539000       0.00017000       0.43687000 </v>
   <v>       0.12461000       0.99984000       0.68687000 </v>
   <v>       0.37461000       0.00017000       0.68687000 </v>
   <v>       0.62539000       0.99984000       0.93687000 </v>
   <v>       0.87539000       0.00017000       0.93687000 </v>
   <v>       0.00013000       0.29519000       0.06281000 </v>
   <v>       0.25013000       0.70481000       0.06281000 </v>
   <v>       0.24987000       0.29519000       0.31282000 </v>
   <v>       0.49987000       0.70481000       0.31282000 </v>
   <v>       0.50013000       0.29519000       0.06281000 </v>
   <v>       0.75013000       0.70481000       0.06281000 </v>
   <v>       0.74987000       0.29519000       0.31282000 </v>
   <v>       0.99987000       0.70481000       0.31282000 </v>
   <v>       0.00013000       0.29519000       0.56281000 </v>
   <v>       0.25013000       0.70481000       0.56281000 </v>
   <v>       0.24987000       0.29519000       0.81282000 </v>
   <v>       0.49987000       0.70481000       0.81282000 </v>
   <v>       0.50013000       0.29519000       0.56281000 </v>
   <v>       0.75013000       0.70481000       0.56281000 </v>
   <v>       0.74987000       0.29519000       0.81282000 </v>
   <v>       0.99987000       0.70481000       0.81282000 </v>
   <v>       0.25005000       0.32677000       0.06286000 </v>
   <v>       0.00005000       0.67323000       0.06286000 </v>
   <v>       0.49995000       0.32677000       0.31286000 </v>
   <v>       0.24995000       0.67323000       0.31286000 </v>
   <v>       0.75005000       0.32677000       0.06286000 </v>
   <v>       0.50005000       0.67323000       0.06286000 </v>
   <v>       0.99995000       0.32677000       0.31286000 </v>
   <v>       0.74995000       0.67323000       0.31286000 </v>
   <v>       0.25005000       0.32677000       0.56286000 </v>
   <v>       0.00005000       0.67323000       0.56286000 </v>
   <v>       0.49995000       0.32677000       0.81286000 </v>
   <v>       0.24995000       0.67323000       0.81286000 </v>
   <v>       0.75005000       0.32677000       0.56286000 </v>
   <v>       0.50005000       0.67323000       0.56286000 </v>
   <v>       0.99995000       0.32677000       0.81286000 </v>
   <v>       0.74995000       0.67323000       0.81286000 </v>
   <v>       0.49987000       0.07798000       0.06246000 </v>
   <v>       0.24987000       0.92202000       0.06246000 </v>
   <v>       0.25013000       0.07798000       0.31246000 </v>
   <v>       0.00013000       0.92202000       0.31246000 </v>
   <v>       0.99987000       0.07798000       0.06246000 </v>
   <v>       0.74987000       0.92202000       0.06246000 </v>
   <v>       0.75013000       0.07798000       0.31246000 </v>
   <v>       0.50013000       0.92202000       0.31246000 </v>
   <v>       0.49987000       0.07798000       0.56246000 </v>
   <v>       0.24987000       0.92202000       0.56246000 </v>
   <v>       0.25013000       0.07798000       0.81246000 </v>
   <v>       0.00013000       0.92202000       0.81246000 </v>
   <v>       0.99987000       0.07798000       0.56246000 </v>
   <v>       0.74987000       0.92202000       0.56246000 </v>
   <v>       0.75013000       0.07798000       0.81246000 </v>
   <v>       0.50013000       0.92202000       0.81246000 </v>
  </varray>
 </structure>
 <calculation>
  <scstep>
   <time name="dav">   61.16   61.72</time>
   <time name="total">   61.24   61.81</time>
   <energy>
    <i name="alphaZ">   1047.62774490 </i>
    <i name="ewald"> -29936.14033915 </i>
    <i name="hartreedc"> -12712.42237177 </i>
    <i name="XCdc">   1099.48561524 </i>
    <i name="pawpsdc">  36446.83583027 </i>
    <i name="pawaedc"> -35618.96860492 </i>
    <i name="eentropy">      0.00000000 </i>
    <i name="bandstr">   1946.44502871 </i>
    <i name="atom">  43261.00331033 </i>
    <i name="e_fr_energy">   5533.86621361 </i>
    <i name="e_wo_entrp">   5533.86621361 </i>
    <i name="e_0_energy">   5533.86621361 </i>
   </energy>
  </scstep>
  <scstep>
   <time name="dav">   62.84   62.94</time>
   <time name="total">   62.85   62.95</time>
   <energy>
    <i name="e_fr_energy">    707.13542082 </i>
    <i name="e_wo_entrp">    707.13542082 </i>
    <i name="e_0_energy">    707.13542082 </i>
   </energy>
  </scstep>
  <scstep>
   <time name="dav">   70.81   71.11</time>
   <time name="total">   70.81   71.11</time>
   <energy>
    <i name="e_fr_energy">   -247.49702397 </i>
    <i name="e_wo_entrp">   -247.49702397 </i>
    <i name="e_0_energy">   -247.49702397 </i>
   </energy>
  </scstep>
  <scstep>
   <time name="dav">   73.17   74.02</time>
   <time name="total">   73.18   74.03</time>
   <energy>
    <i name="e_fr_energy">   -327.13965920 </i>
    <i name="e_wo_entrp">   -327.13965920 </i>
    <i name="e_0_energy">   -327.13965920 </i>
   </energy>
  </scstep>
  <scstep>
   <time name="dav">   90.29   90.64</time>
   <time name="total">   91.02   91.37</time>
   <energy>
    <i name="e_fr_energy">   -332.02742517 </i>
    <i name="e_wo_entrp">   -332.02742517 </i>
    <i name="e_0_energy">   -332.02742517 </i>
   </energy>
  </scstep>
  <scstep>
   <time name="dav">   92.07   92.11</time>
   <time name="total">   92.86   92.91</time>
   <energy>
    <i name="e_fr_energy">   -280.05975166 </i>
    <i name="e_wo_entrp">   -280.05975166 </i>
    <i name="e_0_energy">   -280.05975166 </i>
   </energy>
  </scstep>
  <scstep>
   <time name="dav">   65.95   66.16</time>
   <time name="total">   66.74   66.96</time>
   <energy>
    <i name="e_fr_energy">   -281.89136389 </i>
    <i name="e_wo_entrp">   -281.89136389 </i>
    <i name="e_0_energy">   -281.89136389 </i>
   </energy>
  </scstep>
  <scstep>
   <time name="dav">   76.49   76.53</time>
   <time name="total">   77.28   77.32</time>
   <energy>
    <i name="e_fr_energy">   -281.21408134 </i>
    <i name="e_wo_entrp">   -281.21408134 </i>
    <i name="e_0_energy">   -281.21408134 </i>
   </energy>
  </scstep>
  <scstep>
   <time name="dav">   86.44   86.43</time>
   <time name="total">   87.24   87.22</time>
   <energy>
    <i name="e_fr_energy">   -280.85131145 </i>
    <i name="e_wo_entrp">   -280.85131145 </i>
    <i name="e_0_energy">   -280.85131145 </i>
   </energy>
  </scstep>
  <scstep>
   <time name="dav">   74.01   74.14</time>
   <time name="total">   74.80   74.93</time>
   <energy>
    <i name="e_fr_energy">   -280.87065118 </i>
    <i name="e_wo_entrp">   -280.87065118 </i>
    <i name="e_0_energy">   -280.87065118 </i>
   </energy>
  </scstep>
  <scstep>
   <time name="dav">   80.84   80.92</time>
   <time name="total">   81.63   81.74</time>
   <energy>
    <i name="e_fr_energy">   -280.87661600 </i>
    <i name="e_wo_entrp">   -280.87661600 </i>
    <i name="e_0_energy">   -280.87661600 </i>
   </energy>
  </scstep>
  <scstep>
   <time name="dav">   80.88   80.99</time>
   <time name="total">   81.68   81.78</time>
   <energy>
    <i name="e_fr_energy">   -280.87970545 </i>
    <i name="e_wo_entrp">   -280.87970545 </i>
    <i name="e_0_energy">   -280.87970545 </i>
   </energy>
  </scstep>
  <scstep>
   <time name="dav">   72.45   73.05</time>
   <time name="total">   73.25   73.84</time>
   <energy>
    <i name="e_fr_energy">   -280.88048550 </i>
    <i name="e_wo_entrp">   -280.88048550 </i>
    <i name="e_0_energy">   -280.88048550 </i>
   </energy>
  </scstep>
  <scstep>
   <time name="dav">   67.77   68.22</time>
   <time name="total">   68.56   69.01</time>
   <energy>
    <i name="e_fr_energy">   -280.88069097 </i>
    <i name="e_wo_entrp">   -280.88069097 </i>
    <i name="e_0_energy">   -280.88069097 </i>
   </energy>
  </scstep>
  <scstep>
   <time name="dav">   78.99   79.89</time>
   <time name="total">   79.87   80.78</time>
   <energy>
    <i name="e_fr_energy">   -280.88071375 </i>
    <i name="e_wo_entrp">   -280.88071375 </i>
    <i name="e_0_energy">   -280.88071375 </i>
   </energy>
  </scstep>
  <scstep>
   <time name="dav">   67.14   67.41</time>
   <time name="total">   67.93   68.20</time>
   <energy>
    <i name="e_fr_energy">   -280.88072637 </i>
    <i name="e_wo_entrp">   -280.88072637 </i>
    <i name="e_0_energy">   -280.88072637 </i>
   </energy>
  </scstep>
  <scstep>
   <time name="dav">   73.22   73.33</time>
   <time name="total">   73.29   73.40</time>
   <energy>
    <i name="alphaZ">   1047.62774490 </i>
    <i name="ewald"> -29936.14033915 </i>
    <i name="hartreedc"> -12949.88588268 </i>
    <i name="XCdc">   1125.30147201 </i>
    <i name="pawpsdc">  43452.95635471 </i>
    <i name="pawaedc"> -42596.50621304 </i>
    <i name="eentropy">      0.00000000 </i>
    <i name="bandstr">  -3685.23717429 </i>
    <i name="atom">  43261.00331033 </i>
    <i name="e_fr_energy">   -280.88072722 </i>
    <i name="e_wo_entrp">   -280.88072722 </i>
    <i name="e_0_energy">   -280.88072722 </i>
   </energy>
  </scstep>
  <structure>
   <crystal>
    <varray name="basis" >
     <v>      11.17850000       0.00000000       0.00000000 </v>
     <v>       0.00000000       9.57460000       0.00000000 </v>
     <v>       0.00000000       0.00000000      11.18240000 </v>
    </varray>
    <i name="volume">   1196.84853820 </i>
    <varray name="rec_basis" >
     <v>       0.08945744       0.00000000       0.00000000 </v>
     <v>       0.00000000       0.10444301       0.00000000 </v>
     <v>       0.00000000       0.00000000       0.08942624 </v>
    </varray>
   </crystal>
   <varray name="positions" >
    <v>       0.12461000       0.99984000       0.18687000 </v>
    <v>       0.87461000       0.00017000       0.18687000 </v>
    <v>       0.37461000       0.00017000       0.18687000 </v>
    <v>       0.62539000       0.99984000       0.43687000 </v>
    <v>       0.87539000       0.00017000       0.43687000 </v>
    <v>       0.12461000       0.99984000       0.68687000 </v>
    <v>       0.37461000       0.00017000       0.68687000 </v>
    <v>       0.62539000       0.99984000       0.93687000 </v>
    <v>       0.87539000       0.00017000       0.93687000 </v>
    <v>       0.00013000       0.29519000       0.06281000 </v>
    <v>       0.25013000       0.70481000       0.06281000 </v>
    <v>       0.24987000       0.29519000       0.31282000 </v>
    <v>       0.49987000       0.70481000       0.31282000 </v>
    <v>       0.50013000       0.29519000       0.06281000 </v>
    <v>       0.75013000       0.70481000       0.06281000 </v>
    <v>       0.74987000       0.29519000       0.31282000 </v>
    <v>       0.99987000       0.70481000       0.31282000 </v>
    <v>       0.00013000       0.29519000       0.56281000 </v>
    <v>       0.25013000       0.70481000       0.56281000 </v>
    <v>       0.24987000       0.29519000       0.81282000 </v>
    <v>       0.49987000       0.70481000       0.81282000 </v>
    <v>       0.50013000       0.29519000       0.56281000 </v>
    <v>       0.75013000       0.70481000       0.56281000 </v>
    <v>       0.74987000       0.29519000       0.81282000 </v>
    <v>       0.99987000       0.70481000       0.81282000 </v>
    <v>       0.25005000       0.32677000       0.06286000 </v>
    <v>       0.00005000       0.67323000       0.06286000 </v>
    <v>       0.49995000       0.32677000       0.31286000 </v>
    <v>       0.24995000       0.67323000       0.31286000 </v>
    <v>       0.75005000       0.32677000       0.06286000 </v>
    <v>       0.50005000       0.67323000       0.06286000 </v>
    <v>       0.99995000       0.32677000       0.31286000 </v>
    <v>       0.74995000       0.67323000       0.31286000 </v>
    <v>       0.25005000       0.32677000       0.56286000 </v>
    <v>       0.00005000       0.67323000       0.56286000 </v>
    <v>       0.49995000       0.32677000       0.81286000 </v>
    <v>       0.24995000       0.67323000       0.81286000 </v>
    <v>       0.75005000       0.32677000       0.56286000 </v>
    <v>       0.50005000       0.67323000       0.56286000 </v>
    <v>       0.99995000       0.32677000       0.81286000 </v>
    <v>       0.74995000       0.67323000       0.81286000 </v>
    <v>       0.49987000       0.07798000       0.06246000 </v>
    <v>       0.24987000       0.92202000       0.06246000 </v>
    <v>       0.25013000       0.07798000       0.31246000 </v>
    <v>       0.00013000       0.92202000       0.31246000 </v>
    <v>       0.99987000       0.07798000       0.06246000 </v>
    <v>       0.74987000       0.92202000       0.06246000 </v>
    <v>       0.75013000       0.07798000       0.31246000 </v>
    <v>       0.50013000       0.92202000       0.31246000 </v>
    <v>       0.49987000       0.07798000       0.56246000 </v>
    <v>       0.24987000       0.92202000       0.56246000 </v>
    <v>       0.25013000       0.07798000       0.81246000 </v>
    <v>       0.00013000       0.92202000       0.81246000 </v>
    <v>       0.99987000       0.07798000       0.56246000 </v>
    <v>       0.74987000       0.92202000       0.56246000 </v>
    <v>       0.75013000       0.07798000       0.81246000 </v>
    <v>       0.50013000       0.92202000       0.81246000 </v>
   </varray>
  </structure>
  <varray name="forces" >
   <v>       0.06277372       0.00049837       0.00630106 </v>
   <v>       0.02541959      -0.00223756       0.00444068 </v>
   <v>       0.16390965      -0.00383583       0.03133445 </v>
   <v>      -1.50387873      -0.11684988       0.24363935 </v>
   <v>       1.39506069      -0.11926269       0.84642296 </v>
   <v>      -1.07359794       0.00749416       0.03305526 </v>
   <v>       1.12187481      -0.00111646       0.03189619 </v>
   <v>      -1.50415446       0.11779564      -0.18063263 </v>
   <v>       1.39587552       0.10298555      -0.77792128 </v>
   <v>       0.43297495       0.04140907      -0.02624611 </v>
   <v>      -0.07860144       0.98228337      -0.23160372 </v>
   <v>      -0.06119588      -1.00652115       0.21954698 </v>
   <v>      -0.25410224       0.10286445      -0.01737217 </v>
   <v>      -0.25777650      -0.10291239       0.00769864 </v>
   <v>      -0.12120283      -1.05042048       0.25084276 </v>
   <v>      -0.11072622       1.08036980      -0.25871168 </v>
   <v>       0.44890014      -0.03762227       0.01680827 </v>
   <v>       0.13334308      -0.08327227      -0.03078433 </v>
   <v>       0.00216152      -0.05350114      -0.47266293 </v>
   <v>       0.01397620       0.01612007       0.46173368 </v>
   <v>      -0.15239728       0.08323837       0.00855516 </v>
   <v>      -0.15360078      -0.08347181      -0.01784420 </v>
   <v>      -0.00665076      -0.05609189       0.41093066 </v>
   <v>       0.00446732       0.09385104      -0.42415835 </v>
   <v>       0.15715991       0.08377180       0.02177734 </v>
   <v>       0.02126894       0.19118630      -0.03856091 </v>
   <v>      -0.31435074      -0.13773101      -0.02084772 </v>
   <v>       0.26625710       0.10476596       0.01263738 </v>
   <v>       0.02287377      -0.19238590       0.03703584 </v>
   <v>       0.03523063       0.10089849      -0.02879472 </v>
   <v>       0.25711923      -0.10573320      -0.01402427 </v>
   <v>      -0.32014973       0.13548952       0.02014171 </v>
   <v>       0.03467565      -0.10042126       0.02744874 </v>
   <v>      -0.00844428       0.13503214       0.20471256 </v>
   <v>      -0.07355942      -0.10122167      -0.01697136 </v>
   <v>       0.08617750       0.10844774      -0.00066539 </v>
   <v>      -0.00720671      -0.13716359      -0.20766137 </v>
   <v>       0.00516078       0.05849614      -0.21101634 </v>
   <v>       0.07496161      -0.10877600      -0.00009413 </v>
   <v>      -0.08197015       0.10069432       0.01807905 </v>
   <v>       0.00567305      -0.05551265       0.21135734 </v>
   <v>       0.24599385       0.29596441      -0.06623399 </v>
   <v>       0.43705500      -0.83610132       1.53511870 </v>
   <v>       0.43127033       0.84156529      -1.54029626 </v>
   <v>      -1.32209112       0.00425182      -0.13824847 </v>
   <v>      -1.31449966      -0.00692491       0.12926646 </v>
   <v>       0.61920119       0.79773688      -1.46417449 </v>
   <v>       0.60102274      -0.79479737       1.43528089 </v>
   <v>       0.21802342      -0.29438110       0.04285891 </v>
   <v>       0.09964901       0.29360681      -0.03620693 </v>
   <v>      -0.00722239       0.02916724       2.07857933 </v>
   <v>      -0.02401581      -0.02788532      -2.10403047 </v>
   <v>      -0.08655646      -0.29132064       0.01830022 </v>
   <v>      -0.07997068       0.29192937      -0.02938743 </v>
   <v>       0.02091001       0.15390674      -2.17881459 </v>
   <v>       0.00391515      -0.15540852       2.15433320 </v>
   <v>       0.07358614      -0.29294062       0.01383248 </v>
  </varray>
  <varray name="stress" >
   <v>       0.87661853       0.06607717       0.00863852 </v>
   <v>       0.06607720     -13.23371451      -0.39877432 </v>
   <v>       0.00863860      -0.39877421     -15.81784995 </v>
  </varray>
  <energy>
   <i name="e_fr_energy">   -291.67387176 </i>
   <i name="e_wo_entrp">   -291.67387176 </i>
   <i name="e_0_energy">      0.00000000 </i>
  </energy>
  <time name="totalsc"> 1395.72 1402.07</time>
  <eigenvalues>
   <array>
    <dimension dim="1">band</dimension>
    <dimension dim="2">kpoint</dimension>
    <dimension dim="3">spin</dimension>
    <field>eigene</field>
    <field>occ</field>
    <set>
     <set comment="spin 1">
      <set comment="kpoint 1">
       <r>  -40.3135    1.0000 </r>
       <r>  -39.5012    1.0000 </r>
       <r>  -19.0245    1.0000 </r>
       <r>  -19.0180    1.0000 </r>
       <r>  -18.9480    1.0000 </r>
       <r>  -18.9438    1.0000 </r>
       <r>  -18.9409    1.0000 </r>
       <r>  -18.9366    1.0000 </r>
       <r>  -18.8470    1.0000 </r>
       <r>  -18.8415    1.0000 </r>
       <r>  -18.8337    1.0000 </r>
       <r>  -18.8308    1.0000 </r>
       <r>  -18.8281    1.0000 </r>
       <r>  -18.8233    1.0000 </r>
       <r>  -18.8207    1.0000 </r>
       <r>  -18.8152    1.0000 </r>
       <r>  -18.8137    1.0000 </r>
       <r>  -18.8093    1.0000 </r>
       <r>  -18.7318    1.0000 </r>
       <r>  -18.7305    1.0000 </r>
       <r>  -18.7216    1.0000 </r>
       <r>  -18.7203    1.0000 </r>
       <r>  -18.7200    1.0000 </r>
       <r>  -18.7194    1.0000 </r>
       <r>  -18.7183    1.0000 </r>
       <r>  -18.7170    1.0000 </r>
       <r>  -18.7130    1.0000 </r>
       <r>  -18.7127    1.0000 </r>
       <r>  -18.7079    1.0000 </r>
       <r>  -18.7077    1.0000 </r>
       <r>  -18.7013    1.0000 </r>
       <r>  -18.7013    1.0000 </r>
       <r>  -18.6998    1.0000 </r>
       <r>  -18.6991    1.0000 </r>
       <r>  -18.6981    1.0000 </r>
       <r>  -18.6975    1.0000 </r>
       <r>  -18.6929    1.0000 </r>
       <r>  -18.6923    1.0000 </r>
       <r>  -18.6847    1.0000 </r>
       <r>  -18.6838    1.0000 </r>
       <r>  -18.6813    1.0000 </r>
       <r>  -18.6806    1.0000 </r>
       <r>  -18.6754    1.0000 </r>
       <r>  -18.6738    1.0000 </r>
       <r>  -18.6709    1.0000 </r>
       <r>  -18.6662    1.0000 </r>
       <r>  -18.6658    1.0000 </r>
       <r>  -18.6623    1.0000 </r>
       <r>  -18.6581    1.0000 </r>
       <r>  -18.6575    1.0000 </r>
       <r>  -18.6559    1.0000 </r>
       <r>  -18.6533    1.0000 </r>
       <r>  -18.5760    1.0000 </r>
       <r>  -18.5742    1.0000 </r>
       <r>  -18.5678    1.0000 </r>
       <r>  -18.5669    1.0000 </r>
       <r>  -18.5634    1.0000 </r>
       <r>  -18.5616    1.0000 </r>
       <r>  -18.5549    1.0000 </r>
       <r>  -18.5539    1.0000 </r>
       <r>  -18.5475    1.0000 </r>
       <r>  -18.5463    1.0000 </r>
       <r>  -18.5404    1.0000 </r>
       <r>  -18.5396    1.0000 </r>
       <r>  -18.5267    1.0000 </r>
       <r>  -18.5261    1.0000 </r>
       <r>  -18.5248    1.0000 </r>
       <r>  -18.5215    1.0000 </r>
       <r>  -18.5192    1.0000 </r>
       <r>  -18.5163    1.0000 </r>
       <r>  -18.5104    1.0000 </r>
       <r>  -18.5036    1.0000 </r>
       <r>  -18.4885    1.0000 </r>
       <r>  -18.4845    1.0000 </r>
       <r>  -18.4753    1.0000 </r>
       <r>  -18.4713    1.0000 </r>
       <r>  -18.4032    1.0000 </r>
       <r>  -18.3976    1.0000 </r>
       <r>  -18.2844    1.0000 </r>
       <r>  -18.2793    1.0000 </r>
       <r>  -18.2718    1.0000 </r>
       <r>  -18.2667    1.0000 </r>
       <r>  -13.7012    1.0000 </r>
       <r>  -13.6341    1.0000 </r>
       <r>  -13.0941    1.0000 </r>
       <r>  -13.0108    1.0000 </r>
       <r>  -12.9588    1.0000 </r>
       <r>  -12.8661    1.0000 </r>
       <r>  -12.8109    1.0000 </r>
       <r>  -12.8053    1.0000 </r>
       <r>  -12.7682    1.0000 </r>
       <r>  -12.7513    1.0000 </r>
       <r>  -12.7203    1.0000 </r>
       <r>  -12.7154    1.0000 </r>
       <r>  -12.7088    1.0000 </r>
       <r>  -12.6586    1.0000 </r>
       <r>  -12.1415    1.0000 </r>
       <r>  -12.0478    1.0000 </r>
       <r>   -9.4172    1.0000 </r>
       <r>   -9.1202    1.0000 </r>
       <r>   -8.6161    1.0000 </r>
       <r>   -8.5893    1.0000 </r>
       <r>   -8.5658    1.0000 </r>
       <r>   -8.5292    1.0000 </r>
       <r>   -8.3915    1.0000 </r>
       <r>   -8.3708    1.0000 </r>
       <r>   -8.3389    1.0000 </r>
       <r>   -8.3043    1.0000 </r>
       <r>   -8.1117    1.0000 </r>
       <r>   -8.1110    1.0000 </r>
       <r>   -8.0736    1.0000 </r>
       <r>   -8.0710    1.0000 </r>
       <r>   -7.4388    1.0000 </r>
       <r>   -7.4380    1.0000 </r>
       <r>   -6.4751    1.0000 </r>
       <r>   -6.4710    1.0000 </r>
       <r>   -6.4126    1.0000 </r>
       <r>   -6.4116    1.0000 </r>
       <r>   -5.6174    1.0000 </r>
       <r>   -5.5820    1.0000 </r>
       <r>   -5.4536    1.0000 </r>
       <r>   -5.4296    1.0000 </r>
       <r>   -5.4115    1.0000 </r>
       <r>   -5.3322    1.0000 </r>
       <r>   -5.2953    1.0000 </r>
       <r>   -5.2446    1.0000 </r>
       <r>   -5.2160    1.0000 </r>
       <r>   -5.1556    1.0000 </r>
       <r>   -3.8972    1.0000 </r>
       <r>   -3.7547    1.0000 </r>
       <r>   -1.5118    1.0000 </r>
       <r>   -1.4732    1.0000 </r>
       <r>   -1.1544    1.0000 </r>
       <r>   -1.1211    1.0000 </r>
       <r>   -0.6341    1.0000 </r>
       <r>   -0.6057    1.0000 </r>
       <r>   -0.5954    1.0000 </r>
       <r>   -0.5487    1.0000 </r>
       <r>   -0.2739    1.0000 </r>
       <r>   -0.2597    1.0000 </r>
       <r>   -0.2480    1.0000 </r>
       <r>   -0.2118    1.0000 </r>
       <r>   -0.1915    1.0000 </r>
       <r>    0.0046    1.0000 </r>
       <r>    0.2286    1.0000 </r>
       <r>    0.3086    1.0000 </r>
       <r>    0.3390    1.0000 </r>
       <r>    0.4639    1.0000 </r>
       <r>    0.5143    1.0000 </r>
       <r>    0.5410    1.0000 </r>
       <r>    0.5630    1.0000 </r>
       <r>    0.5785    1.0000 </r>
       <r>    0.5939    1.0000 </r>
       <r>    0.6600    1.0000 </r>
       <r>    0.6839    1.0000 </r>
       <r>    0.7495    1.0000 </r>
       <r>    0.7681    1.0000 </r>
       <r>    0.8357    1.0000 </r>
       <r>    0.8384    1.0000 </r>
       <r>    0.8729    1.0000 </r>
       <r>    0.8938    1.0000 </r>
       <r>    0.9660    1.0000 </r>
       <r>    0.9745    1.0000 </r>
       <r>    0.9984    1.0000 </r>
       <r>    1.0413    1.0000 </r>
       <r>    1.0562    1.0000 </r>
       <r>    1.1859    1.0000 </r>
       <r>    1.2053    1.0000 </r>
       <r>    1.2973    1.0000 </r>
       <r>    1.3566    1.0000 </r>
       <r>    1.4211    1.0000 </r>
       <r>    1.4251    1.0000 </r>
       <r>    1.4713    1.0000 </r>
       <r>    1.4846    1.0000 </r>
       <r>    1.5575    1.0000 </r>
       <r>    1.6670    1.0000 </r>
       <r>    1.6846    1.0000 </r>
       <r>    1.6902    1.0000 </r>
       <r>    1.8095    1.0000 </r>
       <r>    1.8680    1.0000 </r>
       <r>    1.8764    1.0000 </r>
       <r>    1.9412    1.0000 </r>
       <r>    1.9622    1.0000 </r>
       <r>    2.1011    1.0000 </r>
       <r>    2.1605    1.0000 </r>
       <r>    2.2320    1.0000 </r>
       <r>    2.2660    1.0000 </r>
       <r>    2.3031    1.0000 </r>
       <r>    2.3404    1.0000 </r>
       <r>    2.4273    1.0000 </r>
       <r>    2.4902    1.0000 </r>
       <r>    2.4928    1.0000 </r>
       <r>    2.5063    1.0000 </r>
       <r>    2.5140    1.0000 </r>
       <r>    2.5489    1.0000 </r>
       <r>    2.5831    1.0000 </r>
       <r>    2.5969    1.0000 </r>
       <r>    2.6388    1.0000 </r>
       <r>    2.6826    1.0000 </r>
       <r>    2.6878    1.0000 </r>
       <r>    2.7841    1.0000 </r>
       <r>    2.8046    1.0000 </r>
       <r>    2.8303    1.0000 </r>
       <r>    2.9035    1.0000 </r>
       <r>    2.9386    1.0000 </r>
       <r>    2.9553    1.0000 </r>
       <r>    2.9570    1.0000 </r>
       <r>    2.9678    1.0000 </r>
       <r>    2.9998    1.0000 </r>
       <r>    3.0077    1.0000 </r>
       <r>    3.0669    1.0000 </r>
       <r>    3.0735    1.0000 </r>
       <r>    3.0824    1.0000 </r>
       <r>    3.0939    1.0000 </r>
       <r>    3.1453    1.0000 </r>
       <r>    3.1712    1.0000 </r>
       <r>    3.1956    1.0000 </r>
       <r>    3.2796    1.0000 </r>
       <r>    3.3517    1.0000 </r>
       <r>    3.3864    1.0000 </r>
       <r>    3.4053    1.0000 </r>
       <r>    3.4742    1.0000 </r>
       <r>    4.1103    1.0000 </r>
       <r>    4.1183    1.0000 </r>
       <r>    4.1276    1.0000 </r>
       <r>    4.1443    1.0000 </r>
       <r>    4.9948    0.0000 </r>
       <r>    4.9970    0.0000 </r>
       <r>    5.0315    0.0000 </r>
       <r>    5.0357    0.0000 </r>
       <r>    5.6808    0.0000 </r>
       <r>    5.6971    0.0000 </r>
       <r>    5.7267    0.0000 </r>
       <r>    5.7274    0.0000 </r>
       <r>    6.0323    0.0000 </r>
       <r>    6.0418    0.0000 </r>
       <r>    6.0587    0.0000 </r>
       <r>    6.1035    0.0000 </r>
       <r>    6.1434    0.0000 </r>
       <r>    6.1560    0.0000 </r>
       <r>    6.1774    0.0000 </r>
       <r>    6.1933    0.0000 </r>
       <r>    6.9945    0.0000 </r>
       <r>    7.0769    0.0000 </r>
       <r>    7.1429    0.0000 </r>
       <r>    7.1791    0.0000 </r>
       <r>    7.7070    0.0000 </r>
       <r>    7.7123    0.0000 </r>
       <r>    7.8465    0.0000 </r>
       <r>    7.8473    0.0000 </r>
       <r>    7.8579    0.0000 </r>
       <r>    7.9050    0.0000 </r>
       <r>    7.9313    0.0000 </r>
       <r>    8.0304    0.0000 </r>
       <r>    8.1950    0.0000 </r>
       <r>    8.4163    0.0000 </r>
       <r>    8.5713    0.0000 </r>
       <r>    8.7009    0.0000 </r>
       <r>    8.7201    0.0000 </r>
       <r>    8.7686    0.0000 </r>
       <r>    8.8195    0.0000 </r>
       <r>    8.8559    0.0000 </r>
       <r>    8.9312    0.0000 </r>
       <r>    8.9551    0.0000 </r>
       <r>    8.9621    0.0000 </r>
       <r>    9.0210    0.0000 </r>
       <r>    9.0401    0.0000 </r>
       <r>    9.0841    0.0000 </r>
       <r>    9.1223    0.0000 </r>
       <r>    9.2121    0.0000 </r>
       <r>    9.3246    0.0000 </r>
       <r>    9.4387    0.0000 </r>
       <r>    9.4391    0.0000 </r>
       <r>    9.5206    0.0000 </r>
       <r>    9.5655    0.0000 </r>
       <r>    9.5888    0.0000 </r>
       <r>    9.6096    0.0000 </r>
       <r>    9.6212    0.0000 </r>
       <r>    9.8071    0.0000 </r>
       <r>    9.9684    0.0000 </r>
      </set>
      <set comment="kpoint 2">
       <r>  -40.3135    1.0000 </r>
       <r>  -39.5012    1.0000 </r>
       <r>  -19.0245    1.0000 </r>
       <r>  -19.0180    1.0000 </r>
       <r>  -18.9480    1.0000 </r>
       <r>  -18.9438    1.0000 </r>
       <r>  -18.9409    1.0000 </r>
       <r>  -18.9366    1.0000 </r>
       <r>  -18.8470    1.0000 </r>
       <r>  -18.8415    1.0000 </r>
       <r>  -18.8337    1.0000 </r>
       <r>  -18.8308    1.0000 </r>
       <r>  -18.8281    1.0000 </r>
       <r>  -18.8232    1.0000 </r>
       <r>  -18.8206    1.0000 </r>
       <r>  -18.8152    1.0000 </r>
       <r>  -18.8136    1.0000 </r>
       <r>  -18.8093    1.0000 </r>
       <r>  -18.7320    1.0000 </r>
       <r>  -18.7308    1.0000 </r>
       <r>  -18.7220    1.0000 </r>
       <r>  -18.7207    1.0000 </r>
       <r>  -18.7200    1.0000 </r>
       <r>  -18.7194    1.0000 </r>
       <r>  -18.7182    1.0000 </r>
       <r>  -18.7169    1.0000 </r>
       <r>  -18.7134    1.0000 </r>
       <r>  -18.7130    1.0000 </r>
       <r>  -18.7079    1.0000 </r>
       <r>  -18.7077    1.0000 </r>
       <r>  -18.7009    1.0000 </r>
       <r>  -18.7007    1.0000 </r>
       <r>  -18.6998    1.0000 </r>
       <r>  -18.6991    1.0000 </r>
       <r>  -18.6983    1.0000 </r>
       <r>  -18.6977    1.0000 </r>
       <r>  -18.6923    1.0000 </r>
       <r>  -18.6917    1.0000 </r>
       <r>  -18.6846    1.0000 </r>
       <r>  -18.6838    1.0000 </r>
       <r>  -18.6812    1.0000 </r>
       <r>  -18.6805    1.0000 </r>
       <r>  -18.6755    1.0000 </r>
       <r>  -18.6738    1.0000 </r>
       <r>  -18.6709    1.0000 </r>
       <r>  -18.6662    1.0000 </r>
       <r>  -18.6658    1.0000 </r>
       <r>  -18.6623    1.0000 </r>
       <r>  -18.6581    1.0000 </r>
       <r>  -18.6579    1.0000 </r>
       <r>  -18.6559    1.0000 </r>
       <r>  -18.6536    1.0000 </r>
       <r>  -18.5760    1.0000 </r>
       <r>  -18.5742    1.0000 </r>
       <r>  -18.5678    1.0000 </r>
       <r>  -18.5669    1.0000 </r>
       <r>  -18.5634    1.0000 </r>
       <r>  -18.5616    1.0000 </r>
       <r>  -18.5549    1.0000 </r>
       <r>  -18.5539    1.0000 </r>
       <r>  -18.5475    1.0000 </r>
       <r>  -18.5463    1.0000 </r>
       <r>  -18.5404    1.0000 </r>
       <r>  -18.5396    1.0000 </r>
       <r>  -18.5267    1.0000 </r>
       <r>  -18.5261    1.0000 </r>
       <r>  -18.5248    1.0000 </r>
       <r>  -18.5215    1.0000 </r>
       <r>  -18.5192    1.0000 </r>
       <r>  -18.5163    1.0000 </r>
       <r>  -18.5104    1.0000 </r>
       <r>  -18.5036    1.0000 </r>
       <r>  -18.4885    1.0000 </r>
       <r>  -18.4845    1.0000 </r>
       <r>  -18.4753    1.0000 </r>
       <r>  -18.4713    1.0000 </r>
       <r>  -18.4032    1.0000 </r>
       <r>  -18.3976    1.0000 </r>
       <r>  -18.2844    1.0000 </r>
       <r>  -18.2793    1.0000 </r>
       <r>  -18.2718    1.0000 </r>
       <r>  -18.2667    1.0000 </r>
       <r>  -13.7010    1.0000 </r>
       <r>  -13.6340    1.0000 </r>
       <r>  -13.0834    1.0000 </r>
       <r>  -13.0085    1.0000 </r>
       <r>  -12.9890    1.0000 </r>
       <r>  -12.8477    1.0000 </r>
       <r>  -12.8141    1.0000 </r>
       <r>  -12.7996    1.0000 </r>
       <r>  -12.7640    1.0000 </r>
       <r>  -12.7548    1.0000 </r>
       <r>  -12.7225    1.0000 </r>
       <r>  -12.7180    1.0000 </r>
       <r>  -12.7076    1.0000 </r>
       <r>  -12.6597    1.0000 </r>
       <r>  -12.1415    1.0000 </r>
       <r>  -12.0478    1.0000 </r>
       <r>   -9.2709    1.0000 </r>
       <r>   -9.1135    1.0000 </r>
       <r>   -8.9939    1.0000 </r>
       <r>   -8.8335    1.0000 </r>
       <r>   -8.4892    1.0000 </r>
       <r>   -8.4700    1.0000 </r>
       <r>   -8.3517    1.0000 </r>
       <r>   -8.3374    1.0000 </r>
       <r>   -8.2895    1.0000 </r>
       <r>   -8.2714    1.0000 </r>
       <r>   -8.1450    1.0000 </r>
       <r>   -8.1317    1.0000 </r>
       <r>   -7.8341    1.0000 </r>
       <r>   -7.7213    1.0000 </r>
       <r>   -7.7165    1.0000 </r>
       <r>   -7.6028    1.0000 </r>
       <r>   -6.1176    1.0000 </r>
       <r>   -6.1066    1.0000 </r>
       <r>   -5.9201    1.0000 </r>
       <r>   -5.9135    1.0000 </r>
       <r>   -5.8784    1.0000 </r>
       <r>   -5.8659    1.0000 </r>
       <r>   -5.8289    1.0000 </r>
       <r>   -5.7593    1.0000 </r>
       <r>   -5.7544    1.0000 </r>
       <r>   -5.7433    1.0000 </r>
       <r>   -5.6132    1.0000 </r>
       <r>   -5.5394    1.0000 </r>
       <r>   -4.5940    1.0000 </r>
       <r>   -4.4405    1.0000 </r>
       <r>   -4.4339    1.0000 </r>
       <r>   -4.2690    1.0000 </r>
       <r>   -1.3492    1.0000 </r>
       <r>   -1.1569    1.0000 </r>
       <r>   -0.9800    1.0000 </r>
       <r>   -0.8046    1.0000 </r>
       <r>   -0.5259    1.0000 </r>
       <r>   -0.3881    1.0000 </r>
       <r>   -0.2751    1.0000 </r>
       <r>   -0.1715    1.0000 </r>
       <r>   -0.0655    1.0000 </r>
       <r>   -0.0078    1.0000 </r>
       <r>    0.0424    1.0000 </r>
       <r>    0.0742    1.0000 </r>
       <r>    0.1091    1.0000 </r>
       <r>    0.1622    1.0000 </r>
       <r>    0.2738    1.0000 </r>
       <r>    0.3064    1.0000 </r>
       <r>    0.3746    1.0000 </r>
       <r>    0.3822    1.0000 </r>
       <r>    0.4480    1.0000 </r>
       <r>    0.4793    1.0000 </r>
       <r>    0.5131    1.0000 </r>
       <r>    0.5249    1.0000 </r>
       <r>    0.5452    1.0000 </r>
       <r>    0.5650    1.0000 </r>
       <r>    0.5688    1.0000 </r>
       <r>    0.6192    1.0000 </r>
       <r>    0.6612    1.0000 </r>
       <r>    0.8975    1.0000 </r>
       <r>    0.9051    1.0000 </r>
       <r>    0.9860    1.0000 </r>
       <r>    1.0149    1.0000 </r>
       <r>    1.0367    1.0000 </r>
       <r>    1.0448    1.0000 </r>
       <r>    1.1080    1.0000 </r>
       <r>    1.1123    1.0000 </r>
       <r>    1.1410    1.0000 </r>
       <r>    1.1764    1.0000 </r>
       <r>    1.1781    1.0000 </r>
       <r>    1.1883    1.0000 </r>
       <r>    1.2650    1.0000 </r>
       <r>    1.3085    1.0000 </r>
       <r>    1.3864    1.0000 </r>
       <r>    1.4165    1.0000 </r>
       <r>    1.4299    1.0000 </r>
       <r>    1.5234    1.0000 </r>
       <r>    1.5536    1.0000 </r>
       <r>    1.5606    1.0000 </r>
       <r>    1.6804    1.0000 </r>
       <r>    1.7038    1.0000 </r>
       <r>    1.7203    1.0000 </r>
       <r>    1.7661    1.0000 </r>
       <r>    1.8269    1.0000 </r>
       <r>    1.9212    1.0000 </r>
       <r>    1.9438    1.0000 </r>
       <r>    1.9964    1.0000 </r>
       <r>    2.0063    1.0000 </r>
       <r>    2.0708    1.0000 </r>
       <r>    2.1544    1.0000 </r>
       <r>    2.1639    1.0000 </r>
       <r>    2.1770    1.0000 </r>
       <r>    2.2144    1.0000 </r>
       <r>    2.2764    1.0000 </r>
       <r>    2.2901    1.0000 </r>
       <r>    2.3323    1.0000 </r>
       <r>    2.4473    1.0000 </r>
       <r>    2.4549    1.0000 </r>
       <r>    2.4749    1.0000 </r>
       <r>    2.4930    1.0000 </r>
       <r>    2.5294    1.0000 </r>
       <r>    2.6011    1.0000 </r>
       <r>    2.6105    1.0000 </r>
       <r>    2.6630    1.0000 </r>
       <r>    2.6931    1.0000 </r>
       <r>    2.7469    1.0000 </r>
       <r>    2.7921    1.0000 </r>
       <r>    2.8217    1.0000 </r>
       <r>    2.8762    1.0000 </r>
       <r>    2.8951    1.0000 </r>
       <r>    2.9163    1.0000 </r>
       <r>    2.9452    1.0000 </r>
       <r>    2.9574    1.0000 </r>
       <r>    3.0302    1.0000 </r>
       <r>    3.0342    1.0000 </r>
       <r>    3.1650    1.0000 </r>
       <r>    3.1739    1.0000 </r>
       <r>    3.2177    1.0000 </r>
       <r>    3.2977    1.0000 </r>
       <r>    3.3182    1.0000 </r>
       <r>    3.3379    1.0000 </r>
       <r>    3.4083    1.0000 </r>
       <r>    3.4240    1.0000 </r>
       <r>    3.4775    1.0000 </r>
       <r>    3.4916    1.0000 </r>
       <r>    3.5159    1.0000 </r>
       <r>    3.5895    1.0000 </r>
       <r>    3.6730    1.0000 </r>
       <r>    5.4792    0.0000 </r>
       <r>    5.4841    0.0000 </r>
       <r>    5.6288    0.0000 </r>
       <r>    5.6398    0.0000 </r>
       <r>    5.6565    0.0000 </r>
       <r>    5.6966    0.0000 </r>
       <r>    5.7943    0.0000 </r>
       <r>    5.8409    0.0000 </r>
       <r>    7.0591    0.0000 </r>
       <r>    7.1397    0.0000 </r>
       <r>    7.1750    0.0000 </r>
       <r>    7.2567    0.0000 </r>
       <r>    7.3021    0.0000 </r>
       <r>    7.3136    0.0000 </r>
       <r>    7.3305    0.0000 </r>
       <r>    7.4121    0.0000 </r>
       <r>    7.4187    0.0000 </r>
       <r>    7.4433    0.0000 </r>
       <r>    7.4894    0.0000 </r>
       <r>    7.5474    0.0000 </r>
       <r>    7.7138    0.0000 </r>
       <r>    7.7470    0.0000 </r>
       <r>    7.7609    0.0000 </r>
       <r>    7.7676    0.0000 </r>
       <r>    7.7907    0.0000 </r>
       <r>    7.8109    0.0000 </r>
       <r>    7.8252    0.0000 </r>
       <r>    7.8810    0.0000 </r>
       <r>    7.8875    0.0000 </r>
       <r>    7.8996    0.0000 </r>
       <r>    7.9216    0.0000 </r>
       <r>    7.9829    0.0000 </r>
       <r>    7.9860    0.0000 </r>
       <r>    8.1372    0.0000 </r>
       <r>    8.3373    0.0000 </r>
       <r>    8.3444    0.0000 </r>
       <r>    8.5501    0.0000 </r>
       <r>    8.6014    0.0000 </r>
       <r>    8.6737    0.0000 </r>
       <r>    8.6944    0.0000 </r>
       <r>    8.7085    0.0000 </r>
       <r>    8.7705    0.0000 </r>
       <r>    8.8376    0.0000 </r>
       <r>    8.8602    0.0000 </r>
       <r>    8.9834    0.0000 </r>
       <r>    9.1934    0.0000 </r>
       <r>    9.2624    0.0000 </r>
       <r>    9.2861    0.0000 </r>
       <r>    9.4839    0.0000 </r>
       <r>    9.5055    0.0000 </r>
       <r>    9.6081    0.0000 </r>
       <r>   10.1343    0.0000 </r>
       <r>   10.1954    0.0000 </r>
       <r>   10.3973    0.0000 </r>
      </set>
      <set comment="kpoint 3">
       <r>  -40.3135    1.0000 </r>
       <r>  -39.5012    1.0000 </r>
       <r>  -19.0246    1.0000 </r>
       <r>  -19.0179    1.0000 </r>
       <r>  -18.9480    1.0000 </r>
       <r>  -18.9438    1.0000 </r>
       <r>  -18.9409    1.0000 </r>
       <r>  -18.9366    1.0000 </r>
       <r>  -18.8470    1.0000 </r>
       <r>  -18.8415    1.0000 </r>
       <r>  -18.8337    1.0000 </r>
       <r>  -18.8308    1.0000 </r>
       <r>  -18.8281    1.0000 </r>
       <r>  -18.8232    1.0000 </r>
       <r>  -18.8207    1.0000 </r>
       <r>  -18.8152    1.0000 </r>
       <r>  -18.8137    1.0000 </r>
       <r>  -18.8094    1.0000 </r>
       <r>  -18.7318    1.0000 </r>
       <r>  -18.7305    1.0000 </r>
       <r>  -18.7217    1.0000 </r>
       <r>  -18.7204    1.0000 </r>
       <r>  -18.7200    1.0000 </r>
       <r>  -18.7194    1.0000 </r>
       <r>  -18.7182    1.0000 </r>
       <r>  -18.7171    1.0000 </r>
       <r>  -18.7130    1.0000 </r>
       <r>  -18.7127    1.0000 </r>
       <r>  -18.7079    1.0000 </r>
       <r>  -18.7077    1.0000 </r>
       <r>  -18.7016    1.0000 </r>
       <r>  -18.7011    1.0000 </r>
       <r>  -18.6997    1.0000 </r>
       <r>  -18.6991    1.0000 </r>
       <r>  -18.6982    1.0000 </r>
       <r>  -18.6974    1.0000 </r>
       <r>  -18.6929    1.0000 </r>
       <r>  -18.6924    1.0000 </r>
       <r>  -18.6850    1.0000 </r>
       <r>  -18.6835    1.0000 </r>
       <r>  -18.6811    1.0000 </r>
       <r>  -18.6806    1.0000 </r>
       <r>  -18.6754    1.0000 </r>
       <r>  -18.6738    1.0000 </r>
       <r>  -18.6709    1.0000 </r>
       <r>  -18.6662    1.0000 </r>
       <r>  -18.6658    1.0000 </r>
       <r>  -18.6624    1.0000 </r>
       <r>  -18.6581    1.0000 </r>
       <r>  -18.6575    1.0000 </r>
       <r>  -18.6558    1.0000 </r>
       <r>  -18.6533    1.0000 </r>
       <r>  -18.5760    1.0000 </r>
       <r>  -18.5742    1.0000 </r>
       <r>  -18.5678    1.0000 </r>
       <r>  -18.5669    1.0000 </r>
       <r>  -18.5634    1.0000 </r>
       <r>  -18.5616    1.0000 </r>
       <r>  -18.5549    1.0000 </r>
       <r>  -18.5540    1.0000 </r>
       <r>  -18.5475    1.0000 </r>
       <r>  -18.5464    1.0000 </r>
       <r>  -18.5404    1.0000 </r>
       <r>  -18.5396    1.0000 </r>
       <r>  -18.5267    1.0000 </r>
       <r>  -18.5261    1.0000 </r>
       <r>  -18.5248    1.0000 </r>
       <r>  -18.5215    1.0000 </r>
       <r>  -18.5192    1.0000 </r>
       <r>  -18.5163    1.0000 </r>
       <r>  -18.5104    1.0000 </r>
       <r>  -18.5036    1.0000 </r>
       <r>  -18.4885    1.0000 </r>
       <r>  -18.4845    1.0000 </r>
       <r>  -18.4753    1.0000 </r>
       <r>  -18.4713    1.0000 </r>
       <r>  -18.4032    1.0000 </r>
       <r>  -18.3976    1.0000 </r>
       <r>  -18.2844    1.0000 </r>
       <r>  -18.2793    1.0000 </r>
       <r>  -18.2718    1.0000 </r>
       <r>  -18.2667    1.0000 </r>
       <r>  -13.7009    1.0000 </r>
       <r>  -13.6342    1.0000 </r>
       <r>  -13.0932    1.0000 </r>
       <r>  -13.0112    1.0000 </r>
       <r>  -12.9581    1.0000 </r>
       <r>  -12.8656    1.0000 </r>
       <r>  -12.8108    1.0000 </r>
       <r>  -12.8049    1.0000 </r>
       <r>  -12.7684    1.0000 </r>
       <r>  -12.7512    1.0000 </r>
       <r>  -12.7207    1.0000 </r>
       <r>  -12.7157    1.0000 </r>
       <r>  -12.7104    1.0000 </r>
       <r>  -12.6597    1.0000 </r>
       <r>  -12.1408    1.0000 </r>
       <r>  -12.0493    1.0000 </r>
       <r>   -9.4051    1.0000 </r>
       <r>   -9.1292    1.0000 </r>
       <r>   -8.6334    1.0000 </r>
       <r>   -8.6067    1.0000 </r>
       <r>   -8.5830    1.0000 </r>
       <r>   -8.5452    1.0000 </r>
       <r>   -8.3719    1.0000 </r>
       <r>   -8.3516    1.0000 </r>
       <r>   -8.3191    1.0000 </r>
       <r>   -8.2866    1.0000 </r>
       <r>   -8.1157    1.0000 </r>
       <r>   -8.1149    1.0000 </r>
       <r>   -8.0761    1.0000 </r>
       <r>   -8.0747    1.0000 </r>
       <r>   -7.4418    1.0000 </r>
       <r>   -7.4405    1.0000 </r>
       <r>   -6.4662    1.0000 </r>
       <r>   -6.4602    1.0000 </r>
       <r>   -6.4029    1.0000 </r>
       <r>   -6.4017    1.0000 </r>
       <r>   -5.6408    1.0000 </r>
       <r>   -5.5631    1.0000 </r>
       <r>   -5.4911    1.0000 </r>
       <r>   -5.4692    1.0000 </r>
       <r>   -5.4602    1.0000 </r>
       <r>   -5.3579    1.0000 </r>
       <r>   -5.2400    1.0000 </r>
       <r>   -5.1860    1.0000 </r>
       <r>   -5.1700    1.0000 </r>
       <r>   -5.1028    1.0000 </r>
       <r>   -3.9782    1.0000 </r>
       <r>   -3.6606    1.0000 </r>
       <r>   -1.4142    1.0000 </r>
       <r>   -1.3849    1.0000 </r>
       <r>   -1.2866    1.0000 </r>
       <r>   -1.2408    1.0000 </r>
       <r>   -0.5083    1.0000 </r>
       <r>   -0.5005    1.0000 </r>
       <r>   -0.4906    1.0000 </r>
       <r>   -0.4690    1.0000 </r>
       <r>   -0.4499    1.0000 </r>
       <r>   -0.4123    1.0000 </r>
       <r>   -0.4002    1.0000 </r>
       <r>   -0.3856    1.0000 </r>
       <r>   -0.3272    1.0000 </r>
       <r>   -0.0396    1.0000 </r>
       <r>   -0.0316    1.0000 </r>
       <r>    0.1407    1.0000 </r>
       <r>    0.1796    1.0000 </r>
       <r>    0.2193    1.0000 </r>
       <r>    0.2602    1.0000 </r>
       <r>    0.2959    1.0000 </r>
       <r>    0.3683    1.0000 </r>
       <r>    0.3738    1.0000 </r>
       <r>    0.5318    1.0000 </r>
       <r>    0.6297    1.0000 </r>
       <r>    0.6876    1.0000 </r>
       <r>    0.6953    1.0000 </r>
       <r>    0.7170    1.0000 </r>
       <r>    0.7294    1.0000 </r>
       <r>    0.9051    1.0000 </r>
       <r>    0.9458    1.0000 </r>
       <r>    1.0344    1.0000 </r>
       <r>    1.1080    1.0000 </r>
       <r>    1.1206    1.0000 </r>
       <r>    1.1889    1.0000 </r>
       <r>    1.2055    1.0000 </r>
       <r>    1.2673    1.0000 </r>
       <r>    1.2869    1.0000 </r>
       <r>    1.3481    1.0000 </r>
       <r>    1.3799    1.0000 </r>
       <r>    1.3851    1.0000 </r>
       <r>    1.4998    1.0000 </r>
       <r>    1.5088    1.0000 </r>
       <r>    1.5879    1.0000 </r>
       <r>    1.6166    1.0000 </r>
       <r>    1.6419    1.0000 </r>
       <r>    1.7572    1.0000 </r>
       <r>    1.8273    1.0000 </r>
       <r>    1.8318    1.0000 </r>
       <r>    1.9142    1.0000 </r>
       <r>    1.9498    1.0000 </r>
       <r>    1.9690    1.0000 </r>
       <r>    2.0606    1.0000 </r>
       <r>    2.0842    1.0000 </r>
       <r>    2.1640    1.0000 </r>
       <r>    2.2181    1.0000 </r>
       <r>    2.2972    1.0000 </r>
       <r>    2.3535    1.0000 </r>
       <r>    2.3994    1.0000 </r>
       <r>    2.4041    1.0000 </r>
       <r>    2.4583    1.0000 </r>
       <r>    2.4900    1.0000 </r>
       <r>    2.5013    1.0000 </r>
       <r>    2.5026    1.0000 </r>
       <r>    2.5113    1.0000 </r>
       <r>    2.5425    1.0000 </r>
       <r>    2.5552    1.0000 </r>
       <r>    2.5570    1.0000 </r>
       <r>    2.5859    1.0000 </r>
       <r>    2.7107    1.0000 </r>
       <r>    2.7415    1.0000 </r>
       <r>    2.7869    1.0000 </r>
       <r>    2.7976    1.0000 </r>
       <r>    2.8164    1.0000 </r>
       <r>    2.8530    1.0000 </r>
       <r>    2.8610    1.0000 </r>
       <r>    2.9005    1.0000 </r>
       <r>    2.9180    1.0000 </r>
       <r>    2.9327    1.0000 </r>
       <r>    2.9412    1.0000 </r>
       <r>    2.9786    1.0000 </r>
       <r>    3.0355    1.0000 </r>
       <r>    3.0716    1.0000 </r>
       <r>    3.1360    1.0000 </r>
       <r>    3.2062    1.0000 </r>
       <r>    3.2492    1.0000 </r>
       <r>    3.2948    1.0000 </r>
       <r>    3.3046    1.0000 </r>
       <r>    3.3479    1.0000 </r>
       <r>    3.3671    1.0000 </r>
       <r>    3.3691    1.0000 </r>
       <r>    3.4290    1.0000 </r>
       <r>    3.5014    1.0000 </r>
       <r>    4.1626    1.0000 </r>
       <r>    4.1660    1.0000 </r>
       <r>    4.1804    1.0000 </r>
       <r>    4.1860    1.0000 </r>
       <r>    5.0679    0.0000 </r>
       <r>    5.0708    0.0000 </r>
       <r>    5.1012    0.0000 </r>
       <r>    5.1060    0.0000 </r>
       <r>    5.6946    0.0000 </r>
       <r>    5.7006    0.0000 </r>
       <r>    5.7327    0.0000 </r>
       <r>    5.7349    0.0000 </r>
       <r>    6.0754    0.0000 </r>
       <r>    6.0872    0.0000 </r>
       <r>    6.1051    0.0000 </r>
       <r>    6.1318    0.0000 </r>
       <r>    6.1638    0.0000 </r>
       <r>    6.1788    0.0000 </r>
       <r>    6.1935    0.0000 </r>
       <r>    6.2246    0.0000 </r>
       <r>    6.5909    0.0000 </r>
       <r>    6.8143    0.0000 </r>
       <r>    6.8924    0.0000 </r>
       <r>    6.9290    0.0000 </r>
       <r>    6.9942    0.0000 </r>
       <r>    7.2010    0.0000 </r>
       <r>    7.2253    0.0000 </r>
       <r>    7.4326    0.0000 </r>
       <r>    7.5461    0.0000 </r>
       <r>    7.7389    0.0000 </r>
       <r>    7.8613    0.0000 </r>
       <r>    7.8911    0.0000 </r>
       <r>    7.9138    0.0000 </r>
       <r>    8.2437    0.0000 </r>
       <r>    8.2939    0.0000 </r>
       <r>    8.3933    0.0000 </r>
       <r>    8.5556    0.0000 </r>
       <r>    8.6503    0.0000 </r>
       <r>    8.7649    0.0000 </r>
       <r>    8.8152    0.0000 </r>
       <r>    8.9447    0.0000 </r>
       <r>    8.9576    0.0000 </r>
       <r>    8.9682    0.0000 </r>
       <r>    9.0041    0.0000 </r>
       <r>    9.0218    0.0000 </r>
       <r>    9.0364    0.0000 </r>
       <r>    9.0481    0.0000 </r>
       <r>    9.1952    0.0000 </r>
       <r>    9.4083    0.0000 </r>
       <r>    9.4132    0.0000 </r>
       <r>    9.6261    0.0000 </r>
       <r>    9.6299    0.0000 </r>
       <r>    9.6579    0.0000 </r>
       <r>    9.7168    0.0000 </r>
       <r>    9.7422    0.0000 </r>
       <r>    9.9366    0.0000 </r>
       <r>    9.9955    0.0000 </r>
       <r>   10.0158    0.0000 </r>
      </set>
      <set comment="kpoint 4">
       <r>  -40.3135    1.0000 </r>
       <r>  -39.5011    1.0000 </r>
       <r>  -19.0245    1.0000 </r>
       <r>  -19.0179    1.0000 </r>
       <r>  -18.9480    1.0000 </r>
       <r>  -18.9438    1.0000 </r>
       <r>  -18.9409    1.0000 </r>
       <r>  -18.9366    1.0000 </r>
       <r>  -18.8470    1.0000 </r>
       <r>  -18.8415    1.0000 </r>
       <r>  -18.8337    1.0000 </r>
       <r>  -18.8308    1.0000 </r>
       <r>  -18.8281    1.0000 </r>
       <r>  -18.8232    1.0000 </r>
       <r>  -18.8206    1.0000 </r>
       <r>  -18.8152    1.0000 </r>
       <r>  -18.8136    1.0000 </r>
       <r>  -18.8093    1.0000 </r>
       <r>  -18.7320    1.0000 </r>
       <r>  -18.7308    1.0000 </r>
       <r>  -18.7220    1.0000 </r>
       <r>  -18.7207    1.0000 </r>
       <r>  -18.7201    1.0000 </r>
       <r>  -18.7193    1.0000 </r>
       <r>  -18.7181    1.0000 </r>
       <r>  -18.7170    1.0000 </r>
       <r>  -18.7134    1.0000 </r>
       <r>  -18.7131    1.0000 </r>
       <r>  -18.7079    1.0000 </r>
       <r>  -18.7077    1.0000 </r>
       <r>  -18.7011    1.0000 </r>
       <r>  -18.7005    1.0000 </r>
       <r>  -18.6997    1.0000 </r>
       <r>  -18.6992    1.0000 </r>
       <r>  -18.6984    1.0000 </r>
       <r>  -18.6976    1.0000 </r>
       <r>  -18.6923    1.0000 </r>
       <r>  -18.6917    1.0000 </r>
       <r>  -18.6850    1.0000 </r>
       <r>  -18.6835    1.0000 </r>
       <r>  -18.6811    1.0000 </r>
       <r>  -18.6806    1.0000 </r>
       <r>  -18.6754    1.0000 </r>
       <r>  -18.6738    1.0000 </r>
       <r>  -18.6709    1.0000 </r>
       <r>  -18.6662    1.0000 </r>
       <r>  -18.6658    1.0000 </r>
       <r>  -18.6623    1.0000 </r>
       <r>  -18.6581    1.0000 </r>
       <r>  -18.6579    1.0000 </r>
       <r>  -18.6558    1.0000 </r>
       <r>  -18.6536    1.0000 </r>
       <r>  -18.5759    1.0000 </r>
       <r>  -18.5742    1.0000 </r>
       <r>  -18.5678    1.0000 </r>
       <r>  -18.5669    1.0000 </r>
       <r>  -18.5634    1.0000 </r>
       <r>  -18.5616    1.0000 </r>
       <r>  -18.5549    1.0000 </r>
       <r>  -18.5540    1.0000 </r>
       <r>  -18.5475    1.0000 </r>
       <r>  -18.5464    1.0000 </r>
       <r>  -18.5403    1.0000 </r>
       <r>  -18.5396    1.0000 </r>
       <r>  -18.5267    1.0000 </r>
       <r>  -18.5261    1.0000 </r>
       <r>  -18.5248    1.0000 </r>
       <r>  -18.5215    1.0000 </r>
       <r>  -18.5192    1.0000 </r>
       <r>  -18.5163    1.0000 </r>
       <r>  -18.5104    1.0000 </r>
       <r>  -18.5036    1.0000 </r>
       <r>  -18.4885    1.0000 </r>
       <r>  -18.4845    1.0000 </r>
       <r>  -18.4753    1.0000 </r>
       <r>  -18.4713    1.0000 </r>
       <r>  -18.4033    1.0000 </r>
       <r>  -18.3976    1.0000 </r>
       <r>  -18.2844    1.0000 </r>
       <r>  -18.2793    1.0000 </r>
       <r>  -18.2718    1.0000 </r>
       <r>  -18.2667    1.0000 </r>
       <r>  -13.7007    1.0000 </r>
       <r>  -13.6341    1.0000 </r>
       <r>  -13.0828    1.0000 </r>
       <r>  -13.0090    1.0000 </r>
       <r>  -12.9877    1.0000 </r>
       <r>  -12.8473    1.0000 </r>
       <r>  -12.8141    1.0000 </r>
       <r>  -12.7990    1.0000 </r>
       <r>  -12.7643    1.0000 </r>
       <r>  -12.7549    1.0000 </r>
       <r>  -12.7227    1.0000 </r>
       <r>  -12.7183    1.0000 </r>
       <r>  -12.7089    1.0000 </r>
       <r>  -12.6610    1.0000 </r>
       <r>  -12.1408    1.0000 </r>
       <r>  -12.0492    1.0000 </r>
       <r>   -9.2710    1.0000 </r>
       <r>   -9.1123    1.0000 </r>
       <r>   -8.9909    1.0000 </r>
       <r>   -8.8316    1.0000 </r>
       <r>   -8.5093    1.0000 </r>
       <r>   -8.4905    1.0000 </r>
       <r>   -8.3693    1.0000 </r>
       <r>   -8.3568    1.0000 </r>
       <r>   -8.2693    1.0000 </r>
       <r>   -8.2489    1.0000 </r>
       <r>   -8.1254    1.0000 </r>
       <r>   -8.1123    1.0000 </r>
       <r>   -7.8488    1.0000 </r>
       <r>   -7.7302    1.0000 </r>
       <r>   -7.7099    1.0000 </r>
       <r>   -7.5921    1.0000 </r>
       <r>   -6.1478    1.0000 </r>
[...]
       <r>    8.7934    0.0000 </r>
       <r>    8.8007    0.0000 </r>
       <r>    8.8209    0.0000 </r>
       <r>    8.8223    0.0000 </r>
       <r>    8.8332    0.0000 </r>
       <r>    8.8645    0.0000 </r>
       <r>    9.5036    0.0000 </r>
       <r>    9.6477    0.0000 </r>
       <r>    9.7933    0.0000 </r>
       <r>   10.0021    0.0000 </r>
       <r>   10.2578    0.0000 </r>
       <r>   10.2910    0.0000 </r>
      </set>
     </set>
    </set>
   </array>
  </eigenvalues>
  <separator name="orbital magnetization" >
   <v name="MAGDIPOLOUT">      0.00000000      0.00000000      0.00000000</v>
  </separator>
  <dos>
   <i name="efermi">      4.26386704 </i>
   <total>
    <array>
     <dimension dim="1">gridpoints</dimension>
     <dimension dim="2">spin</dimension>
     <field>energy</field>
     <field>total</field>
     <field>integrated</field>
     <set>
      <set comment="spin 1">
       <r>   -42.8504     0.0000     0.0000 </r>
       <r>   -42.6643     0.0000     0.0000 </r>
       <r>   -42.4783     0.0000     0.0000 </r>
       <r>   -42.2922     0.0000     0.0000 </r>
       <r>   -42.1062     0.0000     0.0000 </r>
       <r>   -41.9202     0.0000     0.0000 </r>
       <r>   -41.7341     0.0000     0.0000 </r>
       <r>   -41.5481     0.0000     0.0000 </r>
       <r>   -41.3620     0.0000     0.0000 </r>
       <r>   -41.1760     0.0000     0.0000 </r>
       <r>   -40.9900     0.0000     0.0000 </r>
       <r>   -40.8039     0.0000     0.0000 </r>
       <r>   -40.6179     0.0000     0.0000 </r>
       <r>   -40.4319     0.0000     0.0000 </r>
       <r>   -40.2458     0.0000     2.0000 </r>
       <r>   -40.0598     0.0000     2.0000 </r>
       <r>   -39.8737     0.0000     2.0000 </r>
       <r>   -39.6877     0.0000     2.0000 </r>
       <r>   -39.5017     0.0000     2.0000 </r>
       <r>   -39.3156     0.0000     4.0000 </r>
       <r>   -39.1296     0.0000     4.0000 </r>
       <r>   -38.9435     0.0000     4.0000 </r>
       <r>   -38.7575     0.0000     4.0000 </r>
       <r>   -38.5715     0.0000     4.0000 </r>
       <r>   -38.3854     0.0000     4.0000 </r>
       <r>   -38.1994     0.0000     4.0000 </r>
       <r>   -38.0134     0.0000     4.0000 </r>
       <r>   -37.8273     0.0000     4.0000 </r>
       <r>   -37.6413     0.0000     4.0000 </r>
       <r>   -37.4552     0.0000     4.0000 </r>
       <r>   -37.2692     0.0000     4.0000 </r>
       <r>   -37.0832     0.0000     4.0000 </r>
       <r>   -36.8971     0.0000     4.0000 </r>
       <r>   -36.7111     0.0000     4.0000 </r>
       <r>   -36.5250     0.0000     4.0000 </r>
       <r>   -36.3390     0.0000     4.0000 </r>
       <r>   -36.1530     0.0000     4.0000 </r>
       <r>   -35.9669     0.0000     4.0000 </r>
       <r>   -35.7809     0.0000     4.0000 </r>
       <r>   -35.5949     0.0000     4.0000 </r>
       <r>   -35.4088     0.0000     4.0000 </r>
       <r>   -35.2228     0.0000     4.0000 </r>
       <r>   -35.0367     0.0000     4.0000 </r>
       <r>   -34.8507     0.0000     4.0000 </r>
       <r>   -34.6647     0.0000     4.0000 </r>
       <r>   -34.4786     0.0000     4.0000 </r>
       <r>   -34.2926     0.0000     4.0000 </r>
       <r>   -34.1065     0.0000     4.0000 </r>
       <r>   -33.9205     0.0000     4.0000 </r>
       <r>   -33.7345     0.0000     4.0000 </r>
       <r>   -33.5484     0.0000     4.0000 </r>
       <r>   -33.3624     0.0000     4.0000 </r>
       <r>   -33.1764     0.0000     4.0000 </r>
       <r>   -32.9903     0.0000     4.0000 </r>
       <r>   -32.8043     0.0000     4.0000 </r>
       <r>   -32.6182     0.0000     4.0000 </r>
       <r>   -32.4322     0.0000     4.0000 </r>
       <r>   -32.2462     0.0000     4.0000 </r>
       <r>   -32.0601     0.0000     4.0000 </r>
       <r>   -31.8741     0.0000     4.0000 </r>
       <r>   -31.6880     0.0000     4.0000 </r>
       <r>   -31.5020     0.0000     4.0000 </r>
       <r>   -31.3160     0.0000     4.0000 </r>
       <r>   -31.1299     0.0000     4.0000 </r>
       <r>   -30.9439     0.0000     4.0000 </r>
       <r>   -30.7579     0.0000     4.0000 </r>
       <r>   -30.5718     0.0000     4.0000 </r>
       <r>   -30.3858     0.0000     4.0000 </r>
       <r>   -30.1997     0.0000     4.0000 </r>
       <r>   -30.0137     0.0000     4.0000 </r>
       <r>   -29.8277     0.0000     4.0000 </r>
       <r>   -29.6416     0.0000     4.0000 </r>
       <r>   -29.4556     0.0000     4.0000 </r>
       <r>   -29.2695     0.0000     4.0000 </r>
       <r>   -29.0835     0.0000     4.0000 </r>
       <r>   -28.8975     0.0000     4.0000 </r>
       <r>   -28.7114     0.0000     4.0000 </r>
       <r>   -28.5254     0.0000     4.0000 </r>
       <r>   -28.3394     0.0000     4.0000 </r>
       <r>   -28.1533     0.0000     4.0000 </r>
       <r>   -27.9673     0.0000     4.0000 </r>
       <r>   -27.7812     0.0000     4.0000 </r>
       <r>   -27.5952     0.0000     4.0000 </r>
       <r>   -27.4092     0.0000     4.0000 </r>
       <r>   -27.2231     0.0000     4.0000 </r>
       <r>   -27.0371     0.0000     4.0000 </r>
       <r>   -26.8511     0.0000     4.0000 </r>
       <r>   -26.6650     0.0000     4.0000 </r>
       <r>   -26.4790     0.0000     4.0000 </r>
       <r>   -26.2929     0.0000     4.0000 </r>
       <r>   -26.1069     0.0000     4.0000 </r>
       <r>   -25.9209     0.0000     4.0000 </r>
       <r>   -25.7348     0.0000     4.0000 </r>
       <r>   -25.5488     0.0000     4.0000 </r>
       <r>   -25.3627     0.0000     4.0000 </r>
       <r>   -25.1767     0.0000     4.0000 </r>
       <r>   -24.9907     0.0000     4.0000 </r>
       <r>   -24.8046     0.0000     4.0000 </r>
       <r>   -24.6186     0.0000     4.0000 </r>
       <r>   -24.4326     0.0000     4.0000 </r>
       <r>   -24.2465     0.0000     4.0000 </r>
       <r>   -24.0605     0.0000     4.0000 </r>
       <r>   -23.8744     0.0000     4.0000 </r>
       <r>   -23.6884     0.0000     4.0000 </r>
       <r>   -23.5024     0.0000     4.0000 </r>
       <r>   -23.3163     0.0000     4.0000 </r>
       <r>   -23.1303     0.0000     4.0000 </r>
       <r>   -22.9442     0.0000     4.0000 </r>
       <r>   -22.7582     0.0000     4.0000 </r>
       <r>   -22.5722     0.0000     4.0000 </r>
       <r>   -22.3861     0.0000     4.0000 </r>
       <r>   -22.2001     0.0000     4.0000 </r>
       <r>   -22.0141     0.0000     4.0000 </r>
       <r>   -21.8280     0.0000     4.0000 </r>
       <r>   -21.6420     0.0000     4.0000 </r>
       <r>   -21.4559     0.0000     4.0000 </r>
       <r>   -21.2699     0.0000     4.0000 </r>
       <r>   -21.0839     0.0000     4.0000 </r>
       <r>   -20.8978     0.0000     4.0000 </r>
       <r>   -20.7118     0.0000     4.0000 </r>
       <r>   -20.5257     0.0000     4.0000 </r>
       <r>   -20.3397     0.0000     4.0000 </r>
       <r>   -20.1537     0.0000     4.0000 </r>
       <r>   -19.9676     0.0000     4.0000 </r>
       <r>   -19.7816     0.0000     4.0000 </r>
       <r>   -19.5956     0.0000     4.0000 </r>
       <r>   -19.4095     0.0000     4.0000 </r>
       <r>   -19.2235     0.0000     4.0000 </r>
       <r>   -19.0374     0.0000     4.0000 </r>
       <r>   -18.8514     0.0000    16.0000 </r>
       <r>   -18.6654     0.0000    94.0000 </r>
       <r>   -18.4793     0.0000   148.0000 </r>
       <r>   -18.2933     0.0000   156.0000 </r>
       <r>   -18.1072     0.0000   164.0000 </r>
       <r>   -17.9212     0.0000   164.0000 </r>
       <r>   -17.7352     0.0000   164.0000 </r>
       <r>   -17.5491     0.0000   164.0000 </r>
       <r>   -17.3631     0.0000   164.0000 </r>
       <r>   -17.1771     0.0000   164.0000 </r>
       <r>   -16.9910     0.0000   164.0000 </r>
       <r>   -16.8050     0.0000   164.0000 </r>
       <r>   -16.6189     0.0000   164.0000 </r>
       <r>   -16.4329     0.0000   164.0000 </r>
       <r>   -16.2469     0.0000   164.0000 </r>
       <r>   -16.0608     0.0000   164.0000 </r>
       <r>   -15.8748     0.0000   164.0000 </r>
       <r>   -15.6887     0.0000   164.0000 </r>
       <r>   -15.5027     0.0000   164.0000 </r>
       <r>   -15.3167     0.0000   164.0000 </r>
       <r>   -15.1306     0.0000   164.0000 </r>
       <r>   -14.9446     0.0000   164.0000 </r>
       <r>   -14.7586     0.0000   164.0000 </r>
       <r>   -14.5725     0.0000   164.0000 </r>
       <r>   -14.3865     0.0000   164.0000 </r>
       <r>   -14.2004     0.0000   164.0000 </r>
       <r>   -14.0144     0.0000   164.0000 </r>
       <r>   -13.8284     0.0000   164.0000 </r>
       <r>   -13.6423     0.0000   166.0000 </r>
       <r>   -13.4563     0.0000   168.0000 </r>
       <r>   -13.2702     0.0000   168.0000 </r>
       <r>   -13.0842   199.4869   169.8078 </r>
       <r>   -12.8982     0.0000   174.0000 </r>
       <r>   -12.7121   347.8887   187.7652 </r>
       <r>   -12.5261     0.0000   192.0000 </r>
       <r>   -12.3401     0.0000   192.0000 </r>
       <r>   -12.1540     0.0000   192.0000 </r>
       <r>   -11.9680     0.0000   196.0000 </r>
       <r>   -11.7819     0.0000   196.0000 </r>
       <r>   -11.5959     0.0000   196.0000 </r>
       <r>   -11.4099     0.0000   196.0000 </r>
       <r>   -11.2238     0.0000   196.0000 </r>
       <r>   -11.0378     0.0000   196.0000 </r>
       <r>   -10.8518     0.0000   196.0000 </r>
       <r>   -10.6657     0.0000   196.0000 </r>
       <r>   -10.4797     0.0000   196.0000 </r>
       <r>   -10.2936     0.0000   196.0000 </r>
       <r>   -10.1076     0.0000   196.0000 </r>
       <r>    -9.9216     0.0000   196.0000 </r>
       <r>    -9.7355     0.0000   196.0000 </r>
       <r>    -9.5495     0.0000   196.0000 </r>
       <r>    -9.3634     3.3982   196.0815 </r>
       <r>    -9.1774    15.0836   197.7106 </r>
       <r>    -8.9914     0.4187   200.0004 </r>
       <r>    -8.8053    13.5862   202.7058 </r>
       <r>    -8.6193    14.4098   205.0855 </r>
       <r>    -8.4333    23.0263   209.8100 </r>
       <r>    -8.2472    22.0140   213.0610 </r>
       <r>    -8.0612    23.2347   217.7551 </r>
       <r>    -7.8751    15.7127   221.3654 </r>
       <r>    -7.6891    21.7047   224.6252 </r>
       <r>    -7.5031     7.2879   227.7689 </r>
       <r>    -7.3170     0.0000   228.0000 </r>
       <r>    -7.1310     0.0000   228.0000 </r>
       <r>    -6.9449     0.0000   228.0000 </r>
       <r>    -6.7589     0.0000   228.0000 </r>
       <r>    -6.5729     0.0000   228.0000 </r>
       <r>    -6.3868     5.4357   228.1978 </r>
       <r>    -6.2008    23.4990   230.8682 </r>
       <r>    -6.0148    17.9913   235.0151 </r>
       <r>    -5.8287    31.2036   239.1943 </r>
       <r>    -5.6427    21.0648   243.8810 </r>
       <r>    -5.4566    20.0853   247.7115 </r>
       <r>    -5.2706    12.1607   250.8866 </r>
       <r>    -5.0846     4.0071   252.1293 </r>
       <r>    -4.8985     7.6011   253.3134 </r>
       <r>    -4.7125     9.5394   254.8566 </r>
       <r>    -4.5264     7.6358   256.6177 </r>
       <r>    -4.3404     7.2208   257.8326 </r>
       <r>    -4.1544     5.3309   259.0795 </r>
       <r>    -3.9683     2.0598   259.7651 </r>
       <r>    -3.7823     0.4928   259.9792 </r>
       <r>    -3.5963     0.0000   260.0000 </r>
       <r>    -3.4102     0.0000   260.0000 </r>
       <r>    -3.2242     0.0000   260.0000 </r>
       <r>    -3.0381     0.0000   260.0000 </r>
       <r>    -2.8521     0.0000   260.0000 </r>
       <r>    -2.6661     0.0000   260.0000 </r>
       <r>    -2.4800     0.0000   260.0000 </r>
       <r>    -2.2940     0.0000   260.0000 </r>
       <r>    -2.1079     0.0000   260.0000 </r>
       <r>    -1.9219     0.0000   260.0000 </r>
       <r>    -1.7359     0.0000   260.0000 </r>
       <r>    -1.5498     0.0000   260.0000 </r>
       <r>    -1.3638     4.9122   260.2392 </r>
       <r>    -1.1778    10.2911   261.7915 </r>
       <r>    -0.9917    14.6530   264.1500 </r>
       <r>    -0.8057     9.5160   266.4442 </r>
       <r>    -0.6196     4.5680   267.6841 </r>
       <r>    -0.4336    19.9500   270.8086 </r>
       <r>    -0.2476    30.4326   275.0023 </r>
       <r>    -0.0615    35.0915   282.2880 </r>
       <r>     0.1245    28.5230   288.0148 </r>
       <r>     0.3106    40.5763   294.8262 </r>
       <r>     0.4966    44.7469   302.8769 </r>
       <r>     0.6826    36.5915   309.4872 </r>
       <r>     0.8687    39.8987   315.7360 </r>
       <r>     1.0547    58.9658   324.8820 </r>
       <r>     1.2407    46.0144   334.9208 </r>
       <r>     1.4268    70.4673   344.0687 </r>
       <r>     1.6128    36.1211   352.5814 </r>
       <r>     1.7989    39.2234   359.5961 </r>
       <r>     1.9849    43.4364   366.6717 </r>
       <r>     2.1709    43.3930   374.7771 </r>
       <r>     2.3570    55.4844   383.6165 </r>
       <r>     2.5430    70.6634   394.6596 </r>
       <r>     2.7291    52.8605   405.0251 </r>
       <r>     2.9151    88.9932   417.3327 </r>
       <r>     3.1011    42.1844   428.7963 </r>
       <r>     3.2872    37.1889   436.4023 </r>
       <r>     3.4732    34.7261   444.1285 </r>
       <r>     3.6592    17.1986   448.2108 </r>
       <r>     3.8453     9.5442   450.5341 </r>
       <r>     4.0313     3.7443   451.7702 </r>
       <r>     4.2174     0.0000   452.0000 </r>
       <r>     4.4034     0.0000   452.0000 </r>
       <r>     4.5894     0.0000   452.0000 </r>
       <r>     4.7755     0.0000   452.0000 </r>
       <r>     4.9615     0.0000   452.0000 </r>
       <r>     5.1475     2.0912   452.1111 </r>
       <r>     5.3336     6.0447   452.8677 </r>
       <r>     5.5196     9.5464   454.3547 </r>
       <r>     5.7057    34.5167   456.7909 </r>
       <r>     5.8917    13.9648   460.5758 </r>
       <r>     6.0777    11.6320   462.9433 </r>
       <r>     6.2638    12.4574   465.1315 </r>
       <r>     6.4498    14.4264   467.6330 </r>
       <r>     6.6359    16.2582   470.4910 </r>
       <r>     6.8219    18.4815   473.7083 </r>
       <r>     7.0079    23.5971   477.5380 </r>
       <r>     7.1940    34.9180   482.9730 </r>
       <r>     7.3800    42.2750   490.5621 </r>
       <r>     7.5660    27.6124   495.5071 </r>
       <r>     7.7521    47.1767   503.2046 </r>
       <r>     7.9381    34.5273   512.1156 </r>
       <r>     8.1242    20.0808   516.8661 </r>
       <r>     8.3102    19.5690   520.4340 </r>
       <r>     8.4962    24.0103   524.4836 </r>
       <r>     8.6823    25.7450   529.0096 </r>
       <r>     8.8683    35.9230   536.9406 </r>
       <r>     9.0544    18.8734   542.1565 </r>
       <r>     9.2404    12.9836   545.0250 </r>
       <r>     9.4264    15.8322   547.6515 </r>
       <r>     9.6125    17.1110   550.8857 </r>
       <r>     9.7985     8.4295   553.1554 </r>
       <r>     9.9845    10.3729   554.8177 </r>
       <r>    10.1706    15.2287   557.2071 </r>
       <r>    10.3566     8.7848   559.7257 </r>
       <r>    10.5427     0.0000   560.0000 </r>
       <r>    10.7287     0.0000   560.0000 </r>
       <r>    10.9147     0.0000   560.0000 </r>
       <r>    11.1008     0.0000   560.0000 </r>
       <r>    11.2868     0.0000   560.0000 </r>
       <r>    11.4729     0.0000   560.0000 </r>
       <r>    11.6589     0.0000   560.0000 </r>
       <r>    11.8449     0.0000   560.0000 </r>
       <r>    12.0310     0.0000   560.0000 </r>
       <r>    12.2170     0.0000   560.0000 </r>
       <r>    12.4030     0.0000   560.0000 </r>
       <r>    12.5891     0.0000   560.0000 </r>
       <r>    12.7751     0.0000   560.0000 </r>
       <r>    12.9612     0.0000   560.0000 </r>
      </set>
     </set>
    </array>
   </total>
  </dos>
 </calculation>
 <structure name="finalpos" >
  <crystal>
   <varray name="basis" >
    <v>      11.17850000       0.00000000       0.00000000 </v>
    <v>       0.00000000       9.57460000       0.00000000 </v>
    <v>       0.00000000       0.00000000      11.18240000 </v>
   </varray>
   <i name="volume">   1196.84853820 </i>
   <varray name="rec_basis" >
    <v>       0.08945744       0.00000000       0.00000000 </v>
    <v>       0.00000000       0.10444301       0.00000000 </v>
    <v>       0.00000000       0.00000000       0.08942624 </v>
   </varray>
  </crystal>
  <varray name="positions" >
   <v>       0.12461000       0.99984000       0.18687000 </v>
   <v>       0.87461000       0.00017000       0.18687000 </v>
   <v>       0.37461000       0.00017000       0.18687000 </v>
   <v>       0.62539000       0.99984000       0.43687000 </v>
   <v>       0.87539000       0.00017000       0.43687000 </v>
   <v>       0.12461000       0.99984000       0.68687000 </v>
   <v>       0.37461000       0.00017000       0.68687000 </v>
   <v>       0.62539000       0.99984000       0.93687000 </v>
   <v>       0.87539000       0.00017000       0.93687000 </v>
   <v>       0.00013000       0.29519000       0.06281000 </v>
   <v>       0.25013000       0.70481000       0.06281000 </v>
   <v>       0.24987000       0.29519000       0.31282000 </v>
   <v>       0.49987000       0.70481000       0.31282000 </v>
   <v>       0.50013000       0.29519000       0.06281000 </v>
   <v>       0.75013000       0.70481000       0.06281000 </v>
   <v>       0.74987000       0.29519000       0.31282000 </v>
   <v>       0.99987000       0.70481000       0.31282000 </v>
   <v>       0.00013000       0.29519000       0.56281000 </v>
   <v>       0.25013000       0.70481000       0.56281000 </v>
   <v>       0.24987000       0.29519000       0.81282000 </v>
   <v>       0.49987000       0.70481000       0.81282000 </v>
   <v>       0.50013000       0.29519000       0.56281000 </v>
   <v>       0.75013000       0.70481000       0.56281000 </v>
   <v>       0.74987000       0.29519000       0.81282000 </v>
   <v>       0.99987000       0.70481000       0.81282000 </v>
   <v>       0.25005000       0.32677000       0.06286000 </v>
   <v>       0.00005000       0.67323000       0.06286000 </v>
   <v>       0.49995000       0.32677000       0.31286000 </v>
   <v>       0.24995000       0.67323000       0.31286000 </v>
   <v>       0.75005000       0.32677000       0.06286000 </v>
   <v>       0.50005000       0.67323000       0.06286000 </v>
   <v>       0.99995000       0.32677000       0.31286000 </v>
   <v>       0.74995000       0.67323000       0.31286000 </v>
   <v>       0.25005000       0.32677000       0.56286000 </v>
   <v>       0.00005000       0.67323000       0.56286000 </v>
   <v>       0.49995000       0.32677000       0.81286000 </v>
   <v>       0.24995000       0.67323000       0.81286000 </v>
   <v>       0.75005000       0.32677000       0.56286000 </v>
   <v>       0.50005000       0.67323000       0.56286000 </v>
   <v>       0.99995000       0.32677000       0.81286000 </v>
   <v>       0.74995000       0.67323000       0.81286000 </v>
   <v>       0.49987000       0.07798000       0.06246000 </v>
   <v>       0.24987000       0.92202000       0.06246000 </v>
   <v>       0.25013000       0.07798000       0.31246000 </v>
   <v>       0.00013000       0.92202000       0.31246000 </v>
   <v>       0.99987000       0.07798000       0.06246000 </v>
   <v>       0.74987000       0.92202000       0.06246000 </v>
   <v>       0.75013000       0.07798000       0.31246000 </v>
   <v>       0.50013000       0.92202000       0.31246000 </v>
   <v>       0.49987000       0.07798000       0.56246000 </v>
   <v>       0.24987000       0.92202000       0.56246000 </v>
   <v>       0.25013000       0.07798000       0.81246000 </v>
   <v>       0.00013000       0.92202000       0.81246000 </v>
   <v>       0.99987000       0.07798000       0.56246000 </v>
   <v>       0.74987000       0.92202000       0.56246000 </v>
   <v>       0.75013000       0.07798000       0.81246000 </v>
   <v>       0.50013000       0.92202000       0.81246000 </v>
  </varray>
 </structure>
</modeling>
